/*--------------------------------*- C++ -*----------------------------------*\
| =========                 |                                                 |
| \\      /  F ield         | OpenFOAM: The Open Source CFD Toolbox           |
|  \\    /   O peration     | Version:  2312                                  |
|   \\  /    A nd           | Website:  www.openfoam.com                      |
|    \\/     M anipulation  |                                                 |
\*---------------------------------------------------------------------------*/
FoamFile
{
    version     2.0;
    format      ascii;
    arch        "LSB;label=32;scalar=64";
    class       volScalarField;
    location    "0.003";
    object      rho;
}
// * * * * * * * * * * * * * * * * * * * * * * * * * * * * * * * * * * * * * //

dimensions      [1 -3 0 0 0 0 0];

internalField   nonuniform List<scalar> 
8000
(
1000.048394
1000.048394
1000.048394
1000.048394
1000.048394
1000.048394
1000.048394
1000.048394
1000.048394
1000.048394
1000.048394
1000.048394
1000.048394
1000.048394
1000.048394
1000.048394
1000.048394
1000.048394
1000.048394
1000.048394
1000.048394
1000.048394
1000.048394
1000.048394
1000.048394
1000.048394
1000.048394
1000.048394
1000.048394
1000.048394
1000.048394
1000.048394
1000.048394
1000.048394
1000.048394
1000.048394
1000.048394
1000.048394
1000.048394
1000.048394
1000.048394
1000.048394
1000.048394
1000.048394
1000.048394
1000.048394
1000.048394
1000.048394
1000.048394
1000.048394
1000.048394
1000.048394
1000.048394
1000.048394
1000.048394
1000.048394
1000.048394
1000.048394
1000.048394
1000.048394
1000.048394
1000.048394
1000.048394
1000.048394
1000.048394
1000.048394
1000.048394
1000.048394
1000.048394
1000.048394
1000.048394
1000.048394
1000.048394
1000.048394
1000.048394
1000.048394
1000.048394
1000.048394
1000.048394
1000.048394
1000.048394
1000.048394
1000.048394
1000.048394
1000.048394
1000.048394
1000.048394
1000.048394
1000.048394
1000.048394
1000.048394
1000.048394
1000.048394
1000.048394
1000.048394
1000.048394
1000.048394
1000.048394
1000.048394
1000.048394
1000.048394
1000.048394
1000.048394
1000.048394
1000.048394
1000.048394
1000.048394
1000.048394
1000.048394
1000.048394
1000.048394
1000.048394
1000.048394
1000.048394
1000.048394
1000.048394
1000.048394
1000.048394
1000.048394
1000.048394
1000.048394
1000.048394
1000.048394
1000.048394
1000.048394
1000.048394
1000.048394
1000.048394
1000.048394
1000.048394
1000.048394
1000.048394
1000.048394
1000.048394
1000.048394
1000.048394
1000.048394
1000.048394
1000.048394
1000.048394
1000.048394
1000.048394
1000.048394
1000.048394
1000.048394
1000.048394
1000.048394
1000.048394
1000.048394
1000.048394
1000.048394
1000.048394
1000.048394
1000.048394
1000.048394
1000.048394
1000.048394
1000.048394
1000.048394
1000.048394
1000.048394
1000.048394
1000.048394
1000.048394
1000.048394
1000.048394
1000.048394
1000.048394
1000.048394
1000.048394
1000.048394
1000.048394
1000.048394
1000.048394
1000.048394
1000.048394
1000.048394
1000.048394
1000.048394
1000.048394
1000.048394
1000.048394
1000.048394
1000.048394
1000.048394
1000.048394
1000.048394
1000.048394
1000.048394
1000.048394
1000.048394
1000.048394
1000.048394
1000.048394
1000.048394
1000.048394
1000.048394
1000.048394
1000.048394
1000.048394
1000.048394
1000.048394
1000.048394
1000.048394
1000.048394
1000.048394
1000.048394
1000.048394
1000.048394
1000.048394
1000.048394
1000.048394
1000.048394
1000.048394
1000.048394
1000.048394
1000.048394
1000.048394
1000.048394
1000.048394
1000.048394
1000.048394
1000.048394
1000.048394
1000.048394
1000.048394
1000.048394
1000.048394
1000.048394
1000.048394
1000.048394
1000.048394
1000.048394
1000.048394
1000.048394
1000.048394
1000.048394
1000.048394
1000.048394
1000.048394
1000.048394
1000.048394
1000.048394
1000.048394
1000.048394
1000.048394
1000.048394
1000.048394
1000.048394
1000.048394
1000.048394
1000.048394
1000.048394
1000.048394
1000.048394
1000.048394
1000.048394
1000.048394
1000.048394
1000.048394
1000.048394
1000.048394
1000.048394
1000.048394
1000.048394
1000.048394
1000.048394
1000.048394
1000.048394
1000.048394
1000.048394
1000.048394
1000.048394
1000.048394
1000.048394
1000.048394
1000.048394
1000.048394
1000.048394
1000.048394
1000.048394
1000.048394
1000.048394
1000.048394
1000.048394
1000.048394
1000.048394
1000.048394
1000.048394
1000.048394
1000.048394
1000.048394
1000.048394
1000.048394
1000.048394
1000.048394
1000.048394
1000.048394
1000.048394
1000.048394
1000.048394
1000.048394
1000.048394
1000.048394
1000.048394
1000.048394
1000.048393
1000.048393
1000.048393
1000.048393
1000.048393
1000.048393
1000.048393
1000.048393
1000.048393
1000.048393
1000.048393
1000.048393
1000.048393
1000.048393
1000.048393
1000.048393
1000.048393
1000.048393
1000.048393
1000.048393
1000.048393
1000.048393
1000.048392
1000.048392
1000.048392
1000.048392
1000.048392
1000.048392
1000.048392
1000.048392
1000.048392
1000.048391
1000.048391
1000.048391
1000.048391
1000.048391
1000.048391
1000.04839
1000.04839
1000.04839
1000.04839
1000.048389
1000.048389
1000.048389
1000.048389
1000.048388
1000.048388
1000.048388
1000.048387
1000.048387
1000.048386
1000.048386
1000.048386
1000.048385
1000.048385
1000.048384
1000.048383
1000.048383
1000.048382
1000.048382
1000.048381
1000.04838
1000.048379
1000.048379
1000.048378
1000.048377
1000.048376
1000.048375
1000.048374
1000.048373
1000.048372
1000.048371
1000.04837
1000.048368
1000.048367
1000.048366
1000.048364
1000.048363
1000.048361
1000.048359
1000.048357
1000.048356
1000.048354
1000.048352
1000.048349
1000.048347
1000.048345
1000.048342
1000.04834
1000.048337
1000.048334
1000.048332
1000.048328
1000.048325
1000.048322
1000.048319
1000.048315
1000.048311
1000.048307
1000.048303
1000.048299
1000.048294
1000.04829
1000.048285
1000.04828
1000.048275
1000.048269
1000.048263
1000.048257
1000.048251
1000.048245
1000.048238
1000.048231
1000.048224
1000.048217
1000.048209
1000.048201
1000.048192
1000.048183
1000.048174
1000.048165
1000.048155
1000.048145
1000.048135
1000.048124
1000.048112
1000.048101
1000.048088
1000.048076
1000.048063
1000.048049
1000.048035
1000.048021
1000.048006
1000.04799
1000.047974
1000.047958
1000.047941
1000.047923
1000.047904
1000.047886
1000.047866
1000.047846
1000.047825
1000.047803
1000.047781
1000.047758
1000.047734
1000.04771
1000.047685
1000.047659
1000.047632
1000.047604
1000.047576
1000.047547
1000.047517
1000.047486
1000.047454
1000.047421
1000.047387
1000.047352
1000.047316
1000.047279
1000.047242
1000.047203
1000.047163
1000.047122
1000.04708
1000.047036
1000.046992
1000.046946
1000.0469
1000.046852
1000.046802
1000.046752
1000.0467
1000.046647
1000.046593
1000.046537
1000.04648
1000.046422
1000.046363
1000.046301
1000.046239
1000.046175
1000.04611
1000.046043
1000.045975
1000.045905
1000.045834
1000.045761
1000.045687
1000.045611
1000.045533
1000.045454
1000.045373
1000.045291
1000.045207
1000.045122
1000.045035
1000.044946
1000.044856
1000.044764
1000.04467
1000.044575
1000.044477
1000.044379
1000.044278
1000.044176
1000.044072
1000.043967
1000.04386
1000.043751
1000.04364
1000.043528
1000.043414
1000.043298
1000.043181
1000.043062
1000.042942
1000.042819
1000.042695
1000.04257
1000.042443
1000.042314
1000.042184
1000.042052
1000.041919
1000.041784
1000.041647
1000.041509
1000.04137
1000.041229
1000.041087
1000.040944
1000.040799
1000.040653
1000.040505
1000.040356
1000.040206
1000.040055
1000.039903
1000.03975
1000.039595
1000.03944
1000.039284
1000.039127
1000.038968
1000.038809
1000.03865
1000.038489
1000.038328
1000.038167
1000.038004
1000.037842
1000.037679
1000.037515
1000.037351
1000.037187
1000.037023
1000.036859
1000.036694
1000.03653
1000.036366
1000.036202
1000.036038
1000.035875
1000.035712
1000.035549
1000.035388
1000.035226
1000.035066
1000.034906
1000.034748
1000.03459
1000.034434
1000.034278
1000.034124
1000.033972
1000.033821
1000.033671
1000.033523
1000.033377
1000.033233
1000.033091
1000.03295
1000.032812
1000.032676
1000.032543
1000.032412
1000.032283
1000.032158
1000.032035
1000.031914
1000.031797
1000.031683
1000.031572
1000.031464
1000.03136
1000.031259
1000.031162
1000.031068
1000.030978
1000.030892
1000.03081
1000.030733
1000.030659
1000.03059
1000.030525
1000.030464
1000.030408
1000.030357
1000.030311
1000.030269
1000.030233
1000.030201
1000.030175
1000.030153
1000.030138
1000.030127
1000.030122
1000.030122
1000.030127
1000.030138
1000.030155
1000.030177
1000.030206
1000.03024
1000.03028
1000.030326
1000.030379
1000.030437
1000.030502
1000.030574
1000.030651
1000.030735
1000.030826
1000.030924
1000.031027
1000.031138
1000.031255
1000.031379
1000.03151
1000.031647
1000.031791
1000.031943
1000.032101
1000.032266
1000.032437
1000.032616
1000.032801
1000.032994
1000.033193
1000.033399
1000.033612
1000.033832
1000.034058
1000.034292
1000.034532
1000.034779
1000.035033
1000.035293
1000.03556
1000.035833
1000.036113
1000.036399
1000.036692
1000.036991
1000.037296
1000.037607
1000.037924
1000.038247
1000.038576
1000.038911
1000.039251
1000.039597
1000.039948
1000.040305
1000.040666
1000.041033
1000.041405
1000.041781
1000.042162
1000.042548
1000.042937
1000.043331
1000.043729
1000.044131
1000.044537
1000.044946
1000.045359
1000.045774
1000.046193
1000.046615
1000.047039
1000.047465
1000.047894
1000.048325
1000.048758
1000.049193
1000.049629
1000.050066
1000.050505
1000.050944
1000.051384
1000.051824
1000.052265
1000.052706
1000.053146
1000.053586
1000.054026
1000.054465
1000.054902
1000.055338
1000.055773
1000.056206
1000.056637
1000.057067
1000.057493
1000.057918
1000.058339
1000.058758
1000.059173
1000.059585
1000.059993
1000.060398
1000.060799
1000.061195
1000.061587
1000.061975
1000.062358
1000.062736
1000.06311
1000.063478
1000.06384
1000.064197
1000.064549
1000.064894
1000.065234
1000.065567
1000.065895
1000.066216
1000.06653
1000.066838
1000.067139
1000.067434
1000.067721
1000.068001
1000.068274
1000.06854
1000.068799
1000.069051
1000.069295
1000.069532
1000.069761
1000.069982
1000.070196
1000.070402
1000.070601
1000.070792
1000.070975
1000.071151
1000.071319
1000.071479
1000.071631
1000.071776
1000.071914
1000.072043
1000.072165
1000.07228
1000.072387
1000.072486
1000.072579
1000.072664
1000.072741
1000.072812
1000.072875
1000.072932
1000.072981
1000.073024
1000.07306
1000.073089
1000.073112
1000.073129
1000.073139
1000.073144
1000.073142
1000.073136
1000.073123
1000.073105
1000.073081
1000.073052
1000.073018
1000.072979
1000.072935
1000.072886
1000.072832
1000.072774
1000.072712
1000.072645
1000.072574
1000.0725
1000.072421
1000.07234
1000.072255
1000.072166
1000.072074
1000.07198
1000.071883
1000.071783
1000.07168
1000.071576
1000.071469
1000.07136
1000.071249
1000.071137
1000.071023
1000.070908
1000.070791
1000.070674
1000.070556
1000.070436
1000.070317
1000.070196
1000.070076
1000.069955
1000.069834
1000.069713
1000.069592
1000.069472
1000.069352
1000.069232
1000.069113
1000.068995
1000.068878
1000.068762
1000.068647
1000.068533
1000.06842
1000.068309
1000.068199
1000.068091
1000.067984
1000.067879
1000.067776
1000.067674
1000.067575
1000.067477
1000.067381
1000.067287
1000.067195
1000.067105
1000.067018
1000.066932
1000.066849
1000.066767
1000.066688
1000.066611
1000.066537
1000.066464
1000.066394
1000.066326
1000.06626
1000.066196
1000.066134
1000.066075
1000.066018
1000.065962
1000.065909
1000.065858
1000.065809
1000.065761
1000.065716
1000.065673
1000.065631
1000.065591
1000.065553
1000.065517
1000.065482
1000.065449
1000.065417
1000.065386
1000.065358
1000.06533
1000.065303
1000.065278
1000.065254
1000.065231
1000.065209
1000.065187
1000.065167
1000.065147
1000.065128
1000.06511
1000.065092
1000.065074
1000.065057
1000.06504
1000.065023
1000.065007
1000.06499
1000.064973
1000.064957
1000.06494
1000.064923
1000.064905
1000.064887
1000.064869
1000.06485
1000.06483
1000.06481
1000.064789
1000.064767
1000.064744
1000.06472
1000.064696
1000.06467
1000.064643
1000.064614
1000.064584
1000.064553
1000.064521
1000.064487
1000.064452
1000.064415
1000.064376
1000.064336
1000.064293
1000.06425
1000.064204
1000.064156
1000.064107
1000.064056
1000.064002
1000.063947
1000.06389
1000.06383
1000.063769
1000.063705
1000.063639
1000.063571
1000.063501
1000.063429
1000.063354
1000.063277
1000.063198
1000.063117
1000.063033
1000.062948
1000.06286
1000.062769
1000.062677
1000.062582
1000.062485
1000.062385
1000.062284
1000.06218
1000.062074
1000.061966
1000.061856
1000.061743
1000.061629
1000.061512
1000.061393
1000.061272
1000.061149
1000.061024
1000.060898
1000.060769
1000.060638
1000.060505
1000.060371
1000.060235
1000.060097
1000.059957
1000.059815
1000.059672
1000.059528
1000.059381
1000.059233
1000.059084
1000.058933
1000.058781
1000.058628
1000.058473
1000.058317
1000.05816
1000.058001
1000.057842
1000.057682
1000.05752
1000.057358
1000.057194
1000.05703
1000.056865
1000.056699
1000.056533
1000.056366
1000.056198
1000.05603
1000.055861
1000.055692
1000.055522
1000.055352
1000.055182
1000.055012
1000.054841
1000.05467
1000.0545
1000.054329
1000.054158
1000.053987
1000.053816
1000.053646
1000.053475
1000.053305
1000.053135
1000.052966
1000.052797
1000.052628
1000.05246
1000.052293
1000.052125
1000.051959
1000.051793
1000.051628
1000.051464
1000.0513
1000.051137
1000.050975
1000.050814
1000.050654
1000.050495
1000.050336
1000.050179
1000.050023
1000.049868
1000.049713
1000.049561
1000.049409
1000.049258
1000.049109
1000.048961
1000.048814
1000.048668
1000.048524
1000.048381
1000.04824
1000.0481
1000.047961
1000.047824
1000.047688
1000.047554
1000.047421
1000.04729
1000.04716
1000.047032
1000.046906
1000.04678
1000.046657
1000.046535
1000.046415
1000.046296
1000.04618
1000.046064
1000.045951
1000.045839
1000.045728
1000.04562
1000.045513
1000.045408
1000.045305
1000.045203
1000.045103
1000.045005
1000.044908
1000.044813
1000.04472
1000.044629
1000.04454
1000.044452
1000.044366
1000.044281
1000.044199
1000.044118
1000.044039
1000.043962
1000.043886
1000.043812
1000.04374
1000.04367
1000.043601
1000.043534
1000.043469
1000.043406
1000.043344
1000.043284
1000.043225
1000.043169
1000.043114
1000.04306
1000.043008
1000.042958
1000.04291
1000.042863
1000.042817
1000.042774
1000.042732
1000.042691
1000.042652
1000.042615
1000.042579
1000.042544
1000.042512
1000.04248
1000.04245
1000.042422
1000.042395
1000.042369
1000.042345
1000.042322
1000.0423
1000.04228
1000.042261
1000.042244
1000.042227
1000.042212
1000.042199
1000.042186
1000.042175
1000.042165
1000.042156
1000.042148
1000.042141
1000.042136
1000.042131
1000.042128
1000.042125
1000.042124
1000.042123
1000.042124
1000.042125
1000.042127
1000.04213
1000.042134
1000.042139
1000.042144
1000.042151
1000.042158
1000.042165
1000.042174
1000.042183
1000.042193
1000.042204
1000.042215
1000.042227
1000.042239
1000.042252
1000.042265
1000.042279
1000.042293
1000.042308
1000.042323
1000.042339
1000.042355
1000.042371
1000.042387
1000.042404
1000.042421
1000.042439
1000.042456
1000.042474
1000.042492
1000.04251
1000.042528
1000.042546
1000.042564
1000.042582
1000.042601
1000.042619
1000.042637
1000.042655
1000.042673
1000.042691
1000.042709
1000.042726
1000.042744
1000.042761
1000.042778
1000.042795
1000.042811
1000.042827
1000.042843
1000.042858
1000.042874
1000.042888
1000.042903
1000.042917
1000.04293
1000.042943
1000.042956
1000.042968
1000.042979
1000.042991
1000.043001
1000.043011
1000.043021
1000.043029
1000.043038
1000.043045
1000.043053
1000.043059
1000.043065
1000.04307
1000.043075
1000.043079
1000.043082
1000.043085
1000.043086
1000.043088
1000.043088
1000.043088
1000.043087
1000.043086
1000.043084
1000.043081
1000.043077
1000.043073
1000.043068
1000.043062
1000.043056
1000.043049
1000.043041
1000.043032
1000.043023
1000.043013
1000.043002
1000.04299
1000.042978
1000.042965
1000.042952
1000.042937
1000.042922
1000.042906
1000.04289
1000.042873
1000.042855
1000.042837
1000.042817
1000.042798
1000.042777
1000.042756
1000.042734
1000.042712
1000.042689
1000.042665
1000.042641
1000.042616
1000.042591
1000.042565
1000.042539
1000.042512
1000.042484
1000.042456
1000.042427
1000.042398
1000.042369
1000.042339
1000.042308
1000.042277
1000.042246
1000.042214
1000.042182
1000.042149
1000.042116
1000.042083
1000.042049
1000.042015
1000.041981
1000.041946
1000.041911
1000.041876
1000.04184
1000.041804
1000.041768
1000.041732
1000.041696
1000.041659
1000.041622
1000.041585
1000.041548
1000.041511
1000.041474
1000.041436
1000.041399
1000.041361
1000.041323
1000.041285
1000.041248
1000.04121
1000.041172
1000.041134
1000.041097
1000.041059
1000.041021
1000.040984
1000.040946
1000.040909
1000.040871
1000.040834
1000.040797
1000.04076
1000.040723
1000.040687
1000.04065
1000.040614
1000.040578
1000.040542
1000.040507
1000.040471
1000.040436
1000.040401
1000.040367
1000.040332
1000.040298
1000.040265
1000.040231
1000.040198
1000.040165
1000.040133
1000.040101
1000.040069
1000.040038
1000.040007
1000.039976
1000.039946
1000.039916
1000.039887
1000.039857
1000.039829
1000.039801
1000.039773
1000.039745
1000.039719
1000.039692
1000.039666
1000.03964
1000.039615
1000.039591
1000.039566
1000.039543
1000.039519
1000.039497
1000.039474
1000.039453
1000.039431
1000.039411
1000.03939
1000.03937
1000.039351
1000.039332
1000.039314
1000.039296
1000.039279
1000.039262
1000.039246
1000.03923
1000.039215
1000.039201
1000.039186
1000.039173
1000.03916
1000.039147
1000.039135
1000.039124
1000.039113
1000.039102
1000.039092
1000.039083
1000.039074
1000.039066
1000.039058
1000.039051
1000.039044
1000.039038
1000.039032
1000.039027
1000.039022
1000.039018
1000.039014
1000.039011
1000.039008
1000.039006
1000.039005
1000.039003
1000.039003
1000.039003
1000.039003
1000.039004
1000.039005
1000.039007
1000.039009
1000.039012
1000.039015
1000.039018
1000.039022
1000.039027
1000.039032
1000.039038
1000.039043
1000.03905
1000.039057
1000.039064
1000.039072
1000.03908
1000.039088
1000.039097
1000.039107
1000.039117
1000.039127
1000.039138
1000.039149
1000.03916
1000.039172
1000.039184
1000.039197
1000.03921
1000.039224
1000.039237
1000.039252
1000.039266
1000.039281
1000.039296
1000.039312
1000.039328
1000.039344
1000.039361
1000.039378
1000.039395
1000.039413
1000.039431
1000.039449
1000.039467
1000.039486
1000.039505
1000.039525
1000.039544
1000.039564
1000.039585
1000.039605
1000.039626
1000.039647
1000.039668
1000.03969
1000.039711
1000.039733
1000.039756
1000.039778
1000.039801
1000.039824
1000.039847
1000.03987
1000.039893
1000.039917
1000.039941
1000.039965
1000.039989
1000.040013
1000.040038
1000.040063
1000.040087
1000.040112
1000.040138
1000.040163
1000.040188
1000.040214
1000.040239
1000.040265
1000.040291
1000.040317
1000.040343
1000.04037
1000.040396
1000.040422
1000.040449
1000.040475
1000.040502
1000.040529
1000.040556
1000.040583
1000.04061
1000.040637
1000.040664
1000.040691
1000.040718
1000.040745
1000.040773
1000.0408
1000.040827
1000.040855
1000.040882
1000.04091
1000.040937
1000.040965
1000.040993
1000.04102
1000.041048
1000.041075
1000.041103
1000.041131
1000.041158
1000.041186
1000.041214
1000.041241
1000.041269
1000.041297
1000.041324
1000.041352
1000.04138
1000.041407
1000.041435
1000.041463
1000.04149
1000.041518
1000.041546
1000.041573
1000.041601
1000.041629
1000.041656
1000.041684
1000.041711
1000.041739
1000.041766
1000.041794
1000.041821
1000.041849
1000.041876
1000.041904
1000.041931
1000.041959
1000.041986
1000.042013
1000.042041
1000.042068
1000.042095
1000.042123
1000.04215
1000.042178
1000.042205
1000.042232
1000.04226
1000.042287
1000.042314
1000.042341
1000.042369
1000.042396
1000.042424
1000.042451
1000.042478
1000.042506
1000.042533
1000.04256
1000.042588
1000.042615
1000.042643
1000.04267
1000.042698
1000.042725
1000.042753
1000.04278
1000.042808
1000.042835
1000.042863
1000.042891
1000.042919
1000.042946
1000.042974
1000.043002
1000.04303
1000.043058
1000.043086
1000.043114
1000.043142
1000.043171
1000.043199
1000.043227
1000.043256
1000.043284
1000.043313
1000.043341
1000.04337
1000.043399
1000.043428
1000.043457
1000.043486
1000.043515
1000.043544
1000.043574
1000.043603
1000.043633
1000.043662
1000.043692
1000.043722
1000.043752
1000.043782
1000.043812
1000.043843
1000.043873
1000.043904
1000.043934
1000.043965
1000.043996
1000.044027
1000.044058
1000.04409
1000.044121
1000.044153
1000.044184
1000.044216
1000.044248
1000.044281
1000.044313
1000.044345
1000.044378
1000.044411
1000.044444
1000.044477
1000.04451
1000.044543
1000.044577
1000.044611
1000.044644
1000.044678
1000.044713
1000.044747
1000.044781
1000.044816
1000.044851
1000.044886
1000.044921
1000.044956
1000.044991
1000.045027
1000.045063
1000.045099
1000.045135
1000.045171
1000.045207
1000.045244
1000.04528
1000.045317
1000.045354
1000.045391
1000.045428
1000.045466
1000.045503
1000.045541
1000.045579
1000.045617
1000.045655
1000.045693
1000.045732
1000.04577
1000.045809
1000.045848
1000.045887
1000.045926
1000.045965
1000.046004
1000.046044
1000.046083
1000.046123
1000.046162
1000.046202
1000.046242
1000.046282
1000.046323
1000.046363
1000.046403
1000.046444
1000.046484
1000.046525
1000.046566
1000.046606
1000.046647
1000.046688
1000.046729
1000.04677
1000.046811
1000.046853
1000.046894
1000.046935
1000.046977
1000.047018
1000.047059
1000.047101
1000.047142
1000.047184
1000.047225
1000.047267
1000.047309
1000.04735
1000.047392
1000.047434
1000.047475
1000.047517
1000.047558
1000.0476
1000.047642
1000.047683
1000.047725
1000.047766
1000.047808
1000.047849
1000.047891
1000.047932
1000.047974
1000.048015
1000.048056
1000.048098
1000.048139
1000.04818
1000.048221
1000.048262
1000.048303
1000.048344
1000.048385
1000.048426
1000.048466
1000.048507
1000.048547
1000.048588
1000.048628
1000.048668
1000.048708
1000.048748
1000.048788
1000.048828
1000.048868
1000.048908
1000.048947
1000.048986
1000.049026
1000.049065
1000.049104
1000.049143
1000.049182
1000.049221
1000.049259
1000.049298
1000.049336
1000.049374
1000.049412
1000.04945
1000.049488
1000.049526
1000.049563
1000.0496
1000.049638
1000.049675
1000.049712
1000.049749
1000.049785
1000.049822
1000.049858
1000.049894
1000.04993
1000.049966
1000.050002
1000.050038
1000.050073
1000.050108
1000.050143
1000.050178
1000.050213
1000.050248
1000.050282
1000.050317
1000.050351
1000.050385
1000.050419
1000.050452
1000.050486
1000.050519
1000.050552
1000.050586
1000.050618
1000.050651
1000.050684
1000.050716
1000.050748
1000.05078
1000.050812
1000.050844
1000.050875
1000.050906
1000.050937
1000.050968
1000.050999
1000.05103
1000.05106
1000.051091
1000.051121
1000.051151
1000.05118
1000.05121
1000.051239
1000.051268
1000.051297
1000.051326
1000.051355
1000.051384
1000.051412
1000.05144
1000.051468
1000.051496
1000.051523
1000.051551
1000.051578
1000.051605
1000.051632
1000.051659
1000.051685
1000.051712
1000.051738
1000.051764
1000.05179
1000.051815
1000.051841
1000.051866
1000.051891
1000.051916
1000.051941
1000.051966
1000.05199
1000.052014
1000.052038
1000.052062
1000.052086
1000.05211
1000.052133
1000.052156
1000.052179
1000.052202
1000.052225
1000.052247
1000.05227
1000.052292
1000.052314
1000.052336
1000.052358
1000.052379
1000.052401
1000.052422
1000.052443
1000.052464
1000.052485
1000.052506
1000.052526
1000.052547
1000.052567
1000.052587
1000.052607
1000.052627
1000.052647
1000.052666
1000.052685
1000.052705
1000.052724
1000.052743
1000.052762
1000.05278
1000.052799
1000.052818
1000.052836
1000.052854
1000.052872
1000.05289
1000.052908
1000.052926
1000.052944
1000.052961
1000.052979
1000.052996
1000.053013
1000.05303
1000.053047
1000.053064
1000.053081
1000.053098
1000.053115
1000.053131
1000.053148
1000.053164
1000.053181
1000.053197
1000.053213
1000.053229
1000.053245
1000.053261
1000.053277
1000.053293
1000.053308
1000.053324
1000.05334
1000.053355
1000.053371
1000.053386
1000.053401
1000.053417
1000.053432
1000.053447
1000.053462
1000.053477
1000.053492
1000.053507
1000.053522
1000.053537
1000.053551
1000.053566
1000.053581
1000.053595
1000.05361
1000.053624
1000.053639
1000.053653
1000.053667
1000.053681
1000.053696
1000.05371
1000.053724
1000.053738
1000.053752
1000.053766
1000.05378
1000.053793
1000.053807
1000.053821
1000.053834
1000.053848
1000.053861
1000.053875
1000.053888
1000.053901
1000.053914
1000.053927
1000.05394
1000.053953
1000.053966
1000.053979
1000.053991
1000.054004
1000.054016
1000.054029
1000.054041
1000.054053
1000.054065
1000.054077
1000.054089
1000.0541
1000.054112
1000.054123
1000.054135
1000.054146
1000.054157
1000.054168
1000.054178
1000.054189
1000.0542
1000.05421
1000.05422
1000.05423
1000.05424
1000.054249
1000.054259
1000.054268
1000.054277
1000.054286
1000.054295
1000.054304
1000.054312
1000.05432
1000.054328
1000.054336
1000.054344
1000.054351
1000.054358
1000.054365
1000.054372
1000.054379
1000.054385
1000.054391
1000.054397
1000.054403
1000.054408
1000.054413
1000.054418
1000.054423
1000.054427
1000.054432
1000.054436
1000.054439
1000.054443
1000.054446
1000.054449
1000.054452
1000.054454
1000.054456
1000.054458
1000.05446
1000.054462
1000.054463
1000.054464
1000.054465
1000.054465
1000.054465
1000.054465
1000.054465
1000.054465
1000.054464
1000.054463
1000.054462
1000.054461
1000.054459
1000.054457
1000.054455
1000.054453
1000.05445
1000.054448
1000.054445
1000.054441
1000.054438
1000.054434
1000.05443
1000.054426
1000.054422
1000.054418
1000.054413
1000.054408
1000.054403
1000.054398
1000.054393
1000.054387
1000.054382
1000.054376
1000.05437
1000.054364
1000.054357
1000.054351
1000.054345
1000.054338
1000.054331
1000.054324
1000.054317
1000.05431
1000.054303
1000.054295
1000.054288
1000.054281
1000.054273
1000.054265
1000.054258
1000.05425
1000.054242
1000.054234
1000.054226
1000.054218
1000.05421
1000.054202
1000.054194
1000.054186
1000.054178
1000.05417
1000.054162
1000.054154
1000.054146
1000.054138
1000.05413
1000.054122
1000.054114
1000.054106
1000.054098
1000.05409
1000.054083
1000.054075
1000.054067
1000.05406
1000.054052
1000.054045
1000.054037
1000.05403
1000.054022
1000.054015
1000.054008
1000.054001
1000.053994
1000.053987
1000.05398
1000.053973
1000.053966
1000.05396
1000.053953
1000.053947
1000.05394
1000.053934
1000.053928
1000.053922
1000.053916
1000.05391
1000.053904
1000.053898
1000.053892
1000.053886
1000.053881
1000.053875
1000.05387
1000.053864
1000.053859
1000.053854
1000.053849
1000.053843
1000.053838
1000.053833
1000.053828
1000.053823
1000.053818
1000.053814
1000.053809
1000.053804
1000.053799
1000.053794
1000.05379
1000.053785
1000.05378
1000.053776
1000.053771
1000.053766
1000.053762
1000.053757
1000.053752
1000.053747
1000.053743
1000.053738
1000.053733
1000.053729
1000.053724
1000.053719
1000.053714
1000.053709
1000.053704
1000.053699
1000.053694
1000.053689
1000.053683
1000.053678
1000.053673
1000.053667
1000.053662
1000.053656
1000.05365
1000.053645
1000.053639
1000.053633
1000.053627
1000.05362
1000.053614
1000.053608
1000.053601
1000.053595
1000.053588
1000.053581
1000.053574
1000.053567
1000.053559
1000.053552
1000.053544
1000.053536
1000.053528
1000.05352
1000.053512
1000.053504
1000.053495
1000.053487
1000.053478
1000.053469
1000.05346
1000.05345
1000.053441
1000.053431
1000.053422
1000.053412
1000.053401
1000.053391
1000.053381
1000.05337
1000.053359
1000.053348
1000.053337
1000.053326
1000.053314
1000.053302
1000.05329
1000.053278
1000.053266
1000.053254
1000.053241
1000.053229
1000.053216
1000.053203
1000.053189
1000.053176
1000.053162
1000.053149
1000.053135
1000.053121
1000.053106
1000.053092
1000.053078
1000.053063
1000.053048
1000.053033
1000.053018
1000.053003
1000.052987
1000.052972
1000.052956
1000.05294
1000.052924
1000.052908
1000.052892
1000.052876
1000.052859
1000.052843
1000.052826
1000.052809
1000.052792
1000.052775
1000.052758
1000.052741
1000.052723
1000.052706
1000.052688
1000.052671
1000.052653
1000.052635
1000.052618
1000.0526
1000.052582
1000.052564
1000.052546
1000.052527
1000.052509
1000.052491
1000.052473
1000.052454
1000.052436
1000.052417
1000.052399
1000.052381
1000.052362
1000.052343
1000.052325
1000.052306
1000.052288
1000.052269
1000.05225
1000.052232
1000.052213
1000.052195
1000.052176
1000.052157
1000.052139
1000.05212
1000.052102
1000.052083
1000.052064
1000.052046
1000.052027
1000.052009
1000.051991
1000.051972
1000.051954
1000.051936
1000.051917
1000.051899
1000.051881
1000.051863
1000.051845
1000.051827
1000.051809
1000.051791
1000.051773
1000.051755
1000.051737
1000.051719
1000.051702
1000.051684
1000.051667
1000.051649
1000.051632
1000.051614
1000.051597
1000.05158
1000.051562
1000.051545
1000.051528
1000.051511
1000.051494
1000.051477
1000.05146
1000.051444
1000.051427
1000.05141
1000.051394
1000.051377
1000.051361
1000.051344
1000.051328
1000.051311
1000.051295
1000.051279
1000.051263
1000.051247
1000.05123
1000.051214
1000.051198
1000.051182
1000.051167
1000.051151
1000.051135
1000.051119
1000.051103
1000.051088
1000.051072
1000.051056
1000.051041
1000.051025
1000.05101
1000.050994
1000.050979
1000.050963
1000.050948
1000.050932
1000.050917
1000.050901
1000.050886
1000.050871
1000.050855
1000.05084
1000.050825
1000.050809
1000.050794
1000.050779
1000.050763
1000.050748
1000.050733
1000.050718
1000.050702
1000.050687
1000.050672
1000.050656
1000.050641
1000.050626
1000.05061
1000.050595
1000.05058
1000.050564
1000.050549
1000.050534
1000.050518
1000.050503
1000.050488
1000.050472
1000.050457
1000.050441
1000.050426
1000.05041
1000.050395
1000.050379
1000.050364
1000.050348
1000.050333
1000.050317
1000.050301
1000.050286
1000.05027
1000.050254
1000.050239
1000.050223
1000.050207
1000.050191
1000.050176
1000.05016
1000.050144
1000.050128
1000.050112
1000.050097
1000.050081
1000.050065
1000.050049
1000.050033
1000.050017
1000.050001
1000.049985
1000.049969
1000.049953
1000.049937
1000.049921
1000.049905
1000.049889
1000.049873
1000.049857
1000.049841
1000.049825
1000.049809
1000.049793
1000.049777
1000.049761
1000.049745
1000.049729
1000.049713
1000.049697
1000.049681
1000.049666
1000.04965
1000.049634
1000.049618
1000.049602
1000.049586
1000.04957
1000.049554
1000.049539
1000.049523
1000.049507
1000.049491
1000.049475