/*--------------------------------*- C++ -*----------------------------------*\
| =========                 |                                                 |
| \\      /  F ield         | OpenFOAM: The Open Source CFD Toolbox           |
|  \\    /   O peration     | Version:  2312                                  |
|   \\  /    A nd           | Website:  www.openfoam.com                      |
|    \\/     M anipulation  |                                                 |
\*---------------------------------------------------------------------------*/
FoamFile
{
    version     2.0;
    format      ascii;
    arch        "LSB;label=32;scalar=64";
    class       volScalarField;
    location    "0.003";
    object      T;
}
// * * * * * * * * * * * * * * * * * * * * * * * * * * * * * * * * * * * * * //

dimensions      [0 0 0 1 0 0 0];

internalField   nonuniform List<scalar> 
8000
(
298
298
298
298
298
298
298
298
298
298
298
298
298
298
298
298
297.9999999
297.9999999
297.9999999
297.9999998
297.9999998
297.9999997
297.9999997
297.9999997
297.9999996
297.9999996
297.9999996
297.9999995
297.9999995
297.9999995
297.9999995
297.9999995
297.9999995
297.9999995
297.9999995
297.9999995
297.9999995
297.9999995
297.9999995
297.9999995
297.9999995
297.9999995
297.9999995
297.9999995
297.9999995
297.9999995
297.9999995
297.9999995
297.9999995
297.9999995
297.9999995
297.9999995
297.9999995
297.9999995
297.9999995
297.9999995
297.9999995
297.9999995
297.9999995
297.9999995
297.9999995
297.9999995
297.9999995
297.9999995
297.9999995
297.9999995
297.9999995
297.9999995
297.9999995
297.9999995
297.9999995
297.9999995
297.9999995
297.9999995
297.9999995
297.9999995
297.9999995
297.9999995
297.9999995
297.9999995
297.9999995
297.9999995
297.9999995
297.9999995
297.9999995
297.9999995
297.9999995
297.9999995
297.9999995
297.9999995
297.9999995
297.9999995
297.9999995
297.9999995
297.9999995
297.9999995
297.9999995
297.9999995
297.9999995
297.9999995
297.9999995
297.9999995
297.9999995
297.9999995
297.9999995
297.9999995
297.9999995
297.9999995
297.9999995
297.9999995
297.9999995
297.9999995
297.9999995
297.9999995
297.9999995
297.9999995
297.9999995
297.9999995
297.9999995
297.9999995
297.9999995
297.9999995
297.9999995
297.9999995
297.9999995
297.9999995
297.9999995
297.9999995
297.9999995
297.9999995
297.9999995
297.9999995
297.9999995
297.9999995
297.9999995
297.9999995
297.9999994
297.9999994
297.9999994
297.9999994
297.9999994
297.9999994
297.9999995
297.9999994
297.9999994
297.9999995
297.9999994
297.9999995
297.9999995
297.9999995
297.9999995
297.9999994
297.9999994
297.9999994
297.9999994
297.9999994
297.9999994
297.9999994
297.9999994
297.9999994
297.9999994
297.9999994
297.9999994
297.9999994
297.9999994
297.9999994
297.9999994
297.9999994
297.9999994
297.9999994
297.9999994
297.9999994
297.9999994
297.9999994
297.9999994
297.9999994
297.9999994
297.9999994
297.9999994
297.9999994
297.9999994
297.9999994
297.9999994
297.9999994
297.9999994
297.9999994
297.9999994
297.9999994
297.9999994
297.9999994
297.9999994
297.9999994
297.9999994
297.9999994
297.9999994
297.9999994
297.9999994
297.9999994
297.9999994
297.9999994
297.9999994
297.9999994
297.9999994
297.9999994
297.9999994
297.9999994
297.9999994
297.9999994
297.9999994
297.9999994
297.9999994
297.9999994
297.9999994
297.9999994
297.9999994
297.9999994
297.9999994
297.9999994
297.9999994
297.9999994
297.9999995
297.9999995
297.9999995
297.9999995
297.9999995
297.9999995
297.9999995
297.9999995
297.9999995
297.9999995
297.9999995
297.9999995
297.9999995
297.9999995
297.9999995
297.9999995
297.9999995
297.9999995
297.9999995
297.9999995
297.9999995
297.9999995
297.9999995
297.9999995
297.9999995
297.9999995
297.9999995
297.9999995
297.9999995
297.9999995
297.9999994
297.9999994
297.9999994
297.9999994
297.9999994
297.9999994
297.9999994
297.9999994
297.9999994
297.9999994
297.9999994
297.9999994
297.9999994
297.9999994
297.9999994
297.9999994
297.9999994
297.9999994
297.9999994
297.9999994
297.9999994
297.9999994
297.9999994
297.9999994
297.9999994
297.9999994
297.9999994
297.9999994
297.9999994
297.9999994
297.9999994
297.9999994
297.9999994
297.9999994
297.9999994
297.9999994
297.9999994
297.9999994
297.9999994
297.9999994
297.9999994
297.9999994
297.9999994
297.9999994
297.9999994
297.9999994
297.9999994
297.9999994
297.9999994
297.9999994
297.9999994
297.9999994
297.9999993
297.9999993
297.9999993
297.9999993
297.9999993
297.9999993
297.9999993
297.9999993
297.9999993
297.9999993
297.9999992
297.9999992
297.9999992
297.9999992
297.9999992
297.9999992
297.9999991
297.9999991
297.9999991
297.9999991
297.999999
297.999999
297.999999
297.9999989
297.9999989
297.9999989
297.9999988
297.9999988
297.9999987
297.9999987
297.9999986
297.9999986
297.9999985
297.9999985
297.9999984
297.9999983
297.9999983
297.9999982
297.9999981
297.999998
297.9999979
297.9999978
297.9999977
297.9999976
297.9999975
297.9999974
297.9999973
297.9999971
297.999997
297.9999968
297.9999967
297.9999965
297.9999964
297.9999962
297.999996
297.9999958
297.9999956
297.9999954
297.9999951
297.9999949
297.9999946
297.9999943
297.999994
297.9999937
297.9999934
297.9999931
297.9999927
297.9999924
297.999992
297.9999916
297.9999911
297.9999907
297.9999902
297.9999897
297.9999892
297.9999887
297.9999881
297.9999875
297.9999869
297.9999862
297.9999855
297.9999848
297.999984
297.9999832
297.9999824
297.9999815
297.9999806
297.9999796
297.9999786
297.9999776
297.9999765
297.9999753
297.9999741
297.9999729
297.9999716
297.9999702
297.9999688
297.9999673
297.9999657
297.9999641
297.9999624
297.9999606
297.9999588
297.9999569
297.9999548
297.9999528
297.9999506
297.9999483
297.9999459
297.9999434
297.9999409
297.9999382
297.9999355
297.9999325
297.9999295
297.9999264
297.9999232
297.9999198
297.9999162
297.9999125
297.9999087
297.9999048
297.9999007
297.9998965
297.999892
297.9998874
297.9998827
297.9998777
297.9998726
297.9998673
297.9998618
297.9998561
297.9998502
297.999844
297.9998377
297.9998311
297.9998243
297.9998173
297.99981
297.9998024
297.9997946
297.9997866
297.9997783
297.9997697
297.9997608
297.9997516
297.9997421
297.9997323
297.9997222
297.9997116
297.9997009
297.9996898
297.9996783
297.9996665
297.9996543
297.9996417
297.9996288
297.9996155
297.9996017
297.9995875
297.9995729
297.9995579
297.9995424
297.9995266
297.9995103
297.9994933
297.9994761
297.9994583
297.99944
297.9994213
297.9994021
297.9993823
297.9993619
297.9993411
297.9993196
297.9992976
297.9992751
297.999252
297.9992283
297.9992041
297.9991793
297.9991538
297.9991277
297.999101
297.9990735
297.9990456
297.9990168
297.9989874
297.9989574
297.9989266
297.9988953
297.9988633
297.9988307
297.9987973
297.998763
297.998728
297.9986924
297.9986559
297.9986188
297.9985809
297.9985424
297.998503
297.9984629
297.9984221
297.9983806
297.998338
297.9982945
297.9982505
297.9982059
297.9981602
297.9981136
297.9980665
297.9980187
297.9979701
297.9979206
297.9978703
297.997819
297.9977671
297.9977145
297.9976608
297.9976062
297.9975512
297.9974955
297.997439
297.9973815
297.9973233
297.9972642
297.9972045
297.9971442
297.9970831
297.9970214
297.9969589
297.9968952
297.996831
297.996766
297.9967006
297.9966346
297.996568
297.9965006
297.9964326
297.996364
297.9962949
297.9962249
297.9961544
297.9960834
297.9960119
297.9959399
297.9958675
297.9957945
297.9957211
297.9956473
297.995573
297.9954983
297.9954234
297.9953481
297.9952725
297.9951966
297.9951204
297.995044
297.9949674
297.9948906
297.9948135
297.9947364
297.9946593
297.9945822
297.9945051
297.9944279
297.9943507
297.9942737
297.9941968
297.99412
297.9940435
297.9939673
297.9938914
297.9938157
297.9937403
297.9936654
297.9935909
297.993517
297.9934436
297.9933706
297.9932983
297.9932265
297.9931553
297.993085
297.9930156
297.9929471
297.9928794
297.9928127
297.992747
297.9926822
297.9926184
297.9925554
297.9924939
297.9924335
297.9923747
297.9923168
297.9922602
297.9922052
297.9921513
297.9920995
297.9920487
297.9919998
297.9919525
297.9919069
297.9918623
297.9918205
297.9917804
297.9917417
297.9917054
297.9916706
297.9916385
297.9916078
297.9915796
297.9915527
297.9915286
297.9915067
297.9914869
297.9914701
297.9914555
297.9914433
297.9914337
297.9914264
297.9914211
297.9914186
297.9914186
297.9914212
297.991426
297.9914341
297.9914445
297.9914575
297.9914738
297.9914928
297.9915147
297.9915391
297.9915666
297.9915973
297.9916309
297.9916675
297.991707
297.9917496
297.9917948
297.9918443
297.9918959
297.9919506
297.9920086
297.9920701
297.9921346
297.992203
297.9922741
297.9923484
297.9924255
297.992506
297.9925896
297.992677
297.9927669
297.9928601
297.9929579
297.9930582
297.9931617
297.9932674
297.9933761
297.9934891
297.9936057
297.9937247
297.9938474
297.9939729
297.9941012
297.9942321
297.9943656
297.9945032
297.9946445
297.9947879
297.9949343
297.9950826
297.9952339
297.995388
297.9955455
297.9957062
297.9958684
297.9960335
297.9962015
297.9963708
297.9965422
297.9967169
297.9968934
297.9970723
297.9972538
297.9974372
297.9976221
297.9978087
297.9979978
297.9981889
297.9983811
297.9985744
297.9987691
297.9989659
297.999164
297.9993631
297.9995634
297.9997646
297.9999675
298.0001707
298.0003746
298.0005795
298.0007849
298.0009907
298.0011971
298.0014036
298.001611
298.001818
298.0020247
298.0022313
298.0024378
298.0026447
298.0028511
298.0030565
298.003261
298.003465
298.0036684
298.0038709
298.0040725
298.0042729
298.0044719
298.0046696
298.0048662
298.0050615
298.0052556
298.0054476
298.0056375
298.0058254
298.0060115
298.006196
298.0063779
298.0065575
298.006735
298.00691
298.0070831
298.0072545
298.0074227
298.0075873
298.0077489
298.0079078
298.0080642
298.008218
298.008369
298.0085172
298.0086618
298.0088039
298.008942
298.0090768
298.0092083
298.0093369
298.0094614
298.0095822
298.0097003
298.009815
298.0099262
298.0100348
298.0101399
298.0102398
298.0103362
298.0104289
298.0105181
298.0106042
298.0106864
298.0107668
298.0108419
298.0109135
298.0109812
298.0110459
298.0111054
298.0111637
298.0112181
298.0112689
298.0113155
298.0113578
298.011397
298.0114335
298.011467
298.0114971
298.0115244
298.0115486
298.0115688
298.0115847
298.0115978
298.0116084
298.0116162
298.0116209
298.0116226
298.0116218
298.0116185
298.0116123
298.0116035
298.0115926
298.01158
298.0115637
298.0115457
298.0115248
298.0115021
298.0114772
298.0114498
298.0114204
298.0113886
298.011355
298.01132
298.0112843
298.0112463
298.0112059
298.0111639
298.0111205
298.0110761
298.0110301
298.0109831
298.0109355
298.0108873
298.0108373
298.0107862
298.0107336
298.0106802
298.0106264
298.0105725
298.0105183
298.010463
298.0104069
298.0103514
298.0102958
298.0102394
298.0101828
298.0101257
298.0100685
298.0100116
298.0099551
298.0098986
298.0098423
298.0097861
298.00973
298.0096744
298.0096197
298.0095657
298.0095119
298.0094584
298.0094054
298.0093529
298.0093012
298.0092502
298.0091998
298.0091503
298.0091017
298.009054
298.009007
298.008961
298.0089165
298.0088727
298.0088296
298.0087872
298.0087458
298.0087056
298.0086666
298.0086285
298.0085915
298.0085554
298.0085201
298.0084857
298.0084526
298.0084211
298.0083903
298.0083606
298.0083319
298.0083036
298.0082767
298.0082506
298.0082256
298.0082015
298.0081785
298.0081562
298.0081347
298.0081143
298.0080945
298.0080757
298.008058
298.008041
298.0080246
298.0080091
298.0079944
298.0079801
298.0079664
298.0079533
298.0079407
298.0079287
298.0079177
298.0079073
298.0078971
298.007887
298.0078772
298.0078675
298.0078583
298.0078496
298.0078413
298.0078333
298.0078255
298.0078176
298.0078094
298.0078012
298.0077931
298.0077853
298.0077777
298.0077702
298.0077627
298.0077548
298.0077464
298.0077374
298.0077283
298.0077189
298.0077093
298.0076993
298.007689
298.0076781
298.0076669
298.0076552
298.0076429
298.0076303
298.0076171
298.0076033
298.0075887
298.0075736
298.0075579
298.0075413
298.007524
298.0075056
298.0074863
298.0074663
298.0074459
298.0074246
298.0074027
298.0073794
298.0073552
298.00733
298.007304
298.0072769
298.0072489
298.0072202
298.0071902
298.0071596
298.0071273
298.0070943
298.0070601
298.007025
298.0069889
298.0069521
298.006914
298.0068751
298.0068347
298.0067931
298.0067504
298.0067069
298.0066625
298.0066174
298.006571
298.0065239
298.0064751
298.0064251
298.0063737
298.0063212
298.0062683
298.0062146
298.0061601
298.0061047
298.0060482
298.0059904
298.0059318
298.005872
298.0058114
298.0057498
298.0056875
298.0056244
298.0055604
298.0054956
298.0054303
298.0053639
298.0052966
298.0052281
298.0051593
298.00509
298.0050201
298.0049496
298.004878
298.0048062
298.0047334
298.0046598
298.0045857
298.0045112
298.0044364
298.004361
298.0042852
298.0042091
298.0041327
298.0040555
298.0039778
298.0038998
298.0038218
298.0037434
298.0036646
298.0035855
298.0035063
298.0034269
298.0033473
298.0032676
298.0031876
298.0031074
298.0030271
298.0029469
298.0028667
298.0027864
298.0027061
298.0026261
298.0025461
298.0024663
298.0023864
298.0023063
298.0022262
298.0021463
298.0020669
298.0019879
298.0019092
298.0018307
298.0017526
298.0016745
298.0015966
298.0015186
298.001441
298.0013639
298.0012875
298.0012117
298.0011364
298.0010612
298.0009861
298.0009115
298.0008374
298.0007638
298.0006908
298.0006186
298.0005473
298.0004765
298.0004064
298.0003365
298.0002667
298.0001971
298.0001282
298.0000601
297.999993
297.9999267
297.9998612
297.9997965
297.9997321
297.9996683
297.9996051
297.9995425
297.9994809
297.9994202
297.9993601
297.9993008
297.9992419
297.999184
297.9991268
297.9990701
297.999014
297.9989591
297.998905
297.9988518
297.9987995
297.9987479
297.9986972
297.9986469
297.9985973
297.9985484
297.9985002
297.9984534
297.9984074
297.9983625
297.9983184
297.9982749
297.9982322
297.9981898
297.9981481
297.9981075
297.998068
297.9980293
297.9979914
297.9979544
297.9979181
297.9978825
297.9978476
297.9978136
297.9977807
297.9977486
297.9977174
297.9976868
297.9976571
297.997628
297.9975998
297.9975722
297.9975455
297.9975199
297.9974947
297.9974703
297.9974467
297.997424
297.997402
297.9973808
297.9973601
297.9973404
297.9973212
297.997303
297.9972856
297.9972687
297.9972525
297.997237
297.9972223
297.9972082
297.9971947
297.9971821
297.9971701
297.9971587
297.997148
297.9971376
297.9971282
297.9971195
297.9971112
297.9971035
297.9970965
297.99709
297.9970841
297.9970788
297.997074
297.99707
297.9970664
297.997063
297.9970605
297.9970584
297.9970567
297.9970555
297.9970548
297.9970547
297.9970549
297.9970555
297.9970564
297.9970577
297.9970595
297.9970616
297.9970641
297.9970669
297.99707
297.997074
297.9970784
297.9970831
297.997088
297.997093
297.997098
297.9971034
297.997109
297.997115
297.9971214
297.9971278
297.9971343
297.9971412
297.9971485
297.997156
297.9971637
297.9971714
297.9971791
297.9971869
297.9971947
297.9972026
297.9972106
297.9972188
297.9972272
297.9972358
297.9972443
297.9972529
297.9972615
297.99727
297.9972787
297.9972874
297.997296
297.9973046
297.997313
297.9973214
297.9973298
297.9973383
297.9973465
297.9973546
297.9973624
297.9973701
297.9973777
297.9973851
297.9973925
297.9973997
297.9974068
297.9974135
297.99742
297.9974263
297.9974327
297.997439
297.9974454
297.9974514
297.9974571
297.9974625
297.9974676
297.9974723
297.9974766
297.9974808
297.9974846
297.997488
297.9974911
297.9974939
297.9974963
297.9974985
297.9975006
297.9975025
297.9975043
297.9975059
297.9975071
297.9975079
297.9975082
297.9975082
297.9975077
297.9975069
297.9975058
297.9975044
297.9975028
297.9975008
297.9974985
297.9974959
297.9974929
297.9974894
297.9974855
297.9974814
297.9974769
297.997472
297.9974669
297.9974616
297.9974559
297.99745
297.9974438
297.9974371
297.9974301
297.9974225
297.9974148
297.9974067
297.9973983
297.9973897
297.9973809
297.9973716
297.997362
297.9973521
297.9973417
297.9973311
297.9973202
297.9973091
297.9972978
297.9972861
297.9972742
297.997262
297.9972497
297.9972372
297.9972243
297.997211
297.9971974
297.9971835
297.9971694
297.9971552
297.9971409
297.9971266
297.9971121
297.9970973
297.9970823
297.9970668
297.997051
297.9970352
297.9970193
297.9970034
297.9969873
297.9969712
297.996955
297.9969387
297.9969223
297.9969056
297.9968888
297.9968716
297.9968541
297.9968365
297.996819
297.9968016
297.9967842
297.9967668
297.9967494
297.9967319
297.9967144
297.9966969
297.9966794
297.9966618
297.996644
297.996626
297.9966078
297.9965896
297.9965717
297.996554
297.9965366
297.9965193
297.996502
297.9964847
297.9964671
297.9964493
297.9964315
297.9964138
297.9963963
297.9963791
297.9963622
297.9963455
297.996329
297.9963125
297.996296
297.9962794
297.9962628
297.9962462
297.9962298
297.9962135
297.9961974
297.9961814
297.9961657
297.9961503
297.9961351
297.99612
297.9961051
297.9960903
297.9960757
297.9960611
297.9960466
297.9960323
297.9960183
297.9960044
297.9959906
297.9959771
297.9959636
297.9959504
297.9959374
297.9959248
297.9959124
297.9959004
297.9958886
297.995877
297.9958657
297.9958545
297.9958434
297.9958324
297.9958214
297.9958106
297.9958001
297.99579
297.9957803
297.9957709
297.9957618
297.9957529
297.9957441
297.9957356
297.9957272
297.9957189
297.9957109
297.9957032
297.9956957
297.9956886
297.9956818
297.9956752
297.995669
297.995663
297.9956572
297.9956515
297.9956462
297.9956409
297.995636
297.9956313
297.9956269
297.9956227
297.9956187
297.9956151
297.9956117
297.9956086
297.9956058
297.9956031
297.9956007
297.9955985
297.9955965
297.9955947
297.995593
297.9955916
297.9955905
297.9955898
297.9955894
297.9955893
297.9955893
297.9955896
297.99559
297.9955905
297.9955914
297.9955923
297.9955935
297.9955948
297.9955962
297.995598
297.9956001
297.9956025
297.9956053
297.9956083
297.9956115
297.9956148
297.9956182
297.9956217
297.9956254
297.9956293
297.9956335
297.9956378
297.9956424
297.9956473
297.9956524
297.9956576
297.9956629
297.9956685
297.9956742
297.9956801
297.9956863
297.9956928
297.9956994
297.9957063
297.9957133
297.9957203
297.9957273
297.9957345
297.9957419
297.9957495
297.9957573
297.9957653
297.9957735
297.9957818
297.9957903
297.9957989
297.9958076
297.9958164
297.9958253
297.9958344
297.9958436
297.9958531
297.9958627
297.9958724
297.9958821
297.9958918
297.9959016
297.9959115
297.9959217
297.995932
297.9959424
297.995953
297.9959637
297.9959745
297.9959853
297.9959962
297.9960073
297.9960185
297.9960298
297.9960412
297.9960526
297.9960641
297.9960756
297.9960871
297.9960987
297.9961104
297.9961222
297.9961341
297.9961461
297.996158
297.99617
297.9961821
297.9961941
297.9962062
297.9962184
297.9962307
297.9962431
297.9962555
297.996268
297.9962805
297.9962932
297.9963059
297.9963187
297.9963315
297.9963443
297.996357
297.9963696
297.9963822
297.9963948
297.9964073
297.99642
297.9964327
297.9964456
297.9964586
297.9964716
297.9964846
297.9964977
297.9965108
297.9965238
297.9965368
297.9965498
297.9965627
297.9965756
297.9965885
297.9966014
297.9966143
297.9966272
297.9966402
297.9966533
297.9966664
297.9966796
297.9966928
297.9967058
297.9967187
297.9967316
297.9967445
297.9967574
297.9967703
297.9967832
297.9967962
297.9968093
297.9968223
297.9968353
297.9968482
297.9968611
297.996874
297.9968869
297.9968998
297.9969127
297.9969257
297.9969386
297.9969515
297.9969644
297.9969774
297.9969904
297.9970034
297.9970163
297.9970291
297.9970418
297.9970545
297.9970672
297.9970799
297.9970927
297.9971055
297.9971184
297.9971314
297.9971443
297.9971572
297.9971701
297.9971829
297.9971957
297.9972085
297.9972213
297.9972341
297.997247
297.9972598
297.9972727
297.9972856
297.9972986
297.9973115
297.9973244
297.9973374
297.9973503
297.9973633
297.9973762
297.9973891
297.9974021
297.997415
297.9974279
297.9974409
297.997454
297.9974671
297.9974803
297.9974937
297.997507
297.9975202
297.9975335
297.9975467
297.9975599
297.9975732
297.9975865
297.9975998
297.9976131
297.9976265
297.99764
297.9976535
297.9976671
297.9976808
297.9976945
297.9977082
297.997722
297.9977358
297.9977496
297.9977635
297.9977774
297.9977914
297.9978054
297.9978195
297.9978336
297.9978478
297.9978621
297.9978764
297.9978907
297.9979051
297.9979196
297.9979341
297.9979487
297.9979634
297.9979781
297.9979929
297.9980077
297.9980227
297.9980376
297.9980527
297.9980678
297.998083
297.9980982
297.9981136
297.9981289
297.9981444
297.9981599
297.9981755
297.9981912
297.998207
297.9982228
297.9982387
297.9982546
297.9982707
297.9982868
297.998303
297.9983192
297.9983355
297.9983519
297.9983684
297.998385
297.9984016
297.9984183
297.9984351
297.9984519
297.9984689
297.9984859
297.9985029
297.9985201
297.9985373
297.9985546
297.9985719
297.9985893
297.9986068
297.9986244
297.998642
297.9986597
297.9986775
297.9986954
297.9987133
297.9987312
297.9987493
297.9987674
297.9987855
297.9988037
297.998822
297.9988404
297.9988588
297.9988772
297.9988957
297.9989143
297.9989329
297.9989516
297.9989703
297.9989891
297.9990079
297.9990268
297.9990457
297.9990647
297.9990837
297.9991027
297.9991218
297.9991409
297.9991601
297.9991793
297.9991985
297.9992178
297.999237
297.9992564
297.9992757
297.9992951
297.9993145
297.9993339
297.9993533
297.9993728
297.9993923
297.9994118
297.9994313
297.9994508
297.9994703
297.9994899
297.9995094
297.999529
297.9995485
297.9995681
297.9995876
297.9996072
297.9996267
297.9996463
297.9996658
297.9996853
297.9997048
297.9997244
297.9997438
297.9997633
297.9997828
297.9998022
297.9998216
297.999841
297.9998604
297.9998798
297.9998991
297.9999184
297.9999376
297.9999569
297.9999761
297.9999952
298.0000144
298.0000335
298.0000525
298.0000715
298.0000905
298.0001095
298.0001284
298.0001472
298.000166
298.0001848
298.0002035
298.0002221
298.0002408
298.0002593
298.0002778
298.0002963
298.0003147
298.000333
298.0003513
298.0003696
298.0003877
298.0004059
298.0004239
298.0004419
298.0004599
298.0004777
298.0004956
298.0005133
298.000531
298.0005486
298.0005662
298.0005837
298.0006011
298.0006184
298.0006357
298.0006529
298.0006701
298.0006871
298.0007042
298.0007211
298.000738
298.0007547
298.0007715
298.0007881
298.0008047
298.0008212
298.0008376
298.000854
298.0008703
298.0008865
298.0009026
298.0009186
298.0009346
298.0009505
298.0009663
298.000982
298.0009977
298.0010133
298.0010288
298.0010442
298.0010596
298.0010748
298.00109
298.0011051
298.0011202
298.0011351
298.00115
298.0011648
298.0011795
298.0011941
298.0012086
298.0012231
298.0012375
298.0012518
298.001266
298.0012801
298.0012942
298.0013081
298.001322
298.0013358
298.0013495
298.0013632
298.0013767
298.0013902
298.0014036
298.0014169
298.0014301
298.0014432
298.0014563
298.0014692
298.0014821
298.0014949
298.0015076
298.0015203
298.0015328
298.0015453
298.0015577
298.00157
298.0015822
298.0015943
298.0016063
298.0016183
298.0016302
298.001642
298.0016537
298.0016654
298.0016769
298.0016884
298.0016998
298.0017111
298.0017223
298.0017335
298.0017445
298.0017555
298.0017664
298.0017772
298.001788
298.0017987
298.0018093
298.0018199
298.0018303
298.0018407
298.001851
298.0018612
298.0018713
298.0018814
298.0018914
298.0019013
298.0019112
298.001921
298.0019307
298.0019403
298.0019499
298.0019594
298.0019688
298.0019782
298.0019875
298.0019967
298.0020059
298.002015
298.002024
298.002033
298.0020419
298.0020508
298.0020596
298.0020683
298.002077
298.0020857
298.0020942
298.0021027
298.0021112
298.0021196
298.002128
298.0021363
298.0021445
298.0021527
298.0021609
298.002169
298.002177
298.002185
298.002193
298.0022009
298.0022088
298.0022166
298.0022244
298.0022322
298.0022399
298.0022475
298.0022552
298.0022628
298.0022703
298.0022778
298.0022853
298.0022928
298.0023002
298.0023076
298.0023149
298.0023223
298.0023295
298.0023368
298.002344
298.0023512
298.0023584
298.0023655
298.0023726
298.0023797
298.0023868
298.0023938
298.0024008
298.0024078
298.0024147
298.0024216
298.0024285
298.0024354
298.0024423
298.0024491
298.0024559
298.0024626
298.0024694
298.0024761
298.0024828
298.0024894
298.0024961
298.0025027
298.0025092
298.0025158
298.0025223
298.0025288
298.0025353
298.0025417
298.0025481
298.0025545
298.0025609
298.0025672
298.0025734
298.0025797
298.0025859
298.0025921
298.0025982
298.0026043
298.0026103
298.0026164
298.0026223
298.0026283
298.0026341
298.00264
298.0026458
298.0026515
298.0026572
298.0026629
298.0026684
298.002674
298.0026795
298.0026849
298.0026903
298.0026956
298.0027008
298.002706
298.0027111
298.0027162
298.0027212
298.0027261
298.0027309
298.0027357
298.0027404
298.002745
298.0027495
298.002754
298.0027584
298.0027627
298.0027669
298.002771
298.0027751
298.002779
298.0027829
298.0027866
298.0027903
298.0027939
298.0027973
298.0028007
298.002804
298.0028072
298.0028102
298.0028132
298.0028161
298.0028188
298.0028215
298.002824
298.0028265
298.0028288
298.002831
298.0028331
298.0028351
298.0028369
298.0028387
298.0028403
298.0028418
298.0028432
298.0028445
298.0028457
298.0028467
298.0028477
298.0028485
298.0028492
298.0028498
298.0028503
298.0028506
298.0028508
298.002851
298.002851
298.0028509
298.0028507
298.0028503
298.0028499
298.0028494
298.0028487
298.002848
298.0028471
298.0028461
298.002845
298.0028438
298.0028425
298.0028411
298.0028396
298.002838
298.0028363
298.0028345
298.0028326
298.0028307
298.0028286
298.0028264
298.0028242
298.0028218
298.0028194
298.0028169
298.0028143
298.0028116
298.0028089
298.0028061
298.0028032
298.0028003
298.0027972
298.0027942
298.002791
298.0027878
298.0027846
298.0027813
298.0027779
298.0027745
298.0027711
298.0027676
298.0027641
298.0027605
298.002757
298.0027533
298.0027497
298.002746
298.0027423
298.0027386
298.0027349
298.0027311
298.0027274
298.0027236
298.0027199
298.0027161
298.0027123
298.0027085
298.0027047
298.002701
298.0026972
298.0026934
298.0026897
298.0026859
298.0026822
298.0026785
298.0026749
298.0026712
298.0026676
298.002664
298.0026604
298.0026568
298.0026533
298.0026498
298.0026463
298.0026429
298.0026395
298.0026361
298.0026328
298.0026295
298.0026262
298.002623
298.0026198
298.0026166
298.0026135
298.0026104
298.0026074
298.0026044
298.0026014
298.0025985
298.0025956
298.0025927
298.0025899
298.0025872
298.0025844
298.0025817
298.002579
298.0025764
298.0025738
298.0025712
298.0025687
298.0025662
298.0025637
298.0025613
298.0025588
298.0025564
298.0025541
298.0025517
298.0025494
298.0025471
298.0025448
298.0025425
298.0025403
298.002538
298.0025358
298.0025336
298.0025314
298.0025292
298.002527
298.0025248
298.0025226
298.0025204
298.0025182
298.002516
298.0025138
298.0025116
298.0025094
298.0025071
298.0025049
298.0025026
298.0025003
298.002498
298.0024957
298.0024933
298.0024909
298.0024885
298.0024861
298.0024837
298.0024812
298.0024787
298.0024762
298.0024736
298.002471
298.0024683
298.0024656
298.0024628
298.00246
298.0024571
298.0024542
298.0024512
298.0024482
298.0024451
298.0024419
298.0024387
298.0024355
298.0024322
298.0024288
298.0024254
298.0024218
298.0024183
298.0024146
298.0024109
298.0024071
298.0024033
298.0023994
298.0023954
298.0023913
298.0023872
298.0023829
298.0023787
298.0023743
298.0023698
298.0023653
298.0023607
298.002356
298.0023512
298.0023464
298.0023415
298.0023365
298.0023314
298.0023262
298.002321
298.0023156
298.0023102
298.0023047
298.0022991
298.0022935
298.0022878
298.0022819
298.002276
298.0022701
298.002264
298.0022579
298.0022516
298.0022453
298.002239
298.0022325
298.002226
298.0022194
298.0022127
298.002206
298.0021992
298.0021923
298.0021853
298.0021783
298.0021712
298.002164
298.0021568
298.0021494
298.0021421
298.0021346
298.0021271
298.0021196
298.002112
298.0021043
298.0020966
298.0020888
298.0020809
298.0020731
298.0020651
298.0020571
298.0020491
298.002041
298.0020328
298.0020247
298.0020164
298.0020082
298.0019999
298.0019915
298.0019832
298.0019748
298.0019663
298.0019578
298.0019493
298.0019408
298.0019323
298.0019237
298.0019151
298.0019065
298.0018979
298.0018892
298.0018805
298.0018718
298.001863
298.0018542
298.0018455
298.0018367
298.001828
298.0018193
298.0018106
298.0018019
298.0017932
298.0017845
298.0017759
298.0017672
298.0017585
298.0017498
298.001741
298.0017323
298.0017235
298.0017147
298.001706
298.0016973
298.0016886
298.0016799
298.0016713
298.0016627
298.0016542
298.0016457
298.0016371
298.0016286
298.0016202
298.0016117
298.0016033
298.0015948
298.0015864
298.001578
298.0015697
298.0015613
298.001553
298.0015447
298.0015365
298.0015283
298.0015201
298.0015119
298.0015038
298.0014957
298.0014876
298.0014796
298.0014715
298.0014635
298.0014555
298.0014476
298.0014397
298.0014318
298.0014239
298.0014161
298.0014083
298.0014005
298.0013928
298.0013851
298.0013774
298.0013697
298.001362
298.0013544
298.0013468
298.0013392
298.0013317
298.0013241
298.0013166
298.0013092
298.0013017
298.0012942
298.0012868
298.0012794
298.001272
298.0012646
298.0012573
298.0012499
298.0012426
298.0012353
298.001228
298.0012207
298.0012134
298.0012061
298.0011989
298.0011916
298.0011844
298.0011772
298.0011699
298.0011627
298.0011555
298.0011483
298.0011411
298.0011339
298.0011267
298.0011195
298.0011124
298.0011052
298.001098
298.0010908
298.0010837
298.0010765
298.0010693
298.0010621
298.0010549
298.0010477
298.0010405
298.0010333
298.0010261
298.0010189
298.0010117
298.0010045
298.0009972
298.00099
298.0009828
298.0009755
298.0009683
298.000961
298.0009538
298.0009465
298.0009392
298.0009319
298.0009246
298.0009173
298.00091
298.0009027
298.0008953
298.000888
298.0008806
298.0008733
298.0008659
298.0008585
298.0008511
298.0008437
298.0008363
298.0008289
298.0008215
298.0008141
298.0008066
298.0007992
298.0007917
298.0007843
298.0007768
298.0007693
298.0007619
298.0007544
298.0007469
298.0007394
298.0007319
298.0007244
298.0007169
298.0007094
298.0007019
298.0006944
298.0006869
298.0006793
298.0006718
298.0006643
298.0006568
298.0006493
298.0006418
298.0006343
298.0006268
298.0006193
298.0006118
298.0006043
298.0005968
298.0005893
298.0005818
298.0005743
298.0005669
298.0005594
298.000552
298.0005445
298.0005371
298.0005297
298.0005222
298.0005148
298.0005075
298.0005001
298.0004927
298.0004854
298.0004781
298.0004708
298.0004635
298.0004562
298.000449
298.0004417
298.0004345
298.0004273
298.0004201
298.0004129
298.0004058
298.0003986