/*--------------------------------*- C++ -*----------------------------------*\
| =========                 |                                                 |
| \\      /  F ield         | OpenFOAM: The Open Source CFD Toolbox           |
|  \\    /   O peration     | Version:  2312                                  |
|   \\  /    A nd           | Website:  www.openfoam.com                      |
|    \\/     M anipulation  |                                                 |
\*---------------------------------------------------------------------------*/
FoamFile
{
    version     2.0;
    format      ascii;
    arch        "LSB;label=32;scalar=64";
    class       volScalarField;
    location    "0.003";
    object      thermo:psiLiqEff;
}
// * * * * * * * * * * * * * * * * * * * * * * * * * * * * * * * * * * * * * //

dimensions      [-2 4 2 0 0 0 0];

internalField   nonuniform List<scalar> 
8000
(
4.839024988e-13
4.839024993e-13
4.839024995e-13
4.839024995e-13
4.839024994e-13
4.839024994e-13
4.839024994e-13
4.839024994e-13
4.839024994e-13
4.839024994e-13
4.839024994e-13
4.839024994e-13
4.839024995e-13
4.839024995e-13
4.839024995e-13
4.839024995e-13
4.839024995e-13
4.839024996e-13
4.839024996e-13
4.839024997e-13
4.839024998e-13
4.839024998e-13
4.839024999e-13
4.839025e-13
4.839025e-13
4.839025001e-13
4.839025001e-13
4.839025002e-13
4.839025002e-13
4.839025002e-13
4.839025003e-13
4.839025003e-13
4.839025003e-13
4.839025003e-13
4.839025003e-13
4.839025003e-13
4.839025003e-13
4.839025003e-13
4.839025003e-13
4.839025003e-13
4.839025003e-13
4.839025003e-13
4.839025003e-13
4.839025003e-13
4.839025003e-13
4.839025003e-13
4.839025003e-13
4.839025003e-13
4.839025003e-13
4.839025003e-13
4.839025003e-13
4.839025003e-13
4.839025003e-13
4.839025003e-13
4.839025003e-13
4.839025003e-13
4.839025003e-13
4.839025003e-13
4.839025003e-13
4.839025003e-13
4.839025003e-13
4.839025003e-13
4.839025003e-13
4.839025003e-13
4.839025003e-13
4.839025003e-13
4.839025003e-13
4.839025003e-13
4.839025003e-13
4.839025003e-13
4.839025003e-13
4.839025003e-13
4.839025003e-13
4.839025003e-13
4.839025003e-13
4.839025003e-13
4.839025003e-13
4.839025003e-13
4.839025003e-13
4.839025003e-13
4.839025003e-13
4.839025003e-13
4.839025003e-13
4.839025003e-13
4.839025003e-13
4.839025003e-13
4.839025003e-13
4.839025003e-13
4.839025003e-13
4.839025003e-13
4.839025003e-13
4.839025003e-13
4.839025003e-13
4.839025003e-13
4.839025003e-13
4.839025003e-13
4.839025003e-13
4.839025003e-13
4.839025003e-13
4.839025003e-13
4.839025003e-13
4.839025003e-13
4.839025003e-13
4.839025003e-13
4.839025003e-13
4.839025003e-13
4.839025003e-13
4.839025003e-13
4.839025003e-13
4.839025003e-13
4.839025003e-13
4.839025003e-13
4.839025003e-13
4.839025003e-13
4.839025003e-13
4.839025003e-13
4.839025003e-13
4.839025003e-13
4.839025003e-13
4.839025003e-13
4.839025003e-13
4.839025003e-13
4.839025003e-13
4.839025003e-13
4.839025003e-13
4.839025003e-13
4.839025003e-13
4.839025003e-13
4.839025003e-13
4.839025003e-13
4.839025003e-13
4.839025003e-13
4.839025003e-13
4.839025003e-13
4.839025003e-13
4.839025003e-13
4.839025003e-13
4.839025003e-13
4.839025003e-13
4.839025003e-13
4.839025003e-13
4.839025003e-13
4.839025003e-13
4.839025003e-13
4.839025003e-13
4.839025003e-13
4.839025003e-13
4.839025003e-13
4.839025003e-13
4.839025003e-13
4.839025003e-13
4.839025003e-13
4.839025003e-13
4.839025003e-13
4.839025004e-13
4.839025004e-13
4.839025004e-13
4.839025004e-13
4.839025004e-13
4.839025004e-13
4.839025004e-13
4.839025004e-13
4.839025004e-13
4.839025004e-13
4.839025004e-13
4.839025004e-13
4.839025004e-13
4.839025004e-13
4.839025004e-13
4.839025004e-13
4.839025004e-13
4.839025004e-13
4.839025004e-13
4.839025004e-13
4.839025004e-13
4.839025004e-13
4.839025004e-13
4.839025004e-13
4.839025004e-13
4.839025004e-13
4.839025004e-13
4.839025004e-13
4.839025005e-13
4.839025005e-13
4.839025005e-13
4.839025005e-13
4.839025005e-13
4.839025005e-13
4.839025005e-13
4.839025005e-13
4.839025005e-13
4.839025005e-13
4.839025005e-13
4.839025005e-13
4.839025005e-13
4.839025005e-13
4.839025005e-13
4.839025005e-13
4.839025005e-13
4.839025005e-13
4.839025005e-13
4.839025005e-13
4.839025005e-13
4.839025005e-13
4.839025005e-13
4.839025005e-13
4.839025005e-13
4.839025005e-13
4.839025004e-13
4.839025004e-13
4.839025004e-13
4.839025004e-13
4.839025004e-13
4.839025004e-13
4.839025004e-13
4.839025004e-13
4.839025004e-13
4.839025004e-13
4.839025004e-13
4.839025003e-13
4.839025003e-13
4.839025003e-13
4.839025003e-13
4.839025003e-13
4.839025003e-13
4.839025003e-13
4.839025003e-13
4.839025003e-13
4.839025003e-13
4.839025003e-13
4.839025003e-13
4.839025003e-13
4.839025003e-13
4.839025003e-13
4.839025003e-13
4.839025003e-13
4.839025003e-13
4.839025003e-13
4.839025003e-13
4.839025003e-13
4.839025003e-13
4.839025003e-13
4.839025003e-13
4.839025003e-13
4.839025003e-13
4.839025003e-13
4.839025003e-13
4.839025003e-13
4.839025003e-13
4.839025003e-13
4.839025003e-13
4.839025003e-13
4.839025004e-13
4.839025004e-13
4.839025004e-13
4.839025004e-13
4.839025004e-13
4.839025004e-13
4.839025004e-13
4.839025004e-13
4.839025004e-13
4.839025004e-13
4.839025004e-13
4.839025004e-13
4.839025004e-13
4.839025004e-13
4.839025004e-13
4.839025004e-13
4.839025004e-13
4.839025004e-13
4.839025004e-13
4.839025004e-13
4.839025004e-13
4.839025004e-13
4.839025004e-13
4.839025004e-13
4.839025004e-13
4.839025004e-13
4.839025004e-13
4.839025004e-13
4.839025004e-13
4.839025004e-13
4.839025004e-13
4.839025004e-13
4.839025004e-13
4.839025004e-13
4.839025004e-13
4.839025005e-13
4.839025005e-13
4.839025005e-13
4.839025005e-13
4.839025005e-13
4.839025005e-13
4.839025005e-13
4.839025005e-13
4.839025006e-13
4.839025006e-13
4.839025006e-13
4.839025006e-13
4.839025006e-13
4.839025007e-13
4.839025007e-13
4.839025007e-13
4.839025007e-13
4.839025008e-13
4.839025008e-13
4.839025008e-13
4.839025009e-13
4.839025009e-13
4.83902501e-13
4.83902501e-13
4.839025011e-13
4.839025011e-13
4.839025012e-13
4.839025012e-13
4.839025013e-13
4.839025014e-13
4.839025014e-13
4.839025015e-13
4.839025016e-13
4.839025017e-13
4.839025018e-13
4.839025019e-13
4.83902502e-13
4.839025021e-13
4.839025023e-13
4.839025024e-13
4.839025025e-13
4.839025027e-13
4.839025028e-13
4.83902503e-13
4.839025032e-13
4.839025034e-13
4.839025036e-13
4.839025038e-13
4.83902504e-13
4.839025042e-13
4.839025045e-13
4.839025048e-13
4.83902505e-13
4.839025053e-13
4.839025056e-13
4.83902506e-13
4.839025063e-13
4.839025067e-13
4.839025071e-13
4.839025075e-13
4.839025079e-13
4.839025084e-13
4.839025089e-13
4.839025094e-13
4.839025099e-13
4.839025105e-13
4.839025111e-13
4.839025117e-13
4.839025124e-13
4.839025131e-13
4.839025138e-13
4.839025146e-13
4.839025154e-13
4.839025163e-13
4.839025172e-13
4.839025182e-13
4.839025192e-13
4.839025202e-13
4.839025214e-13
4.839025225e-13
4.839025238e-13
4.839025251e-13
4.839025264e-13
4.839025279e-13
4.839025294e-13
4.839025309e-13
4.839025326e-13
4.839025343e-13
4.839025362e-13
4.839025381e-13
4.839025401e-13
4.839025422e-13
4.839025444e-13
4.839025468e-13
4.839025492e-13
4.839025517e-13
4.839025544e-13
4.839025572e-13
4.839025602e-13
4.839025632e-13
4.839025665e-13
4.839025698e-13
4.839025734e-13
4.839025771e-13
4.839025809e-13
4.83902585e-13
4.839025892e-13
4.839025936e-13
4.839025982e-13
4.83902603e-13
4.839026081e-13
4.839026133e-13
4.839026189e-13
4.839026246e-13
4.839026306e-13
4.839026368e-13
4.839026434e-13
4.839026501e-13
4.839026572e-13
4.839026647e-13
4.839026724e-13
4.839026804e-13
4.839026888e-13
4.839026976e-13
4.839027066e-13
4.839027161e-13
4.839027259e-13
4.839027362e-13
4.839027469e-13
4.83902758e-13
4.839027695e-13
4.839027815e-13
4.83902794e-13
4.83902807e-13
4.839028205e-13
4.839028345e-13
4.83902849e-13
4.839028642e-13
4.839028799e-13
4.839028962e-13
4.839029131e-13
4.839029306e-13
4.839029489e-13
4.839029678e-13
4.839029873e-13
4.839030075e-13
4.839030285e-13
4.839030504e-13
4.83903073e-13
4.839030963e-13
4.839031205e-13
4.839031456e-13
4.839031715e-13
4.839031984e-13
4.839032262e-13
4.839032549e-13
4.839032846e-13
4.839033152e-13
4.839033469e-13
4.839033797e-13
4.839034136e-13
4.839034486e-13
4.839034848e-13
4.83903522e-13
4.839035607e-13
4.839036004e-13
4.839036413e-13
4.839036835e-13
4.839037271e-13
4.839037721e-13
4.839038185e-13
4.839038662e-13
4.839039153e-13
4.83903966e-13
4.839040181e-13
4.83904072e-13
4.839041273e-13
4.839041842e-13
4.839042426e-13
4.839043029e-13
4.83904365e-13
4.839044287e-13
4.839044942e-13
4.839045615e-13
4.839046305e-13
4.839047014e-13
4.839047743e-13
4.839048493e-13
4.839049262e-13
4.839050051e-13
4.839050861e-13
4.83905169e-13
4.839052542e-13
4.839053414e-13
4.839054308e-13
4.839055224e-13
4.839056162e-13
4.839057124e-13
4.83905811e-13
4.839059119e-13
4.839060149e-13
4.839061208e-13
4.839062291e-13
4.839063396e-13
4.839064528e-13
4.839065684e-13
4.839066863e-13
4.839068068e-13
4.839069301e-13
4.839070562e-13
4.839071849e-13
4.839073162e-13
4.839074505e-13
4.839075872e-13
4.839077267e-13
4.839078689e-13
4.839080139e-13
4.839081617e-13
4.839083124e-13
4.839084656e-13
4.839086223e-13
4.83908782e-13
4.839089441e-13
4.839091089e-13
4.83909277e-13
4.839094483e-13
4.839096219e-13
4.839097984e-13
4.839099778e-13
4.839101604e-13
4.839103458e-13
4.839105343e-13
4.839107256e-13
4.839109198e-13
4.839111173e-13
4.839113178e-13
4.839115206e-13
4.839117262e-13
4.839119347e-13
4.839121462e-13
4.839123607e-13
4.83912578e-13
4.83912798e-13
4.839130206e-13
4.839132458e-13
4.839134737e-13
4.839137043e-13
4.839139383e-13
4.839141746e-13
4.839144136e-13
4.839146546e-13
4.83914898e-13
4.839151437e-13
4.839153922e-13
4.839156427e-13
4.839158955e-13
4.839161506e-13
4.839164082e-13
4.839166677e-13
4.839169292e-13
4.839171927e-13
4.839174579e-13
4.83917725e-13
4.839179938e-13
4.839182643e-13
4.839185364e-13
4.8391881e-13
4.839190851e-13
4.839193614e-13
4.839196388e-13
4.839199174e-13
4.839201972e-13
4.83920478e-13
4.839207595e-13
4.839210418e-13
4.839213248e-13
4.839216084e-13
4.839218924e-13
4.839221765e-13
4.839224608e-13
4.839227451e-13
4.839230295e-13
4.839233137e-13
4.839235975e-13
4.839238808e-13
4.839241636e-13
4.839244456e-13
4.839247265e-13
4.839250064e-13
4.839252853e-13
4.83925563e-13
4.839258391e-13
4.839261136e-13
4.839263861e-13
4.839266567e-13
4.839269256e-13
4.839271921e-13
4.839274564e-13
4.839277182e-13
4.839279772e-13
4.839282329e-13
4.839284856e-13
4.839287351e-13
4.839289812e-13
4.839292237e-13
4.839294625e-13
4.839296976e-13
4.839299291e-13
4.839301559e-13
4.839303782e-13
4.839305955e-13
4.839308087e-13
4.839310168e-13
4.839312197e-13
4.839314177e-13
4.839316093e-13
4.839317961e-13
4.839319765e-13
4.83932151e-13
4.839323192e-13
4.83932482e-13
4.839326369e-13
4.839327851e-13
4.839329273e-13
4.839330616e-13
4.839331893e-13
4.839333087e-13
4.839334214e-13
4.839335258e-13
4.839336235e-13
4.839337122e-13
4.839337927e-13
4.83933865e-13
4.839339277e-13
4.839339819e-13
4.839340274e-13
4.839340633e-13
4.839340906e-13
4.839341093e-13
4.839341185e-13
4.839341184e-13
4.839341087e-13
4.839340905e-13
4.839340613e-13
4.839340225e-13
4.839339742e-13
4.839339144e-13
4.839338449e-13
4.839337646e-13
4.839336741e-13
4.839335726e-13
4.8393346e-13
4.839333364e-13
4.839332017e-13
4.83933056e-13
4.839328992e-13
4.839327317e-13
4.839325507e-13
4.839323599e-13
4.839321578e-13
4.839319436e-13
4.839317172e-13
4.839314794e-13
4.839312286e-13
4.83930967e-13
4.839306932e-13
4.839304086e-13
4.839301116e-13
4.83929803e-13
4.839294816e-13
4.839291493e-13
4.839288052e-13
4.839284468e-13
4.839280779e-13
4.839276971e-13
4.839273061e-13
4.839269037e-13
4.839264876e-13
4.839260592e-13
4.839256206e-13
4.839251696e-13
4.839247075e-13
4.839242346e-13
4.839237511e-13
4.839232572e-13
4.839227505e-13
4.839222319e-13
4.839217038e-13
4.83921165e-13
4.839206171e-13
4.839200589e-13
4.839194901e-13
4.839189104e-13
4.8391832e-13
4.839177221e-13
4.839171141e-13
4.839164962e-13
4.839158712e-13
4.839152379e-13
4.839145945e-13
4.839139436e-13
4.839132845e-13
4.839126167e-13
4.839119416e-13
4.8391126e-13
4.839105717e-13
4.839098756e-13
4.839091728e-13
4.839084649e-13
4.839077517e-13
4.839070333e-13
4.839063084e-13
4.839055788e-13
4.839048449e-13
4.839041067e-13
4.83903365e-13
4.839026184e-13
4.839018695e-13
4.839011179e-13
4.839003632e-13
4.838996064e-13
4.838988479e-13
4.838980876e-13
4.838973265e-13
4.838965637e-13
4.83895801e-13
4.838950389e-13
4.838942771e-13
4.838935158e-13
4.838927545e-13
4.838919948e-13
4.83891238e-13
4.838904836e-13
4.838897316e-13
4.838889822e-13
4.838882361e-13
4.838874936e-13
4.838867552e-13
4.838860215e-13
4.838852925e-13
4.838845683e-13
4.838838492e-13
4.838831356e-13
4.838824286e-13
4.838817287e-13
4.838810358e-13
4.838803497e-13
4.838796706e-13
4.838790002e-13
4.838783379e-13
4.838776835e-13
4.838770382e-13
4.83876401e-13
4.838757719e-13
4.838751531e-13
4.838745459e-13
4.838739492e-13
4.838733626e-13
4.838727859e-13
4.838722191e-13
4.838716635e-13
4.838711186e-13
4.838705858e-13
4.838700637e-13
4.838695547e-13
4.838690579e-13
4.838685731e-13
4.838680999e-13
4.838676403e-13
4.838671937e-13
4.838667585e-13
4.83866336e-13
4.838659265e-13
4.838655284e-13
4.838651434e-13
4.838647744e-13
4.838644183e-13
4.838640756e-13
4.838637458e-13
4.838634286e-13
4.838631253e-13
4.838628324e-13
4.838625556e-13
4.838622916e-13
4.838620414e-13
4.838618036e-13
4.838615814e-13
4.838613687e-13
4.838611696e-13
4.838609835e-13
4.838608115e-13
4.838606537e-13
4.838605078e-13
4.838603732e-13
4.838602506e-13
4.838601403e-13
4.838600413e-13
4.838599539e-13
4.838598798e-13
4.838598193e-13
4.838597696e-13
4.838597302e-13
4.838597016e-13
4.83859684e-13
4.838596769e-13
4.838596793e-13
4.838596913e-13
4.838597135e-13
4.838597454e-13
4.838597861e-13
4.838598345e-13
4.838598941e-13
4.838599613e-13
4.838600379e-13
4.838601223e-13
4.838602146e-13
4.838603152e-13
4.838604233e-13
4.838605394e-13
4.838606624e-13
4.838607913e-13
4.83860925e-13
4.83861066e-13
4.838612139e-13
4.838613677e-13
4.838615269e-13
4.838616905e-13
4.838618592e-13
4.838620322e-13
4.838622086e-13
4.838623882e-13
4.838625728e-13
4.838627609e-13
4.838629533e-13
4.838631487e-13
4.838633462e-13
4.838635453e-13
4.83863746e-13
4.838639495e-13
4.838641551e-13
4.838643606e-13
4.838645669e-13
4.838647748e-13
4.838649835e-13
4.838651933e-13
4.838654031e-13
4.838656125e-13
4.838658211e-13
4.838660293e-13
4.83866237e-13
4.838664438e-13
4.838666498e-13
4.838668544e-13
4.838670565e-13
4.838672566e-13
4.838674553e-13
4.838676524e-13
4.838678475e-13
4.838680403e-13
4.838682305e-13
4.838684182e-13
4.838686033e-13
4.838687854e-13
4.838689643e-13
4.838691399e-13
4.838693128e-13
4.838694821e-13
4.838696472e-13
4.838698091e-13
4.83869968e-13
4.838701237e-13
4.838702758e-13
4.838704239e-13
4.83870568e-13
4.838707084e-13
4.838708451e-13
4.838709781e-13
4.838711078e-13
4.838712338e-13
4.838713555e-13
4.838714726e-13
4.838715864e-13
4.838716964e-13
4.838718026e-13
4.83871906e-13
4.838720053e-13
4.838721012e-13
4.838721932e-13
4.838722818e-13
4.838723668e-13
4.838724487e-13
4.838725275e-13
4.838726025e-13
4.838726751e-13
4.838727441e-13
4.838728096e-13
4.838728725e-13
4.838729328e-13
4.838729902e-13
4.838730448e-13
4.838730975e-13
4.838731478e-13
4.838731959e-13
4.838732419e-13
4.838732857e-13
4.83873327e-13
4.838733663e-13
4.838734042e-13
4.838734412e-13
4.838734771e-13
4.838735118e-13
4.838735453e-13
4.838735772e-13
4.838736081e-13
4.838736381e-13
4.838736674e-13
4.838736967e-13
4.838737261e-13
4.838737554e-13
4.838737846e-13
4.838738135e-13
4.838738419e-13
4.838738704e-13
4.838738993e-13
4.83873929e-13
4.8387396e-13
4.838739924e-13
4.838740256e-13
4.838740597e-13
4.83874095e-13
4.838741315e-13
4.838741695e-13
4.838742093e-13
4.838742505e-13
4.838742936e-13
4.838743386e-13
4.838743854e-13
4.838744342e-13
4.838744854e-13
4.83874539e-13
4.83874595e-13
4.838746533e-13
4.838747145e-13
4.838747785e-13
4.838748458e-13
4.838749161e-13
4.838749894e-13
4.838750649e-13
4.838751437e-13
4.838752252e-13
4.838753109e-13
4.838753999e-13
4.838754925e-13
4.838755882e-13
4.838756878e-13
4.838757907e-13
4.838758969e-13
4.838760072e-13
4.838761207e-13
4.838762389e-13
4.838763604e-13
4.83876486e-13
4.83876615e-13
4.83876748e-13
4.838768842e-13
4.838770247e-13
4.838771687e-13
4.838773173e-13
4.838774701e-13
4.838776268e-13
4.83877787e-13
4.838779509e-13
4.83878118e-13
4.838782894e-13
4.838784641e-13
4.838786438e-13
4.838788276e-13
4.838790157e-13
4.838792077e-13
4.838794024e-13
4.838796005e-13
4.83879802e-13
4.838800069e-13
4.838802157e-13
4.838804283e-13
4.838806444e-13
4.838808642e-13
4.838810873e-13
4.838813138e-13
4.838815434e-13
4.838817759e-13
4.838820117e-13
4.838822505e-13
4.838824919e-13
4.838827366e-13
4.838829844e-13
4.838832355e-13
4.838834889e-13
4.838837445e-13
4.838840025e-13
4.838842629e-13
4.838845262e-13
4.838847914e-13
4.838850593e-13
4.838853298e-13
4.838856022e-13
4.838858765e-13
4.838861522e-13
4.838864299e-13
4.838867093e-13
4.838869901e-13
4.838872722e-13
4.838875565e-13
4.838878423e-13
4.838881294e-13
4.838884172e-13
4.838887062e-13
4.838889963e-13
4.838892876e-13
4.838895796e-13
4.838898722e-13
4.838901655e-13
4.838904594e-13
4.838907539e-13
4.83891049e-13
4.838913445e-13
4.838916401e-13
4.838919357e-13
4.838922314e-13
4.838925271e-13
4.838928224e-13
4.838931174e-13
4.838934121e-13
4.838937067e-13
4.838940013e-13
4.838942958e-13
4.838945895e-13
4.83894882e-13
4.838951735e-13
4.83895464e-13
4.838957536e-13
4.838960422e-13
4.8389633e-13
4.838966171e-13
4.838969035e-13
4.838971887e-13
4.838974721e-13
4.838977538e-13
4.838980336e-13
4.83898312e-13
4.838985891e-13
4.838988651e-13
4.838991395e-13
4.83899412e-13
4.838996828e-13
4.838999515e-13
4.839002178e-13
4.839004816e-13
4.839007434e-13
4.83901003e-13
4.83901261e-13
4.839015176e-13
4.839017727e-13
4.839020254e-13
4.839022755e-13
4.839025227e-13
4.839027673e-13
4.839030091e-13
4.839032484e-13
4.839034858e-13
4.839037208e-13
4.839039533e-13
4.839041835e-13
4.839044104e-13
4.839046347e-13
4.839048563e-13
4.839050751e-13
4.839052918e-13
4.839055052e-13
4.839057161e-13
4.839059244e-13
4.839061302e-13
4.839063326e-13
4.83906532e-13
4.839067283e-13
4.839069215e-13
4.83907112e-13
4.839072994e-13
4.839074844e-13
4.839076667e-13
4.839078463e-13
4.83908023e-13
4.839081956e-13
4.839083654e-13
4.839085318e-13
4.839086951e-13
4.839088557e-13
4.839090135e-13
4.83909169e-13
4.839093217e-13
4.839094709e-13
4.839096165e-13
4.839097592e-13
4.83909899e-13
4.839100355e-13
4.839101692e-13
4.839103002e-13
4.839104284e-13
4.839105533e-13
4.839106748e-13
4.839107933e-13
4.839109089e-13
4.839110216e-13
4.839111313e-13
4.839112383e-13
4.839113423e-13
4.839114437e-13
4.839115419e-13
4.839116368e-13
4.839117294e-13
4.839118192e-13
4.83911906e-13
4.839119898e-13
4.83912071e-13
4.839121493e-13
4.839122251e-13
4.839122978e-13
4.839123683e-13
4.839124355e-13
4.839125e-13
4.839125622e-13
4.839126218e-13
4.839126788e-13
4.83912733e-13
4.839127849e-13
4.839128345e-13
4.839128811e-13
4.839129255e-13
4.839129674e-13
4.83913007e-13
4.839130446e-13
4.839130794e-13
4.839131119e-13
4.839131424e-13
4.839131705e-13
4.839131965e-13
4.839132203e-13
4.839132419e-13
4.839132616e-13
4.839132791e-13
4.839132943e-13
4.839133077e-13
4.839133197e-13
4.839133291e-13
4.839133371e-13
4.839133431e-13
4.839133475e-13
4.839133501e-13
4.839133507e-13
4.839133501e-13
4.839133478e-13
4.839133443e-13
4.839133391e-13
4.839133323e-13
4.839133244e-13
4.839133151e-13
4.839133044e-13
4.839132925e-13
4.839132785e-13
4.83913263e-13
4.839132464e-13
4.839132289e-13
4.839132107e-13
4.839131916e-13
4.839131716e-13
4.839131505e-13
4.839131283e-13
4.83913105e-13
4.839130812e-13
4.839130568e-13
4.839130314e-13
4.839130049e-13
4.839129776e-13
4.839129497e-13
4.839129215e-13
4.83912893e-13
4.839128641e-13
4.839128348e-13
4.839128051e-13
4.839127752e-13
4.839127448e-13
4.839127138e-13
4.839126825e-13
4.839126511e-13
4.839126196e-13
4.839125881e-13
4.839125566e-13
4.839125249e-13
4.839124931e-13
4.839124614e-13
4.8391243e-13
4.839123989e-13
4.839123679e-13
4.839123371e-13
4.839123064e-13
4.839122762e-13
4.839122465e-13
4.839122173e-13
4.839121886e-13
4.839121605e-13
4.839121328e-13
4.839121056e-13
4.839120788e-13
4.839120527e-13
4.839120276e-13
4.839120032e-13
4.839119794e-13
4.83911956e-13
4.839119331e-13
4.839119106e-13
4.839118891e-13
4.839118686e-13
4.839118491e-13
4.839118306e-13
4.839118133e-13
4.839117971e-13
4.839117817e-13
4.839117675e-13
4.839117544e-13
4.839117425e-13
4.839117317e-13
4.839117221e-13
4.839117135e-13
4.839117057e-13
4.839116988e-13
4.839116927e-13
4.839116876e-13
4.839116837e-13
4.839116813e-13
4.839116803e-13
4.839116805e-13
4.83911682e-13
4.839116847e-13
4.839116885e-13
4.839116938e-13
4.839116998e-13
4.839117072e-13
4.839117157e-13
4.839117256e-13
4.839117366e-13
4.839117493e-13
4.839117632e-13
4.839117782e-13
4.839117945e-13
4.839118122e-13
4.839118309e-13
4.839118508e-13
4.839118718e-13
4.839118939e-13
4.839119172e-13
4.839119419e-13
4.839119679e-13
4.839119954e-13
4.839120239e-13
4.839120536e-13
4.839120844e-13
4.839121163e-13
4.839121491e-13
4.839121833e-13
4.839122188e-13
4.839122553e-13
4.839122932e-13
4.83912332e-13
4.839123719e-13
4.839124127e-13
4.839124546e-13
4.839124975e-13
4.839125414e-13
4.839125863e-13
4.839126319e-13
4.839126785e-13
4.839127261e-13
4.839127747e-13
4.839128246e-13
4.839128753e-13
4.839129269e-13
4.83912979e-13
4.839130317e-13
4.83913085e-13
4.839131389e-13
4.839131937e-13
4.839132493e-13
4.839133061e-13
4.839133635e-13
4.839134215e-13
4.8391348e-13
4.839135388e-13
4.839135981e-13
4.839136578e-13
4.83913718e-13
4.839137786e-13
4.839138397e-13
4.839139013e-13
4.839139635e-13
4.839140266e-13
4.839140902e-13
4.839141542e-13
4.839142182e-13
4.839142823e-13
4.839143465e-13
4.839144108e-13
4.839144752e-13
4.839145399e-13
4.839146046e-13
4.839146694e-13
4.839147344e-13
4.839147995e-13
4.83914865e-13
4.839149307e-13
4.839149969e-13
4.83915063e-13
4.839151286e-13
4.839151938e-13
4.839152586e-13
4.839153231e-13
4.839153875e-13
4.839154518e-13
4.839155165e-13
4.839155813e-13
4.839156462e-13
4.839157107e-13
4.839157747e-13
4.839158381e-13
4.839159007e-13
4.839159629e-13
4.839160247e-13
4.839160861e-13
4.839161473e-13
4.839162084e-13
4.839162694e-13
4.839163301e-13
4.839163901e-13
4.839164498e-13
4.839165089e-13
4.839165675e-13
4.839166253e-13
4.839166824e-13
4.839167388e-13
4.839167946e-13
4.839168499e-13
4.839169046e-13
4.839169588e-13
4.839170125e-13
4.839170657e-13
4.839171181e-13
4.839171699e-13
4.839172209e-13
4.839172713e-13
4.839173211e-13
4.839173702e-13
4.839174186e-13
4.839174661e-13
4.839175127e-13
4.839175585e-13
4.839176032e-13
4.839176472e-13
4.839176903e-13
4.839177325e-13
4.839177741e-13
4.839178151e-13
4.839178555e-13
4.839178954e-13
4.839179345e-13
4.839179725e-13
4.839180095e-13
4.839180454e-13
4.839180803e-13
4.839181144e-13
4.839181475e-13
4.8391818e-13
4.839182115e-13
4.839182423e-13
4.839182724e-13
4.839183016e-13
4.839183299e-13
4.839183572e-13
4.839183835e-13
4.839184087e-13
4.83918433e-13
4.839184562e-13
4.839184787e-13
4.839185003e-13
4.839185211e-13
4.83918541e-13
4.839185601e-13
4.839185783e-13
4.839185955e-13
4.839186117e-13
4.839186271e-13
4.839186417e-13
4.839186551e-13
4.839186676e-13
4.839186792e-13
4.839186899e-13
4.839186998e-13
4.839187087e-13
4.839187169e-13
4.839187242e-13
4.839187306e-13
4.839187364e-13
4.839187413e-13
4.839187451e-13
4.839187478e-13
4.839187495e-13
4.839187503e-13
4.839187504e-13
4.839187498e-13
4.839187483e-13
4.839187462e-13
4.839187432e-13
4.839187395e-13
4.83918735e-13
4.839187299e-13
4.839187239e-13
4.839187171e-13
4.839187093e-13
4.839187005e-13
4.839186906e-13
4.8391868e-13
4.839186686e-13
4.839186566e-13
4.839186441e-13
4.83918631e-13
4.839186171e-13
4.839186025e-13
4.839185869e-13
4.839185707e-13
4.839185537e-13
4.839185359e-13
4.839185173e-13
4.839184981e-13
4.839184783e-13
4.839184578e-13
4.839184366e-13
4.839184147e-13
4.83918392e-13
4.839183685e-13
4.839183443e-13
4.839183194e-13
4.83918294e-13
4.839182682e-13
4.83918242e-13
4.839182152e-13
4.839181877e-13
4.839181596e-13
4.839181308e-13
4.839181014e-13
4.839180714e-13
4.839180408e-13
4.839180097e-13
4.839179781e-13
4.839179461e-13
4.839179135e-13
4.839178806e-13
4.839178471e-13
4.83917813e-13
4.839177782e-13
4.839177431e-13
4.839177076e-13
4.839176718e-13
4.839176357e-13
4.839175992e-13
4.839175621e-13
4.839175247e-13
4.839174867e-13
4.839174482e-13
4.839174093e-13
4.8391737e-13
4.839173304e-13
4.839172905e-13
4.839172503e-13
4.839172096e-13
4.839171685e-13
4.839171271e-13
4.839170854e-13
4.839170434e-13
4.839170012e-13
4.839169588e-13
4.839169162e-13
4.839168733e-13
4.839168301e-13
4.839167866e-13
4.839167429e-13
4.839166989e-13
4.839166547e-13
4.839166104e-13
4.839165659e-13
4.839165213e-13
4.839164764e-13
4.839164313e-13
4.83916386e-13
4.839163404e-13
4.839162947e-13
4.839162488e-13
4.839162026e-13
4.839161563e-13
4.839161097e-13
4.83916063e-13
4.839160161e-13
4.839159692e-13
4.839159224e-13
4.839158757e-13
4.839158289e-13
4.839157822e-13
4.839157354e-13
4.839156884e-13
4.839156412e-13
4.839155937e-13
4.839155461e-13
4.839154984e-13
4.839154506e-13
4.839154028e-13
4.839153549e-13
4.83915307e-13
4.839152592e-13
4.839152114e-13
4.839151637e-13
4.83915116e-13
4.839150683e-13
4.839150206e-13
4.839149728e-13
4.83914925e-13
4.839148771e-13
4.839148291e-13
4.83914781e-13
4.839147327e-13
4.839146846e-13
4.839146367e-13
4.839145889e-13
4.839145412e-13
4.839144935e-13
4.839144459e-13
4.839143982e-13
4.839143504e-13
4.839143026e-13
4.839142547e-13
4.839142068e-13
4.839141591e-13
4.839141114e-13
4.839140638e-13
4.839140162e-13
4.839139686e-13
4.83913921e-13
4.839138734e-13
4.839138258e-13
4.839137783e-13
4.839137307e-13
4.839136832e-13
4.839136356e-13
4.839135879e-13
4.839135403e-13
4.839134929e-13
4.839134456e-13
4.839133984e-13
4.839133513e-13
4.839133042e-13
4.839132572e-13
4.8391321e-13
4.839131627e-13
4.839131153e-13
4.839130678e-13
4.839130204e-13
4.83912973e-13
4.839129256e-13
4.839128783e-13
4.839128311e-13
4.839127838e-13
4.839127366e-13
4.839126893e-13
4.839126419e-13
4.839125945e-13
4.839125471e-13
4.839124996e-13
4.83912452e-13
4.839124044e-13
4.839123568e-13
4.839123092e-13
4.839122615e-13
4.839122138e-13
4.839121661e-13
4.839121183e-13
4.839120706e-13
4.839120227e-13
4.839119748e-13
4.839119268e-13
4.839118787e-13
4.839118304e-13
4.839117819e-13
4.839117332e-13
4.839116844e-13
4.839116357e-13
4.839115869e-13
4.839115381e-13
4.839114893e-13
4.839114403e-13
4.839113912e-13
4.839113421e-13
4.839112927e-13
4.839112433e-13
4.839111936e-13
4.839111437e-13
4.839110937e-13
4.839110435e-13
4.839109931e-13
4.839109425e-13
4.839108918e-13
4.83910841e-13
4.8391079e-13
4.839107389e-13
4.839106876e-13
4.839106361e-13
4.839105845e-13
4.839105326e-13
4.839104805e-13
4.839104282e-13
4.839103757e-13
4.83910323e-13
4.839102701e-13
4.83910217e-13
4.839101637e-13
4.839101101e-13
4.839100563e-13
4.839100023e-13
4.839099481e-13
4.839098936e-13
4.839098389e-13
4.839097839e-13
4.839097288e-13
4.839096733e-13
4.839096176e-13
4.839095617e-13
4.839095055e-13
4.839094491e-13
4.839093924e-13
4.839093354e-13
4.839092782e-13
4.839092207e-13
4.839091629e-13
4.839091049e-13
4.839090466e-13
4.839089881e-13
4.839089293e-13
4.839088702e-13
4.839088108e-13
4.839087512e-13
4.839086913e-13
4.839086311e-13
4.839085707e-13
4.8390851e-13
4.83908449e-13
4.839083877e-13
4.839083262e-13
4.839082644e-13
4.839082023e-13
4.839081399e-13
4.839080773e-13
4.839080144e-13
4.839079512e-13
4.839078878e-13
4.839078241e-13
4.839077602e-13
4.83907696e-13
4.839076315e-13
4.839075668e-13
4.839075018e-13
4.839074366e-13
4.839073711e-13
4.839073054e-13
4.839072394e-13
4.839071732e-13
4.839071068e-13
4.839070401e-13
4.839069732e-13
4.83906906e-13
4.839068387e-13
4.839067711e-13
4.839067033e-13
4.839066353e-13
4.839065671e-13
4.839064987e-13
4.839064301e-13
4.839063613e-13
4.839062923e-13
4.839062231e-13
4.839061537e-13
4.839060842e-13
4.839060145e-13
4.839059446e-13
4.839058746e-13
4.839058045e-13
4.839057341e-13
4.839056637e-13
4.839055931e-13
4.839055224e-13
4.839054515e-13
4.839053805e-13
4.839053095e-13
4.839052383e-13
4.83905167e-13
4.839050956e-13
4.839050241e-13
4.839049526e-13
4.83904881e-13
4.839048093e-13
4.839047375e-13
4.839046657e-13
4.839045938e-13
4.839045219e-13
4.839044499e-13
4.83904378e-13
4.839043059e-13
4.839042339e-13
4.839041619e-13
4.839040898e-13
4.839040178e-13
4.839039457e-13
4.839038737e-13
4.839038017e-13
4.839037297e-13
4.839036578e-13
4.839035859e-13
4.83903514e-13
4.839034422e-13
4.839033704e-13
4.839032987e-13
4.839032271e-13
4.839031555e-13
4.839030841e-13
4.839030127e-13
4.839029414e-13
4.839028702e-13
4.839027991e-13
4.839027281e-13
4.839026573e-13
4.839025865e-13
4.839025159e-13
4.839024454e-13
4.839023751e-13
4.839023048e-13
4.839022348e-13
4.839021648e-13
4.83902095e-13
4.839020254e-13
4.839019559e-13
4.839018867e-13
4.839018176e-13
4.839017486e-13
4.839016799e-13
4.839016113e-13
4.839015429e-13
4.839014747e-13
4.839014067e-13
4.839013389e-13
4.839012713e-13
4.839012039e-13
4.839011367e-13
4.839010697e-13
4.83901003e-13
4.839009364e-13
4.839008701e-13
4.83900804e-13
4.839007381e-13
4.839006725e-13
4.839006071e-13
4.83900542e-13
4.839004771e-13
4.839004124e-13
4.839003479e-13
4.839002837e-13
4.839002198e-13
4.839001561e-13
4.839000927e-13
4.839000295e-13
4.838999666e-13
4.838999039e-13
4.838998415e-13
4.838997794e-13
4.838997175e-13
4.838996559e-13
4.838995945e-13
4.838995335e-13
4.838994727e-13
4.838994122e-13
4.838993519e-13
4.83899292e-13
4.838992323e-13
4.838991729e-13
4.838991137e-13
4.838990549e-13
4.838989963e-13
4.83898938e-13
4.8389888e-13
4.838988223e-13
4.838987649e-13
4.838987078e-13
4.838986509e-13
4.838985944e-13
4.838985382e-13
4.838984822e-13
4.838984265e-13
4.838983712e-13
4.838983161e-13
4.838982613e-13
4.838982068e-13
4.838981527e-13
4.838980988e-13
4.838980452e-13
4.838979919e-13
4.838979389e-13
4.838978863e-13
4.838978339e-13
4.838977818e-13
4.838977301e-13
4.838976786e-13
4.838976275e-13
4.838975766e-13
4.838975261e-13
4.838974759e-13
4.838974259e-13
4.838973763e-13
4.83897327e-13
4.83897278e-13
4.838972293e-13
4.838971809e-13
4.838971328e-13
4.83897085e-13
4.838970376e-13
4.838969904e-13
4.838969436e-13
4.83896897e-13
4.838968508e-13