/*--------------------------------*- C++ -*----------------------------------*\
| =========                 |                                                 |
| \\      /  F ield         | OpenFOAM: The Open Source CFD Toolbox           |
|  \\    /   O peration     | Version:  2312                                  |
|   \\  /    A nd           | Website:  www.openfoam.com                      |
|    \\/     M anipulation  |                                                 |
\*---------------------------------------------------------------------------*/
FoamFile
{
    version     2.0;
    format      ascii;
    arch        "LSB;label=32;scalar=64";
    class       volScalarField;
    location    "0.003";
    object      thermo:psiGasEff;
}
// * * * * * * * * * * * * * * * * * * * * * * * * * * * * * * * * * * * * * //

dimensions      [-2 4 2 0 0 0 0];

internalField   nonuniform List<scalar> 
8000
(
8.552819625e-06
8.552984338e-06
8.553026818e-06
8.553015518e-06
8.553012237e-06
8.553013246e-06
8.553013722e-06
8.55301392e-06
8.553014161e-06
8.553014439e-06
8.553014718e-06
8.553014922e-06
8.553014998e-06
8.553014914e-06
8.553014602e-06
8.553013937e-06
8.553012963e-06
8.553011754e-06
8.553010403e-06
8.553009031e-06
8.553007781e-06
8.55300674e-06
8.55300599e-06
8.553005499e-06
8.553005312e-06
8.553005379e-06
8.553005643e-06
8.55300609e-06
8.55300669e-06
8.553007337e-06
8.553007941e-06
8.553008479e-06
8.553008958e-06
8.553009412e-06
8.553009769e-06
8.553010047e-06
8.553010291e-06
8.553010468e-06
8.553010586e-06
8.55301068e-06
8.553010773e-06
8.553010914e-06
8.553011008e-06
8.553011038e-06
8.553011051e-06
8.553011093e-06
8.553011142e-06
8.553011145e-06
8.553011128e-06
8.553011114e-06
8.55301117e-06
8.553011165e-06
8.553011183e-06
8.553011218e-06
8.553011188e-06
8.553011142e-06
8.553011194e-06
8.553011197e-06
8.553011199e-06
8.55301121e-06
8.553011212e-06
8.553011165e-06
8.553011152e-06
8.553011147e-06
8.553011136e-06
8.553011138e-06
8.553011134e-06
8.553011126e-06
8.553011119e-06
8.553011128e-06
8.553011114e-06
8.5530111e-06
8.553011109e-06
8.553011124e-06
8.553011139e-06
8.553011144e-06
8.553011136e-06
8.553011128e-06
8.553011106e-06
8.553011113e-06
8.553011139e-06
8.553011192e-06
8.553011187e-06
8.553011211e-06
8.553011203e-06
8.553011195e-06
8.553011184e-06
8.55301118e-06
8.553011158e-06
8.553011184e-06
8.553011174e-06
8.553011155e-06
8.553011169e-06
8.553011219e-06
8.553011223e-06
8.55301121e-06
8.553011203e-06
8.553011169e-06
8.553011152e-06
8.553011149e-06
8.553011159e-06
8.55301117e-06
8.553011177e-06
8.55301116e-06
8.553011178e-06
8.553011201e-06
8.553011198e-06
8.553011167e-06
8.553011162e-06
8.553011137e-06
8.553011147e-06
8.55301122e-06
8.553011233e-06
8.553011224e-06
8.55301123e-06
8.553011209e-06
8.553011224e-06
8.553011258e-06
8.553011255e-06
8.55301128e-06
8.553011268e-06
8.553011308e-06
8.553011342e-06
8.553011357e-06
8.553011384e-06
8.553011421e-06
8.55301145e-06
8.553011481e-06
8.553011485e-06
8.553011535e-06
8.553011577e-06
8.553011628e-06
8.55301166e-06
8.553011714e-06
8.553011781e-06
8.55301186e-06
8.5530119e-06
8.553011932e-06
8.553011998e-06
8.553012068e-06
8.553012161e-06
8.553012239e-06
8.55301235e-06
8.553012465e-06
8.553012582e-06
8.553012719e-06
8.553012871e-06
8.553013039e-06
8.553013221e-06
8.553013381e-06
8.553013589e-06
8.553013801e-06
8.553014037e-06
8.55301428e-06
8.553014523e-06
8.553014821e-06
8.553015138e-06
8.553015474e-06
8.553015867e-06
8.553016243e-06
8.553016636e-06
8.553017092e-06
8.55301761e-06
8.553018137e-06
8.553018719e-06
8.553019338e-06
8.553019999e-06
8.553020698e-06
8.553021367e-06
8.553022141e-06
8.553022947e-06
8.553023811e-06
8.55302472e-06
8.553025662e-06
8.55302667e-06
8.553027699e-06
8.553028775e-06
8.553029899e-06
8.553031036e-06
8.553032228e-06
8.553033414e-06
8.553034574e-06
8.553035737e-06
8.553036938e-06
8.553038123e-06
8.553039239e-06
8.553040329e-06
8.553041375e-06
8.553042359e-06
8.553043249e-06
8.553044062e-06
8.553044764e-06
8.553045372e-06
8.553045861e-06
8.553046226e-06
8.55304647e-06
8.553046556e-06
8.553046503e-06
8.553046252e-06
8.553045876e-06
8.553045319e-06
8.553044605e-06
8.553043731e-06
8.553042699e-06
8.553041507e-06
8.553040167e-06
8.553038661e-06
8.553037029e-06
8.553035302e-06
8.553033471e-06
8.553031546e-06
8.553029569e-06
8.553027592e-06
8.553025562e-06
8.553023541e-06
8.553021565e-06
8.553019552e-06
8.553017555e-06
8.55301566e-06
8.553013867e-06
8.553012175e-06
8.553010544e-06
8.553009044e-06
8.553007686e-06
8.553006446e-06
8.553005389e-06
8.553004478e-06
8.553003697e-06
8.553003099e-06
8.553002592e-06
8.553002263e-06
8.553002069e-06
8.553001998e-06
8.553002043e-06
8.553002197e-06
8.553002465e-06
8.553002871e-06
8.553003345e-06
8.553003931e-06
8.553004625e-06
8.553005388e-06
8.553006167e-06
8.553006955e-06
8.55300774e-06
8.553008593e-06
8.553009444e-06
8.553010286e-06
8.553011111e-06
8.553011961e-06
8.553012747e-06
8.553013497e-06
8.553014232e-06
8.553014898e-06
8.553015521e-06
8.553016114e-06
8.553016694e-06
8.553017209e-06
8.553017686e-06
8.553018143e-06
8.553018535e-06
8.55301889e-06
8.553019234e-06
8.553019532e-06
8.553019778e-06
8.553020023e-06
8.553020283e-06
8.553020506e-06
8.553020744e-06
8.553020996e-06
8.553021265e-06
8.553021572e-06
8.553021835e-06
8.553022133e-06
8.553022514e-06
8.553022935e-06
8.553023424e-06
8.553023981e-06
8.553024634e-06
8.553025373e-06
8.553026188e-06
8.553027056e-06
8.553028044e-06
8.553029135e-06
8.55303034e-06
8.553031702e-06
8.553033155e-06
8.55303472e-06
8.553036393e-06
8.553038262e-06
8.553040302e-06
8.553042509e-06
8.553044877e-06
8.553047445e-06
8.553050267e-06
8.553053304e-06
8.553056569e-06
8.55306007e-06
8.55306388e-06
8.553067954e-06
8.553072352e-06
8.553077076e-06
8.553082155e-06
8.553087604e-06
8.553093428e-06
8.553099703e-06
8.553106431e-06
8.553113695e-06
8.553121486e-06
8.553129896e-06
8.553138892e-06
8.553148512e-06
8.553158801e-06
8.553169858e-06
8.553181706e-06
8.553194345e-06
8.553207858e-06
8.553222264e-06
8.553237656e-06
8.553254052e-06
8.553271544e-06
8.553290211e-06
8.553310113e-06
8.553331311e-06
8.553353864e-06
8.553377811e-06
8.553403298e-06
8.553430405e-06
8.553459154e-06
8.553489649e-06
8.553522054e-06
8.553556383e-06
8.553592733e-06
8.553631323e-06
8.553672149e-06
8.553715424e-06
8.553761242e-06
8.553809706e-06
8.553860988e-06
8.553915221e-06
8.553972592e-06
8.554033211e-06
8.554097318e-06
8.554165088e-06
8.554236688e-06
8.55431219e-06
8.55439189e-06
8.554476172e-06
8.554565105e-06
8.554658922e-06
8.554757936e-06
8.554862378e-06
8.554972538e-06
8.555088747e-06
8.555211297e-06
8.555340531e-06
8.555476805e-06
8.555620106e-06
8.555771243e-06
8.555930303e-06
8.556098092e-06
8.556274684e-06
8.556460627e-06
8.556656101e-06
8.556862145e-06
8.557078896e-06
8.557306854e-06
8.557546695e-06
8.557798909e-06
8.558063695e-06
8.558342431e-06
8.558634982e-06
8.558942724e-06
8.559265922e-06
8.559605291e-06
8.559961783e-06
8.560336077e-06
8.560728358e-06
8.561140537e-06
8.561572864e-06
8.562026369e-06
8.562501943e-06
8.563000573e-06
8.56352328e-06
8.564071114e-06
8.564645129e-06
8.565246466e-06
8.565876282e-06
8.566535875e-06
8.567226429e-06
8.567949216e-06
8.568705617e-06
8.569497063e-06
8.57032496e-06
8.571190767e-06
8.572096023e-06
8.573042336e-06
8.574031369e-06
8.575065343e-06
8.576146192e-06
8.577274289e-06
8.578451757e-06
8.579680686e-06
8.580964557e-06
8.582303381e-06
8.583701029e-06
8.585159605e-06
8.586680005e-06
8.588265865e-06
8.589920306e-06
8.591642497e-06
8.593438338e-06
8.595308954e-06
8.597256381e-06
8.599285607e-06
8.601398937e-06
8.603598953e-06
8.605885904e-06
8.608267988e-06
8.610746772e-06
8.613325644e-06
8.616005849e-06
8.618792149e-06
8.621688143e-06
8.624698755e-06
8.62782852e-06
8.631077834e-06
8.634453136e-06
8.637956473e-06
8.641595448e-06
8.645374872e-06
8.649293054e-06
8.653358491e-06
8.65757754e-06
8.661954923e-06
8.666496155e-06
8.671198369e-06
8.67607316e-06
8.681129505e-06
8.686365409e-06
8.69179006e-06
8.697407855e-06
8.703228502e-06
8.709255695e-06
8.715488693e-06
8.72194154e-06
8.728619487e-06
8.735532131e-06
8.742676051e-06
8.750063609e-06
8.757712326e-06
8.765610039e-06
8.773773082e-06
8.782211142e-06
8.790930664e-06
8.799938053e-06
8.809244488e-06
8.818853827e-06
8.828767759e-06
8.839007461e-06
8.849573871e-06
8.860482035e-06
8.871733936e-06
8.88333931e-06
8.895316266e-06
8.90765683e-06
8.920378876e-06
8.933506817e-06
8.947031109e-06
8.960969485e-06
8.97532814e-06
8.990116206e-06
9.005353339e-06
9.021036739e-06
9.037199184e-06
9.053838119e-06
9.07096287e-06
9.088589212e-06
9.106717557e-06
9.125378105e-06
9.144573618e-06
9.164303558e-06
9.184606594e-06
9.205478982e-06
9.22693796e-06
9.249001883e-06
9.271680201e-06
9.294971885e-06
9.318907669e-06
9.343514854e-06
9.368781005e-06
9.39472587e-06
9.42136924e-06
9.44872012e-06
9.476799798e-06
9.505631189e-06
9.535223052e-06
9.565595641e-06
9.596745549e-06
9.628705536e-06
9.661496993e-06
9.695127577e-06
9.729609139e-06
9.764985668e-06
9.801231532e-06
9.838384026e-06
9.876475869e-06
9.915514538e-06
9.955526263e-06
9.996506146e-06
1.003850477e-05
1.008152474e-05
1.012558148e-05
1.017068452e-05
1.021686458e-05
1.026416469e-05
1.031257784e-05
1.036213784e-05
1.041284834e-05
1.0464735e-05
1.051784866e-05
1.057219561e-05
1.062775608e-05
1.068458156e-05
1.07427189e-05
1.080215181e-05
1.086290766e-05
1.092502969e-05
1.098850992e-05
1.105339489e-05
1.11197133e-05
1.118746945e-05
1.125668716e-05
1.132738408e-05
1.13995943e-05
1.147332436e-05
1.154860548e-05
1.162547135e-05
1.170389399e-05
1.178395315e-05
1.186564574e-05
1.194899298e-05
1.20340056e-05
1.212071823e-05
1.220914117e-05
1.229928978e-05
1.239117782e-05
1.248483648e-05
1.258027479e-05
1.267750535e-05
1.277654442e-05
1.287741289e-05
1.29801048e-05
1.308464909e-05
1.319105043e-05
1.329931429e-05
1.340944707e-05
1.352145579e-05
1.363534338e-05
1.375111516e-05
1.386876721e-05
1.398828616e-05
1.41096776e-05
1.423293564e-05
1.435804652e-05
1.448500653e-05
1.461380612e-05
1.474439084e-05
1.487675857e-05
1.50108983e-05
1.514675177e-05
1.528430576e-05
1.542350085e-05
1.556430117e-05
1.570665882e-05
1.585052362e-05
1.599583719e-05
1.614253817e-05
1.629055861e-05
1.643982601e-05
1.659025361e-05
1.674177218e-05
1.689432687e-05
1.704776826e-05
1.720198512e-05
1.735687707e-05
1.751232357e-05
1.766822994e-05
1.782444317e-05
1.798084712e-05
1.813728887e-05
1.829361568e-05
1.844968344e-05
1.860531462e-05
1.876035815e-05
1.89146488e-05
1.906790095e-05
1.921985519e-05
1.93705211e-05
1.951970577e-05
1.966703144e-05
1.981236515e-05
1.995546636e-05
2.009608521e-05
2.023386403e-05
2.036873111e-05
2.050043275e-05
2.062863254e-05
2.075301623e-05
2.087356811e-05
2.09898147e-05
2.110156579e-05
2.120868498e-05
2.131065348e-05
2.140741481e-05
2.149865647e-05
2.158423913e-05
2.166357766e-05
2.173672537e-05
2.180331572e-05
2.186320159e-05
2.191599913e-05
2.196178913e-05
2.200033305e-05
2.203112382e-05
2.205438267e-05
2.206990333e-05
2.207747118e-05
2.207720177e-05
2.206911211e-05
2.205333009e-05
2.202895367e-05
2.199607321e-05
2.195506168e-05
2.190518878e-05
2.184728461e-05
2.178075862e-05
2.170555916e-05
2.162192462e-05
2.152994962e-05
2.142967904e-05
2.132120821e-05
2.12045318e-05
2.107998231e-05
2.094759538e-05
2.080741477e-05
2.066017439e-05
2.050548791e-05
2.034381552e-05
2.017545646e-05
2.000046335e-05
1.981917773e-05
1.96321774e-05
1.94393197e-05
1.924125544e-05
1.90381161e-05
1.88301258e-05
1.861772701e-05
1.840118584e-05
1.818090707e-05
1.795715102e-05
1.77304315e-05
1.750079051e-05
1.726866508e-05
1.703435656e-05
1.679812641e-05
1.656043778e-05
1.632155643e-05
1.608183279e-05
1.584132821e-05
1.560052543e-05
1.535967282e-05
1.511898016e-05
1.487881576e-05
1.463940163e-05
1.440087497e-05
1.416353874e-05
1.392758205e-05
1.369332717e-05
1.346073605e-05
1.323010402e-05
1.300165354e-05
1.277562002e-05
1.255196848e-05
1.233087505e-05
1.211245645e-05
1.189690081e-05
1.168429363e-05
1.147472451e-05
1.12682804e-05
1.106506216e-05
1.086503542e-05
1.06682845e-05
1.047496329e-05
1.028503289e-05
1.009852004e-05
9.915542602e-06
9.73601493e-06
9.559942178e-06
9.387429173e-06
9.218409088e-06
9.052871229e-06
8.890840583e-06
8.732303632e-06
8.577245593e-06
8.42561065e-06
8.277401795e-06
8.132580345e-06
7.991118351e-06
7.852969584e-06
7.718102316e-06
7.586499819e-06
7.458109462e-06
7.332863183e-06
7.210744583e-06
7.091700227e-06
6.975672807e-06
6.862636162e-06
6.752530057e-06
6.64532062e-06
6.540948218e-06
6.43934811e-06
6.340482296e-06
6.244306413e-06
6.150753413e-06
6.05977812e-06
5.971321345e-06
5.885346275e-06
5.801796473e-06
5.720642085e-06
5.641822408e-06
5.565262793e-06
5.490931995e-06
5.418793887e-06
5.348768384e-06
5.280859137e-06
5.215002705e-06
5.151121141e-06
5.089174402e-06
5.029158189e-06
4.971010605e-06
4.91471738e-06
4.860170639e-06
4.80740504e-06
4.756354176e-06
4.706957312e-06
4.659186685e-06
4.612980748e-06
4.568385023e-06
4.525307934e-06
4.483702227e-06
4.443556964e-06
4.40486974e-06
4.367576267e-06
4.331635016e-06
4.297018198e-06
4.263727708e-06
4.231705928e-06
4.200929451e-06
4.171380561e-06
4.143042144e-06
4.115868588e-06
4.089850033e-06
4.064974681e-06
4.041191385e-06
4.018485046e-06
3.996817209e-06
3.97619341e-06
3.956600457e-06
3.938001536e-06
3.920372605e-06
3.903686258e-06
3.887937213e-06
3.873103814e-06
3.859180421e-06
3.846135587e-06
3.833952096e-06
3.82262935e-06
3.81213155e-06
3.80245889e-06
3.793576487e-06
3.785451209e-06
3.77812044e-06
3.771548594e-06
3.765705779e-06
3.760570887e-06
3.756185009e-06
3.752499073e-06
3.74948338e-06
3.747130994e-06
3.745433937e-06
3.744375752e-06
3.743925738e-06
3.744053303e-06
3.744745722e-06
3.746028159e-06
3.747899369e-06
3.750339113e-06
3.753300089e-06
3.756816216e-06
3.760862492e-06
3.765423019e-06
3.770499158e-06
3.776041901e-06
3.782065191e-06
3.788565108e-06
3.795517776e-06
3.802908649e-06
3.810733491e-06
3.818976675e-06
3.827618931e-06
3.836649767e-06
3.846062803e-06
3.855850643e-06
3.865988116e-06
3.876454929e-06
3.887254584e-06
3.898369282e-06
3.909782266e-06
3.921478729e-06
3.933442231e-06
3.945667105e-06
3.958141335e-06
3.970843301e-06
3.983755366e-06
3.996873728e-06
4.010177478e-06
4.023649878e-06
4.037281676e-06
4.051050931e-06
4.064953361e-06
4.078969027e-06
4.093078902e-06
4.107270952e-06
4.121532675e-06
4.135850102e-06
4.15020233e-06
4.164580824e-06
4.178967071e-06
4.193345256e-06
4.207703788e-06
4.222028093e-06
4.236306028e-06
4.250524477e-06
4.264665056e-06
4.278718954e-06
4.292672379e-06
4.306508556e-06
4.320219953e-06
4.333795141e-06
4.347226732e-06
4.360495389e-06
4.373588452e-06
4.386506494e-06
4.399234591e-06
4.411761962e-06
4.424081534e-06
4.436183596e-06
4.44806625e-06
4.45971661e-06
4.471130884e-06
4.482299497e-06
4.49321138e-06
4.503872022e-06
4.514289492e-06
4.524436536e-06
4.534317349e-06
4.543924743e-06
4.553265175e-06
4.562337127e-06
4.571126942e-06
4.579647356e-06
4.587895293e-06
4.595869741e-06
4.603578402e-06
4.611010691e-06
4.618181922e-06
4.62508817e-06
4.631729253e-06
4.638120699e-06
4.644257141e-06
4.65015169e-06
4.65579456e-06
4.661201417e-06
4.666390563e-06
4.671365226e-06
4.676116052e-06
4.680660578e-06
4.685009731e-06
4.689167842e-06
4.693142287e-06
4.696941715e-06
4.700576632e-06
4.704055082e-06
4.7073909e-06
4.710594282e-06
4.713671313e-06
4.71663148e-06
4.719491703e-06
4.722256596e-06
4.724935922e-06
4.7275472e-06
4.730099627e-06
4.732599197e-06
4.735062046e-06
4.737496129e-06
4.739920804e-06
4.742338755e-06
4.744764346e-06
4.747206629e-06
4.749676396e-06
4.752186356e-06
4.754748497e-06
4.757375405e-06
4.760074532e-06
4.762857034e-06
4.765733123e-06
4.768716076e-06
4.771816777e-06
4.77504715e-06
4.778416513e-06
4.781929902e-06
4.785605888e-06
4.789450426e-06
4.793468953e-06
4.797681327e-06
4.802091924e-06
4.806707816e-06
4.811544829e-06
4.816606734e-06
4.821906418e-06
4.827454897e-06
4.833259914e-06
4.839323202e-06
4.845662382e-06
4.852280816e-06
4.85918688e-06
4.866382446e-06
4.873895328e-06
4.881709608e-06
4.889846372e-06
4.898321349e-06
4.907128902e-06
4.916270435e-06
4.925767263e-06
4.935623358e-06
4.945836077e-06
4.956420684e-06
4.967381969e-06
4.978727653e-06
4.990450008e-06
5.002565221e-06
5.015088565e-06
5.028013973e-06
5.041343332e-06
5.055101411e-06
5.069274643e-06
5.083870617e-06
5.098898344e-06
5.114361336e-06
5.130259222e-06
5.146604426e-06
5.163402187e-06
5.180648463e-06
5.198348286e-06
5.216518575e-06
5.23513858e-06
5.254227011e-06
5.273790706e-06
5.293825627e-06
5.314338709e-06
5.335332068e-06
5.356794766e-06
5.378739702e-06
5.401175431e-06
5.424103957e-06
5.447526266e-06
5.47143502e-06
5.495838074e-06
5.520734029e-06
5.546131555e-06
5.572020013e-06
5.598405106e-06
5.62529321e-06
5.652681206e-06
5.680574685e-06
5.708962786e-06
5.73785018e-06
5.767241963e-06
5.797130547e-06
5.827519665e-06
5.858410287e-06
5.889799085e-06
5.921681352e-06
5.954064532e-06
5.986931858e-06
6.020301475e-06
6.054158082e-06
6.088505277e-06
6.123336639e-06
6.158649349e-06
6.194442521e-06
6.230714911e-06
6.267461688e-06
6.304677926e-06
6.342362943e-06
6.380510758e-06
6.419115317e-06
6.458172218e-06
6.49768154e-06
6.537629225e-06
6.578017535e-06
6.618839619e-06
6.66008991e-06
6.701761056e-06
6.743845909e-06
6.786337491e-06
6.829231303e-06
6.872519834e-06
6.916191353e-06
6.960237936e-06
7.004655831e-06
7.049431871e-06
7.094558598e-06
7.140025978e-06
7.185829231e-06
7.231956091e-06
7.278395822e-06
7.325135164e-06
7.372164894e-06
7.419479434e-06
7.467070863e-06
7.514918154e-06
7.563006392e-06
7.611336971e-06
7.659890483e-06
7.708661797e-06
7.757636581e-06
7.806792486e-06
7.856121445e-06
7.905606366e-06
7.955246896e-06
8.005026138e-06
8.0549268e-06
8.104928864e-06
8.15502386e-06
8.205196982e-06
8.255435344e-06
8.305723841e-06
8.356038691e-06
8.406379488e-06
8.456730783e-06
8.507057228e-06
8.557362113e-06
8.607622583e-06
8.657816143e-06
8.707950611e-06
8.75800316e-06
8.807937802e-06
8.857744411e-06
8.907410991e-06
8.956925342e-06
9.006274568e-06
9.055442569e-06
9.104395826e-06
9.153124457e-06
9.201621093e-06
9.249862729e-06
9.297838118e-06
9.345526095e-06
9.392911233e-06
9.439977754e-06
9.48671249e-06
9.53311225e-06
9.579140104e-06
9.624772039e-06
9.67000684e-06
9.714844075e-06
9.75925084e-06
9.803213584e-06
9.84672622e-06
9.889757291e-06
9.932305664e-06
9.974384453e-06
1.001591775e-05
1.005691555e-05
1.009740639e-05
1.013732704e-05
1.017667307e-05
1.021545774e-05
1.025366166e-05
1.029121644e-05
1.032818338e-05
1.0364555e-05
1.040029403e-05
1.043537106e-05
1.046979741e-05
1.050354827e-05
1.053664084e-05
1.056906681e-05
1.060080342e-05
1.063182332e-05
1.066215804e-05
1.069181735e-05
1.072072678e-05
1.074891865e-05
1.077638952e-05
1.080316394e-05
1.08292041e-05
1.08544778e-05
1.08790218e-05
1.090285404e-05
1.092594678e-05
1.094827614e-05
1.096986621e-05
1.099069992e-05
1.101077573e-05
1.103014015e-05
1.104876969e-05
1.106665851e-05
1.108378287e-05
1.110017552e-05
1.111584225e-05
1.113079394e-05
1.114502567e-05
1.115851994e-05
1.117132151e-05
1.118340857e-05
1.119478611e-05
1.120548735e-05
1.121548601e-05
1.122479999e-05
1.123343295e-05
1.124142617e-05
1.124875108e-05
1.125541571e-05
1.126145193e-05
1.126686382e-05
1.127165476e-05
1.127584779e-05
1.127943049e-05
1.128244092e-05
1.128486887e-05
1.128672914e-05
1.128804251e-05
1.128883194e-05
1.128912127e-05
1.128891612e-05
1.128820537e-05
1.128704875e-05
1.128541261e-05
1.128330922e-05
1.128078955e-05
1.127782288e-05
1.127444457e-05
1.127065922e-05
1.126647213e-05
1.126190578e-05
1.125698624e-05
1.125171303e-05
1.124609443e-05
1.12401463e-05
1.123389433e-05
1.122734366e-05
1.122050573e-05
1.121340674e-05
1.120606729e-05
1.119848387e-05
1.119067892e-05
1.118266915e-05
1.117445536e-05
1.116606198e-05
1.115750518e-05
1.114879576e-05
1.113994637e-05
1.113097325e-05
1.112189147e-05
1.111270962e-05
1.11034488e-05
1.109411385e-05
1.108472764e-05
1.107529547e-05
1.106584035e-05
1.10563696e-05
1.104689595e-05
1.103742979e-05
1.102799001e-05
1.1018589e-05
1.100923578e-05
1.099994378e-05
1.099072638e-05
1.098159569e-05
1.097255974e-05
1.096362908e-05
1.095481834e-05
1.094613909e-05
1.093760029e-05
1.092921116e-05
1.092098558e-05
1.091293267e-05
1.090505602e-05
1.08973688e-05
1.08898862e-05
1.088261114e-05
1.087555387e-05
1.086871539e-05
1.086211093e-05
1.085574872e-05
1.084964039e-05
1.084378286e-05
1.083818473e-05
1.083286272e-05
1.082782312e-05
1.082306005e-05
1.081858377e-05
1.08143996e-05
1.081051732e-05
1.080694142e-05
1.080368116e-05
1.080075226e-05
1.079812492e-05
1.079582814e-05
1.079385643e-05
1.079221631e-05
1.079091957e-05
1.078995649e-05
1.078934217e-05
1.078906545e-05
1.078912954e-05
1.078952245e-05
1.079026266e-05
1.079134367e-05
1.079280897e-05
1.07946092e-05
1.079676479e-05
1.079927497e-05
1.080214883e-05
1.080538662e-05
1.080899296e-05
1.081294442e-05
1.081727272e-05
1.082197622e-05
1.082705129e-05
1.083247904e-05
1.083827014e-05
1.084442911e-05
1.085096192e-05
1.085785863e-05
1.086511345e-05
1.087272908e-05
1.088070658e-05
1.088903367e-05
1.089773106e-05
1.090678644e-05
1.091619841e-05
1.092596424e-05
1.09360764e-05
1.094654736e-05
1.095735189e-05
1.096849774e-05
1.097998515e-05
1.099180862e-05
1.100396804e-05
1.101646106e-05
1.102928266e-05
1.104242345e-05
1.105587819e-05
1.106965081e-05
1.108373406e-05
1.109812376e-05
1.111281026e-05
1.112780152e-05
1.114308172e-05
1.115864889e-05
1.117450254e-05
1.119062523e-05
1.120702754e-05
1.12236988e-05
1.12406294e-05
1.125781373e-05
1.12752488e-05
1.129293121e-05
1.13108475e-05
1.132899404e-05
1.134736787e-05
1.136595647e-05
1.138476079e-05
1.140377698e-05
1.142298728e-05
1.144239548e-05
1.146198813e-05
1.148176196e-05
1.150170832e-05
1.152182125e-05
1.154208894e-05
1.156251098e-05
1.158307832e-05
1.160378186e-05
1.162461469e-05
1.164557123e-05
1.166664048e-05
1.168782035e-05
1.17091011e-05
1.173047228e-05
1.175193096e-05
1.177346669e-05
1.179506956e-05
1.181673501e-05
1.183845395e-05
1.18602193e-05
1.188202156e-05
1.190385436e-05
1.192570896e-05
1.194757681e-05
1.196945145e-05
1.199132326e-05
1.201318513e-05
1.203503037e-05
1.205685087e-05
1.207863837e-05
1.210038564e-05
1.212208048e-05
1.214371987e-05
1.216529929e-05
1.218680365e-05
1.220823051e-05
1.222956912e-05
1.225081514e-05
1.227195952e-05
1.229299344e-05
1.231391351e-05
1.233471169e-05
1.235537712e-05
1.237590144e-05
1.239628292e-05
1.241651645e-05
1.243659806e-05
1.245651273e-05
1.247625351e-05
1.249581219e-05
1.2515194e-05
1.253437871e-05
1.255337032e-05
1.257215173e-05
1.259072604e-05
1.260909494e-05
1.262723326e-05
1.264514441e-05
1.266282255e-05
1.268026438e-05
1.26974663e-05
1.271442665e-05
1.27311259e-05
1.274756772e-05
1.276374488e-05
1.277964624e-05
1.279527799e-05
1.28106348e-05
1.282572106e-05
1.284051389e-05
1.285501184e-05
1.286921207e-05
1.288311321e-05
1.289671935e-05
1.291002934e-05
1.292302037e-05
1.293570119e-05
1.294805837e-05
1.296009164e-05
1.297181917e-05
1.298322916e-05
1.299430292e-05
1.300504527e-05
1.301545556e-05
1.302552494e-05
1.303526759e-05
1.30446733e-05
1.305373748e-05
1.306245837e-05
1.307083722e-05
1.307887151e-05
1.308656228e-05
1.309390008e-05
1.310090424e-05
1.310755248e-05
1.311385243e-05
1.311981555e-05
1.312542234e-05
1.313067539e-05
1.313557309e-05
1.314013343e-05
1.314434468e-05
1.314820764e-05
1.315172549e-05
1.315489101e-05
1.315771314e-05
1.316018201e-05
1.316230811e-05
1.316410008e-05
1.316553951e-05
1.316663805e-05
1.31674048e-05
1.316784241e-05
1.31679547e-05
1.316773717e-05
1.316720724e-05
1.316636306e-05
1.316518641e-05
1.316369527e-05
1.316188212e-05
1.315975153e-05
1.315729463e-05
1.315452807e-05
1.315145477e-05
1.314806602e-05
1.31443783e-05
1.314038462e-05
1.313608095e-05
1.313147889e-05
1.312659026e-05
1.312140556e-05
1.311592578e-05
1.311016577e-05
1.310412091e-05
1.309780246e-05
1.309120272e-05
1.308432675e-05
1.307718547e-05
1.306977071e-05
1.306209643e-05
1.305417223e-05
1.304598372e-05
1.303754242e-05
1.302885251e-05
1.301992436e-05
1.301075716e-05
1.300134849e-05
1.299171309e-05
1.2981853e-05
1.297177318e-05
1.296146714e-05
1.295094419e-05
1.294021211e-05
1.292927352e-05
1.291813609e-05
1.29068034e-05
1.289527689e-05
1.288355579e-05
1.287165167e-05
1.285956515e-05
1.284730236e-05
1.283486882e-05
1.282226964e-05
1.280950587e-05
1.279657872e-05
1.278349648e-05
1.277026731e-05
1.275689459e-05
1.274337494e-05
1.272971459e-05
1.271592131e-05
1.270200246e-05
1.268795988e-05
1.267378756e-05
1.265949967e-05
1.264510214e-05
1.263059446e-05
1.261598253e-05
1.260126557e-05
1.258644973e-05
1.257154366e-05
1.255654407e-05
1.254145769e-05
1.252629114e-05
1.251104548e-05
1.249572222e-05
1.248032717e-05
1.246486696e-05
1.244933804e-05
1.243375202e-05
1.241810721e-05
1.240240993e-05
1.238666148e-05
1.237086229e-05
1.235501844e-05
1.233913538e-05
1.23232132e-05
1.230725688e-05
1.229126887e-05
1.227525103e-05
1.225920656e-05
1.224313551e-05
1.222704379e-05
1.221093549e-05
1.219481142e-05
1.217867328e-05
1.216252507e-05
1.214636792e-05
1.213020311e-05
1.211403448e-05
1.209786544e-05
1.208169706e-05
1.206553275e-05
1.204937127e-05
1.203321712e-05
1.201707201e-05
1.200093539e-05
1.198481324e-05
1.196870468e-05
1.195261238e-05
1.193653748e-05
1.192047953e-05
1.190444309e-05
1.188842827e-05
1.187243635e-05
1.185646868e-05
1.184052632e-05
1.182461092e-05
1.180872416e-05
1.179286608e-05
1.177703755e-05
1.176123995e-05
1.174547413e-05
1.172974101e-05
1.171404086e-05
1.169837482e-05
1.16827433e-05
1.166714742e-05
1.165158738e-05
1.163606363e-05
1.162057667e-05
1.160512657e-05
1.158971346e-05
1.157433826e-05
1.15590009e-05
1.154370148e-05
1.152844004e-05
1.151321654e-05
1.149803135e-05
1.148288384e-05
1.146777398e-05
1.145270173e-05
1.143766707e-05
1.142266994e-05
1.140770976e-05
1.139278611e-05
1.137789863e-05
1.136304711e-05
1.134823106e-05
1.133345e-05
1.131870341e-05
1.130399074e-05
1.12893115e-05
1.127466485e-05
1.126005022e-05
1.124546722e-05
1.123091475e-05
1.121639237e-05
1.120189895e-05
1.1187434e-05
1.117299679e-05
1.115858633e-05
1.114420174e-05
1.11298422e-05
1.111550681e-05
1.110119473e-05
1.108690507e-05
1.107263662e-05
1.105838854e-05
1.104416003e-05
1.102995007e-05
1.101575735e-05
1.100158108e-05
1.09874204e-05
1.097327384e-05
1.09591403e-05
1.094501905e-05
1.093090888e-05
1.091680863e-05
1.090271726e-05
1.088863383e-05
1.087455729e-05
1.08604859e-05
1.084641888e-05
1.083235502e-05
1.081829352e-05
1.080423323e-05
1.079017247e-05
1.077611013e-05
1.076204579e-05
1.074797852e-05
1.073390666e-05
1.071982876e-05
1.070574461e-05
1.069165162e-05
1.067755003e-05
1.066343892e-05
1.064931578e-05
1.063518062e-05
1.062103255e-05
1.060687013e-05
1.059269286e-05
1.057849863e-05
1.056428689e-05
1.055005823e-05
1.053580922e-05
1.052154009e-05
1.050725009e-05
1.049293837e-05
1.047860373e-05
1.046424534e-05
1.044986234e-05
1.043545401e-05
1.042101957e-05
1.04065583e-05
1.039206943e-05
1.037755227e-05
1.036300618e-05
1.034843043e-05
1.033382452e-05
1.031918785e-05
1.030451984e-05
1.028981998e-05
1.027508784e-05
1.026032291e-05
1.024552482e-05
1.023069315e-05
1.021582759e-05
1.020092784e-05
1.018599358e-05
1.017102455e-05
1.015602062e-05
1.014098155e-05
1.012590725e-05
1.011079764e-05
1.009565256e-05
1.008047212e-05
1.006525625e-05
1.005000496e-05
1.003471845e-05
1.001939678e-05
1.000404009e-05
9.988648683e-06
9.97322274e-06
9.957762558e-06
9.942268389e-06
9.926740678e-06
9.911179805e-06
9.895586156e-06
9.87996034e-06
9.864302019e-06
9.84861236e-06
9.832893476e-06
9.817144004e-06
9.801364439e-06
9.785556408e-06
9.769720286e-06
9.753856941e-06
9.737967044e-06
9.722051434e-06
9.706110988e-06
9.69014661e-06
9.67415911e-06
9.658149491e-06
9.642118725e-06
9.626067783e-06
9.609997722e-06
9.593909533e-06
9.577804328e-06
9.561683239e-06
9.545547315e-06
9.52939777e-06
9.513235845e-06
9.497062621e-06
9.480879294e-06
9.46468713e-06
9.448487417e-06
9.432281372e-06
9.416070333e-06
9.399855568e-06
9.383638421e-06
9.36742023e-06
9.351202236e-06
9.33498587e-06
9.318772502e-06
9.302563478e-06
9.286360198e-06
9.270164048e-06
9.253976419e-06
9.237798695e-06
9.221632263e-06
9.205478545e-06
9.18933897e-06
9.173214943e-06
9.157107805e-06
9.141018965e-06
9.124949843e-06
9.108901879e-06
9.092876359e-06
9.076874787e-06
9.060898496e-06
9.044948853e-06
9.029027173e-06
9.013134901e-06
8.997273323e-06
8.981443768e-06
8.965647556e-06
8.949886017e-06
8.934160417e-06
8.918472035e-06
8.902822161e-06
8.887211978e-06
8.871642826e-06
8.856116091e-06
8.840632931e-06
8.825194605e-06
8.809802349e-06
8.794457236e-06
8.779160443e-06
8.763913079e-06
8.748716189e-06
8.733570835e-06
8.7184781e-06
8.703438945e-06
8.688454329e-06
8.67352525e-06
8.658652613e-06
8.643837306e-06
8.629080185e-06
8.614382113e-06
8.599743895e-06
8.585166352e-06
8.570650218e-06
8.5561963e-06
8.541805347e-06
8.527477958e-06
8.51321489e-06
8.499016789e-06
8.484884194e-06
8.470817714e-06
8.456818035e-06
8.442885552e-06
8.429020779e-06
8.415224272e-06
8.401496584e-06
8.387838026e-06
8.374249114e-06
8.360730224e-06
8.347281798e-06
8.333904225e-06
8.320597588e-06
8.307362315e-06
8.2941992e-06
8.281107844e-06
8.268088748e-06
8.255142184e-06
8.242268417e-06
8.229467745e-06
8.216739526e-06
8.20408442e-06
8.191503984e-06
8.178996774e-06
8.166562224e-06
8.154201462e-06
8.141915324e-06
8.129703889e-06
8.117566203e-06
8.105500172e-06
8.093510398e-06
8.081595746e-06
8.069754068e-06
8.057986472e-06
8.046292895e-06
8.034673417e-06
8.023127799e-06
8.011655885e-06
8.000258456e-06
7.988934923e-06
7.977685214e-06
7.966509056e-06
7.955406541e-06
7.944377563e-06
7.933422039e-06
7.92253985e-06
7.911730837e-06
7.900994906e-06
7.890331926e-06
7.879741736e-06
7.869224225e-06
7.858779301e-06
7.848406732e-06
7.838106363e-06
7.827878051e-06
7.817721636e-06
7.80763695e-06
7.797623822e-06
7.787682058e-06
7.777811487e-06
7.768011893e-06
7.758283153e-06
7.748625053e-06
7.739037407e-06
7.729519988e-06
7.72007264e-06
7.710695124e-06
7.701387232e-06
7.692148768e-06
7.682979542e-06
7.673879291e-06
7.664847864e-06
7.65588496e-06
7.646990369e-06
7.638163914e-06
7.629405311e-06
7.620714349e-06
7.612090802e-06
7.603534403e-06
7.595044901e-06
7.586622048e-06
7.578265629e-06
7.569975401e-06
7.561751009e-06
7.553592201e-06
7.54549874e-06
7.537470334e-06
7.529506753e-06
7.52160764e-06
7.513772719e-06
7.506001724e-06
7.498294328e-06