/*--------------------------------*- C++ -*----------------------------------*\
| =========                 |                                                 |
| \\      /  F ield         | OpenFOAM: The Open Source CFD Toolbox           |
|  \\    /   O peration     | Version:  2312                                  |
|   \\  /    A nd           | Website:  www.openfoam.com                      |
|    \\/     M anipulation  |                                                 |
\*---------------------------------------------------------------------------*/
FoamFile
{
    version     2.0;
    format      ascii;
    arch        "LSB;label=32;scalar=64";
    class       volVectorField;
    location    "0.003";
    object      U;
}
// * * * * * * * * * * * * * * * * * * * * * * * * * * * * * * * * * * * * * //

dimensions      [0 1 -1 0 0 0 0];

internalField   nonuniform List<vector> 
8000
(
(9.999991655 0 0)
(9.999998091 0 0)
(9.999998834 0 0)
(9.999998352 0 0)
(9.999998279 0 0)
(9.999998314 0 0)
(9.999998319 0 0)
(9.999998315 0 0)
(9.999998314 0 0)
(9.999998313 0 0)
(9.999998312 0 0)
(9.999998311 0 0)
(9.999998311 0 0)
(9.999998312 0 0)
(9.999998313 0 0)
(9.999998316 0 0)
(9.99999832 0 0)
(9.999998324 0 0)
(9.99999833 0 0)
(9.999998335 0 0)
(9.99999834 0 0)
(9.999998344 0 0)
(9.999998347 0 0)
(9.999998349 0 0)
(9.99999835 0 0)
(9.999998349 0 0)
(9.999998348 0 0)
(9.999998346 0 0)
(9.999998344 0 0)
(9.999998342 0 0)
(9.999998339 0 0)
(9.999998337 0 0)
(9.999998335 0 0)
(9.999998333 0 0)
(9.999998332 0 0)
(9.999998331 0 0)
(9.99999833 0 0)
(9.999998329 0 0)
(9.999998328 0 0)
(9.999998328 0 0)
(9.999998328 0 0)
(9.999998327 0 0)
(9.999998327 0 0)
(9.999998327 0 0)
(9.999998327 0 0)
(9.999998327 0 0)
(9.999998327 0 0)
(9.999998327 0 0)
(9.999998327 0 0)
(9.999998327 0 0)
(9.999998327 0 0)
(9.999998327 0 0)
(9.999998327 0 0)
(9.999998327 0 0)
(9.999998327 0 0)
(9.999998327 0 0)
(9.999998327 0 0)
(9.999998327 0 0)
(9.999998327 0 0)
(9.999998327 0 0)
(9.999998327 0 0)
(9.999998327 0 0)
(9.999998327 0 0)
(9.999998327 0 0)
(9.999998327 0 0)
(9.999998327 0 0)
(9.999998327 0 0)
(9.999998327 0 0)
(9.999998327 0 0)
(9.999998327 0 0)
(9.999998327 0 0)
(9.999998327 0 0)
(9.999998327 0 0)
(9.999998327 0 0)
(9.999998327 0 0)
(9.999998327 0 0)
(9.999998327 0 0)
(9.999998327 0 0)
(9.999998327 0 0)
(9.999998327 0 0)
(9.999998327 0 0)
(9.999998327 0 0)
(9.999998327 0 0)
(9.999998327 0 0)
(9.999998327 0 0)
(9.999998327 0 0)
(9.999998327 0 0)
(9.999998327 0 0)
(9.999998327 0 0)
(9.999998327 0 0)
(9.999998327 0 0)
(9.999998327 0 0)
(9.999998327 0 0)
(9.999998327 0 0)
(9.999998327 0 0)
(9.999998327 0 0)
(9.999998327 0 0)
(9.999998327 0 0)
(9.999998327 0 0)
(9.999998327 0 0)
(9.999998327 0 0)
(9.999998327 0 0)
(9.999998327 0 0)
(9.999998327 0 0)
(9.999998327 0 0)
(9.999998326 0 0)
(9.999998326 0 0)
(9.999998326 0 0)
(9.999998326 0 0)
(9.999998326 0 0)
(9.999998326 0 0)
(9.999998326 0 0)
(9.999998326 0 0)
(9.999998326 0 0)
(9.999998326 0 0)
(9.999998326 0 0)
(9.999998326 0 0)
(9.999998326 0 0)
(9.999998326 0 0)
(9.999998326 0 0)
(9.999998326 0 0)
(9.999998326 0 0)
(9.999998325 0 0)
(9.999998325 0 0)
(9.999998325 0 0)
(9.999998325 0 0)
(9.999998325 0 0)
(9.999998325 0 0)
(9.999998325 0 0)
(9.999998325 0 0)
(9.999998324 0 0)
(9.999998324 0 0)
(9.999998324 0 0)
(9.999998324 0 0)
(9.999998324 0 0)
(9.999998323 0 0)
(9.999998323 0 0)
(9.999998323 0 0)
(9.999998322 0 0)
(9.999998322 0 0)
(9.999998322 0 0)
(9.999998321 0 0)
(9.999998321 0 0)
(9.999998321 0 0)
(9.99999832 0 0)
(9.99999832 0 0)
(9.999998319 0 0)
(9.999998318 0 0)
(9.999998318 0 0)
(9.999998317 0 0)
(9.999998316 0 0)
(9.999998315 0 0)
(9.999998314 0 0)
(9.999998313 0 0)
(9.999998312 0 0)
(9.999998311 0 0)
(9.99999831 0 0)
(9.999998308 0 0)
(9.999998306 0 0)
(9.999998305 0 0)
(9.999998303 0 0)
(9.999998301 0 0)
(9.999998299 0 0)
(9.999998297 0 0)
(9.999998295 0 0)
(9.999998292 0 0)
(9.99999829 0 0)
(9.999998287 0 0)
(9.999998284 0 0)
(9.99999828 0 0)
(9.999998277 0 0)
(9.999998274 0 0)
(9.99999827 0 0)
(9.999998266 0 0)
(9.999998262 0 0)
(9.999998258 0 0)
(9.999998253 0 0)
(9.999998249 0 0)
(9.999998244 0 0)
(9.99999824 0 0)
(9.999998235 0 0)
(9.99999823 0 0)
(9.999998225 0 0)
(9.99999822 0 0)
(9.999998216 0 0)
(9.999998211 0 0)
(9.999998207 0 0)
(9.999998202 0 0)
(9.999998198 0 0)
(9.999998195 0 0)
(9.999998191 0 0)
(9.999998188 0 0)
(9.999998186 0 0)
(9.999998184 0 0)
(9.999998183 0 0)
(9.999998182 0 0)
(9.999998181 0 0)
(9.999998182 0 0)
(9.999998182 0 0)
(9.999998184 0 0)
(9.999998186 0 0)
(9.999998189 0 0)
(9.999998192 0 0)
(9.999998197 0 0)
(9.999998202 0 0)
(9.999998207 0 0)
(9.999998213 0 0)
(9.999998219 0 0)
(9.999998227 0 0)
(9.999998234 0 0)
(9.999998242 0 0)
(9.99999825 0 0)
(9.999998258 0 0)
(9.999998267 0 0)
(9.999998275 0 0)
(9.999998283 0 0)
(9.999998292 0 0)
(9.9999983 0 0)
(9.999998307 0 0)
(9.999998315 0 0)
(9.999998322 0 0)
(9.999998329 0 0)
(9.999998335 0 0)
(9.999998341 0 0)
(9.999998346 0 0)
(9.99999835 0 0)
(9.999998354 0 0)
(9.999998357 0 0)
(9.99999836 0 0)
(9.999998362 0 0)
(9.999998364 0 0)
(9.999998365 0 0)
(9.999998365 0 0)
(9.999998365 0 0)
(9.999998365 0 0)
(9.999998364 0 0)
(9.999998363 0 0)
(9.999998362 0 0)
(9.99999836 0 0)
(9.999998358 0 0)
(9.999998355 0 0)
(9.999998353 0 0)
(9.99999835 0 0)
(9.999998348 0 0)
(9.999998345 0 0)
(9.999998343 0 0)
(9.99999834 0 0)
(9.999998338 0 0)
(9.999998335 0 0)
(9.999998333 0 0)
(9.999998332 0 0)
(9.99999833 0 0)
(9.999998329 0 0)
(9.999998328 0 0)
(9.999998327 0 0)
(9.999998327 0 0)
(9.999998327 0 0)
(9.999998327 0 0)
(9.999998328 0 0)
(9.999998329 0 0)
(9.999998331 0 0)
(9.999998332 0 0)
(9.999998335 0 0)
(9.999998337 0 0)
(9.99999834 0 0)
(9.999998343 0 0)
(9.999998346 0 0)
(9.99999835 0 0)
(9.999998354 0 0)
(9.999998358 0 0)
(9.999998363 0 0)
(9.999998368 0 0)
(9.999998373 0 0)
(9.999998378 0 0)
(9.999998384 0 0)
(9.99999839 0 0)
(9.999998397 0 0)
(9.999998404 0 0)
(9.999998411 0 0)
(9.999998418 0 0)
(9.999998426 0 0)
(9.999998435 0 0)
(9.999998443 0 0)
(9.999998452 0 0)
(9.999998462 0 0)
(9.999998473 0 0)
(9.999998484 0 0)
(9.999998495 0 0)
(9.999998507 0 0)
(9.99999852 0 0)
(9.999998534 0 0)
(9.999998549 0 0)
(9.999998564 0 0)
(9.99999858 0 0)
(9.999998597 0 0)
(9.999998616 0 0)
(9.999998635 0 0)
(9.999998656 0 0)
(9.999998677 0 0)
(9.9999987 0 0)
(9.999998725 0 0)
(9.99999875 0 0)
(9.999998778 0 0)
(9.999998807 0 0)
(9.999998838 0 0)
(9.99999887 0 0)
(9.999998905 0 0)
(9.999998942 0 0)
(9.99999898 0 0)
(9.999999021 0 0)
(9.999999064 0 0)
(9.99999911 0 0)
(9.999999159 0 0)
(9.99999921 0 0)
(9.999999264 0 0)
(9.999999322 0 0)
(9.999999382 0 0)
(9.999999447 0 0)
(9.999999515 0 0)
(9.999999587 0 0)
(9.999999663 0 0)
(9.999999744 0 0)
(9.99999983 0 0)
(9.99999992 0 0)
(10.00000002 0 0)
(10.00000012 0 0)
(10.00000023 0 0)
(10.00000034 0 0)
(10.00000046 0 0)
(10.00000059 0 0)
(10.00000073 0 0)
(10.00000087 0 0)
(10.00000102 0 0)
(10.00000118 0 0)
(10.00000135 0 0)
(10.00000153 0 0)
(10.00000173 0 0)
(10.00000193 0 0)
(10.00000214 0 0)
(10.00000237 0 0)
(10.00000261 0 0)
(10.00000287 0 0)
(10.00000314 0 0)
(10.00000342 0 0)
(10.00000372 0 0)
(10.00000404 0 0)
(10.00000438 0 0)
(10.00000474 0 0)
(10.00000511 0 0)
(10.00000551 0 0)
(10.00000593 0 0)
(10.00000637 0 0)
(10.00000684 0 0)
(10.00000733 0 0)
(10.00000786 0 0)
(10.00000841 0 0)
(10.00000898 0 0)
(10.0000096 0 0)
(10.00001024 0 0)
(10.00001092 0 0)
(10.00001163 0 0)
(10.00001238 0 0)
(10.00001318 0 0)
(10.00001401 0 0)
(10.00001489 0 0)
(10.00001582 0 0)
(10.00001679 0 0)
(10.00001782 0 0)
(10.00001888 0 0)
(10.00002001 0 0)
(10.0000212 0 0)
(10.00002245 0 0)
(10.00002377 0 0)
(10.00002515 0 0)
(10.00002658 0 0)
(10.00002811 0 0)
(10.0000297 0 0)
(10.00003137 0 0)
(10.00003313 0 0)
(10.00003497 0 0)
(10.0000369 0 0)
(10.00003892 0 0)
(10.00004104 0 0)
(10.00004327 0 0)
(10.0000456 0 0)
(10.00004804 0 0)
(10.00005059 0 0)
(10.00005327 0 0)
(10.00005607 0 0)
(10.000059 0 0)
(10.00006207 0 0)
(10.00006528 0 0)
(10.00006863 0 0)
(10.00007214 0 0)
(10.00007581 0 0)
(10.00007965 0 0)
(10.00008367 0 0)
(10.00008785 0 0)
(10.00009222 0 0)
(10.00009681 0 0)
(10.00010157 0 0)
(10.0001065 0 0)
(10.00011174 0 0)
(10.00011715 0 0)
(10.00012282 0 0)
(10.0001287 0 0)
(10.00013487 0 0)
(10.00014124 0 0)
(10.00014798 0 0)
(10.00015488 0 0)
(10.00016214 0 0)
(10.00016969 0 0)
(10.00017757 0 0)
(10.00018577 0 0)
(10.00019426 0 0)
(10.00020316 0 0)
(10.00021235 0 0)
(10.000222 0 0)
(10.00023197 0 0)
(10.00024231 0 0)
(10.00025308 0 0)
(10.00026434 0 0)
(10.00027591 0 0)
(10.00028807 0 0)
(10.00030065 0 0)
(10.00031364 0 0)
(10.0003272 0 0)
(10.00034121 0 0)
(10.00035579 0 0)
(10.00037087 0 0)
(10.00038659 0 0)
(10.00040285 0 0)
(10.00041981 0 0)
(10.00043717 0 0)
(10.00045529 0 0)
(10.00047395 0 0)
(10.0004935 0 0)
(10.00051359 0 0)
(10.00053431 0 0)
(10.00055602 0 0)
(10.0005782 0 0)
(10.0006012 0 0)
(10.00062511 0 0)
(10.0006498 0 0)
(10.0006754 0 0)
(10.00070166 0 0)
(10.00072887 0 0)
(10.00075705 0 0)
(10.00078612 0 0)
(10.00081619 0 0)
(10.000847 0 0)
(10.0008791 0 0)
(10.00091194 0 0)
(10.0009461 0 0)
(10.00098125 0 0)
(10.00101748 0 0)
(10.0010549 0 0)
(10.00109323 0 0)
(10.00113293 0 0)
(10.00117393 0 0)
(10.00121604 0 0)
(10.00125931 0 0)
(10.00130393 0 0)
(10.00134996 0 0)
(10.00139726 0 0)
(10.00144587 0 0)
(10.00149579 0 0)
(10.00154741 0 0)
(10.00160027 0 0)
(10.00165438 0 0)
(10.00171061 0 0)
(10.001768 0 0)
(10.00182677 0 0)
(10.00188746 0 0)
(10.00194978 0 0)
(10.0020135 0 0)
(10.00207887 0 0)
(10.00214632 0 0)
(10.00221518 0 0)
(10.00228587 0 0)
(10.0023584 0 0)
(10.00243273 0 0)
(10.00250901 0 0)
(10.00258714 0 0)
(10.00266677 0 0)
(10.00274854 0 0)
(10.0028324 0 0)
(10.00291839 0 0)
(10.00300608 0 0)
(10.00309559 0 0)
(10.0031874 0 0)
(10.00328183 0 0)
(10.00337732 0 0)
(10.00347566 0 0)
(10.00357599 0 0)
(10.00367858 0 0)
(10.00378348 0 0)
(10.00389002 0 0)
(10.00399881 0 0)
(10.00411042 0 0)
(10.00422379 0 0)
(10.00434028 0 0)
(10.00445782 0 0)
(10.00457846 0 0)
(10.00470151 0 0)
(10.00482719 0 0)
(10.00495412 0 0)
(10.00508401 0 0)
(10.00521619 0 0)
(10.00535098 0 0)
(10.00548832 0 0)
(10.00562778 0 0)
(10.00576952 0 0)
(10.00591383 0 0)
(10.00606085 0 0)
(10.0062101 0 0)
(10.00636213 0 0)
(10.00651583 0 0)
(10.00667249 0 0)
(10.00683148 0 0)
(10.00699252 0 0)
(10.00715619 0 0)
(10.00732265 0 0)
(10.00749105 0 0)
(10.00766246 0 0)
(10.00783571 0 0)
(10.00801142 0 0)
(10.00818945 0 0)
(10.00836968 0 0)
(10.00855245 0 0)
(10.00873758 0 0)
(10.00892491 0 0)
(10.00911457 0 0)
(10.00930629 0 0)
(10.00950007 0 0)
(10.00969575 0 0)
(10.00989428 0 0)
(10.01009456 0 0)
(10.01029715 0 0)
(10.01050099 0 0)
(10.01070778 0 0)
(10.0109158 0 0)
(10.01112604 0 0)
(10.01133795 0 0)
(10.01155175 0 0)
(10.01176716 0 0)
(10.01198441 0 0)
(10.01220324 0 0)
(10.01242361 0 0)
(10.01264551 0 0)
(10.01286884 0 0)
(10.01309345 0 0)
(10.01331956 0 0)
(10.01354684 0 0)
(10.0137753 0 0)
(10.01400486 0 0)
(10.01423545 0 0)
(10.01446695 0 0)
(10.01469938 0 0)
(10.01493255 0 0)
(10.01516645 0 0)
(10.01540096 0 0)
(10.01563591 0 0)
(10.01587142 0 0)
(10.01610702 0 0)
(10.01634327 0 0)
(10.01657938 0 0)
(10.01681558 0 0)
(10.01705163 0 0)
(10.01728788 0 0)
(10.01752361 0 0)
(10.01775902 0 0)
(10.01799381 0 0)
(10.01822803 0 0)
(10.01846149 0 0)
(10.01869412 0 0)
(10.01892575 0 0)
(10.01915629 0 0)
(10.0193856 0 0)
(10.01961361 0 0)
(10.01984012 0 0)
(10.0200647 0 0)
(10.02028837 0 0)
(10.02050948 0 0)
(10.02072899 0 0)
(10.02094616 0 0)
(10.02116116 0 0)
(10.02137351 0 0)
(10.0215835 0 0)
(10.02179089 0 0)
(10.0219954 0 0)
(10.02219697 0 0)
(10.02239516 0 0)
(10.02259076 0 0)
(10.02278252 0 0)
(10.02297092 0 0)
(10.02315575 0 0)
(10.02333643 0 0)
(10.02351305 0 0)
(10.02368577 0 0)
(10.02385443 0 0)
(10.02401924 0 0)
(10.0241777 0 0)
(10.0243331 0 0)
(10.02448322 0 0)
(10.02462751 0 0)
(10.0247674 0 0)
(10.02490336 0 0)
(10.02503111 0 0)
(10.02515355 0 0)
(10.02527341 0 0)
(10.02538378 0 0)
(10.02549076 0 0)
(10.02558942 0 0)
(10.02568367 0 0)
(10.02576916 0 0)
(10.02585126 0 0)
(10.02592323 0 0)
(10.02599147 0 0)
(10.02605117 0 0)
(10.02610329 0 0)
(10.02614799 0 0)
(10.02618585 0 0)
(10.02621731 0 0)
(10.02623831 0 0)
(10.02625427 0 0)
(10.0262627 0 0)
(10.0262618 0 0)
(10.02625453 0 0)
(10.02623948 0 0)
(10.0262134 0 0)
(10.02618238 0 0)
(10.02614172 0 0)
(10.02609179 0 0)
(10.02603555 0 0)
(10.02596958 0 0)
(10.02589425 0 0)
(10.02580966 0 0)
(10.02571639 0 0)
(10.02561395 0 0)
(10.02550213 0 0)
(10.02537982 0 0)
(10.02525105 0 0)
(10.02511094 0 0)
(10.02496064 0 0)
(10.02480344 0 0)
(10.02463481 0 0)
(10.02445645 0 0)
(10.02426815 0 0)
(10.02407031 0 0)
(10.02386164 0 0)
(10.02364576 0 0)
(10.02341867 0 0)
(10.02318175 0 0)
(10.02293458 0 0)
(10.02267848 0 0)
(10.02241189 0 0)
(10.02213457 0 0)
(10.02184925 0 0)
(10.02155107 0 0)
(10.02124697 0 0)
(10.0209306 0 0)
(10.02060429 0 0)
(10.02026818 0 0)
(10.01992373 0 0)
(10.0195674 0 0)
(10.01920453 0 0)
(10.01883124 0 0)
(10.01844711 0 0)
(10.01805379 0 0)
(10.01765133 0 0)
(10.0172388 0 0)
(10.01681919 0 0)
(10.01638937 0 0)
(10.01595324 0 0)
(10.01550311 0 0)
(10.01504833 0 0)
(10.01458433 0 0)
(10.01411072 0 0)
(10.01362945 0 0)
(10.01313952 0 0)
(10.01264427 0 0)
(10.01213954 0 0)
(10.01162683 0 0)
(10.01110625 0 0)
(10.01057978 0 0)
(10.01004481 0 0)
(10.00950451 0 0)
(10.00895639 0 0)
(10.00840234 0 0)
(10.00784236 0 0)
(10.00727578 0 0)
(10.00670317 0 0)
(10.00612532 0 0)
(10.00554268 0 0)
(10.00495452 0 0)
(10.00436184 0 0)
(10.00376392 0 0)
(10.00316199 0 0)
(10.00255611 0 0)
(10.001946 0 0)
(10.00133246 0 0)
(10.00071615 0 0)
(10.00009679 0 0)
(9.999474609 0 0)
(9.99884945 0 0)
(9.998223012 0 0)
(9.997594274 0 0)
(9.996964148 0 0)
(9.996332759 0 0)
(9.995700873 0 0)
(9.995067478 0 0)
(9.994433678 0 0)
(9.99380073 0 0)
(9.993167319 0 0)
(9.992534703 0 0)
(9.991902924 0 0)
(9.991272548 0 0)
(9.990643013 0 0)
(9.990015855 0 0)
(9.989390925 0 0)
(9.988768247 0 0)
(9.988148503 0 0)
(9.987531796 0 0)
(9.986918536 0 0)
(9.986308857 0 0)
(9.985703035 0 0)
(9.98510119 0 0)
(9.984504174 0 0)
(9.983912287 0 0)
(9.983325481 0 0)
(9.982744306 0 0)
(9.982167734 0 0)
(9.981598193 0 0)
(9.98103346 0 0)
(9.980476771 0 0)
(9.979926613 0 0)
(9.979383414 0 0)
(9.978845644 0 0)
(9.978317213 0 0)
(9.977795806 0 0)
(9.977283838 0 0)
(9.976776997 0 0)
(9.97627977 0 0)
(9.975792794 0 0)
(9.97531372 0 0)
(9.974844311 0 0)
(9.974381285 0 0)
(9.973928703 0 0)
(9.973488984 0 0)
(9.973053431 0 0)
(9.972630042 0 0)
(9.972218809 0 0)
(9.971815948 0 0)
(9.971422361 0 0)
(9.971039548 0 0)
(9.970668823 0 0)
(9.970306638 0 0)
(9.96995514 0 0)
(9.969617354 0 0)
(9.969285653 0 0)
(9.968967177 0 0)
(9.968661097 0 0)
(9.968363759 0 0)
(9.968078023 0 0)
(9.967803884 0 0)
(9.967540925 0 0)
(9.967290201 0 0)
(9.967044417 0 0)
(9.966816529 0 0)
(9.966597035 0 0)
(9.966390211 0 0)
(9.966187461 0 0)
(9.966007298 0 0)
(9.965828436 0 0)
(9.965665405 0 0)
(9.965510055 0 0)
(9.965366978 0 0)
(9.965235106 0 0)
(9.965113171 0 0)
(9.965002766 0 0)
(9.964900502 0 0)
(9.964808447 0 0)
(9.964727365 0 0)
(9.964656796 0 0)
(9.964592321 0 0)
(9.964542716 0 0)
(9.964500859 0 0)
(9.964467826 0 0)
(9.964443788 0 0)
(9.964428628 0 0)
(9.964422491 0 0)
(9.964424002 0 0)
(9.964433466 0 0)
(9.964451534 0 0)
(9.964478403 0 0)
(9.964512557 0 0)
(9.96455295 0 0)
(9.964604785 0 0)
(9.964657685 0 0)
(9.964723995 0 0)
(9.964792979 0 0)
(9.964869547 0 0)
(9.964954064 0 0)
(9.96504274 0 0)
(9.965138884 0 0)
(9.965241131 0 0)
(9.965347974 0 0)
(9.965459427 0 0)
(9.965577075 0 0)
(9.965699612 0 0)
(9.96582704 0 0)
(9.965958728 0 0)
(9.966094343 0 0)
(9.966233875 0 0)
(9.966378587 0 0)
(9.9665254 0 0)
(9.966675184 0 0)
(9.966829811 0 0)
(9.966985256 0 0)
(9.96714395 0 0)
(9.967306014 0 0)
(9.967470118 0 0)
(9.967635276 0 0)
(9.967802038 0 0)
(9.967971673 0 0)
(9.968141735 0 0)
(9.968312383 0 0)
(9.968484431 0 0)
(9.968658111 0 0)
(9.968831639 0 0)
(9.969005575 0 0)
(9.969179066 0 0)
(9.969352834 0 0)
(9.96952641 0 0)
(9.969699609 0 0)
(9.96987184 0 0)
(9.970043746 0 0)
(9.970214709 0 0)
(9.970384101 0 0)
(9.970552292 0 0)
(9.970719433 0 0)
(9.970884806 0 0)
(9.971048504 0 0)
(9.971210231 0 0)
(9.971370259 0 0)
(9.971528053 0 0)
(9.971683476 0 0)
(9.971837028 0 0)
(9.97198791 0 0)
(9.972136692 0 0)
(9.972282469 0 0)
(9.972425763 0 0)
(9.972566455 0 0)
(9.972704048 0 0)
(9.972839053 0 0)
(9.972971611 0 0)
(9.973100207 0 0)
(9.973226367 0 0)
(9.973349224 0 0)
(9.973469054 0 0)
(9.973586565 0 0)
(9.973699814 0 0)
(9.973809749 0 0)
(9.973917707 0 0)
(9.974021744 0 0)
(9.974123385 0 0)
(9.974220652 0 0)
(9.974315889 0 0)
(9.974407802 0 0)
(9.974495583 0 0)
(9.974581693 0 0)
(9.97466451 0 0)
(9.974743706 0 0)
(9.974820238 0 0)
(9.974893484 0 0)
(9.974964288 0 0)
(9.975032553 0 0)
(9.975097724 0 0)
(9.975159761 0 0)
(9.975219767 0 0)
(9.975277691 0 0)
(9.975332301 0 0)
(9.975384227 0 0)
(9.975434213 0 0)
(9.975482535 0 0)
(9.975528187 0 0)
(9.975571365 0 0)
(9.975613199 0 0)
(9.975652896 0 0)
(9.975690907 0 0)
(9.975727133 0 0)
(9.975762369 0 0)
(9.975795653 0 0)
(9.975826912 0 0)
(9.975857719 0 0)
(9.975887279 0 0)
(9.975915429 0 0)
(9.975942949 0 0)
(9.975969538 0 0)
(9.975995534 0 0)
(9.976020474 0 0)
(9.976045394 0 0)
(9.976069908 0 0)
(9.976094209 0 0)
(9.976117656 0 0)
(9.976141569 0 0)
(9.976165587 0 0)
(9.976189688 0 0)
(9.976213997 0 0)
(9.97623862 0 0)
(9.97626386 0 0)
(9.976289599 0 0)
(9.976316267 0 0)
(9.976343459 0 0)
(9.976371543 0 0)
(9.97640083 0 0)
(9.976431007 0 0)
(9.976462569 0 0)
(9.976495459 0 0)
(9.976529517 0 0)
(9.976565405 0 0)
(9.976602529 0 0)
(9.976641792 0 0)
(9.976682358 0 0)
(9.976724993 0 0)
(9.976769612 0 0)
(9.976816298 0 0)
(9.97686495 0 0)
(9.976915963 0 0)
(9.976969283 0 0)
(9.977024819 0 0)
(9.977082667 0 0)
(9.977143278 0 0)
(9.977205912 0 0)
(9.977272028 0 0)
(9.977340031 0 0)
(9.977411175 0 0)
(9.977484649 0 0)
(9.977561476 0 0)
(9.977640828 0 0)
(9.977723678 0 0)
(9.977808707 0 0)
(9.977897315 0 0)
(9.9779892 0 0)
(9.978082723 0 0)
(9.978181711 0 0)
(9.978281703 0 0)
(9.978385783 0 0)
(9.978493056 0 0)
(9.97860361 0 0)
(9.978716692 0 0)
(9.978833982 0 0)
(9.978953828 0 0)
(9.979077678 0 0)
(9.979203772 0 0)
(9.97933378 0 0)
(9.979466937 0 0)
(9.979603293 0 0)
(9.979741759 0 0)
(9.979885485 0 0)
(9.980031257 0 0)
(9.980180594 0 0)
(9.980332349 0 0)
(9.980487883 0 0)
(9.980646526 0 0)
(9.980808158 0 0)
(9.980973087 0 0)
(9.981140961 0 0)
(9.981311878 0 0)
(9.981485665 0 0)
(9.981662681 0 0)
(9.981841703 0 0)
(9.982024059 0 0)
(9.982208762 0 0)
(9.982397337 0 0)
(9.98258796 0 0)
(9.982781216 0 0)
(9.982976909 0 0)
(9.983175582 0 0)
(9.983376638 0 0)
(9.983580169 0 0)
(9.983785549 0 0)
(9.983993601 0 0)
(9.984203925 0 0)
(9.984416587 0 0)
(9.984631242 0 0)
(9.98484758 0 0)
(9.985066572 0 0)
(9.985287036 0 0)
(9.985509762 0 0)
(9.985733779 0 0)
(9.985959544 0 0)
(9.986187901 0 0)
(9.986416625 0 0)
(9.986647735 0 0)
(9.986879491 0 0)
(9.987113394 0 0)
(9.98734814 0 0)
(9.98758424 0 0)
(9.987820952 0 0)
(9.988059572 0 0)
(9.988298989 0 0)
(9.988539059 0 0)
(9.98878004 0 0)
(9.989021935 0 0)
(9.98926461 0 0)
(9.989507737 0 0)
(9.989751504 0 0)
(9.989995723 0 0)
(9.99024025 0 0)
(9.990485202 0 0)
(9.990730544 0 0)
(9.990976076 0 0)
(9.991221654 0 0)
(9.991467187 0 0)
(9.991712945 0 0)
(9.991958469 0 0)
(9.992203768 0 0)
(9.992448907 0 0)
(9.99269381 0 0)
(9.992938306 0 0)
(9.993182369 0 0)
(9.993425889 0 0)
(9.993668901 0 0)
(9.993911363 0 0)
(9.994152948 0 0)
(9.994394056 0 0)
(9.994634184 0 0)
(9.994873428 0 0)
(9.99511168 0 0)
(9.995349151 0 0)
(9.995585505 0 0)
(9.995820581 0 0)
(9.99605456 0 0)
(9.996287699 0 0)
(9.99651916 0 0)
(9.996749458 0 0)
(9.996978641 0 0)
(9.997206186 0 0)
(9.997431826 0 0)
(9.99765677 0 0)
(9.997879657 0 0)
(9.998101108 0 0)
(9.998320937 0 0)
(9.998539289 0 0)
(9.998755569 0 0)
(9.998970111 0 0)
(9.999183129 0 0)
(9.999394216 0 0)
(9.999603105 0 0)
(9.999810463 0 0)
(10.00001576 0 0)
(10.00021945 0 0)
(10.00042041 0 0)
(10.00061989 0 0)
(10.00081692 0 0)
(10.00101209 0 0)
(10.00120512 0 0)
(10.00139627 0 0)
(10.00158454 0 0)
(10.00177117 0 0)
(10.00195539 0 0)
(10.00213711 0 0)
(10.00231723 0 0)
(10.00249429 0 0)
(10.00266955 0 0)
(10.00284249 0 0)
(10.00301279 0 0)
(10.00318072 0 0)
(10.00334657 0 0)
(10.00350987 0 0)
(10.00367048 0 0)
(10.00382919 0 0)
(10.00398491 0 0)
(10.00413876 0 0)
(10.00428987 0 0)
(10.00443853 0 0)
(10.00458441 0 0)
(10.00472837 0 0)
(10.00486944 0 0)
(10.00500837 0 0)
(10.00514411 0 0)
(10.005279 0 0)
(10.005409 0 0)
(10.00553769 0 0)
(10.00566429 0 0)
(10.00578811 0 0)
(10.00590851 0 0)
(10.00602755 0 0)
(10.00614394 0 0)
(10.00625733 0 0)
(10.00636821 0 0)
(10.00647701 0 0)
(10.00658346 0 0)
(10.00668675 0 0)
(10.00678789 0 0)
(10.00688669 0 0)
(10.00698283 0 0)
(10.00707656 0 0)
(10.00716801 0 0)
(10.00725678 0 0)
(10.00734271 0 0)
(10.00742747 0 0)
(10.00750891 0 0)
(10.00758772 0 0)
(10.00766445 0 0)
(10.00773882 0 0)
(10.00781129 0 0)
(10.00788138 0 0)
(10.007948 0 0)
(10.00801304 0 0)
(10.00807632 0 0)
(10.00813624 0 0)
(10.00819505 0 0)
(10.00825127 0 0)
(10.00830454 0 0)
(10.00835644 0 0)
(10.00840578 0 0)
(10.00845318 0 0)
(10.00849845 0 0)
(10.00854139 0 0)
(10.00858266 0 0)
(10.00862119 0 0)
(10.00865814 0 0)
(10.00869304 0 0)
(10.00872591 0 0)
(10.00875712 0 0)
(10.00878587 0 0)
(10.00881305 0 0)
(10.00883831 0 0)
(10.00886192 0 0)
(10.008883 0 0)
(10.00890291 0 0)
(10.0089208 0 0)
(10.00893735 0 0)
(10.00895189 0 0)
(10.00896477 0 0)
(10.00897574 0 0)
(10.00898579 0 0)
(10.00899376 0 0)
(10.00900033 0 0)
(10.00900524 0 0)
(10.00900903 0 0)
(10.00901119 0 0)
(10.00901163 0 0)
(10.00901122 0 0)
(10.00900921 0 0)
(10.00900658 0 0)
(10.00900192 0 0)
(10.00899611 0 0)
(10.0089896 0 0)
(10.00898157 0 0)
(10.00897232 0 0)
(10.00896249 0 0)
(10.00895088 0 0)
(10.00893868 0 0)
(10.00892552 0 0)
(10.0089113 0 0)
(10.00889592 0 0)
(10.00887995 0 0)
(10.00886312 0 0)
(10.00884545 0 0)
(10.00882687 0 0)
(10.00880743 0 0)
(10.00878767 0 0)
(10.00876711 0 0)
(10.00874593 0 0)
(10.0087241 0 0)
(10.00870166 0 0)
(10.00867878 0 0)
(10.00865542 0 0)
(10.00863174 0 0)
(10.0086074 0 0)
(10.00858281 0 0)
(10.00855799 0 0)
(10.00853289 0 0)
(10.00850741 0 0)
(10.00848174 0 0)
(10.00845586 0 0)
(10.00842985 0 0)
(10.00840368 0 0)
(10.00837757 0 0)
(10.00835137 0 0)
(10.00832511 0 0)
(10.00829891 0 0)
(10.0082728 0 0)
(10.00824676 0 0)
(10.0082209 0 0)
(10.0081952 0 0)
(10.00816971 0 0)
(10.00814436 0 0)
(10.00811946 0 0)
(10.00809473 0 0)
(10.00807043 0 0)
(10.00804645 0 0)
(10.00802281 0 0)
(10.00799968 0 0)
(10.00797703 0 0)
(10.00795477 0 0)
(10.0079331 0 0)
(10.00791185 0 0)
(10.00789133 0 0)
(10.00787141 0 0)
(10.00785203 0 0)
(10.00783331 0 0)
(10.00781519 0 0)
(10.00779778 0 0)
(10.00778123 0 0)
(10.00776544 0 0)
(10.00775005 0 0)
(10.00773574 0 0)
(10.00772225 0 0)
(10.00770943 0 0)
(10.00769755 0 0)
(10.00768642 0 0)
(10.00767632 0 0)
(10.0076668 0 0)
(10.00765829 0 0)
(10.00765116 0 0)
(10.00764435 0 0)
(10.00763888 0 0)
(10.00763415 0 0)
(10.00763031 0 0)
(10.00762777 0 0)
(10.00762581 0 0)
(10.00762519 0 0)
(10.00762521 0 0)
(10.00762633 0 0)
(10.00762859 0 0)
(10.0076316 0 0)
(10.00763593 0 0)
(10.00764077 0 0)
(10.00764699 0 0)
(10.00765419 0 0)
(10.00766254 0 0)
(10.00767177 0 0)
(10.00768215 0 0)
(10.00769336 0 0)
(10.00770563 0 0)
(10.00771913 0 0)
(10.00773372 0 0)
(10.0077491 0 0)
(10.00776549 0 0)
(10.00778305 0 0)
(10.00780181 0 0)
(10.00782134 0 0)
(10.00784195 0 0)
(10.00786348 0 0)
(10.00788625 0 0)
(10.00790969 0 0)
(10.00793447 0 0)
(10.00796 0 0)
(10.00798642 0 0)
(10.00801404 0 0)
(10.0080425 0 0)
(10.00807188 0 0)
(10.00810212 0 0)
(10.00813349 0 0)
(10.0081655 0 0)
(10.00819854 0 0)
(10.00823248 0 0)
(10.00826727 0 0)
(10.00830292 0 0)
(10.00833944 0 0)
(10.0083767 0 0)
(10.00841466 0 0)
(10.00845354 0 0)
(10.0084932 0 0)
(10.00853348 0 0)
(10.00857468 0 0)
(10.00861658 0 0)
(10.00865906 0 0)
(10.0087023 0 0)
(10.00874611 0 0)
(10.00879074 0 0)
(10.00883574 0 0)
(10.00888154 0 0)
(10.00892776 0 0)
(10.00897482 0 0)
(10.0090222 0 0)
(10.00907014 0 0)
(10.00911862 0 0)
(10.00916759 0 0)
(10.00921691 0 0)
(10.00926674 0 0)
(10.00931706 0 0)
(10.00936777 0 0)
(10.00941889 0 0)
(10.00947033 0 0)
(10.00952211 0 0)
(10.00957415 0 0)
(10.00962649 0 0)
(10.0096791 0 0)
(10.00973202 0 0)
(10.00978522 0 0)
(10.0098386 0 0)
(10.0098921 0 0)
(10.00994577 0 0)
(10.00999965 0 0)
(10.01005363 0 0)
(10.01010771 0 0)
(10.01016189 0 0)
(10.01021615 0 0)
(10.01027045 0 0)
(10.01032476 0 0)
(10.01037908 0 0)
(10.0104334 0 0)
(10.01048766 0 0)
(10.01054191 0 0)
(10.01059603 0 0)
(10.01065008 0 0)
(10.01070403 0 0)
(10.01075781 0 0)
(10.01081147 0 0)
(10.01086497 0 0)
(10.01091822 0 0)
(10.01097133 0 0)
(10.01102417 0 0)
(10.0110768 0 0)
(10.0111292 0 0)
(10.01118123 0 0)
(10.01123303 0 0)
(10.01128454 0 0)
(10.01133568 0 0)
(10.0113865 0 0)
(10.01143694 0 0)
(10.01148715 0 0)
(10.01153673 0 0)
(10.01158608 0 0)
(10.01163493 0 0)
(10.01168351 0 0)
(10.0117315 0 0)
(10.01177904 0 0)
(10.01182611 0 0)
(10.01187269 0 0)
(10.01191897 0 0)
(10.01196448 0 0)
(10.0120097 0 0)
(10.0120541 0 0)
(10.01209827 0 0)
(10.01214169 0 0)
(10.01218466 0 0)
(10.01222704 0 0)
(10.01226873 0 0)
(10.01230991 0 0)
(10.01235054 0 0)
(10.0123905 0 0)
(10.01242981 0 0)
(10.0124685 0 0)
(10.0125065 0 0)
(10.012544 0 0)
(10.01258084 0 0)
(10.01261713 0 0)
(10.01265236 0 0)
(10.01268716 0 0)
(10.01272129 0 0)
(10.01275459 0 0)
(10.01278745 0 0)
(10.01281939 0 0)
(10.01285082 0 0)
(10.0128814 0 0)
(10.0129113 0 0)
(10.01294037 0 0)
(10.01296908 0 0)
(10.01299658 0 0)
(10.01302385 0 0)
(10.01304996 0 0)
(10.01307539 0 0)
(10.01310017 0 0)
(10.01312428 0 0)
(10.01314767 0 0)
(10.0131702 0 0)
(10.01319198 0 0)
(10.01321301 0 0)
(10.01323339 0 0)
(10.01325283 0 0)
(10.01327164 0 0)
(10.01328974 0 0)
(10.01330709 0 0)
(10.01332346 0 0)
(10.01333932 0 0)
(10.01335423 0 0)
(10.01336854 0 0)
(10.01338208 0 0)
(10.01339473 0 0)
(10.01340682 0 0)
(10.01341801 0 0)
(10.0134286 0 0)
(10.01343808 0 0)
(10.01344713 0 0)
(10.0134555 0 0)
(10.01346286 0 0)
(10.0134697 0 0)
(10.01347572 0 0)
(10.01348092 0 0)
(10.01348557 0 0)
(10.01348925 0 0)
(10.0134924 0 0)
(10.01349473 0 0)
(10.01349637 0 0)
(10.01349727 0 0)
(10.01349746 0 0)
(10.01349722 0 0)
(10.01349602 0 0)
(10.01349417 0 0)
(10.01349166 0 0)
(10.01348859 0 0)
(10.01348463 0 0)
(10.01348015 0 0)
(10.0134749 0 0)
(10.01346905 0 0)
(10.01346253 0 0)
(10.01345526 0 0)
(10.01344734 0 0)
(10.01343884 0 0)
(10.01342964 0 0)
(10.01341984 0 0)
(10.0134095 0 0)
(10.01339839 0 0)
(10.01338666 0 0)
(10.01337428 0 0)
(10.01336117 0 0)
(10.01334772 0 0)
(10.01333365 0 0)
(10.01331886 0 0)
(10.01330346 0 0)
(10.0132875 0 0)
(10.01327097 0 0)
(10.01325392 0 0)
(10.01323623 0 0)
(10.01321802 0 0)
(10.01319929 0 0)
(10.01317996 0 0)
(10.01316008 0 0)
(10.01313958 0 0)
(10.0131188 0 0)
(10.01309726 0 0)
(10.01307548 0 0)
(10.01305292 0 0)
(10.01302992 0 0)
(10.01300657 0 0)
(10.01298268 0 0)
(10.0129583 0 0)
(10.01293347 0 0)
(10.01290814 0 0)
(10.01288236 0 0)
(10.01285614 0 0)
(10.01282951 0 0)
(10.0128024 0 0)
(10.01277498 0 0)
(10.01274713 0 0)
(10.01271877 0 0)
(10.01269009 0 0)
(10.01266101 0 0)
(10.0126315 0 0)
(10.01260168 0 0)
(10.01257154 0 0)
(10.012541 0 0)
(10.01250998 0 0)
(10.01247876 0 0)
(10.01244722 0 0)
(10.01241529 0 0)
(10.01238296 0 0)
(10.01235052 0 0)
(10.01231761 0 0)
(10.01228448 0 0)
(10.01225104 0 0)
(10.01221734 0 0)
(10.01218335 0 0)
(10.01214909 0 0)
(10.01211456 0 0)
(10.01207979 0 0)
(10.01204477 0 0)
(10.01200958 0 0)
(10.01197404 0 0)
(10.01193842 0 0)
(10.01190245 0 0)
(10.01186635 0 0)
(10.01183001 0 0)
(10.01179349 0 0)
(10.01175681 0 0)
(10.01171989 0 0)
(10.01168281 0 0)
(10.0116456 0 0)
(10.0116082 0 0)
(10.01157063 0 0)
(10.01153292 0 0)
(10.01149507 0 0)
(10.01145713 0 0)
(10.01141897 0 0)
(10.01138074 0 0)
(10.01134239 0 0)
(10.01130391 0 0)
(10.01126533 0 0)
(10.01122663 0 0)
(10.01118787 0 0)
(10.01114899 0 0)
(10.01111003 0 0)
(10.01107098 0 0)
(10.01103186 0 0)
(10.01099267 0 0)
(10.01095339 0 0)
(10.01091408 0 0)
(10.0108747 0 0)
(10.01083524 0 0)
(10.01079575 0 0)
(10.01075623 0 0)
(10.01071665 0 0)
(10.01067705 0 0)
(10.0106374 0 0)
(10.01059772 0 0)
(10.01055802 0 0)
(10.0105183 0 0)
(10.01047856 0 0)
(10.01043879 0 0)
(10.01039902 0 0)
(10.01035924 0 0)
(10.01031944 0 0)
(10.01027964 0 0)
(10.01023984 0 0)
(10.01020004 0 0)
(10.01016024 0 0)
(10.01012045 0 0)
(10.01008066 0 0)
(10.01004088 0 0)
(10.01000111 0 0)
(10.00996135 0 0)
(10.0099216 0 0)
(10.00988187 0 0)
(10.00984216 0 0)
(10.00980246 0 0)
(10.00976278 0 0)
(10.00972311 0 0)
(10.00968347 0 0)
(10.00964385 0 0)
(10.00960424 0 0)
(10.00956465 0 0)
(10.0095251 0 0)
(10.00948556 0 0)
(10.00944604 0 0)
(10.00940653 0 0)
(10.00936705 0 0)
(10.00932759 0 0)
(10.00928815 0 0)
(10.00924873 0 0)
(10.00920932 0 0)
(10.00916994 0 0)
(10.00913056 0 0)
(10.00909121 0 0)
(10.00905187 0 0)
(10.00901253 0 0)
(10.00897322 0 0)
(10.00893391 0 0)
(10.00889461 0 0)
(10.00885531 0 0)
(10.00881602 0 0)
(10.00877674 0 0)
(10.00873745 0 0)
(10.00869817 0 0)
(10.00865888 0 0)
(10.00861958 0 0)
(10.00858028 0 0)
(10.00854097 0 0)
(10.00850165 0 0)
(10.00846232 0 0)
(10.00842296 0 0)
(10.00838359 0 0)
(10.0083442 0 0)
(10.00830478 0 0)
(10.00826533 0 0)
(10.00822586 0 0)
(10.00818635 0 0)
(10.0081468 0 0)
(10.00810721 0 0)
(10.00806759 0 0)
(10.00802792 0 0)
(10.0079882 0 0)
(10.00794843 0 0)
(10.0079086 0 0)
(10.00786871 0 0)
(10.00782876 0 0)
(10.00778875 0 0)
(10.00774867 0 0)
(10.00770851 0 0)
(10.00766827 0 0)
(10.00762797 0 0)
(10.00758759 0 0)
(10.0075471 0 0)
(10.00750653 0 0)
(10.00746588 0 0)
(10.00742512 0 0)
(10.00738426 0 0)
(10.00734329 0 0)
(10.00730222 0 0)
(10.00726105 0 0)
(10.00721975 0 0)
(10.00717835 0 0)
(10.0071368 0 0)
(10.00709513 0 0)
(10.00705335 0 0)
(10.00701142 0 0)
(10.00696938 0 0)
(10.00692717 0 0)
(10.00688482 0 0)
(10.00684234 0 0)
(10.0067997 0 0)
(10.0067569 0 0)
(10.00671396 0 0)
(10.00667085 0 0)
(10.00662758 0 0)
(10.00658414 0 0)
(10.00654054 0 0)
(10.00649676 0 0)
(10.00645281 0 0)
(10.00640868 0 0)
(10.00636437 0 0)
(10.00631987 0 0)
(10.00627519 0 0)
(10.00623032 0 0)
(10.00618526 0 0)
(10.00614 0 0)
(10.00609455 0 0)
(10.0060489 0 0)
(10.00600305 0 0)
(10.00595699 0 0)
(10.00591073 0 0)