/*--------------------------------*- C++ -*----------------------------------*\
| =========                 |                                                 |
| \\      /  F ield         | OpenFOAM: The Open Source CFD Toolbox           |
|  \\    /   O peration     | Version:  2312                                  |
|   \\  /    A nd           | Website:  www.openfoam.com                      |
|    \\/     M anipulation  |                                                 |
\*---------------------------------------------------------------------------*/
FoamFile
{
    version     2.0;
    format      ascii;
    arch        "LSB;label=32;scalar=64";
    class       volScalarField;
    location    "0.003";
    object      rhoHat;
}
// * * * * * * * * * * * * * * * * * * * * * * * * * * * * * * * * * * * * * //

dimensions      [1 -3 0 0 0 0 0];

internalField   nonuniform List<scalar> 
5000
(
1000
1000
1000
1000
1000
1000
1000
1000
1000
1000
1000
1000
1000
1000
1000
1000
1000
1000
1000
1000
1000
1000
1000
1000
1000
1000
1000
1000
1000
1000
1000
1000
1000
1000
1000
1000
1000
1000
1000
1000
1000
1000
1000
1000
1000
1000
1000
1000
1000
1000
1000
1000
1000
1000
1000
1000
1000
1000
1000
1000
1000
1000
1000
1000
1000
1000
1000
1000
1000
1000
1000
1000
1000
1000
1000
1000
1000
1000
1000
1000
1000
1000
1000
1000
1000
1000
1000
1000
1000
999.9999999
1000
1000
1000
1000
1000
1000
1000
1000
1000
1000
1000
1000
1000
1000
1000
1000
1000
1000
1000
1000
1000
1000
1000
1000
1000
1000
1000
1000
1000
1000
1000
1000
1000
1000
1000
1000
1000
1000
1000
1000
1000
1000
1000
1000
1000
1000
1000
1000
1000
1000
1000
1000
1000
1000
1000
1000
1000
1000
1000
1000
1000
1000
1000
1000
1000
1000
1000
1000
1000
1000
1000
1000
1000
1000
1000
1000
1000
1000
1000
1000
1000
1000
1000
1000
1000
1000
1000
1000
1000
1000
1000
1000
1000
1000
1000
1000
1000
1000
1000
1000
1000
1000
1000
1000
1000
1000
1000
1000
1000
1000
1000
1000
1000
1000
1000
1000
1000
1000
1000
1000
1000
1000
1000
1000
1000
1000
1000
1000
1000
1000
1000
1000
1000
1000
1000
1000
1000
1000
1000
1000
1000
1000
1000
1000
1000
1000
1000
1000
1000
1000
1000
1000
1000
1000
1000
1000
1000
1000
1000
1000
1000
1000
1000
1000
1000
1000
1000
1000
1000
1000
1000
1000
1000
1000
1000
1000
1000
1000
1000
1000
1000
1000
1000
1000
1000
1000
1000
1000
1000
1000
1000
1000
1000
1000
1000
1000
1000
1000
1000
1000
1000
1000
1000
1000
1000
1000
1000
1000
1000
1000
1000
1000
1000
1000
1000
1000
1000
1000
1000
1000
1000
1000
1000
1000
1000
1000
1000
1000
1000
1000
1000
1000
1000
1000
1000
1000
1000
1000
1000
1000
1000
1000
1000
1000
1000
1000
1000
1000
1000
1000
1000
1000
1000
1000
1000
1000
1000
1000
1000
1000
1000
1000
1000
1000
1000
1000
1000
1000
1000
1000
1000
1000
1000
1000
1000
1000
1000
1000
1000
1000
1000
1000
1000
1000
1000
1000
1000
1000
1000
1000
1000
1000
1000
1000
1000
1000
1000
1000
1000
1000
1000
1000
1000
1000
1000
1000
1000
1000
1000
1000
1000
1000
1000
1000
1000
1000
1000
1000
1000
1000
1000
1000
1000
1000
1000
1000
1000
1000
1000
1000
1000
1000
1000
1000
1000
1000
1000
1000
1000
1000
1000
1000
1000
1000
1000
1000
1000
1000
1000
1000
1000
1000
1000
1000
1000
1000
1000
1000
1000
1000
1000
1000
1000
1000
1000
1000
1000
1000
1000
1000
1000
1000
1000
1000
1000
1000
1000
1000
1000
1000
1000
1000
1000
1000
1000
1000
1000
1000
1000
1000
1000
1000
1000
1000
1000
1000
1000
1000
1000
1000
1000
1000
1000
1000
1000
1000
1000
1000
1000
1000
1000
1000
1000
1000
1000
1000
1000
1000
1000
1000
1000
1000
1000
1000
1000
1000
1000
1000
1000
1000
1000
1000
1000
1000
1000
1000
1000
1000
1000
1000
1000
1000
1000
1000
1000
1000
1000
1000
1000
1000
1000
1000
1000
1000
1000
1000
1000
1000
1000
1000
1000
1000
1000
1000
1000
1000
1000
1000
1000
1000
1000
1000
1000
1000
1000
1000
1000
1000
1000
1000
1000
1000
1000
1000
1000
1000
1000
1000
1000
1000
1000
1000
1000
1000
1000
1000
1000
1000
1000
1000
1000
1000
1000
1000
1000
1000
1000
1000
1000
1000
1000
1000
1000
1000
1000
1000
1000
1000
1000
1000
1000
1000
1000
1000
1000
1000
1000
1000
1000
1000
1000
1000
1000
1000
1000
1000
1000
1000
1000
1000
1000
1000
1000
1000
1000
1000
1000
1000
1000
1000
1000
1000
1000
1000
1000
1000
1000
1000
1000
1000
1000
1000
1000
1000
1000
1000
1000
1000
1000
1000
1000
1000
1000
1000
1000
1000
1000
1000
1000
1000
1000
1000
1000
1000
1000
1000
1000
1000
1000
1000
1000
1000
1000
1000
1000
1000
1000
1000
1000
1000
1000
1000
1000
1000
1000
1000
1000
1000
1000
1000
1000
1000
1000
1000
1000
1000
1000
1000
1000
1000
1000
1000
1000
1000
1000
1000
1000
1000
1000
1000
1000
1000
1000
1000
1000
1000
1000
1000
1000
1000
1000
1000
1000
1000
1000
1000
1000
1000
1000
1000
1000
1000
1000
1000
1000
1000
1000
1000
1000
1000
1000
1000
1000
1000
1000
1000
1000
1000
1000
1000
1000
1000
1000
1000
1000
1000
1000
1000
1000
1000
1000
1000
1000
1000
1000
1000
1000
1000
1000
1000
1000
1000
1000
1000
1000
1000
1000
1000
1000
1000
1000
1000
1000
1000
1000
1000
1000
1000
1000
1000
1000
1000
1000
1000
1000
1000
1000
1000
1000
1000
1000
1000
1000
1000
1000
1000
1000
1000
1000
1000
1000
1000
1000
1000
1000
1000
1000
1000
1000
1000
1000
1000
1000
1000
1000
1000
1000
1000
1000
1000
1000
1000
1000
1000
1000
1000
1000
1000
1000
1000
1000
1000
1000
1000
1000
1000
1000
1000
1000
1000
1000
1000
1000
1000
1000
1000
1000
1000
1000
1000
1000
1000
1000
1000
1000
1000
1000
1000
1000
1000
1000
1000
1000
1000
1000
1000
1000
1000
1000
1000
1000
1000
1000
1000
1000
1000
1000
1000
1000
1000
1000
1000
1000
1000
1000
1000
1000
1000
1000
1000
1000
1000
1000
1000
1000
1000
1000
1000
1000
1000
1000
1000
1000
1000
1000
1000
1000
1000
1000
1000
1000
1000
1000
1000
1000
1000
1000
1000
1000
1000
1000
1000
1000
1000
1000
1000
1000
1000
1000
1000
1000
1000
1000
1000
1000
1000
1000
1000
1000
1000
1000
1000
1000
1000
1000
1000
1000
1000
1000
1000
1000
1000
1000
1000
1000
1000
1000
1000
1000
1000
1000
1000
1000
1000
1000
1000
1000
1000
1000
1000
1000
1000
1000
1000
1000
1000
1000
1000
1000
1000
1000
1000
1000
1000
1000
1000
1000
1000
1000
1000
1000
1000
1000
1000
1000
1000
1000
1000
1000
1000
1000
1000
1000
1000
1000
1000
1000
1000
1000
1000
1000
1000
1000
1000
1000
1000
1000
1000
1000
1000
1000
1000
1000
1000
1000
1000
1000
1000
1000
1000
1000
1000
1000
1000
1000
1000
1000
1000
1000
1000
1000
1000
1000
1000
1000
1000
1000
1000
1000
1000
1000
1000
1000
1000
1000
1000
1000
1000
1000
1000
1000
1000
1000
1000
1000
1000
1000
1000
1000
1000
1000
1000
1000
1000
1000
1000
1000
1000
1000
1000
1000
1000
1000
1000
1000
1000
1000
1000
1000
1000
1000
1000
1000
1000
1000
1000
1000
1000
1000
1000
1000
1000
1000
1000
1000
1000
1000
1000
1000
1000
1000
1000
1000
1000
1000
1000
1000
1000
1000
1000
1000
1000
1000
1000
1000
1000
1000
1000
1000
1000
1000
1000
1000
1000
1000
1000
1000
1000
1000
1000
1000
1000
1000
1000
1000
1000
1000
1000
1000
1000
1000
1000
1000
1000
1000
1000
1000
1000
1000
1000
1000
1000
1000
1000
1000
1000
1000
1000
1000
1000
1000
1000
1000
1000
1000
1000
1000
1000
1000
1000
1000
1000
1000
1000
1000
1000
1000
1000
1000
1000
1000
1000
1000
1000
1000
1000
1000
1000
1000
1000
1000
1000
1000
1000
1000
1000
1000
1000
1000
1000
1000
1000
1000
1000
1000
1000
1000
1000
1000
1000
1000
1000
1000
1000
1000
1000
1000
1000
1000
1000
1000
1000
1000
1000
1000
1000
1000
1000
1000
1000
1000
1000
1000
1000
1000
1000
1000
1000
1000
1000
1000
1000
1000
1000
1000
1000
1000
1000
1000
1000
1000
1000
1000
1000
1000
1000
1000
1000
1000
1000
1000
1000
1000
1000
1000
1000
1000
1000
1000
1000
1000
1000
1000
1000
1000
1000
1000
1000
1000
1000
1000
1000
1000
1000
1000
1000
1000
1000
1000
1000
1000
1000
1000
1000
1000
1000
1000
1000
1000
1000
1000
1000
1000
1000
1000
1000
1000
1000
1000
1000
1000
1000
1000
1000
1000
1000
1000
1000
1000
1000
1000
1000
1000
1000
1000
1000
1000
1000
1000
1000
1000
1000
1000
1000
1000
1000
1000
1000
1000
1000
1000
1000
1000
1000
1000
1000
1000
1000
1000
1000
1000
1000
1000
1000
1000
1000
1000
1000
1000
1000
1000
1000
1000
1000
1000
1000
1000
1000
1000
1000
1000
1000
1000
1000
1000
1000
1000
1000
1000
1000
1000
1000
1000
1000
1000
1000
1000
1000
1000
1000
1000
1000
1000
1000
1000
1000
1000
1000
1000
1000
1000
1000
1000
1000
1000
1000
1000
1000
1000
1000
1000
1000
1000
1000
1000
1000
1000
1000
1000
1000
1000
1000
1000
1000
1000
1000
1000
1000
1000
1000
1000
1000
1000
1000
1000
1000
1000
1000
1000
1000
1000
1000
1000
1000
1000
1000
1000
1000
1000
1000
1000
1000
1000
1000
1000
1000
1000
1000
1000
1000
1000
1000
1000
1000
1000
1000
1000
1000
1000
1000
1000
1000
1000
1000
1000
1000
1000
1000
1000
1000
1000
1000
1000
1000
1000
1000
1000
1000
1000
1000
1000
1000
1000
1000
1000
1000
1000
1000
1000
1000
1000
1000
1000
1000
1000
1000
1000
1000
1000
1000
1000
1000
1000
1000
1000
1000
1000
1000
1000
1000
1000
1000
1000
1000
1000
1000
1000
1000
1000
1000
1000
1000
1000
1000
1000
1000
1000
1000
1000
1000
1000
1000
1000
1000
1000
1000
1000
1000
1000
1000
1000
1000
1000
1000
1000
1000
1000
1000
1000
1000
1000
1000
1000
1000
1000
1000
1000
1000
1000
1000
1000
1000
1000
1000
1000
1000
1000
1000
1000
1000
1000
1000
1000
1000
1000
1000
1000
1000
1000
1000
1000
1000
1000
1000
1000
1000
1000
1000
1000
1000
1000
1000
1000
1000
1000
1000
1000
1000
1000
1000
1000
1000
1000
1000
1000
1000
1000
1000
1000
1000
1000
1000
1000
1000
1000
1000
1000
1000
1000
1000
1000
1000
1000
1000
1000
1000
1000
1000
1000
1000
1000
1000
1000
1000
1000
1000
1000
1000
1000
1000
1000
1000
1000
1000
1000
1000
1000
1000
1000
1000
1000
1000
1000
1000
1000
1000
1000
1000
1000
1000
1000
1000
1000
1000
1000
1000
1000
1000
1000
1000
1000
1000
1000
1000
1000
1000
1000
1000
1000
1000
1000
1000
1000
1000
1000
1000
1000
1000
1000
1000
1000
1000
1000
1000
1000
1000
1000
1000
1000
1000
1000
1000
1000
1000
1000
1000
1000
1000
1000
1000
1000
1000
1000
1000
1000
1000
1000
1000
1000
1000
1000
1000
1000
1000
1000
1000
1000
1000
1000
1000
1000
1000
1000
1000
1000
1000
1000
1000
1000
1000
1000
1000
1000
1000
1000
1000
1000
1000
1000
1000
1000
1000
1000
1000
1000
1000
1000
1000
1000
1000
1000
1000
1000
1000
1000
1000
1000
1000
1000
1000
1000
1000
1000
1000
1000
1000
1000
1000
1000
1000
1000
1000
1000
1000
1000
1000
1000
1000
1000
1000
1000
1000
1000
1000
1000
1000
1000
1000
1000
1000
1000
1000
1000
1000
1000
1000
1000
1000
1000
1000
1000
1000
1000
1000
1000
1000
1000
1000
1000
1000
1000
1000
1000
1000
1000
1000
1000
1000
1000
1000
1000
1000
1000
1000
1000
1000
1000
1000
1000
1000
1000
1000
1000
1000
1000
1000
1000
1000
1000
1000
1000
1000
1000
1000
1000
1000
1000
1000
1000
1000
1000
1000
1000
1000
1000
1000
1000
1000
1000
1000
1000
1000
1000
1000
1000
1000
1000
1000
1000
1000
1000
1000
1000
1000
1000
1000
1000
1000
1000
1000
1000
1000
1000
1000
1000
1000
1000
1000
1000
1000
1000
1000
1000
1000
1000
1000
1000
1000
1000
1000
1000
1000
1000
1000
1000
1000
1000
1000
1000
1000
1000
1000
1000
1000
1000
1000
1000
1000
1000
1000
1000
1000
1000
1000
1000
1000
1000
1000
1000
1000
1000
1000
1000
1000
1000
1000
1000
1000
1000
1000
1000
1000
1000
1000
1000
1000
1000
1000
1000
1000
1000
1000
1000
1000
1000
1000
1000
1000
1000
1000
1000
1000
1000
1000
1000
1000
1000
1000
1000
1000
1000
1000
1000
1000
1000
1000
1000
1000
1000
1000
1000
1000
1000
1000
1000
1000
1000
1000
1000
1000
1000
1000
1000
1000
1000
1000
1000
1000
1000
1000
1000
1000
1000
1000
1000
1000
1000
1000
1000
1000
1000
1000
1000
1000
1000
1000
1000
1000
1000
1000
1000
1000
1000
1000
1000
1000
1000
1000
1000
1000
1000
1000
1000
1000
1000
1000
1000
1000
1000
1000
1000
1000
1000
1000
1000
1000
1000
1000
1000
1000
1000
1000
1000
1000
1000
1000
1000
1000
1000
1000
1000
1000
1000
1000
1000
1000
1000
1000
1000
1000
1000
1000
1000
1000
1000
1000
1000
1000
1000
1000
1000
1000
1000
1000
1000
1000
1000
1000
1000
1000
1000
1000
1000
1000
1000
1000
1000
1000
1000
1000
1000
1000
1000
1000
1000
1000
1000
1000
1000
1000
1000
1000
1000
1000
1000
1000
1000
1000
1000
1000
1000
1000
1000
1000
1000
1000
1000
1000
1000
1000
1000
1000
1000
1000
1000
1000
1000
1000
1000
1000
1000
1000
1000
1000
1000
1000
1000
1000
1000
1000
1000
1000
1000
1000
1000
1000
1000
1000
1000
1000
1000
1000
1000
1000
1000
1000
1000
1000
1000
1000
1000
1000
1000
1000
1000
1000
1000
1000
1000
1000
1000
1000
1000
1000
1000
1000
1000
1000
1000
1000
1000
1000
1000
1000
1000
1000
1000
1000
1000
1000
1000
1000
1000
1000
1000
1000
1000
1000
1000
1000
1000
1000
1000
1000
1000
1000
1000
1000
1000
1000
1000
1000
1000
1000
1000
1000
1000
1000
1000
1000
1000
1000
1000
1000
1000
1000
1000
1000
1000
1000
1000
1000
1000
1000
1000
1000
1000
1000
1000
1000
1000
1000
1000
1000
1000
1000
1000
1000
1000
1000
1000
1000
1000
1000
1000
1000
1000
1000
1000
1000
1000
1000
1000
1000
1000
1000
1000
1000
1000
1000
1000
1000
1000
1000
1000
1000
1000
1000
1000
1000
1000
1000
1000
1000
1000
1000
1000
1000
1000
1000
1000
1000
1000
1000
1000
1000
1000
1000
1000
1000
1000
1000
1000
1000
1000
1000
1000
1000
1000
1000
1000
1000
1000
1000
1000
1000
1000
1000
1000
1000
1000
1000
1000
1000
1000
1000
1000
1000
1000
1000
1000
1000
1000
1000
1000
1000
1000
1000
1000
1000
1000
1000
1000
1000
1000
1000
1000
1000
1000
1000
1000
1000
1000
1000
1000
1000
1000
1000
1000
1000
1000
1000
1000
1000
1000
1000
1000
1000
1000
1000
1000
1000
1000
1000
1000
1000
1000
1000
1000
1000
1000
1000
1000
1000
1000
1000
1000
1000
1000
1000
999.9999997
999.9999976
999.9999822
999.9998841
999.9993042
999.9960864
999.9794105
999.899175
999.547688
998.1890347
993.5543148
979.815995
945.4806524
874.1146084
757.4288106
597.8441978
432.1668767
291.6915943
190.4211847
124.6900562
81.50798403
54.94426829
38.2797271
27.56258763
20.47403426
15.64693409
12.25970424
9.798306867
7.958414711
6.594801739
5.590232262
4.8346729
4.252718471
3.795303179
3.42822921
3.130233315
2.88389834
2.67849375
2.505350699
2.358376305
2.232666237
2.124630571
2.031313465
1.950400605
1.880047637
1.818784569
1.765289213
1.718515947
1.677654132
1.641774813
1.610474111
1.582970715
1.559022947
1.538051958
1.519819856
1.503955524
1.490206422
1.478322173
1.468081843
1.45928191
1.451732747
1.445259371
1.439701746
1.43491359
1.430761261
1.427124805
1.423898763
1.42099064
1.418319112
1.415814891
1.41342152
1.411095507
1.408799464
1.406504998
1.404190804
1.401844886
1.399457908
1.39701299
1.394489542
1.391869259
1.389135479
1.386269192
1.383248793
1.380056563
1.376677143
1.373089872
1.369276483
1.365229503
1.360912004
1.356355612
1.351476285
1.346331909
1.340818666
1.335017824
1.328824409
1.322308511
1.315403118
1.308119942
1.300435522
1.292325105
1.283785103
1.274781912
1.265308688
1.255341745
1.244871549
1.233889964
1.22239861
1.210402802
1.197909706
1.184928603
1.171472206
1.157556257
1.143198817
1.128420487
1.113245403
1.097698431
1.081811317
1.06561905
1.049164686
1.032419268
1.01562365
0.9982399042
0.9806107153
0.9637008573
0.9483263774
0.934331847
0.9216419501
0.9101715505
0.8998286914
0.8905456628
0.8822491912
0.874870643
0.8683434563
0.8626032931
0.857587424
0.8532359978
0.8494913287
0.8462979794
0.8436026398
0.8413529466
0.8394964305
0.8379809948
0.836756203
0.8357740585
0.8349864813
0.8343428697
0.8338049845
0.8333248431
0.8328666419
0.8324593948
0.832122769
0.8319028222
0.8317984446
0.8317793253
0.8318931506
0.8322297013
0.8328034224
0.8337971251
0.8348205766
0.8358758423
0.8371756936
0.838887926
0.8407566038
0.8433381739
0.8459982012
0.8486637972
0.8516822548
0.8552751888
0.8590127689
0.8636966612
0.8684584486
0.8733185666
0.8787934522
0.8847050566
0.8909080564
0.8981369623
0.9054123008
0.9132012876
0.9217088264
0.9304272999
0.9402274643
0.9500808111
0.9610487773
0.9721310862
0.9844809385
0.9968569041
1.010507834
1.024387246
1.039189884
1.053661811
1.067398155
1.080437244
1.092761673
1.104361111
1.115219359
1.125347581
1.134741854
1.143429636
1.151405313
1.158708743
1.165332656
1.171328313
1.176685439
1.181478652
1.18568675
1.189405924
1.192611044
1.195416557
1.197779809
1.199828706
1.201486025
1.202891728
1.203965528
1.204830333
1.205452648
1.20581531
1.206110994
1.206058328
1.206001947
1.205641761
1.205300964
1.204680092
1.204117294
1.203288535
1.20253895
1.201553984
1.200639305
1.19954784
1.198491586
1.197336845
1.196184275
1.195006641
1.193831021
1.192656245
1.191477622
1.190301048
1.189102962
1.187920495
1.186699406
1.185502
1.18425163
1.18303305
1.181757336
1.180474261
1.179218449
1.177934496
1.17664183
1.175335242
1.174015476
1.17266452
1.171282666
1.169897136
1.168514597
1.167141657
1.165774598
1.164401091
1.163029799
1.161666663
1.160319024
1.158994518
1.157698416
1.156432019
1.155196186
1.153992143
1.152821193
1.151684415
1.150582734
1.14951701
1.148487929
1.147496516
1.146541555
1.145629348
1.144744649
1.143924814
1.143115655
1.142450831
1.141734702
1.141186389
1.140317725
1.139603762
1.138566227
1.137658924
1.136476525
1.135394096
1.134095056
1.132869877
1.131483535
1.130151969
1.128707252
1.127304586
1.125828324
1.124403163
1.122910361
1.121478373
1.119958081
1.118504446
1.116944088
1.115456267
1.113843013
1.112311211
1.11063274
1.109047557
1.107295275
1.105651574
1.103823998
1.102108458
1.100204005
1.098411083
1.096424635
1.094549124
1.092476441
1.090513645
1.088351406
1.086297488
1.084043414
1.081895881
1.079548876
1.07730696
1.074865489
1.072524975
1.069993418
1.067559745
1.064941838
1.062412307
1.059716772
1.057069712
1.054332203
1.051620593
1.048994149
1.046470675
1.044042312
1.041699673
1.039442565
1.037262733
1.035158606
1.033122053
1.03115137
1.029239136
1.027382865
1.025574939
1.023812174
1.022090834
1.020399304
1.018737815
1.017099611
1.015480787
1.013875275
1.012279118
1.010683111
1.009087936
1.007492049
1.005893574
1.004295184
1.002701631
1.001116503
0.9995427283
0.9979832387
0.9964396572
0.9949146864
0.9934095322
0.99192679
0.9904674048
0.989033526
0.9876258113
0.9862459346
0.9848941583
0.9835717565
0.9822784586
0.9810153152
0.9797812988
0.978577597
0.9774019274
0.9762561896
0.9751344469
0.9740506371
0.9729905224
0.9720024543
0.9710293898
0.9701337933
0.9690641469
0.968050221
0.9668408447
0.96568828
0.964348526
0.9630611688
0.9616032605
0.9601929394
0.9586315597
0.957112932
0.9554643669
0.9538530308
0.952135169
0.9504450188
0.9486808425
0.9469306263
0.9451420609
0.9433679351
0.9415747597
0.9397986735
0.9380021932
0.9362223792
0.9344164587
0.9326272825
0.9308058903
0.9290022498
0.9271601091
0.9253370765
0.9234693624
0.9216222146
0.919724136
0.917848434
0.9159152687
0.9140082924
0.9120342115
0.9100890942
0.9080718718
0.90609015
0.9040248211
0.9019986547
0.8998856293
0.8978126052
0.8956501633
0.8935282724
0.8913155906
0.8891436011
0.8868806001
0.8846580058
0.8823454297
0.8800725018
0.8777119964
0.8753898014
0.8729840613
0.8706142844
0.8681673583
0.8657511336
0.8632712928
0.8608107769
0.8583011032
0.8557935449
0.853302461
0.8508443445
0.848434609
0.846062536
0.8437316074
0.8414331103
0.8391717603
0.8369390015
0.8347400852
0.8325661307
0.8304228259
0.8283009129
0.8262066015
0.8241298299
0.8220776323
0.8200393719
0.8180219214
0.8160194049
0.8140317815
0.8120579751
0.8100885391
0.808141088
0.8061931624
0.804265678
0.8023344867
0.8004222043
0.7985038161
0.796602962
0.7946943818
0.7928018817
0.7909005608
0.7890139913
0.7871178778
0.7852354274
0.7833430002
0.7814634398
0.7795737562
0.7776964204
0.7758090639
0.7739338516
0.7720490395
0.7701763998
0.7682944409
0.766424594
0.764545249
0.7626778779
0.7608005735
0.7589351114
0.7570590691
0.7551947425
0.7533189828
0.7514548506
0.7495781916
0.7477132614
0.7458342511
0.7439672552
0.742084522
0.7402140699
0.7383261385
0.736450749
0.7345560842
0.7326742407
0.730771245
0.7288814797
0.7269684402
0.7250699319
0.7231440802
0.7212334609
0.7192944502
0.7173731572
0.7154181553
0.7134824373
0.7115111795
0.7095596497
0.707570725
0.7056019181
0.7035940708
0.7016066668
0.6995786996
0.6975714793
0.6955222297
0.6934939978
0.6914223836
0.6893720182
0.6872771125
0.6852036585
0.6830847131
0.6809874033
0.6788438236
0.6767220305
0.6745533581
0.6724065599
0.670212508
0.6680403209
0.6658208577
0.6636231286
0.6613785762
0.6591554599
0.6568865904
0.654638501
0.6523467192
0.6500735017
0.6477619533
0.645464656
0.6431383301
0.6408131794
0.6384822793
0.6361761479
0.6338998905
0.6316601356
0.6294536697
0.6272833089
0.6251449458
0.6230415392
0.6209696018
0.6189316561
0.6169245519
0.6149502202
0.6130056314
0.6110920927
0.6092064556
0.6073496199
0.6055187602
0.6037147408
0.6019339386
0.6001729957
0.5984356438
0.5967178903
0.5950198455
0.5933384439
0.5916732842
0.5900216689
0.5883838154
0.5867556178
0.5851400624
0.583529532
0.5819272834
0.5803234179
0.5787249936
0.5771295389
0.5755373894
0.5739507021
0.572373808
0.5708021041
0.5692359663
0.5676782578
0.5661313438
0.5645979863
0.5630790187
0.5615742095
0.5600833099
0.5586065687
0.5571446561
0.5556983383
0.5542682444
0.5528548281
0.5514584507
0.5500794682
0.5487182643
0.547375233
0.5460507452
0.5447451352
0.543458729
0.5421918215
0.5409446842
0.5397175735
0.5385107335
0.5373243937
0.5361587653
0.5350140367
0.5338903705
0.5327879019
0.5317067373
0.5306469531
0.529608595
0.5285916765
0.5275961777
0.5266220435
0.5256691814
0.5247374601
0.5238267069
0.5229367062
0.5220671979
0.5212178764
0.5203883907
0.5195783439
0.5187872939
0.5180147541
0.5172601926
0.5165230344
0.5158026531
0.5150984329
0.5144095644
0.5137353446
0.5130744239
0.5124276117
0.5117903693
0.5111814956
0.5105233647
0.5098733434
0.509141587
0.5084199312
0.5076154542
0.5068203171
0.5059439561
0.505076202
0.5041298343
0.5031915069
0.5021777388
0.5011716751
0.5000934731
0.4990229972
0.4978834424
0.4967520051
0.4955541774
0.4943651153
0.4931120934
0.4918683275
0.4905632335
0.4892654032
0.4879142582
0.48656948
0.4851819291
0.48379126
0.4823698562
0.4809446677
0.4795037771
0.4780463559
0.4765748502
0.475092189
0.4735997278
0.4720981242
0.4705882893
0.469071193
0.4675477435
0.4660187873
0.464485348
0.4629483211
0.4614083926
0.4598663643
0.4583234817
0.4567811915
0.4552408134
0.4537025732
0.4521660996
0.4506309244
0.4490965778
0.4475625837
0.446028686
0.4444945995
0.442960002
0.4414250059
0.4398897821
0.4383541321
0.436817911
0.435280687
0.4337421154
0.4322023582
0.4306617949
0.4291201354
0.4275756161
0.4260273316
0.4244790264
0.4229292292
0.4213752754
0.419818128
0.4182581794
0.4166950665
0.4151284825
0.4135583305
0.4119842701
0.4104060026
0.4088233855
0.4072367895
0.4056465842
0.4040532594
0.4024565136
0.4008561629
0.3992522684
0.3976442853
0.3960326279
0.3944170862
0.3927982638
0.39117563
0.389548663
0.3879180967
0.3862832132
0.3846438498
0.382999281
0.3813497245
0.3796954737
0.3780357409
0.3763695631
0.3746976246
0.3730204512
0.3713373939
0.369647962
0.3679529996
0.3662537141
0.3645499844
0.3628413408
0.3611275379
0.3594084499
0.3576841446
0.3559547235
0.3542202398
0.3524806702
0.3507359137
0.348985768
0.3472299822
0.3454683417
0.3437010206
0.341928125
0.3401494078
0.3383648368
0.3365743597
0.3347779286
0.3329755303
0.3311671531
0.3293527623
0.3275323119
0.3257057798
0.3238732089
0.3220346354
0.3201905369
0.3183414492
0.3164875453
0.3146290925
0.3127664882
0.3109000669
0.3090301176
0.3071569928
0.3052808086
0.3034018328
0.3015201839
0.2996359855
0.2977494486
0.2958606231
0.2939696919
0.2920768249
0.2901820903
0.2882856692
0.286387776
0.284488497
0.282587993
0.2806865253
0.2787842275
0.2768812593
0.2749779297
0.2730744777
0.271171098
0.2692679259
0.2673650371
0.2654626255
0.2635609537
0.2616602832
0.2597608871
0.2578630542
0.2559670686
0.2540733518
0.2521830867
0.2502986455
0.2484219387
0.246553087
0.2446915048
0.2428365889
0.2409883607
0.2391472332
0.2373131597
0.2354878859
0.233673094
0.2318675478
0.2300698854
0.2282786791
0.2265012503
0.2247419438
0.2229989946
0.2212704371
0.219558084
0.2178655853
0.2161932669
0.2145373686
0.2128942531
0.211262486
0.2096412574
0.2080300936
0.2064290132
0.2048375753
0.2032546945
0.201679951
0.2001077458
0.1985876802
0.1971071545
0.1957319681
0.1944158837
0.1931917198
0.1920028792
0.1909026747
0.1898394682
0.1888463272
0.1878780116
0.1869634714
0.186079001
0.1852497105
0.1844469595
0.1836718872
0.1829264614
0.1822268269
0.1815623775
0.1809420348
0.180368295
0.1798224003
0.1793008901
0.1788233912
0.1784370603
0.1781131011
0.1778851434
0.1777370414
0.1776657571
0.1776680768
0.1777392031
0.1778755563
0.1780705723
0.1783187924
0.1786133377
0.1789463202
0.1793105064
0.1796976989
0.1801028786
0.1805210744
0.1809491582
0.1813838838
0.1818235745
0.1822650957
0.1827053313
0.1831449894
0.1835753271
0.1839963855
0.1844046023
0.1848001872
0.1851830681
0.185546841
0.1858880032
0.186208191
0.1865128937
0.1868045363
0.1870826875
0.1873489787
0.1876093235
0.1878704757
0.1881377301
0.1884163944
0.1887092588
0.1890157304
0.1893346827
0.189665445
0.1900075116
0.1903608639
0.1907253497
0.1911008896
0.1914874437
0.1918849524
0.1922932446
0.1927121494
0.1931416062
0.1935817437
0.1940326149
0.1944940304
0.1949656461
0.1954468877
0.195936997
0.1964350514
0.1969400633
0.197449801
0.197962628
0.1984774775
0.1989937226
0.1995114391
0.200031414
0.2005554366
0.2010847011
0.2016217451
0.2021702193
0.2027305201
0.2033001742
0.2038767944
0.2044579856
0.2050421861
0.2056284467
0.2062134963
0.2067943098
0.2073692079
0.2079364672
0.2084941614
0.2090409423
0.2095769898
0.210108001
0.2106645109
0.2112579473
0.2118796134
0.2125062958
0.2131268263
0.2137301211
0.2143106181
0.2148756717
0.2154288564
0.2159737602
0.2165124408
0.2170476544
0.2175821089
0.2181171349
0.2186579044
0.2192029107
0.2197594485
0.2203262683
0.2209094888
0.2215090471
0.2221280117
0.2227682526
0.2234304644
0.2241113839
0.224816118
0.2255409252
0.2262873418
0.2270535993
0.2278409066
0.2286474767
0.2294737034
0.2303191385
0.2311838515
0.2320658349
0.2329673894
0.233886259
0.2348228659
0.2357776046
0.2367496803
0.2377391324
0.2387469145
0.2397727496
0.240817156
0.2418806376
0.2429634113
0.244066144
0.2451893165
0.2463333104
0.2474986851
0.2486864061
0.2498982151
0.2511326412
0.2523897688
0.2536715022
0.2549788217
0.2563124682
0.2576732683
0.2590622473
0.2604805567
0.2619293742
0.2634098629
0.2649231931
0.2664705939
0.2680533954
0.2696730217
0.271330937
0.2730285815
0.2747673414
0.2765485632
0.2783735963
0.2802438389
0.2821607742
0.2841259975
0.2861412161
0.2882081963
0.2903287282
0.2925046274
0.2947377487
0.2970300013
0.2993833591
0.3017998682
0.3042816568
0.3068309525
0.3094501059
0.3121416252
0.3149081856
0.3177527899
0.3206783826
0.323687524
0.3267827995
0.3299665559
0.3332413946
0.3366098254
0.340074411
0.3436377449
0.3473021234
0.3510698768
0.3549429928
0.3589232746
0.3630121991
0.3672105885
0.3715187554
0.37593688
0.3804669217
0.3851150084
0.3898808997
0.3946275093
0.3992525364
0.4038574877
0.4084660807
0.4130830674
0.4177178691
0.4223632583
0.4270148726
0.4316454699
0.4362343268
0.4407643563
0.4452209796
0.4495743851
0.453796704
0.4578562077
0.4617369295
0.4654269742
0.4689149893
0.4722041939
0.4752293404
0.4779450624
0.4804351737
0.4827817995
0.4848562867
0.4866769202
0.4883015995
0.4897659354
0.4910738358
0.4922502991
0.4933559321
0.4944376004
0.4955415463
0.4967213189
0.4980363102
0.4994088108
0.5007506157
0.5020391941
0.503230768
0.5042564233
0.5050547423
0.5057799872
0.5064202405
0.5069217184
0.5072414099
0.5072918855
0.5069400667
0.5063187174
0.5054273396
0.5041919887
0.5026080563
0.5006666082
0.4983452492
0.4956193893
0.4924775544
0.4889163472
0.4849234918
0.4804710883
0.4755300905
0.470086998
0.4641389975
0.4576805425
0.4507029632
0.443108363
0.4347792855
0.4257471678
0.4158568439
0.4049674864
0.3930320792
0.380182717
0.3665345657
0.3521929095
0.3372598498
0.321850584
0.3061047787
0.2901619002
0.2741018125
0.2579719828
0.241826555
0.2257247543
0.2097315085
0.1939216172
0.1783699859
0.1631521194
0.148346726
0.134033072
0.1202874627
0.1071803763
0.09477407888
0.08312271629
0.07227238616
0.06224281999
0.05305108385
0.04472708466
0.03726840642
0.03065709791
0.02486136572
0.0198416998
0.0155566322
0.01196769792
0.00907310744
0.006865409416
0.005196189641
0.003938607015
0.00299239259
0.00228024768
0.001743483105
0.001337942222
0.001030511768
0.0007965188978
0.0006176146699
0.0004802215337
0.0003742612907
0.000292201118
0.0002284143309
0.0001786772136
0.0001397989567
0.0001093544566
8.548583294e-05
6.676247055e-05
5.207545176e-05
4.055965972e-05
3.153782093e-05
2.447730267e-05
1.896007934e-05
1.465666928e-05
1.130621284e-05
8.702916693e-06
6.684289485e-06
5.122389457e-06
3.916554521e-06
2.987785879e-06
2.274087578e-06
1.726945795e-06
1.308469504e-06
9.8906406e-07
7.459304081e-07
5.612683163e-07
4.213748612e-07
3.156459041e-07
2.359226077e-07
1.759467905e-07
1.309289077e-07
9.721721739e-08
7.202902008e-08
5.325047425e-08
3.9285875e-08
2.892408624e-08
2.125120346e-08
1.557465268e-08
1.139225603e-08
8.316527023e-09
6.058964885e-09
4.405658949e-09
3.197106579e-09
2.315516667e-09
1.673318373e-09
1.206847955e-09
8.687353059e-10
6.241256401e-10
4.475153581e-10
3.202598187e-10
2.287494638e-10
1.630597879e-10
1.160147534e-10
8.239009475e-11
5.838840522e-11
4.130207287e-11
2.91677793e-11
2.056044224e-11
1.446576192e-11
1.015854068e-11
7.120082302e-12
4.982236845e-12
3.478106692e-12
2.424727086e-12
1.687538997e-12
1.171951425e-12
8.12683254e-13
5.631051181e-13
3.890221478e-13
2.682298827e-13
1.856292897e-13
1.27009514e-13
8.615330671e-14
5.86197757e-14
4.174438573e-14
2.842170943e-14
1.776356839e-14
1.243449788e-14
7.993605777e-15
4.440892099e-15
4.440892099e-15
2.664535259e-15
2.664535259e-15
1.776356839e-15
1.776356839e-15
8.881784197e-16
8.881784197e-16
1.776356839e-15
8.881784197e-16
8.881784197e-16
-8.881784197e-16
8.881784197e-16
0
0
8.881784197e-16
8.881784197e-16
0
0
0
-8.881784197e-16
0
0
0
8.881784197e-16
0
8.881784197e-16
0
8.881784197e-16
0
0
0
0
0
0
0
0
0
0
-8.881784197e-16
0
0
0
0
0
0
-8.881784197e-16
-8.881784197e-16
-8.881784197e-16
8.881784197e-16
0
0
0
0
-8.881784197e-16
-8.881784197e-16
0
0
0
8.881784197e-16
0
0
0
-8.881784197e-16
0
-8.881784197e-16
0
0
0
0
8.881784197e-16
0
0
-8.881784197e-16
0
0
8.881784197e-16
0
0
-8.881784197e-16
0
-8.881784197e-16
8.881784197e-16
0
0
0
0
0
0
0
0
0
8.881784197e-16
0
0
-8.881784197e-16
0
-8.881784197e-16
0
0
8.881784197e-16
0
0
0
0
-8.881784197e-16
-8.881784197e-16
-8.881784197e-16
-8.881784197e-16
0
8.881784197e-16
8.881784197e-16
-8.881784197e-16
0
0
0
8.881784197e-16
0
0
0
0
0
0
0
0
0
0
-8.881784197e-16
0
-8.881784197e-16
0
0
0
0
0
0