/*--------------------------------*- C++ -*----------------------------------*\
| =========                 |                                                 |
| \\      /  F ield         | OpenFOAM: The Open Source CFD Toolbox           |
|  \\    /   O peration     | Version:  2312                                  |
|   \\  /    A nd           | Website:  www.openfoam.com                      |
|    \\/     M anipulation  |                                                 |
\*---------------------------------------------------------------------------*/
FoamFile
{
    version     2.0;
    format      ascii;
    arch        "LSB;label=32;scalar=64";
    class       volVectorField;
    location    "0.003";
    object      U;
}
// * * * * * * * * * * * * * * * * * * * * * * * * * * * * * * * * * * * * * //

dimensions      [0 1 -1 0 0 0 0];

internalField   nonuniform List<vector> 
5000
(
(9.999985363 0 0)
(9.999998054 0 0)
(9.999998341 0 0)
(9.999998307 0 0)
(9.999998304 0 0)
(9.999998299 0 0)
(9.9999983 0 0)
(9.9999983 0 0)
(9.9999983 0 0)
(9.9999983 0 0)
(9.999998301 0 0)
(9.999998305 0 0)
(9.999998304 0 0)
(9.999998302 0 0)
(9.999998297 0 0)
(9.999998298 0 0)
(9.999998304 0 0)
(9.999998303 0 0)
(9.9999983 0 0)
(9.999998299 0 0)
(9.999998302 0 0)
(9.999998299 0 0)
(9.999998299 0 0)
(9.999998302 0 0)
(9.999998304 0 0)
(9.999998303 0 0)
(9.9999983 0 0)
(9.999998303 0 0)
(9.999998301 0 0)
(9.999998301 0 0)
(9.999998305 0 0)
(9.999998301 0 0)
(9.9999983 0 0)
(9.999998301 0 0)
(9.999998302 0 0)
(9.999998305 0 0)
(9.999998305 0 0)
(9.999998305 0 0)
(9.999998305 0 0)
(9.999998303 0 0)
(9.999998301 0 0)
(9.999998301 0 0)
(9.999998307 0 0)
(9.999998304 0 0)
(9.999998304 0 0)
(9.999998305 0 0)
(9.999998303 0 0)
(9.999998302 0 0)
(9.999998304 0 0)
(9.999998305 0 0)
(9.999998301 0 0)
(9.9999983 0 0)
(9.999998302 0 0)
(9.999998307 0 0)
(9.999998306 0 0)
(9.999998304 0 0)
(9.999998304 0 0)
(9.999998301 0 0)
(9.999998307 0 0)
(9.999998306 0 0)
(9.999998303 0 0)
(9.99999831 0 0)
(9.999998307 0 0)
(9.999998305 0 0)
(9.999998305 0 0)
(9.999998309 0 0)
(9.999998309 0 0)
(9.999998307 0 0)
(9.999998309 0 0)
(9.999998307 0 0)
(9.999998302 0 0)
(9.999998303 0 0)
(9.999998306 0 0)
(9.999998306 0 0)
(9.999998306 0 0)
(9.999998305 0 0)
(9.99999831 0 0)
(9.999998307 0 0)
(9.999998304 0 0)
(9.999998308 0 0)
(9.999998306 0 0)
(9.999998306 0 0)
(9.999998305 0 0)
(9.999998302 0 0)
(9.999998309 0 0)
(9.999998309 0 0)
(9.999998303 0 0)
(9.999998303 0 0)
(9.999998303 0 0)
(9.999998308 0 0)
(9.999998312 0 0)
(9.999998303 0 0)
(9.999998305 0 0)
(9.999998307 0 0)
(9.999998306 0 0)
(9.999998305 0 0)
(9.999998308 0 0)
(9.999998306 0 0)
(9.999998302 0 0)
(9.999998308 0 0)
(9.999998308 0 0)
(9.999998306 0 0)
(9.999998303 0 0)
(9.999998305 0 0)
(9.999998307 0 0)
(9.999998304 0 0)
(9.999998307 0 0)
(9.999998306 0 0)
(9.999998302 0 0)
(9.999998305 0 0)
(9.999998305 0 0)
(9.999998303 0 0)
(9.999998305 0 0)
(9.999998305 0 0)
(9.999998306 0 0)
(9.999998306 0 0)
(9.999998303 0 0)
(9.999998305 0 0)
(9.999998306 0 0)
(9.9999983 0 0)
(9.9999983 0 0)
(9.999998305 0 0)
(9.999998303 0 0)
(9.999998306 0 0)
(9.999998304 0 0)
(9.999998301 0 0)
(9.999998303 0 0)
(9.999998306 0 0)
(9.999998305 0 0)
(9.999998305 0 0)
(9.999998305 0 0)
(9.999998304 0 0)
(9.999998305 0 0)
(9.999998301 0 0)
(9.999998299 0 0)
(9.999998302 0 0)
(9.999998301 0 0)
(9.999998303 0 0)
(9.999998299 0 0)
(9.999998295 0 0)
(9.999998307 0 0)
(9.999998306 0 0)
(9.999998301 0 0)
(9.999998301 0 0)
(9.9999983 0 0)
(9.999998296 0 0)
(9.999998294 0 0)
(9.999998298 0 0)
(9.999998302 0 0)
(9.999998301 0 0)
(9.999998297 0 0)
(9.999998301 0 0)
(9.999998302 0 0)
(9.999998298 0 0)
(9.999998297 0 0)
(9.999998297 0 0)
(9.999998298 0 0)
(9.999998297 0 0)
(9.999998296 0 0)
(9.999998299 0 0)
(9.999998301 0 0)
(9.9999983 0 0)
(9.999998294 0 0)
(9.9999983 0 0)
(9.999998295 0 0)
(9.999998294 0 0)
(9.999998298 0 0)
(9.999998297 0 0)
(9.999998294 0 0)
(9.999998294 0 0)
(9.999998294 0 0)
(9.999998293 0 0)
(9.999998294 0 0)
(9.999998294 0 0)
(9.999998296 0 0)
(9.999998293 0 0)
(9.999998285 0 0)
(9.999998288 0 0)
(9.999998288 0 0)
(9.999998285 0 0)
(9.999998286 0 0)
(9.999998285 0 0)
(9.99999828 0 0)
(9.999998278 0 0)
(9.999998278 0 0)
(9.999998275 0 0)
(9.999998271 0 0)
(9.999998261 0 0)
(9.99999826 0 0)
(9.999998256 0 0)
(9.999998238 0 0)
(9.999998222 0 0)
(9.999998198 0 0)
(9.999998146 0 0)
(9.99999808 0 0)
(9.999998 0 0)
(9.999997852 0 0)
(9.99999767 0 0)
(9.999997372 0 0)
(9.999996976 0 0)
(9.999996378 0 0)
(9.999995538 0 0)
(9.999994323 0 0)
(9.999992575 0 0)
(9.999990009 0 0)
(9.999986382 0 0)
(9.999981093 0 0)
(9.999973517 0 0)
(9.999962571 0 0)
(9.99994681 0 0)
(9.999924101 0 0)
(9.999891381 0 0)
(9.999844237 0 0)
(9.999776298 0 0)
(9.999678432 0 0)
(9.999537441 0 0)
(9.99933436 0 0)
(9.999041787 0 0)
(9.998620374 0 0)
(9.998013375 0 0)
(9.997139082 0 0)
(9.995879896 0 0)
(9.994066528 0 0)
(9.991455069 0 0)
(9.987694724 0 0)
(9.982280276 0 0)
(9.974484791 0 0)
(9.963262609 0 0)
(9.94711026 0 0)
(9.923865311 0 0)
(9.890425146 0 0)
(9.842333285 0 0)
(9.773202703 0 0)
(9.67390238 0 0)
(9.531398992 0 0)
(9.327194149 0 0)
(9.03509406 0 0)
(8.618485284 0 0)
(8.02622624 0 0)
(7.189352852 0 0)
(6.016764091 0 0)
(4.389515967 0 0)
(2.167271838 0 0)
(-0.8042467904 0 0)
(-4.662295677 0 0)
(-9.173536685 0 0)
(-13.28130422 0 0)
(-16.84447736 0 0)
(-19.71455965 0 0)
(-22.12368277 0 0)
(-24.0362715 0 0)
(-25.50247682 0 0)
(-26.63730402 0 0)
(-27.52013915 0 0)
(-28.21617178 0 0)
(-28.68508813 0 0)
(-29.05170878 0 0)
(-29.33737805 0 0)
(-29.55652996 0 0)
(-29.68568822 0 0)
(-29.77078589 0 0)
(-29.83568027 0 0)
(-29.89258585 0 0)
(-29.92237148 0 0)
(-29.92540545 0 0)
(-29.92400195 0 0)
(-29.92607524 0 0)
(-29.9248715 0 0)
(-29.91251505 0 0)
(-29.88618692 0 0)
(-29.84698966 0 0)
(-29.79860619 0 0)
(-29.74104961 0 0)
(-29.67932762 0 0)
(-29.61909749 0 0)
(-29.55792213 0 0)
(-29.49850813 0 0)
(-29.43836814 0 0)
(-29.37715158 0 0)
(-29.31430945 0 0)
(-29.25000812 0 0)
(-29.1855213 0 0)
(-29.11819806 0 0)
(-29.05043529 0 0)
(-28.98260483 0 0)
(-28.91474483 0 0)
(-28.84382386 0 0)
(-28.77235605 0 0)
(-28.69801973 0 0)
(-28.62143135 0 0)
(-28.54150024 0 0)
(-28.46127684 0 0)
(-28.37720976 0 0)
(-28.29365359 0 0)
(-28.21126851 0 0)
(-28.12557895 0 0)
(-28.04009978 0 0)
(-27.95375908 0 0)
(-27.86491881 0 0)
(-27.77549444 0 0)
(-27.68358746 0 0)
(-27.5912162 0 0)
(-27.49779864 0 0)
(-27.40511301 0 0)
(-27.31159641 0 0)
(-27.21711091 0 0)
(-27.12254451 0 0)
(-27.02618097 0 0)
(-26.92857042 0 0)
(-26.83067592 0 0)
(-26.73205671 0 0)
(-26.63111806 0 0)
(-26.53109293 0 0)
(-26.43081152 0 0)
(-26.33004452 0 0)
(-26.23031145 0 0)
(-26.1291609 0 0)
(-26.02804825 0 0)
(-25.92773376 0 0)
(-25.82675388 0 0)
(-25.72561704 0 0)
(-25.62464116 0 0)
(-25.52194215 0 0)
(-25.41864193 0 0)
(-25.31556121 0 0)
(-25.21182205 0 0)
(-25.10605541 0 0)
(-25.00114564 0 0)
(-24.89767629 0 0)
(-24.79429185 0 0)
(-24.68889007 0 0)
(-24.58403067 0 0)
(-24.47805375 0 0)
(-24.3716195 0 0)
(-24.26715722 0 0)
(-24.16115091 0 0)
(-24.05417509 0 0)
(-23.94768335 0 0)
(-23.8402995 0 0)
(-23.73417605 0 0)
(-23.62629623 0 0)
(-23.51786241 0 0)
(-23.41062055 0 0)
(-23.30192702 0 0)
(-23.193694 0 0)
(-23.08617019 0 0)
(-22.97659619 0 0)
(-22.86780512 0 0)
(-22.75914098 0 0)
(-22.65076416 0 0)
(-22.5423358 0 0)
(-22.43347582 0 0)
(-22.32348725 0 0)
(-22.21419624 0 0)
(-22.10499454 0 0)
(-21.99474095 0 0)
(-21.8847625 0 0)
(-21.77564964 0 0)
(-21.66669124 0 0)
(-21.55606192 0 0)
(-21.44624584 0 0)
(-21.33681787 0 0)
(-21.22625806 0 0)
(-21.11681414 0 0)
(-21.00713163 0 0)
(-20.8973256 0 0)
(-20.78825597 0 0)
(-20.67799363 0 0)
(-20.56806957 0 0)
(-20.45825489 0 0)
(-20.3484903 0 0)
(-20.23856726 0 0)
(-20.1287731 0 0)
(-20.01953762 0 0)
(-19.90977325 0 0)
(-19.79979536 0 0)
(-19.68984656 0 0)
(-19.58011688 0 0)
(-19.47104423 0 0)
(-19.36162084 0 0)
(-19.25216564 0 0)
(-19.14224694 0 0)
(-19.03383168 0 0)
(-18.92495415 0 0)
(-18.8162613 0 0)
(-18.70815038 0 0)
(-18.59996896 0 0)
(-18.4913997 0 0)
(-18.3837336 0 0)
(-18.27673694 0 0)
(-18.1685315 0 0)
(-18.06001488 0 0)
(-17.95224907 0 0)
(-17.84522216 0 0)
(-17.73854366 0 0)
(-17.63332062 0 0)
(-17.52759569 0 0)
(-17.42200273 0 0)
(-17.31693365 0 0)
(-17.21228635 0 0)
(-17.10700375 0 0)
(-17.0021064 0 0)
(-16.89670825 0 0)
(-16.79137428 0 0)
(-16.68660163 0 0)
(-16.5811093 0 0)
(-16.47618466 0 0)
(-16.3720706 0 0)
(-16.26776019 0 0)
(-16.16476127 0 0)
(-16.06164923 0 0)
(-15.95886413 0 0)
(-15.85605617 0 0)
(-15.75248295 0 0)
(-15.64808136 0 0)
(-15.54377171 0 0)
(-15.44133185 0 0)
(-15.33758429 0 0)
(-15.23335047 0 0)
(-15.12973216 0 0)
(-15.02554671 0 0)
(-14.92211525 0 0)
(-14.81902062 0 0)
(-14.71606382 0 0)
(-14.61385458 0 0)
(-14.51075724 0 0)
(-14.40773538 0 0)
(-14.30574219 0 0)
(-14.20347238 0 0)
(-14.10078629 0 0)
(-13.99896644 0 0)
(-13.89682431 0 0)
(-13.79508207 0 0)
(-13.69341918 0 0)
(-13.5908558 0 0)
(-13.48854578 0 0)
(-13.38690954 0 0)
(-13.2852327 0 0)
(-13.18339182 0 0)
(-13.0821754 0 0)
(-12.98056019 0 0)
(-12.879234 0 0)
(-12.77879129 0 0)
(-12.67775316 0 0)
(-12.57775916 0 0)
(-12.4776116 0 0)
(-12.37796012 0 0)
(-12.27877881 0 0)
(-12.17916555 0 0)
(-12.08060212 0 0)
(-11.98226077 0 0)
(-11.88348382 0 0)
(-11.78496041 0 0)
(-11.6873113 0 0)
(-11.58993216 0 0)
(-11.49413239 0 0)
(-11.39812037 0 0)
(-11.30114302 0 0)
(-11.20417573 0 0)
(-11.10851367 0 0)
(-11.01247431 0 0)
(-10.91672888 0 0)
(-10.82126951 0 0)
(-10.72537225 0 0)
(-10.62979637 0 0)
(-10.53534096 0 0)
(-10.44105614 0 0)
(-10.34674092 0 0)
(-10.25194484 0 0)
(-10.15783783 0 0)
(-10.06375138 0 0)
(-9.969405851 0 0)
(-9.875336469 0 0)
(-9.781270632 0 0)
(-9.686536827 0 0)
(-9.592242225 0 0)
(-9.498349431 0 0)
(-9.403690364 0 0)
(-9.309621229 0 0)
(-9.215358359 0 0)
(-9.121138626 0 0)
(-9.027304393 0 0)
(-8.933954402 0 0)
(-8.840883317 0 0)
(-8.748609512 0 0)
(-8.657145276 0 0)
(-8.564919225 0 0)
(-8.473271532 0 0)
(-8.38198605 0 0)
(-8.291109201 0 0)
(-8.199934032 0 0)
(-8.109782844 0 0)
(-8.020083781 0 0)
(-7.930280131 0 0)
(-7.841662327 0 0)
(-7.752690357 0 0)
(-7.664501888 0 0)
(-7.576981196 0 0)
(-7.489313744 0 0)
(-7.402581711 0 0)
(-7.316133518 0 0)
(-7.231168931 0 0)
(-7.145848666 0 0)
(-7.061445816 0 0)
(-6.977527196 0 0)
(-6.89309225 0 0)
(-6.80985216 0 0)
(-6.728114238 0 0)
(-6.646159887 0 0)
(-6.565731003 0 0)
(-6.485348269 0 0)
(-6.406009514 0 0)
(-6.326632055 0 0)
(-6.248171528 0 0)
(-6.170625048 0 0)
(-6.092613426 0 0)
(-6.015790305 0 0)
(-5.939302191 0 0)
(-5.862940085 0 0)
(-5.788180398 0 0)
(-5.713157882 0 0)
(-5.639213623 0 0)
(-5.565623479 0 0)
(-5.49228981 0 0)
(-5.419743747 0 0)
(-5.347999734 0 0)
(-5.27599748 0 0)
(-5.205108352 0 0)
(-5.135013703 0 0)
(-5.064644026 0 0)
(-4.995355759 0 0)
(-4.926278835 0 0)
(-4.85743343 0 0)
(-4.788800892 0 0)
(-4.720581113 0 0)
(-4.653705565 0 0)
(-4.586873845 0 0)
(-4.520199746 0 0)
(-4.45476828 0 0)
(-4.389269911 0 0)
(-4.324697253 0 0)
(-4.260264661 0 0)
(-4.196516136 0 0)
(-4.132588148 0 0)
(-4.069798304 0 0)
(-4.006828686 0 0)
(-3.944597294 0 0)
(-3.883104485 0 0)
(-3.821323789 0 0)
(-3.760461581 0 0)
(-3.700359022 0 0)
(-3.640140855 0 0)
(-3.580596207 0 0)
(-3.521607706 0 0)
(-3.462433525 0 0)
(-3.40394822 0 0)
(-3.34612374 0 0)
(-3.289304114 0 0)
(-3.232352345 0 0)
(-3.176197197 0 0)
(-3.119830611 0 0)
(-3.064339649 0 0)
(-3.008842041 0 0)
(-2.954210455 0 0)
(-2.899581256 0 0)
(-2.845324457 0 0)
(-2.791439896 0 0)
(-2.737716248 0 0)
(-2.684310289 0 0)
(-2.631506808 0 0)
(-2.579191257 0 0)
(-2.527340675 0 0)
(-2.475875404 0 0)
(-2.424458223 0 0)
(-2.373441123 0 0)
(-2.323163657 0 0)
(-2.273320537 0 0)
(-2.223329038 0 0)
(-2.17395771 0 0)
(-2.124895015 0 0)
(-2.075761162 0 0)
(-2.026762809 0 0)
(-1.978572832 0 0)
(-1.930341196 0 0)
(-1.882608372 0 0)
(-1.83526882 0 0)
(-1.787741219 0 0)
(-1.740706277 0 0)
(-1.693708171 0 0)
(-1.646788603 0 0)
(-1.600319517 0 0)
(-1.553921285 0 0)
(-1.508105303 0 0)
(-1.462242739 0 0)
(-1.416618456 0 0)
(-1.371019552 0 0)
(-1.325932503 0 0)
(-1.280714438 0 0)
(-1.235783144 0 0)
(-1.190948212 0 0)
(-1.146391743 0 0)
(-1.102198277 0 0)
(-1.057919672 0 0)
(-1.013946491 0 0)
(-0.9703253773 0 0)
(-0.9267774445 0 0)
(-0.8834833322 0 0)
(-0.8400128539 0 0)
(-0.7968461311 0 0)
(-0.7538418447 0 0)
(-0.7107330507 0 0)
(-0.6679233766 0 0)
(-0.6254302327 0 0)
(-0.5829051335 0 0)
(-0.5406107544 0 0)
(-0.4983911777 0 0)
(-0.4563289881 0 0)
(-0.414679575 0 0)
(-0.3732628461 0 0)
(-0.3318687997 0 0)
(-0.2910467392 0 0)
(-0.2501915099 0 0)
(-0.2098447665 0 0)
(-0.1697251592 0 0)
(-0.1301685318 0 0)
(-0.09065633523 0 0)
(-0.05173048475 0 0)
(-0.01345441869 0 0)
(0.02479954979 0 0)
(0.0625751676 0 0)
(0.09982517991 0 0)
(0.1371602462 0 0)
(0.1738481708 0 0)
(0.2103915485 0 0)
(0.2463752944 0 0)
(0.2825005822 0 0)
(0.3179643767 0 0)
(0.3533544834 0 0)
(0.3882888817 0 0)
(0.4227470877 0 0)
(0.4572611822 0 0)
(0.4912798851 0 0)
(0.5249501414 0 0)
(0.5584384568 0 0)
(0.5916732808 0 0)
(0.6245673217 0 0)
(0.6575528993 0 0)
(0.6901366365 0 0)
(0.7224881281 0 0)
(0.7545462105 0 0)
(0.7866482188 0 0)
(0.8184083903 0 0)
(0.8500929058 0 0)
(0.8816662416 0 0)
(0.9129828558 0 0)
(0.9439776391 0 0)
(0.9749309312 0 0)
(1.005615709 0 0)
(1.036059581 0 0)
(1.066545355 0 0)
(1.096808719 0 0)
(1.126802487 0 0)
(1.156706399 0 0)
(1.186556371 0 0)
(1.216096513 0 0)
(1.245667858 0 0)
(1.275083362 0 0)
(1.304533634 0 0)
(1.334159706 0 0)
(1.363610055 0 0)
(1.393047616 0 0)
(1.422259197 0 0)
(1.451395393 0 0)
(1.480419712 0 0)
(1.50932358 0 0)
(1.537930228 0 0)
(1.566480307 0 0)
(1.594824101 0 0)
(1.623033108 0 0)
(1.651334927 0 0)
(1.679386499 0 0)
(1.707419706 0 0)
(1.735350777 0 0)
(1.763374495 0 0)
(1.791139722 0 0)
(1.818876011 0 0)
(1.846435166 0 0)
(1.873764786 0 0)
(1.901059644 0 0)
(1.928050709 0 0)
(1.954945158 0 0)
(1.981600982 0 0)
(2.008230827 0 0)
(2.034597149 0 0)
(2.060999024 0 0)
(2.087143981 0 0)
(2.113296616 0 0)
(2.139338083 0 0)
(2.165153161 0 0)
(2.190847712 0 0)
(2.216575398 0 0)
(2.242145169 0 0)
(2.267488916 0 0)
(2.292882522 0 0)
(2.318038865 0 0)
(2.342960525 0 0)
(2.367918531 0 0)
(2.392593645 0 0)
(2.417229093 0 0)
(2.441709262 0 0)
(2.466109373 0 0)
(2.490282549 0 0)
(2.514464806 0 0)
(2.538368424 0 0)
(2.562211224 0 0)
(2.585865871 0 0)
(2.609439315 0 0)
(2.632879583 0 0)
(2.656073003 0 0)
(2.679072681 0 0)
(2.702092539 0 0)
(2.724887574 0 0)
(2.747547519 0 0)
(2.770210781 0 0)
(2.792775106 0 0)
(2.815196076 0 0)
(2.837495398 0 0)
(2.859833889 0 0)
(2.88202356 0 0)
(2.904092169 0 0)
(2.92614131 0 0)
(2.948025159 0 0)
(2.969782547 0 0)
(2.991375095 0 0)
(3.01299386 0 0)
(3.03438879 0 0)
(3.055744423 0 0)
(3.077017553 0 0)
(3.098144438 0 0)
(3.119107243 0 0)
(3.140074408 0 0)
(3.160813928 0 0)
(3.18153072 0 0)
(3.202083164 0 0)
(3.222463951 0 0)
(3.242871318 0 0)
(3.263070252 0 0)
(3.283203312 0 0)
(3.303207986 0 0)
(3.323231301 0 0)
(3.343122499 0 0)
(3.362926187 0 0)
(3.382784514 0 0)
(3.40242757 0 0)
(3.422072094 0 0)
(3.441551311 0 0)
(3.460829211 0 0)
(3.480095321 0 0)
(3.499175634 0 0)
(3.518079368 0 0)
(3.536815799 0 0)
(3.55555787 0 0)
(3.574096928 0 0)
(3.592513072 0 0)
(3.610960939 0 0)
(3.629257991 0 0)
(3.647542118 0 0)
(3.665772845 0 0)
(3.684007236 0 0)
(3.702144446 0 0)
(3.720174297 0 0)
(3.738125889 0 0)
(3.755946927 0 0)
(3.773516243 0 0)
(3.791029672 0 0)
(3.808360082 0 0)
(3.825681022 0 0)
(3.842801281 0 0)
(3.859879583 0 0)
(3.876836434 0 0)
(3.893670763 0 0)
(3.910552998 0 0)
(3.927253552 0 0)
(3.943989193 0 0)
(3.960591926 0 0)
(3.977161692 0 0)
(3.993648056 0 0)
(4.010022029 0 0)
(4.026324225 0 0)
(4.042512268 0 0)
(4.058616422 0 0)
(4.074553362 0 0)
(4.090490202 0 0)
(4.106267263 0 0)
(4.121958195 0 0)
(4.137673267 0 0)
(4.153339208 0 0)
(4.168975387 0 0)
(4.184644007 0 0)
(4.200229946 0 0)
(4.215792206 0 0)
(4.231267908 0 0)
(4.246665784 0 0)
(4.261959108 0 0)
(4.277180239 0 0)
(4.292247036 0 0)
(4.307214221 0 0)
(4.322052866 0 0)
(4.336818568 0 0)
(4.351464654 0 0)
(4.366101083 0 0)
(4.380633878 0 0)
(4.395191616 0 0)
(4.409676138 0 0)
(4.424181032 0 0)
(4.438646937 0 0)
(4.453156451 0 0)
(4.467544485 0 0)
(4.481947748 0 0)
(4.496252038 0 0)
(4.510507615 0 0)
(4.524657501 0 0)
(4.538763909 0 0)
(4.552806609 0 0)
(4.566741244 0 0)
(4.58058027 0 0)
(4.594427608 0 0)
(4.608156967 0 0)
(4.621880001 0 0)
(4.635498318 0 0)
(4.649147921 0 0)
(4.662752102 0 0)
(4.676381961 0 0)
(4.690035254 0 0)
(4.703690147 0 0)
(4.717353806 0 0)
(4.730999264 0 0)
(4.744641363 0 0)
(4.758178708 0 0)
(4.771633594 0 0)
(4.784991099 0 0)
(4.798205859 0 0)
(4.811315083 0 0)
(4.824257123 0 0)
(4.837085453 0 0)
(4.849790685 0 0)
(4.862342214 0 0)
(4.874852876 0 0)
(4.887281375 0 0)
(4.899680195 0 0)
(4.912044858 0 0)
(4.924423247 0 0)
(4.936815115 0 0)
(4.949236032 0 0)
(4.961665201 0 0)
(4.97409373 0 0)
(4.986545442 0 0)
(4.999046489 0 0)
(5.011530402 0 0)
(5.024016233 0 0)
(5.036441076 0 0)
(5.048798999 0 0)
(5.061072762 0 0)
(5.073290482 0 0)
(5.085400502 0 0)
(5.09742 0 0)
(5.10935351 0 0)
(5.121151579 0 0)
(5.132905414 0 0)
(5.144548969 0 0)
(5.156143286 0 0)
(5.167651838 0 0)
(5.179065793 0 0)
(5.190491501 0 0)
(5.201813632 0 0)
(5.213118776 0 0)
(5.224354266 0 0)
(5.235608144 0 0)
(5.246752047 0 0)
(5.257913067 0 0)
(5.268984327 0 0)
(5.280067048 0 0)
(5.291058547 0 0)
(5.302056617 0 0)
(5.312960587 0 0)
(5.323891994 0 0)
(5.334741633 0 0)
(5.345598866 0 0)
(5.356396135 0 0)
(5.367147979 0 0)
(5.377919126 0 0)
(5.388604966 0 0)
(5.39928505 0 0)
(5.409883005 0 0)
(5.420492371 0 0)
(5.431047796 0 0)
(5.441589496 0 0)
(5.452098175 0 0)
(5.462543748 0 0)
(5.472971011 0 0)
(5.48331796 0 0)
(5.49366393 0 0)
(5.503943843 0 0)
(5.514199257 0 0)
(5.524392606 0 0)
(5.534591727 0 0)
(5.544720997 0 0)
(5.554839677 0 0)
(5.564905606 0 0)
(5.57493878 0 0)
(5.584930996 0 0)
(5.594879985 0 0)
(5.60477655 0 0)
(5.614668326 0 0)
(5.624508118 0 0)
(5.634266794 0 0)
(5.644012259 0 0)
(5.653675777 0 0)
(5.663320748 0 0)
(5.672908378 0 0)
(5.682433757 0 0)
(5.691964502 0 0)
(5.701427203 0 0)
(5.710880287 0 0)
(5.720349993 0 0)
(5.72978723 0 0)
(5.739233234 0 0)
(5.748693042 0 0)
(5.758179897 0 0)
(5.767630365 0 0)
(5.777105748 0 0)
(5.786541424 0 0)
(5.795932744 0 0)
(5.80528959 0 0)
(5.814582588 0 0)
(5.823805676 0 0)
(5.832975563 0 0)
(5.842061994 0 0)
(5.851096926 0 0)
(5.860077405 0 0)
(5.868984859 0 0)
(5.877892098 0 0)
(5.886741755 0 0)
(5.895585837 0 0)
(5.904445788 0 0)
(5.913290291 0 0)
(5.922164702 0 0)
(5.931031223 0 0)
(5.939931007 0 0)
(5.94880197 0 0)
(5.957681871 0 0)
(5.966509707 0 0)
(5.975283423 0 0)
(5.984020365 0 0)
(5.992671622 0 0)
(6.001260958 0 0)
(6.009789671 0 0)
(6.018244698 0 0)
(6.026627999 0 0)
(6.035011177 0 0)
(6.043309674 0 0)
(6.051606345 0 0)
(6.059875349 0 0)
(6.068116809 0 0)
(6.076381611 0 0)
(6.084589297 0 0)
(6.092806653 0 0)
(6.10094983 0 0)
(6.109068163 0 0)
(6.117126545 0 0)
(6.125114855 0 0)
(6.133064575 0 0)
(6.140945609 0 0)
(6.148780363 0 0)
(6.156561716 0 0)
(6.164315517 0 0)
(6.172026753 0 0)
(6.179728435 0 0)
(6.187393665 0 0)
(6.195061706 0 0)
(6.202700034 0 0)
(6.210346521 0 0)
(6.217966191 0 0)
(6.225599479 0 0)
(6.233210054 0 0)
(6.24083067 0 0)
(6.24842135 0 0)
(6.256015949 0 0)
(6.263573305 0 0)
(6.271128669 0 0)
(6.278656517 0 0)
(6.286196268 0 0)
(6.293717154 0 0)
(6.301250026 0 0)
(6.308769312 0 0)
(6.316266168 0 0)
(6.323760879 0 0)
(6.331193004 0 0)
(6.338562769 0 0)
(6.345885618 0 0)
(6.353125121 0 0)
(6.360289699 0 0)
(6.367373041 0 0)
(6.374352739 0 0)
(6.381229759 0 0)
(6.388056173 0 0)
(6.394841619 0 0)
(6.401572846 0 0)
(6.408290173 0 0)
(6.415008899 0 0)
(6.421711323 0 0)
(6.428424298 0 0)
(6.435168874 0 0)
(6.441904092 0 0)
(6.448632813 0 0)
(6.455326444 0 0)
(6.461994472 0 0)
(6.468602828 0 0)
(6.475155623 0 0)
(6.481655649 0 0)
(6.48808818 0 0)
(6.494465458 0 0)
(6.500790326 0 0)
(6.50707192 0 0)
(6.513316029 0 0)
(6.519539409 0 0)
(6.525768156 0 0)
(6.531997629 0 0)
(6.538234464 0 0)
(6.544499575 0 0)
(6.55080066 0 0)
(6.557132179 0 0)
(6.56350494 0 0)
(6.56989995 0 0)
(6.576310018 0 0)
(6.582720419 0 0)
(6.58911515 0 0)
(6.595482078 0 0)
(6.601840454 0 0)
(6.608171168 0 0)
(6.614456378 0 0)
(6.620711887 0 0)
(6.62693865 0 0)
(6.633133004 0 0)
(6.639316958 0 0)
(6.645488123 0 0)
(6.651670575 0 0)
(6.657879247 0 0)
(6.664101484 0 0)
(6.670350678 0 0)
(6.676633317 0 0)
(6.682928636 0 0)
(6.689243426 0 0)
(6.695559387 0 0)
(6.701862018 0 0)
(6.708153964 0 0)
(6.714414773 0 0)
(6.720652801 0 0)
(6.726860088 0 0)
(6.73302759 0 0)
(6.739168683 0 0)
(6.74528792 0 0)
(6.751379401 0 0)
(6.757471305 0 0)
(6.763562334 0 0)
(6.769657456 0 0)
(6.775744321 0 0)
(6.781837779 0 0)
(6.787944784 0 0)
(6.794046093 0 0)
(6.800153263 0 0)
(6.806241449 0 0)
(6.812325341 0 0)
(6.818351963 0 0)
(6.824362889 0 0)
(6.830327654 0 0)
(6.836247943 0 0)
(6.842109577 0 0)
(6.847949453 0 0)
(6.853724903 0 0)
(6.859474052 0 0)
(6.865178956 0 0)
(6.870831383 0 0)
(6.876457381 0 0)
(6.882018866 0 0)
(6.887554297 0 0)
(6.893034019 0 0)
(6.898485619 0 0)
(6.903877621 0 0)
(6.909242723 0 0)
(6.914559982 0 0)
(6.919870689 0 0)
(6.92514161 0 0)
(6.930392568 0 0)
(6.93564935 0 0)
(6.940883333 0 0)
(6.946117078 0 0)
(6.951364332 0 0)
(6.956596532 0 0)
(6.961841775 0 0)
(6.967073172 0 0)
(6.972311904 0 0)
(6.977507582 0 0)
(6.982697596 0 0)
(6.987857222 0 0)
(6.992982177 0 0)
(6.998089633 0 0)
(7.003160109 0 0)
(7.008206584 0 0)
(7.013228059 0 0)
(7.018218238 0 0)
(7.02318599 0 0)
(7.02812919 0 0)
(7.033045971 0 0)
(7.037929399 0 0)
(7.042792265 0 0)
(7.047624291 0 0)
(7.052439916 0 0)
(7.057227946 0 0)
(7.062007956 0 0)
(7.066771358 0 0)
(7.071537188 0 0)
(7.076300742 0 0)
(7.081077686 0 0)
(7.085865566 0 0)
(7.090662907 0 0)
(7.095477713 0 0)
(7.100313446 0 0)
(7.10515555 0 0)
(7.110012623 0 0)
(7.114863659 0 0)
(7.119714934 0 0)
(7.124573585 0 0)
(7.12941134 0 0)
(7.134245452 0 0)
(7.139057346 0 0)
(7.143864054 0 0)
(7.14865463 0 0)
(7.153423194 0 0)
(7.158190761 0 0)
(7.162935091 0 0)
(7.167659374 0 0)
(7.172369904 0 0)
(7.177057253 0 0)
(7.181713883 0 0)
(7.186350989 0 0)
(7.190958807 0 0)
(7.195544144 0 0)
(7.200100532 0 0)
(7.204637121 0 0)
(7.209155134 0 0)
(7.213649589 0 0)
(7.218115031 0 0)
(7.222577578 0 0)
(7.227024935 0 0)
(7.231459442 0 0)
(7.235876528 0 0)
(7.240296496 0 0)
(7.244703675 0 0)
(7.249102376 0 0)
(7.25348989 0 0)
(7.257860903 0 0)
(7.26223543 0 0)
(7.266582249 0 0)
(7.270930415 0 0)
(7.275270972 0 0)
(7.279594713 0 0)
(7.283923165 0 0)
(7.288225083 0 0)
(7.292528195 0 0)
(7.29680613 0 0)
(7.301077911 0 0)
(7.305325078 0 0)
(7.30955202 0 0)
(7.313748433 0 0)
(7.317934638 0 0)
(7.32208817 0 0)
(7.326236105 0 0)
(7.33036608 0 0)
(7.334485509 0 0)
(7.338596253 0 0)
(7.342708724 0 0)
(7.346813002 0 0)
(7.350907507 0 0)
(7.355008039 0 0)
(7.359089169 0 0)
(7.363167342 0 0)
(7.367227083 0 0)
(7.371282287 0 0)
(7.375322725 0 0)
(7.379343284 0 0)
(7.383358679 0 0)
(7.387360081 0 0)
(7.391344606 0 0)
(7.39532699 0 0)
(7.399303919 0 0)
(7.403271894 0 0)
(7.407233799 0 0)
(7.411198102 0 0)
(7.415162112 0 0)
(7.419121446 0 0)
(7.423086184 0 0)
(7.427046661 0 0)
(7.431021084 0 0)
(7.434997831 0 0)
(7.438976704 0 0)
(7.442973757 0 0)
(7.44698736 0 0)
(7.451015817 0 0)
(7.45506334 0 0)
(7.459124314 0 0)
(7.463213494 0 0)
(7.467323206 0 0)
(7.471450207 0 0)
(7.475604389 0 0)
(7.479762653 0 0)
(7.48395063 0 0)
(7.488154368 0 0)
(7.49236592 0 0)
(7.49661431 0 0)
(7.500859052 0 0)
(7.505140291 0 0)
(7.509425196 0 0)
(7.513747887 0 0)
(7.518083021 0 0)
(7.522417054 0 0)
(7.526753822 0 0)
(7.531065189 0 0)
(7.535382223 0 0)
(7.539665956 0 0)
(7.543946063 0 0)
(7.54818203 0 0)
(7.552410651 0 0)
(7.556589888 0 0)
(7.560757101 0 0)
(7.564880812 0 0)
(7.568986487 0 0)
(7.573059029 0 0)
(7.577105659 0 0)
(7.581132676 0 0)
(7.585132293 0 0)
(7.589109086 0 0)
(7.593069064 0 0)
(7.596981685 0 0)
(7.600871849 0 0)
(7.604721402 0 0)
(7.608542497 0 0)
(7.612315459 0 0)
(7.616042368 0 0)
(7.619755522 0 0)
(7.623414045 0 0)
(7.627052999 0 0)
(7.630650672 0 0)
(7.634245144 0 0)
(7.637803013 0 0)
(7.641363836 0 0)
(7.644898609 0 0)
(7.648426829 0 0)
(7.651936909 0 0)
(7.655452558 0 0)
(7.658940892 0 0)
(7.662432365 0 0)
(7.66590016 0 0)
(7.66936882 0 0)
(7.672815182 0 0)
(7.676260417 0 0)
(7.679688598 0 0)
(7.683116672 0 0)
(7.686536766 0 0)
(7.689952771 0 0)
(7.69336561 0 0)
(7.696777379 0 0)
(7.700190489 0 0)
(7.703603527 0 0)
(7.707011934 0 0)
(7.710422218 0 0)
(7.713832379 0 0)
(7.717240822 0 0)
(7.720659613 0 0)
(7.72407671 0 0)
(7.727505846 0 0)
(7.73093076 0 0)
(7.734349369 0 0)
(7.737757529 0 0)
(7.741160568 0 0)
(7.744546194 0 0)
(7.747927113 0 0)
(7.751282897 0 0)
(7.754612503 0 0)
(7.757917491 0 0)
(7.761186316 0 0)
(7.764416143 0 0)
(7.767611216 0 0)
(7.770759208 0 0)
(7.773879567 0 0)
(7.776945668 0 0)
(7.779980068 0 0)
(7.782972822 0 0)
(7.785938003 0 0)
(7.788869664 0 0)
(7.79178094 0 0)
(7.794655336 0 0)
(7.797526529 0 0)
(7.800365123 0 0)
(7.803200952 0 0)
(7.806004559 0 0)
(7.808809702 0 0)
(7.811594881 0 0)
(7.814369991 0 0)
(7.817121887 0 0)
(7.819872327 0 0)
(7.822599917 0 0)
(7.825324215 0 0)
(7.828024588 0 0)
(7.830717736 0 0)
(7.833387995 0 0)
(7.836043842 0 0)
(7.838671867 0 0)
(7.841269834 0 0)
(7.843849051 0 0)
(7.846382878 0 0)
(7.848883881 0 0)
(7.851344156 0 0)
(7.853755674 0 0)
(7.856131834 0 0)
(7.858452433 0 0)
(7.860735203 0 0)
(7.862971588 0 0)
(7.865167389 0 0)
(7.86733431 0 0)
(7.869469936 0 0)
(7.871577003 0 0)
(7.87365977 0 0)
(7.87573176 0 0)
(7.87778395 0 0)
(7.879827239 0 0)
(7.881858511 0 0)
(7.883884167 0 0)
(7.885892648 0 0)
(7.887890783 0 0)
(7.889874682 0 0)
(7.891838847 0 0)
(7.893788611 0 0)
(7.895716396 0 0)
(7.897624775 0 0)
(7.899517033 0 0)
(7.901391658 0 0)
(7.903253382 0 0)
(7.905103643 0 0)
(7.906943846 0 0)
(7.908779619 0 0)
(7.910613965 0 0)
(7.912450932 0 0)
(7.914288884 0 0)
(7.916139984 0 0)
(7.918000089 0 0)
(7.919878823 0 0)
(7.921779611 0 0)
(7.923702478 0 0)
(7.925656486 0 0)
(7.927640089 0 0)
(7.929661883 0 0)
(7.93172305 0 0)
(7.933825213 0 0)
(7.935973365 0 0)
(7.938167813 0 0)
(7.940404545 0 0)
(7.942685545 0 0)
(7.945002907 0 0)
(7.94735157 0 0)
(7.9497295 0 0)
(7.952117316 0 0)
(7.954525922 0 0)
(7.956933891 0 0)
(7.959343287 0 0)
(7.961745917 0 0)
(7.964136519 0 0)
(7.96651007 0 0)
(7.968867759 0 0)
(7.971203582 0 0)
(7.973524241 0 0)
(7.975832892 0 0)
(7.978138279 0 0)
(7.98043603 0 0)
(7.982745743 0 0)
(7.985062521 0 0)
(7.987401169 0 0)
(7.989765503 0 0)
(7.992161929 0 0)
(7.99459201 0 0)
(7.997056448 0 0)
(7.999549537 0 0)
(8.002070994 0 0)
(8.0046128 0 0)
(8.007169521 0 0)
(8.009738679 0 0)
(8.0123092 0 0)
(8.014870977 0 0)
(8.017419108 0 0)
(8.019946502 0 0)
(8.022450924 0 0)
(8.024928001 0 0)
(8.027375701 0 0)
(8.029797094 0 0)
(8.032197226 0 0)
(8.034577056 0 0)
(8.036942511 0 0)
(8.039299334 0 0)
(8.04165222 0 0)
(8.044005443 0 0)
(8.046355311 0 0)
(8.048707532 0 0)
(8.051052547 0 0)
(8.05339355 0 0)
(8.055724699 0 0)
(8.058043321 0 0)
(8.06035123 0 0)
(8.062645045 0 0)
(8.064921234 0 0)
(8.067181872 0 0)
(8.06942324 0 0)
(8.07164751 0 0)
(8.073855188 0 0)
(8.07605355 0 0)
(8.078243512 0 0)
(8.080432396 0 0)
(8.082618951 0 0)
(8.08480725 0 0)
(8.086995882 0 0)
(8.089188795 0 0)
(8.091389303 0 0)
(8.093596896 0 0)
(8.095811139 0 0)
(8.0980353 0 0)
(8.100265808 0 0)
(8.102503559 0 0)
(8.10474892 0 0)
(8.106998336 0 0)
(8.109249172 0 0)
(8.111503115 0 0)
(8.113748659 0 0)
(8.1159905 0 0)
(8.118224838 0 0)
(8.120449667 0 0)
(8.122667265 0 0)
(8.124873958 0 0)
(8.127073128 0 0)
(8.129260289 0 0)
(8.13144002 0 0)
(8.133611155 0 0)
(8.135772022 0 0)
(8.137928729 0 0)
(8.140081218 0 0)
(8.142229086 0 0)
(8.144381659 0 0)
(8.146532679 0 0)
(8.148694139 0 0)
(8.150859271 0 0)
(8.153039407 0 0)
(8.155231294 0 0)
(8.157440645 0 0)
(8.159659604 0 0)
(8.161899913 0 0)
(8.164155715 0 0)
(8.166433428 0 0)
(8.168727398 0 0)
(8.171033888 0 0)
(8.173367209 0 0)
(8.175712347 0 0)
(8.178073022 0 0)
(8.180455107 0 0)
(8.182852068 0 0)
(8.185264747 0 0)
(8.18770462 0 0)
(8.190152499 0 0)
(8.192629265 0 0)
(8.195125459 0 0)
(8.197641338 0 0)
(8.20018181 0 0)
(8.202734854 0 0)
(8.205314935 0 0)
(8.207902964 0 0)
(8.210488992 0 0)
(8.213068535 0 0)
(8.215651631 0 0)
(8.218220517 0 0)
(8.220785492 0 0)
(8.223349549 0 0)
(8.225899091 0 0)
(8.228443255 0 0)
(8.230973871 0 0)
(8.233504145 0 0)
(8.236018767 0 0)
(8.238529394 0 0)
(8.241031808 0 0)
(8.24352524 0 0)
(8.246016842 0 0)
(8.248493999 0 0)
(8.250967472 0 0)
(8.253430103 0 0)
(8.255876914 0 0)
(8.258307663 0 0)
(8.260725053 0 0)
(8.263116074 0 0)
(8.265486332 0 0)
(8.267829986 0 0)
(8.270144637 0 0)
(8.272433007 0 0)
(8.274689467 0 0)
(8.276918411 0 0)
(8.279115149 0 0)
(8.281286101 0 0)
(8.283427081 0 0)
(8.285554261 0 0)
(8.287664651 0 0)
(8.289766734 0 0)
(8.291861999 0 0)
(8.293958587 0 0)
(8.296056135 0 0)
(8.298159296 0 0)
(8.300268767 0 0)
(8.302389276 0 0)
(8.304520965 0 0)
(8.306667227 0 0)
(8.308827927 0 0)
(8.311003137 0 0)
(8.313187732 0 0)
(8.315374555 0 0)
(8.317564147 0 0)
(8.319755501 0 0)
(8.321948238 0 0)
(8.324140451 0 0)
(8.326331917 0 0)
(8.328514285 0 0)
(8.330681241 0 0)
(8.332819342 0 0)
(8.334927232 0 0)
(8.336997275 0 0)
(8.339032955 0 0)
(8.34103872 0 0)
(8.343011862 0 0)
(8.34496011 0 0)
(8.346878873 0 0)
(8.348771683 0 0)
(8.35063885 0 0)
(8.352484596 0 0)
(8.354305583 0 0)
(8.356103815 0 0)
(8.357883149 0 0)
(8.359637205 0 0)
(8.361363188 0 0)
(8.363059765 0 0)
(8.364722919 0 0)
(8.366344895 0 0)
(8.367934745 0 0)
(8.369479312 0 0)
(8.370990343 0 0)
(8.372455221 0 0)
(8.373887987 0 0)
(8.375278055 0 0)
(8.376639912 0 0)
(8.377965022 0 0)
(8.379267066 0 0)
(8.380537207 0 0)
(8.381786668 0 0)
(8.383008581 0 0)
(8.384206555 0 0)
(8.385379027 0 0)
(8.386528169 0 0)
(8.387652425 0 0)
(8.388749961 0 0)
(8.389823151 0 0)
(8.390867105 0 0)
(8.391887195 0 0)
(8.392882557 0 0)
(8.39385456 0 0)
(8.394807063 0 0)
(8.395748661 0 0)
(8.396677372 0 0)
(8.397598478 0 0)
(8.3985187 0 0)
(8.399439565 0 0)
(8.400365211 0 0)
(8.401299325 0 0)
(8.402243415 0 0)
(8.403200585 0 0)
(8.404171911 0 0)
(8.405159121 0 0)
(8.406163466 0 0)
(8.407185563 0 0)
(8.408224364 0 0)
(8.409279253 0 0)
(8.410351479 0 0)
(8.411438761 0 0)
(8.412544931 0 0)
(8.413666423 0 0)
(8.414806903 0 0)
(8.415963995 0 0)
(8.417138721 0 0)
(8.418333757 0 0)
(8.419546594 0 0)
(8.420780165 0 0)