/*--------------------------------*- C++ -*----------------------------------*\
| =========                 |                                                 |
| \\      /  F ield         | OpenFOAM: The Open Source CFD Toolbox           |
|  \\    /   O peration     | Version:  2312                                  |
|   \\  /    A nd           | Website:  www.openfoam.com                      |
|    \\/     M anipulation  |                                                 |
\*---------------------------------------------------------------------------*/
FoamFile
{
    version     2.0;
    format      ascii;
    arch        "LSB;label=32;scalar=64";
    class       volScalarField;
    location    "0.003";
    object      Y.Liq;
}
// * * * * * * * * * * * * * * * * * * * * * * * * * * * * * * * * * * * * * //

dimensions      [0 0 0 0 0 0 0];

internalField   nonuniform List<scalar> 
5000
(
1
1
1
1
1
1
1
1
1
1
1
1
1
1
1
1
1
1
1
1
1
1
1
1
1
1
1
1
1
1
1
1
1
1
1
1
1
1
1
1
1
1
1
1
1
1
1
1
1
1
1
1
1
1
1
1
1
1
1
1
1
1
1
1
1
1
1
1
1
1
1
1
1
1
1
1
1
1
1
1
1
1
1
1
1
1
1
1
1
1
1
1
1
1
1
1
1
1
1
1
1
1
1
1
1
1
1
1
1
1
1
1
1
1
1
1
1
1
1
1
1
1
1
1
1
1
1
1
1
1
1
1
1
1
1
1
1
1
1
1
1
1
1
1
1
1
1
1
1
1
1
1
1
1
1
1
1
1
1
1
1
1
1
1
1
1
1
1
1
1
1
1
1
1
1
1
1
1
1
1
1
1
1
1
1
1
1
1
1
1
1
1
1
1
1
1
1
1
1
1
1
1
1
1
1
1
1
1
1
1
1
1
1
1
1
1
1
1
1
1
1
1
1
1
1
1
1
1
1
1
1
1
1
1
1
1
1
1
1
1
1
1
1
1
1
1
1
1
1
1
1
1
1
1
1
1
1
1
1
1
1
1
1
1
1
1
1
1
1
1
1
1
1
1
1
1
1
1
1
1
1
1
1
1
1
1
1
1
1
1
1
1
1
1
1
1
1
1
1
1
1
1
1
1
1
1
1
1
1
1
1
1
1
1
1
1
1
1
1
1
1
1
1
1
1
1
1
1
1
1
1
1
1
1
1
1
1
1
1
1
1
1
1
1
1
1
1
1
1
1
1
1
1
1
1
1
1
1
1
1
1
1
1
1
1
1
1
1
1
1
1
1
1
1
1
1
1
1
1
1
1
1
1
1
1
1
1
1
1
1
1
1
1
1
1
1
1
1
1
1
1
1
1
1
1
1
1
1
1
1
1
1
1
1
1
1
1
1
1
1
1
1
1
1
1
1
1
1
1
1
1
1
1
1
1
1
1
1
1
1
1
1
1
1
1
1
1
1
1
1
1
1
1
1
1
1
1
1
1
1
1
1
1
1
1
1
1
1
1
1
1
1
1
1
1
1
1
1
1
1
1
1
1
1
1
1
1
1
1
1
1
1
1
1
1
1
1
1
1
1
1
1
1
1
1
1
1
1
1
1
1
1
1
1
1
1
1
1
1
1
1
1
1
1
1
1
1
1
1
1
1
1
1
1
1
1
1
1
1
1
1
1
1
1
1
1
1
1
1
1
1
1
1
1
1
1
1
1
1
1
1
1
1
1
1
1
1
1
1
1
1
1
1
1
1
1
1
1
1
1
1
1
1
1
1
1
1
1
1
1
1
1
1
1
1
1
1
1
1
1
1
1
1
1
1
1
1
1
1
1
1
1
1
1
1
1
1
1
1
1
1
1
1
1
1
1
1
1
1
1
1
1
1
1
1
1
1
1
1
1
1
1
1
1
1
1
1
1
1
1
1
1
1
1
1
1
1
1
1
1
1
1
1
1
1
1
1
1
1
1
1
1
1
1
1
1
1
1
1
1
1
1
1
1
1
1
1
1
1
1
1
1
1
1
1
1
1
1
1
1
1
1
1
1
1
1
1
1
1
1
1
1
1
1
1
1
1
1
1
1
1
1
1
1
1
1
1
1
1
1
1
1
1
1
1
1
1
1
1
1
1
1
1
1
1
1
1
1
1
1
1
1
1
1
1
1
1
1
1
1
1
1
1
1
1
1
1
1
1
1
1
1
1
1
1
1
1
1
1
1
1
1
1
1
1
1
1
1
1
1
1
1
1
1
1
1
1
1
1
1
1
1
1
1
1
1
1
1
1
1
1
1
1
1
1
1
1
1
1
1
1
1
1
1
1
1
1
1
1
1
1
1
1
1
1
1
1
1
1
1
1
1
1
1
1
1
1
1
1
1
1
1
1
1
1
1
1
1
1
1
1
1
1
1
1
1
1
1
1
1
1
1
1
1
1
1
1
1
1
1
1
1
1
1
1
1
1
1
1
1
1
1
1
1
1
1
1
1
1
1
1
1
1
1
1
1
1
1
1
1
1
1
1
1
1
1
1
1
1
1
1
1
1
1
1
1
1
1
1
1
1
1
1
1
1
1
1
1
1
1
1
1
1
1
1
1
1
1
1
1
1
1
1
1
1
1
1
1
1
1
1
1
1
1
1
1
1
1
1
1
1
1
1
1
1
1
1
1
1
1
1
1
1
1
1
1
1
1
1
1
1
1
1
1
1
1
1
1
1
1
1
1
1
1
1
1
1
1
1
1
1
1
1
1
1
1
1
1
1
1
1
1
1
1
1
1
1
1
1
1
1
1
1
1
1
1
1
1
1
1
1
1
1
1
1
1
1
1
1
1
1
1
1
1
1
1
1
1
1
1
1
1
1
1
1
1
1
1
1
1
1
1
1
1
1
1
1
1
1
1
1
1
1
1
1
1
1
1
1
1
1
1
1
1
1
1
1
1
1
1
1
1
1
1
1
1
1
1
1
1
1
1
1
1
1
1
1
1
1
1
1
1
1
1
1
1
1
1
1
1
1
1
1
1
1
1
1
1
1
1
1
1
1
1
1
1
1
1
1
1
1
1
1
1
1
1
1
1
1
1
1
1
1
1
1
1
1
1
1
1
1
1
1
1
1
1
1
1
1
1
1
1
1
1
1
1
1
1
1
1
1
1
1
1
1
1
1
1
1
1
1
1
1
1
1
1
1
1
1
1
1
1
1
1
1
1
1
1
1
1
1
1
1
1
1
1
1
1
1
1
1
1
1
1
1
1
1
1
1
1
1
1
1
1
1
1
1
1
1
1
1
1
1
1
1
1
1
1
1
1
1
1
1
1
1
1
1
1
1
1
1
1
1
1
1
1
1
1
1
1
1
1
1
1
1
1
1
1
1
1
1
1
1
1
1
1
1
1
1
1
1
1
1
1
1
1
1
1
1
1
1
1
1
1
1
1
1
1
1
1
1
1
1
1
1
1
1
1
1
1
1
1
1
1
1
1
1
1
1
1
1
1
1
1
1
1
1
1
1
1
1
1
1
1
1
1
1
1
1
1
1
1
1
1
1
1
1
1
1
1
1
1
1
1
1
1
1
1
1
1
1
1
1
1
1
1
1
1
1
1
1
1
1
1
1
1
1
1
1
1
1
1
1
1
1
1
1
1
1
1
1
1
1
1
1
1
1
1
1
1
1
1
1
1
1
1
1
1
1
1
1
1
1
1
1
1
1
1
1
1
1
1
1
1
1
1
1
1
1
1
1
1
1
1
1
1
1
1
1
1
1
1
1
1
1
1
1
1
1
1
1
1
1
1
1
1
1
1
1
1
1
1
1
1
1
1
1
1
1
1
1
1
1
1
1
1
1
1
1
1
1
1
1
1
1
1
1
1
1
1
1
1
1
1
1
1
1
1
1
1
1
1
1
1
1
1
1
1
1
1
1
1
1
1
1
1
1
1
1
1
1
1
1
1
1
1
1
1
1
1
1
1
1
1
1
1
1
1
1
1
1
1
1
1
1
1
1
1
1
1
1
1
1
1
1
1
1
1
1
1
1
1
1
1
1
1
1
1
1
1
1
1
1
1
1
1
1
1
1
1
1
1
1
1
1
1
1
1
1
1
1
1
1
1
1
1
1
1
1
1
1
1
1
1
1
1
1
1
1
1
1
1
1
1
1
1
1
1
1
1
1
1
1
1
1
1
1
1
1
1
1
1
1
1
1
1
1
1
1
1
1
1
1
1
1
1
1
1
1
1
1
1
1
1
1
1
1
1
1
1
1
1
1
1
1
1
1
1
1
1
1
1
1
1
1
1
1
1
1
1
1
1
1
1
1
1
1
1
1
1
1
1
1
1
1
1
1
1
1
1
1
1
1
1
1
1
1
1
1
1
1
1
1
1
1
1
1
1
1
1
1
1
1
1
1
1
1
1
1
1
1
1
1
1
1
1
1
1
1
1
1
1
1
1
1
1
1
1
1
1
1
1
1
1
1
1
1
1
1
1
1
1
1
1
1
1
1
1
1
1
1
1
1
1
1
1
1
1
1
1
1
1
1
1
1
1
1
1
1
1
1
1
1
1
1
1
1
1
1
1
1
1
1
1
1
1
1
1
1
1
1
1
1
1
1
1
1
1
1
1
1
1
1
1
1
1
1
1
1
1
1
1
1
1
1
1
1
1
1
1
1
1
1
1
1
1
1
1
1
1
1
1
1
1
1
1
1
1
1
1
1
1
1
1
1
1
1
1
1
1
1
1
1
1
1
1
1
1
1
1
1
1
1
1
1
1
1
1
1
1
1
1
1
1
1
1
1
1
1
1
1
1
1
1
1
1
1
1
1
1
1
1
1
1
1
1
1
1
1
1
1
1
1
1
1
1
1
1
1
1
1
1
1
1
1
1
1
1
1
1
1
1
1
1
1
1
1
1
1
1
1
1
1
1
1
1
1
1
1
1
1
1
1
1
1
1
1
1
1
1
1
1
1
1
1
1
1
1
1
1
1
1
1
1
1
1
1
1
1
1
1
1
1
1
1
1
1
1
1
1
1
1
1
1
1
1
1
1
1
1
1
1
1
1
1
1
1
1
1
1
1
1
1
1
1
1
1
1
1
1
1
1
1
1
1
1
1
1
1
1
1
1
1
1
1
1
1
1
1
1
1
1
1
1
1
1
1
1
1
1
1
1
1
1
1
1
1
1
1
1
1
1
1
1
1
1
1
1
1
1
1
1
1
1
1
1
1
1
1
1
1
1
1
1
1
1
1
1
1
1
1
1
1
1
1
1
1
1
1
1
1
1
1
1
1
1
1
1
1
1
1
1
1
1
1
1
1
1
1
1
1
1
1
1
1
1
1
1
1
1
1
1
1
1
1
1
1
1
1
1
1
1
1
1
1
1
1
1
1
1
1
1
1
1
1
1
1
1
1
1
1
1
1
1
1
1
1
1
1
1
1
1
1
1
1
1
1
1
1
1
1
1
1
1
1
1
1
1
1
1
1
1
1
1
1
1
1
1
1
1
1
1
1
1
1
1
1
1
1
1
1
1
1
1
1
1
1
1
1
1
1
1
1
1
1
1
1
1
1
1
1
1
1
1
1
1
1
1
1
1
1
1
1
1
1
1
1
1
1
1
1
1
1
1
1
1
1
1
1
1
1
1
1
1
1
1
1
1
1
1
1
1
1
1
1
1
1
1
1
1
1
1
1
1
1
1
1
1
1
1
1
1
1
1
1
1
1
1
1
1
1
1
1
1
1
1
1
1
1
1
1
1
1
1
1
1
1
1
1
1
1
1
1
1
1
1
1
1
1
1
1
1
1
1
1
1
1
1
1
1
1
1
1
1
1
1
1
1
1
1
1
1
1
1
1
1
1
1
1
1
1
1
1
1
1
1
1
1
1
1
1
1
1
1
1
1
1
1
1
1
1
1
1
1
1
1
1
1
1
1
1
1
1
1
1
1
1
1
1
1
1
1
1
1
1
1
1
1
1
1
1
1
1
1
1
1
1
1
1
1
1
1
0.9999999999
0.9999999991
0.9999999948
0.999999971
0.9999998475
0.9999992576
0.9999966918
0.999986688
0.9999522438
0.9998486917
0.9995784372
0.9989659935
0.9977519544
0.9956253901
0.992270809
0.987420349
0.9809037951
0.972679154
0.9628441773
0.9515752984
0.9390952765
0.9256482962
0.9114582569
0.8967069889
0.8815264501
0.8659998779
0.8501524951
0.8344667277
0.8195430098
0.8054317543
0.7921282193
0.7796125715
0.7678478009
0.7568010833
0.7464361268
0.7367219144
0.7276286745
0.7191311405
0.7112044314
0.7038270513
0.6969769463
0.6906339345
0.6847767107
0.6793847731
0.6744362829
0.6699096982
0.665782112
0.662030839
0.6586322894
0.6555630053
0.6527991976
0.6503173374
0.6480940655
0.6461064826
0.6443323121
0.6427501206
0.6413393695
0.6400805203
0.6389550629
0.6379456649
0.6370362354
0.6362119603
0.6354592424
0.6347656944
0.6341201672
0.6335127959
0.6329349292
0.6323790327
0.6318386946
0.6313086881
0.6307849135
0.630264279
0.6297447129
0.6292252215
0.6287053752
0.6281844001
0.6276611366
0.6271340492
0.6266012443
0.6260605023
0.6255093142
0.6249449151
0.6243643109
0.6237643019
0.6231415075
0.622492384
0.6218132581
0.6211003323
0.6203497287
0.6195574819
0.6187195874
0.6178319867
0.616890614
0.6158913859
0.6148302361
0.6137031217
0.6125060416
0.6112350549
0.6098862914
0.6084559731
0.6069404264
0.6053361016
0.6036395853
0.6018476157
0.599957094
0.5979650951
0.5958688801
0.5936659084
0.5913538507
0.5889306002
0.5863942848
0.5837432791
0.5809762166
0.5780920026
0.5750898312
0.5719691828
0.5687298754
0.565372049
0.5618961543
0.5583033451
0.5546289576
0.5511146183
0.547834432
0.5447863847
0.5419681805
0.5393761277
0.5370052837
0.5348496219
0.5329020977
0.5311547955
0.5295990079
0.5282253718
0.5270239521
0.5259843009
0.5250955655
0.5243465665
0.523725812
0.5232216093
0.522822083
0.5225152467
0.5222890605
0.522131445
0.5220303278
0.5219736615
0.5219494289
0.5219448163
0.5219448935
0.5219507804
0.5219677826
0.5220012613
0.5220564588
0.522138437
0.5222520873
0.5224021429
0.5225931744
0.5228296238
0.5231157506
0.5234556331
0.5238532017
0.5243122768
0.5248364766
0.5254293777
0.5260943316
0.52683441
0.5276525504
0.5285516353
0.5295342187
0.5306029515
0.5317600921
0.5330075166
0.5343470609
0.5357803699
0.5373086877
0.5389334749
0.5406555092
0.5424753801
0.5443936206
0.546410146
0.5485251426
0.550737882
0.5530479862
0.5554541452
0.5579555077
0.5605500688
0.5632362687
0.5660115591
0.5688694052
0.5716729661
0.5743085539
0.5767790451
0.579088913
0.5812433844
0.5832478659
0.5851083031
0.5868306475
0.5884212452
0.5898862735
0.5912321975
0.592465254
0.5935918272
0.594618056
0.5955501359
0.5963939849
0.5971555013
0.5978403171
0.5984539405
0.5990016552
0.5994885376
0.5999194753
0.6002990714
0.6006317858
0.6009217531
0.6011729953
0.6013891736
0.6015738652
0.6017302954
0.6018615786
0.601970539
0.6020598571
0.6021319688
0.6021891598
0.6022335109
0.6022669509
0.6022912392
0.6023079996
0.6023187251
0.6023247901
0.6023274804
0.6023280676
0.60232809
0.6023275993
0.6023260886
0.6023230694
0.6023180966
0.6023107837
0.6023008124
0.6022879396
0.6022720048
0.6022529364
0.6022307564
0.6022055854
0.602179094
0.6021571917
0.6021404106
0.602128221
0.6021200062
0.6021150736
0.602112675
0.6021120038
0.602111935
0.6021121861
0.6021131076
0.6021151032
0.6021185658
0.6021238813
0.6021314278
0.602141574
0.6021546791
0.6021710911
0.6021911454
0.602215163
0.6022434484
0.6022762872
0.6023139438
0.6023566584
0.6024046445
0.6024580855
0.6025171322
0.602581899
0.6026524609
0.6027288499
0.6028110528
0.6028990041
0.6029925904
0.6030911765
0.6031852573
0.6032684907
0.6033411369
0.6034035387
0.6034561982
0.6034996912
0.6035347095
0.6035620129
0.6035824394
0.6035968796
0.6036062771
0.6036116244
0.6036139556
0.6036144055
0.6036144055
0.6036138561
0.60361225
0.6036090701
0.6036038059
0.6035959591
0.603585043
0.6035705819
0.6035521105
0.6035291753
0.6035013323
0.6034681509
0.6034292105
0.6033841057
0.6033324422
0.6032738443
0.6032079482
0.6031344131
0.6030529122
0.6029631458
0.6028648305
0.6027577153
0.6026415682
0.6025161946
0.6023814219
0.6022371209
0.6020831873
0.6019195664
0.6017462323
0.6015632143
0.6013705756
0.6011684411
0.6009569757
0.6007364132
0.6005070377
0.6002698599
0.600039536
0.5998260633
0.5996292958
0.5994489437
0.5992846183
0.5991358381
0.5990020453
0.5988826149
0.5987768659
0.5986840727
0.5986034733
0.5985342762
0.5984756649
0.5984268022
0.5983868399
0.5983549206
0.5983301726
0.5983117183
0.598298677
0.598290156
0.5982852554
0.5982830629
0.5982825916
0.5982825776
0.5982830083
0.5982843258
0.5982869722
0.5982913783
0.5982979568
0.5983071017
0.5983191878
0.5983345702
0.5983535834
0.5983765404
0.5984037322
0.5984354267
0.5984718676
0.5985132734
0.5985598365
0.5986117216
0.5986690646
0.5987319715
0.5988005164
0.5988747407
0.598954651
0.5990402181
0.5991313745
0.5992280133
0.5993299851
0.599437099
0.5995489962
0.5996586248
0.5997587204
0.599849298
0.5999305301
0.6000027195
0.6000661875
0.6001213472
0.6001686359
0.6002085532
0.6002416157
0.6002683872
0.6002894567
0.60030544
0.6003169764
0.600324733
0.6003293938
0.6003316702
0.6003323148
0.6003323818
0.6003321474
0.6003312854
0.6003294211
0.6003261941
0.6003212548
0.6003142642
0.6003048941
0.6002928268
0.6002777549
0.6002593808
0.6002374174
0.6002115874
0.6001816244
0.6001472718
0.6001082848
0.6000644289
0.6000154825
0.599961235
0.5999014902
0.5998360637
0.5997647872
0.5996875052
0.5996040802
0.5995143881
0.5994183253
0.5993158024
0.5992067523
0.5990911234
0.5989688884
0.5988400365
0.5987045833
0.5985625618
0.5984140338
0.5982590795
0.5980978099
0.5979303562
0.5977568822
0.5975775746
0.5973926541
0.5972023685
0.5970070016
0.5968069809
0.5966092196
0.5964206442
0.5962412746
0.5960709381
0.5959094256
0.5957564838
0.5956118394
0.5954751867
0.595346212
0.5952245777
0.5951099473
0.5950019663
0.5949002882
0.5948045524
0.594714412
0.594629509
0.5945495039
0.5944740478
0.594402814
0.5943354688
0.5942717023
0.5942112003
0.5941536731
0.5940988292
0.5940464016
0.5939961242
0.5939477545
0.5939010538
0.5938558058
0.5938118005
0.5937688493
0.593726772
0.5936854093
0.5936446118
0.5936042507
0.5935642091
0.5935243903
0.5934847116
0.5934451104
0.5934055408
0.5933659772
0.5933264091
0.5932868223
0.5932471923
0.593207486
0.5931676609
0.5931276666
0.593087444
0.5930469266
0.5930060401
0.5929647035
0.5929228284
0.5928803203
0.5928370781
0.5927929951
0.5927479585
0.5927018506
0.592654548
0.5926059231
0.5925558431
0.5925041718
0.5924507681
0.5923954882
0.5923381842
0.592278706
0.5922169002
0.5921526117
0.5920856826
0.5920159547
0.591943267
0.5918674593
0.5917883693
0.5917058362
0.591619698
0.591529795
0.591435967
0.5913380572
0.5912359088
0.5911293697
0.5910182884
0.5909025194
0.5907819185
0.5906563487
0.590525675
0.5903897713
0.5902485139
0.5901017896
0.5899494886
0.589791513
0.5896277694
0.5894581777
0.5892826634
0.5891011673
0.588913637
0.5887200373
0.5885203411
0.5883145408
0.588102639
0.5878846599
0.5876606405
0.5874306423
0.5871947427
0.586953047
0.5867056814
0.5864528035
0.5861945993
0.5859320786
0.5856752352
0.5854291603
0.5851940847
0.5849702136
0.5847576731
0.5845565322
0.5843667921
0.5841884074
0.5840212777
0.5838652655
0.5837201879
0.5835858318
0.5834619458
0.5833482543
0.5832444486
0.5831502013
0.5830651551
0.5829889394
0.5829211566
0.5828614008
0.5828092398
0.5827642369
0.5827259296
0.5826938515
0.5826675121
0.5826464137
0.5826300371
0.5826178488
0.5826092941
0.5826037961
0.5826007549
0.5825995454
0.5825993334
0.5825993928
0.5825998686
0.5826011029
0.5826034285
0.5826071655
0.5826126212
0.5826200923
0.5826298645
0.5826422138
0.5826574069
0.5826757019
0.5826973485
0.5827225889
0.5827516579
0.5827847834
0.5828221862
0.5828640808
0.5829106748
0.5829621695
0.5830187594
0.5830806326
0.58314797
0.5832209462
0.583299728
0.5833844755
0.5834753408
0.5835724684
0.5836759947
0.5837860478
0.583902747
0.5840262028
0.5841565163
0.5842937791
0.5844380726
0.5845894682
0.5847480265
0.5849137968
0.5850868174
0.5852671142
0.5854547014
0.5856495802
0.5858517387
0.5860611513
0.5862777787
0.5865015667
0.5867324459
0.5869703314
0.5872151217
0.5874666983
0.5877249244
0.5879896447
0.5882606835
0.5885378442
0.588820907
0.5891096275
0.5894037371
0.5897029247
0.5900059924
0.5903032133
0.590590565
0.5908677522
0.5911348181
0.5913915464
0.5916380492
0.5918742171
0.5921002092
0.5923159999
0.5925217785
0.5927175864
0.5929036329
0.5930800128
0.5932469495
0.5934045803
0.5935531386
0.5936927965
0.593823794
0.5939463318
0.594060656
0.5941669897
0.5942655845
0.5943566815
0.5944405384
0.5945174101
0.5945875608
0.5946512574
0.5947087709
0.5947603772
0.5948063561
0.5948469921
0.5948825739
0.5949133948
0.5949397539
0.5949619556
0.5949803121
0.5949951425
0.5950067763
0.5950155535
0.595021828
0.5950259699
0.595028368
0.5950294379
0.5950296542
0.5950296558
0.5950294146
0.5950287043
0.5950273
0.5950249836
0.5950215457
0.5950167856
0.5950105097
0.5950025313
0.5949926698
0.59498075
0.5949666018
0.5949500591
0.5949309597
0.5949091449
0.5948844587
0.594856748
0.5948258616
0.5947916507
0.5947539681
0.5947126682
0.5946676069
0.5946186413
0.59456563
0.5945084325
0.5944469091
0.5943809216
0.5943103322
0.5942350044
0.5941548023
0.5940695909
0.5939792361
0.5938836043
0.5937825627
0.5936759794
0.5935637231
0.5934456633
0.5933216702
0.5931916147
0.5930553685
0.5929128039
0.5927637941
0.5926082131
0.5924459353
0.5922768363
0.5921007923
0.5919176806
0.591727379
0.5915297663
0.5913247222
0.5911121275
0.5908918636
0.5906638129
0.5904278587
0.5901838851
0.5899317771
0.5896714203
0.589402701
0.5891255066
0.5888397253
0.5885452464
0.58824196
0.5879297571
0.5876085296
0.5872781705
0.5869385735
0.5865896335
0.5862312467
0.58586331
0.5854857217
0.5850983809
0.5847011879
0.5842940442
0.5838768525
0.5834495166
0.5830119416
0.5825640339
0.582105701
0.5816368521
0.5811573975
0.580667249
0.5801663196
0.5796545238
0.5791317772
0.5785979965
0.5780531002
0.5774970076
0.5769296398
0.576350919
0.5757607689
0.575159115
0.5745458841
0.573921005
0.5732844083
0.5726360264
0.5719757937
0.5713036467
0.5706195242
0.5699233671
0.5692151187
0.5684947247
0.5677621336
0.5670172963
0.5662601666
0.5654907014
0.5647088603
0.5639146063
0.5631079056
0.562288728
0.5614570469
0.5606128397
0.559756088
0.5588867777
0.5580048987
0.5571104459
0.5562034188
0.5552838218
0.5543516642
0.5534069593
0.5524497227
0.5514799738
0.5504977373
0.5495030452
0.548495937
0.5474764602
0.5464446697
0.5454006281
0.5443444047
0.5432760771
0.5421957329
0.5411034711
0.5399994012
0.5388836371
0.537756301
0.5366175261
0.5354674572
0.5343062496
0.5331340725
0.5319511163
0.5307575982
0.5295537622
0.5283398794
0.5271162519
0.5258832166
0.524641149
0.5233904644
0.5221316243
0.5208650924
0.5195915793
0.5183159287
0.5170536452
0.5158051861
0.5145721547
0.5133537995
0.5121517198
0.5109652231
0.5097952343
0.5086409456
0.5075033424
0.5063820727
0.5052778069
0.5041899822
0.5031189546
0.5020645818
0.5010271929
0.5000067815
0.4990032632
0.4980164717
0.497046255
0.4960927871
0.4951560498
0.4942359725
0.4933323175
0.4924448697
0.4915733623
0.4907176301
0.489877516
0.4890528245
0.4882434104
0.4874491026
0.4866698348
0.4859054596
0.4851558518
0.4844208151
0.483700291
0.4829942361
0.4823026571
0.4816254531
0.4809625785
0.4803140151
0.4796797931
0.4790598393
0.4784540312
0.4778622333
0.4772844355
0.4767205917
0.4761706404
0.4756344818
0.4751120474
0.4746033219
0.4741082673
0.4736267919
0.4731587722
0.4727040775
0.4722625739
0.4718341279
0.4714185989
0.4710158447
0.4706257169
0.4702480677
0.469882744
0.469529586
0.4691884297
0.4688591068
0.468541442
0.4682352558
0.4679403707
0.4676566096
0.4673837923
0.4671217388
0.4668702715
0.466629213
0.4663983846
0.4661776083
0.4659667094
0.4657655146
0.4655738478
0.4653915306
0.4652183838
0.4650542241
0.4648988604
0.4647520937
0.4646137215
0.4644835367
0.4643613266
0.4642468752
0.464139967
0.4640403896
0.4639479341
0.463862394
0.4637835665
0.4637112547
0.4636452667
0.4635854119
0.4635314972
0.4634833274
0.4634407037
0.4634034203
0.4633712571
0.463343974
0.4633213064
0.4633029617
0.4632886134
0.4632778953
0.463270395
0.4632656489
0.4632631383
0.4632622828
0.4632621599
0.4632623045
0.4632629587
0.4632644723
0.4632671768
0.4632713906
0.4632774228
0.4632855739
0.4632961378
0.4633094035
0.4633256567
0.4633451811
0.4633682597
0.4633951762
0.4634262159
0.4634616664
0.4635018186
0.4635469673
0.4635974115
0.4636534553
0.4637154074
0.4637835826
0.4638583009
0.463939888
0.4640286757
0.4641250014
0.4642292087
0.4643416471
0.4644626721
0.4645926454
0.464731935
0.4648809152
0.4650399668
0.4652094772
0.4653898409
0.4655814593
0.465784741
0.4660001026
0.4662279687
0.4664687718
0.4667229535
0.4669909642
0.4672732637
0.4675703216
0.4678826173
0.4682106406
0.468554892
0.4689158829
0.4692941347
0.4696901805
0.4701045647
0.4705378426
0.4709905811
0.471463358
0.4719567629
0.4724713963
0.4730078705
0.4735668087
0.4741488454
0.4747546262
0.4753848077
0.476040057
0.476721052
0.4774284804
0.4781630395
0.4789254351
0.4797163812
0.4805365984
0.4813868132
0.4822677569
0.4831801636
0.4841247688
0.4851023073
0.4861135107
0.4871591047
0.4882398058
0.4893563179
0.4905093283
0.4916995025
0.4929274803
0.494193869
0.4954992382
0.4968441129
0.4982289662
0.499654211
0.5011201912
0.5026271718
0.5041753291
0.50576474
0.5073953718
0.5090670702
0.5107795486
0.5125323754
0.5143249626
0.5161565537
0.5180262111
0.5199328049
0.5218750008
0.5238512489
0.5258597721
0.5278985548
0.5299653398
0.5320575886
0.5341515483
0.5361994151
0.5381973996
0.540144692
0.5420405297
0.5438846251
0.5456765889
0.5474161971
0.5491032263
0.5507372702
0.5523180015
0.5538445756
0.5553162256
0.5567315475
0.5580890824
0.5593868812
0.5606226808
0.5617941153
0.5628983193
0.5639327033
0.5648943481
0.5657807991
0.5665895186
0.5673185822
0.5679666721
0.5685331079
0.5690183082
0.5694235255
0.569751608
0.5700064371
0.5701937306
0.5703206089
0.5703960232
0.5704307369
0.5704382466
0.5704384445
0.5704313151
0.5704096992
0.5703664103
0.5702943453
0.5701865118
0.5700359869
0.5698358629
0.5695792021
0.5692590014
0.5688681496
0.5683993739
0.5678452394
0.5671981183
0.5664501598
0.5655932753
0.5646191253
0.5635191066
0.5622843405
0.5609056689
0.5593736612
0.5576786249
0.5558106144
0.5537594392
0.5515146886
0.5490657678
0.5464019333
0.5435123873
0.5403862333
0.5370124383
0.5333799944
0.5294777964
0.5252944109
0.5208179155
0.5160359329
0.510935658
0.5055038945
0.4997270212
0.4935908792
0.4870807483
0.4801815197
0.4728777018
0.4651533746
0.4569921903
0.448377365
0.4392916612
0.4297174386
0.4196366963
0.4090310823
0.3978819184
0.3861702759
0.3738771364
0.3609836615
0.3474715406
0.3333234063
0.3185239713
0.3030599617
0.286920622
0.27009941
0.2525954047
0.2344152559
0.2155748482
0.1961006842
0.1760300832
0.1557577839
0.1365839684
0.1187851274
0.1024616677
0.08766946982
0.07442436466
0.0627017672
0.0524426034
0.04356068709
0.03594878284
0.02948722318
0.02405051861
0.01951307812
0.01575427425
0.01266164007
0.01013291509
0.008076991293
0.006414142474
0.005075678791
0.004003088598
0.003147084458
0.002466561343
0.001927496274
0.00150195942
0.001167139842
0.0009045219656
0.0006991525557
0.0005390184948
0.0004145078475
0.0003179634521
0.0002433052224
0.000185725306
0.0001414311766
0.000107445512
8.143325361e-05
6.157492643e-05
4.645180354e-05
3.496302521e-05
2.625612619e-05
1.96731927e-05
1.470775105e-05
1.09711772e-05
8.16581281e-06
6.0645187e-06
4.494111188e-06
3.323214707e-06
2.452096114e-06
1.805496296e-06
1.326496093e-06
9.725754261e-07
7.11617881e-07
5.196068639e-07
3.786297933e-07
2.753346048e-07
1.998125919e-07
1.447058839e-07
1.045875663e-07
7.544161918e-08
5.430982101e-08
3.901993783e-08
2.797945076e-08
2.002367079e-08
1.43020263e-08
1.019562426e-08
7.254384283e-09
5.151688962e-09
3.651583365e-09
2.583495516e-09
1.824381919e-09
1.285896444e-09
9.046570113e-10
6.352687321e-10
4.452754577e-10
3.115381056e-10
2.175672082e-10
1.516721386e-10
1.055442649e-10
7.331248621e-11
5.083247166e-11
3.518232694e-11
2.43074681e-11
1.676455497e-11
1.15421636e-11
7.932726558e-12
5.442523275e-12
3.727614939e-12
2.548626727e-12
1.739626904e-12
1.185388317e-12
8.063515925e-13
5.475846655e-13
3.712330835e-13
2.512532269e-13
1.697681175e-13
1.14517203e-13
7.712448117e-14
5.185464763e-14
3.480684912e-14
2.332542065e-14
1.560580879e-14
1.04240429e-14
6.951498277e-15
4.628345497e-15
3.076542143e-15
2.041931761e-15
1.353056297e-15
8.951451832e-16
5.91265049e-16
3.899245856e-16
2.567460953e-16
1.687841637e-16
1.10797644e-16
7.261702407e-17
4.75186866e-17
3.104686426e-17
2.025341082e-17
1.319233623e-17
8.579606494e-18
5.571986494e-18
3.613012027e-18
2.339167407e-18
1.512151469e-18
9.760491596e-19
6.290803924e-19
4.048347178e-19
2.601748288e-19
1.669478547e-19
1.069651432e-19
6.843214048e-20
4.371550696e-20
2.788584624e-20
1.776170813e-20
1.12984921e-20
7.176207425e-21
4.551254964e-21
2.882270629e-21
1.822726665e-21
1.150993135e-21
7.258937236e-22
4.571090202e-22
2.874347915e-22
1.804833976e-22
1.131688539e-22
7.085877997e-23
4.431221499e-23
2.766999403e-23
1.725339809e-23
1.074331249e-23
6.680175533e-24
4.148549979e-24
2.572624806e-24
1.593118758e-24
9.851907622e-25
6.084082972e-25
3.752146967e-25
2.310817672e-25
1.421475861e-25
8.731364818e-26
5.355807018e-26
3.280767002e-26
2.006988468e-26
1.226091567e-26
7.481496003e-27
4.558672048e-27
2.773940279e-27
1.685671894e-27
1.022986896e-27
6.199986323e-28
3.752638465e-28
2.268350254e-28
1.369339967e-28
8.255589655e-29
4.970611485e-29
2.989399768e-29
1.795370245e-29
1.076829226e-29
6.450195122e-30
3.858662764e-30
2.305377699e-30
1.375589438e-30
8.197609178e-31
4.878868014e-31
2.900509236e-31
1.722014533e-31
1.021005627e-31
6.04599846e-32
3.575553407e-32
2.112243375e-32
1.246110987e-32
7.341797582e-33
4.320173447e-33
2.53886536e-33
1.490421801e-33
8.737635874e-34
5.115821963e-34
2.991527783e-34
1.747085461e-34
1.019218856e-34
5.937975573e-35
3.455006676e-35
2.0077893e-35
1.165288276e-35
6.755891724e-36
3.911591528e-36
2.261863469e-36
1.306293109e-36
7.534648496e-37
4.3413515e-37
2.498103145e-37
1.435621475e-37
8.240121798e-38
4.723652716e-38
2.705007134e-38
1.546973577e-38
8.835754671e-39
5.040473242e-39
2.871787975e-39
1.634507829e-39
9.290621448e-40
5.274147266e-40
2.990340731e-40
1.693382438e-40
9.577656596e-41
5.410446443e-41
3.052725938e-41
1.720305063e-41
9.684850039e-42
5.445167071e-42
3.057633744e-42
1.714857904e-42
9.606039333e-43
5.37449367e-43
3.003358126e-43
1.676345158e-43
9.345187836e-44
5.204639529e-44
2.894821913e-44
1.60809277e-44
8.922168295e-45
4.944304832e-45
2.736643753e-45
1.512930306e-45
8.353992551e-46
4.608348073e-46
2.538771608e-46
1.396894608e-46
7.676774735e-47
4.213809874e-47
2.310228677e-47
1.265090935e-47
6.919642837e-48
3.780324654e-48
2.063241908e-48
1.124623069e-48
6.122530596e-49
3.329150514e-49
1.808089361e-49
9.808290797e-50
5.314526046e-50
2.876231012e-50
1.555071659e-50
8.396985431e-51
4.528653011e-51
2.43949615e-51
1.312612557e-51
7.054513316e-52
3.786989281e-52
2.030555625e-52
1.087564777e-52
5.818011587e-53
3.108735027e-53
1.65915514e-53
8.84508674e-54
4.709836895e-54
2.504976944e-54
1.330758206e-54
7.061469065e-55
3.742745437e-55
1.98145461e-55
1.047818981e-55
5.534533335e-56
2.919930358e-56
1.538730712e-56
8.099473854e-57
4.258415624e-57
2.236340941e-57
1.173079465e-57
6.146377811e-58
3.216689539e-58
1.681505335e-58
8.779846761e-59
4.579072965e-59
2.385428335e-59
1.241234883e-59
6.451210091e-60
3.349092455e-60
1.736646778e-60
8.994865239e-61
4.653449776e-61
2.404651593e-61
1.24115623e-61
6.398768373e-62
3.295044971e-62
1.694812927e-62
8.707137453e-63
4.468092418e-63
2.290138342e-63
1.17244564e-63
5.995349578e-64
3.062146423e-64
1.562162303e-64
7.960019033e-65
4.051242602e-65
2.059430678e-65
1.045657611e-65
5.302909205e-66
2.686080995e-66
1.358947456e-66
6.866936353e-67
3.4657627e-67
1.747056972e-67
8.796009981e-68
4.423157529e-68
2.221490259e-68
1.114342638e-68
5.582811394e-69
2.793466272e-69
1.396004644e-69
6.967545032e-70
3.473109964e-70
1.729017135e-70
8.596429135e-71
4.268455287e-71
2.116668039e-71
1.048237636e-71
5.184254634e-72
2.560516556e-72
1.262926346e-72
6.220596855e-73
3.05973258e-73
1.502886414e-73
7.371453054e-74
3.610417352e-74
1.765758782e-74
8.623172798e-75
4.204903724e-75
2.047336754e-75
9.95307397e-76
4.831141777e-76
2.341295093e-76
1.13283029e-76
5.472220514e-77
2.638999018e-77
1.270508976e-77
6.106103354e-78
2.929425908e-78
1.402864831e-78
6.705727581e-79
3.199287698e-79
1.523411116e-79
7.239606202e-80
3.433385959e-80
1.624853366e-80
7.672935866e-81
3.615218632e-81
1.699418983e-81
7.969366516e-82
3.727914827e-82
1.739341868e-82
8.093468958e-83
3.755474119e-83
1.737479173e-83
8.013786918e-84
3.684267719e-84
1.688043952e-84
7.706377978e-85
3.504732549e-85
1.587408077e-85
7.158586495e-86
3.213128342e-86
1.434912311e-86
6.372727486e-87
2.813187206e-87
1.233589875e-87
5.369187037e-88
2.317399048e-88
9.9067203e-89
4.188214939e-89
1.747490555e-89
7.175743506e-90
2.889042798e-90
1.134281729e-90
4.306882059e-91
1.560740397e-91
5.27750464e-92
1.595072563e-92
3.87988055e-93
4.79333545e-94
1.11738921e-95
3.367012338e-98
3.374860358e-101
2.604764268e-104
1.736022599e-107
9.22380981e-111
2.389275018e-114
0
0
0
0
0
0
0
0
0
0
0
0
0
0
0
0
0
0
0
0
0
0
0
0
0
0
0
0
0
0
0
0
0
0
0
0
0
0
0
0
0
0
0
0
0
0
0
0
0
0
0
0
0
0
0
0
0
0
0
0
0
0
0
0
0
0
0
0
0
0
0
0
0
0
0
0
0
0
0
0
0
0
0
0
0
0
0
0
0
0
0
0
0
0
0
0
0
0
0
0
0
0
0
0
0
0
0
0
0
0
0
0
0
0
0
0
0
0
0
0
0
0
0
0
0
0
0
0
0
0
0
0
0
0
0
0
0
0
0
0
0
0
0
0
0
0
0
0
0
0
0
0
0
0
0
0
0
0
0
0
0
0
0
0
0
0
0
0
0
0
0
0
0
0
0
0
0
0
0
0
0
0
0
0
0
0
0
0
0
0
0
0
0
0
0
0
0
0
0
0
0
0
0
0
0
0
0
0
0
0
0
0
0
0
0
0
0
0
0
0
0
0
0
0
0
0
0
0
0
0
0
0
0
0
0
0
0
0
0
0
0
0
0
0
0
0
0
0
0
0
0
0
0
0
0
0
0
0
0
0
0
0
0
0
0
0
0
0
0
0
0
0
0
0
0
0
0
0
0
0
0
0
0
0
0
0
0
0
0
0
0
0
0
0
0
0
0
0
0
0
0
0
0
0
0
0
0
0
0
0
0
0
0
0
0
0
0
0
0
0
0
0
0
0
0
0
0
0
0
0
0
0
0
0
0
0
0
0
0
0
0
0
0
0
0
0
0
0
0
0
0
0
0
0
0
0
0
0
0
0
0
0
0
0
0
0
0
0
0
0
0
0
0
0
0
0
0
0
0
0
0
0
0
0
0
0
0
0
0
0
0
0
0
0
0
0
0
0
0
0
0
0
0
0
0
0
0
0
0
0
0
0
0
0
0
0
0
0
0
0
0
0
0
0
0
0
0
0
0
0
0
0
0
0
0
0
0
0
0
0
0
0
0
0
0
0
0
0
0
0
0
0
0
0
0
0
0
0
0
0
0
0
0
0
0
0
0
0
0
0
0
0
0
0
0
0
0
0
0
0
0
0
0
0
0
0
0
0
0
0
0
0
0
0
0
0
0
0
0
0
0
0
0
0
0
0
0
0
0
0
0
0
0
0
0
0
0
0
0
0
0
0
0
0
0
0
0
0
0
0
0
0
0
0
0
0
0
0
0
0
0
0
0
0
0
0
0
0
0
0
0
0
0
0
0
0
0
0
0
0
0
0
0
0
0
0
0
0
0
0
0
0
0
0
0
0
0
0
0
0
0
0
0
0
0
0
0
0
0
0
0
0
0
0
0
0
0
0
0
0
0
0
0
0
0
0
0
0
0
0
0
0
0
0
0
0
0
0
0
0
0
0
0
0
0
0
0
0
0
0
0
0
0
0
0
0
0
0
0
0
0
0
0
0
0
0
0
0
0
0
0
0
0
0
0
0
0
0
0
0
0
0
0
0
0
0
0
0
0
0
0
0
0
0
0
0
0
0
0
0
0
0
0
0
0
0
0
0
0
0
0
0
0
0
0
0
0
0
0
0
0
0
0
0
0
0
0
0
0
0
0
0
0
0
0
0
0
0
0
0
0
0
0
0
0
0
0
0
0
0
0
0
0
0
0
0
0
0
0
0
0
0
0
0
0
0
0
0
0
0
0
0
0
0
0
0
0
0
0
0
0
0
0
0
0
0
0
0
0
0
0
0
0
0
0
0
0
0
0
0
0
0
0
0
0
0
0
0
0
0
0
0
0
0
0
0
0
0
0
0
0
0
0
0
0
0
0
0
0
0
0
0
0
0
0
0
0
0
0
0
0
0
0
0
0
0
0
0
0
0
0
0
0
0
0
0
0
0
0
0
0
0
0
0
0
0
0
0
0
0
0
0
0
0
0
0
0
0
0
0
0
0
0
0
0
0
0
0
0
0
0
0
0
0
0
0
0
0
0
0
0
0
0
0
0
0
0
0
0
0
0
0
0
0
0
0
0
0
0
0
0
0
0
0
0
0
0
0
0
0
0
0
0
0
0
0
0
0
0
0
0
0
0
0
0
0
0
0
0
0
0
0
0
0
0
0
0
0
0
0
0
0
0
0
0
0
0
0
0
0
0
0
0
0
0
0
0
0
0
0
0
0
0
0
0
0
0
0
0
0
0
0
0
0
0
0
0
0
0
0
0
0
0
0
0
0
0
0
0
0
0
0
0
0
0
0
0
0
0
0
0
0
0
0
)
;

boundaryField
{
    side1
    {
        type            fixedValue;
        value           uniform 1;
    }
    side2
    {
        type            zeroGradient;
    }
    empty1
    {
        type            empty;
    }
    empty2
    {
        type            empty;
    }
}


// ************************************************************************* //
