/*--------------------------------*- C++ -*----------------------------------*\
| =========                 |                                                 |
| \\      /  F ield         | OpenFOAM: The Open Source CFD Toolbox           |
|  \\    /   O peration     | Version:  2312                                  |
|   \\  /    A nd           | Website:  www.openfoam.com                      |
|    \\/     M anipulation  |                                                 |
\*---------------------------------------------------------------------------*/
FoamFile
{
    version     2.0;
    format      ascii;
    arch        "LSB;label=32;scalar=64";
    class       surfaceScalarField;
    location    "0.0008";
    object      alphaPhi0.water;
}
// * * * * * * * * * * * * * * * * * * * * * * * * * * * * * * * * * * * * * //

dimensions      [0 3 -1 0 0 0 0];

oriented        oriented;

internalField   nonuniform List<scalar> 
4999
(
0
0
0
0
0
0
0
0
0
0
0
0
0
0
0
0
0
0
0
0
0
0
0
0
0
0
0
0
0
0
0
0
0
0
0
0
0
0
0
0
0
0
0
0
0
0
0
0
0
0
0
0
0
0
0
0
0
0
0
0
0
0
0
0
0
0
0
0
0
0
0
0
0
0
0
0
0
0
0
0
0
0
0
0
0
0
0
0
0
0
0
0
0
0
0
0
0
0
0
0
0
0
0
0
0
0
0
0
0
0
0
0
0
0
0
0
0
0
0
0
0
0
0
0
0
0
0
0
0
0
0
0
0
0
0
0
0
0
0
0
0
0
0
0
0
0
0
0
0
0
0
0
0
0
0
0
0
0
0
0
0
0
0
0
0
0
0
0
0
0
0
0
0
0
0
0
0
0
0
0
0
0
0
0
0
0
0
0
0
0
0
0
0
0
0
0
0
0
0
0
0
0
0
0
0
0
0
0
0
0
0
0
0
0
0
0
0
0
0
0
0
0
0
0
0
0
0
0
0
0
0
0
0
0
0
0
0
0
0
0
0
0
0
0
0
0
0
0
0
0
3.718031041e-63
7.174485693e-61
6.898134052e-59
4.405946287e-57
2.102930848e-55
7.999639951e-54
2.526135084e-52
6.810495479e-51
1.6001696e-49
3.328590881e-48
6.207058953e-47
1.048194351e-45
1.616466757e-44
2.292551089e-43
3.008150667e-42
3.670673002e-41
4.184108004e-40
4.472796041e-39
4.499731463e-38
4.273402807e-37
3.841941392e-36
3.277997746e-35
2.660337702e-34
2.057952784e-33
1.52029279e-32
1.074401564e-31
7.275243457e-31
4.727270268e-30
2.951537659e-29
1.773010791e-28
1.025914231e-27
5.724320967e-27
3.083154914e-26
1.604507881e-25
8.075209589e-25
3.93366703e-24
1.856170142e-23
8.490607405e-23
3.76761166e-22
1.622887306e-21
6.790131048e-21
2.761171262e-20
1.091886807e-19
4.201086653e-19
1.57348942e-18
5.739724467e-18
2.040044197e-17
7.067983051e-17
2.388006505e-16
7.870951975e-16
2.531801765e-15
7.950491325e-15
2.438170857e-14
7.304276779e-14
2.138272485e-13
6.11850003e-13
1.711748691e-12
4.683374282e-12
1.253447232e-11
3.282314434e-11
8.411514405e-11
2.1099684e-10
5.181648346e-10
1.246026116e-09
2.934445479e-09
6.769130113e-09
1.529716503e-08
3.387028714e-08
7.348693772e-08
1.562549495e-07
3.256372859e-07
6.651983451e-07
1.332047484e-06
2.614987563e-06
5.032987497e-06
9.497466946e-06
1.757235855e-05
3.187879394e-05
5.670579878e-05
9.890238336e-05
0.0001691357404
0.000283599367
0.000466235117
0.0007514861407
0.001187512476
0.001839678998
0.002793946605
0.004159603191
0.006070522497
0.008683764095
0.01217468022
0.01672631452
0.02251227413
0.02967532694
0.03829163625
0.04835097692
0.05965168659
0.06913054753
0.0765287474
0.0820713733
0.08621977781
0.08922844032
0.09134802899
0.09279956112
0.09376743948
0.09439764397
0.09479939204
0.09505064929
0.09520486429
0.09529774517
0.09535269062
0.09538472149
0.09540318635
0.09541370401
0.09541958563
0.0954227806
0.09542447459
0.09542540223
0.09542593277
0.09542623572
0.09542638709
0.09542640075
0.09542635423
0.09542625832
0.09542610559
0.09542588096
0.09542558196
0.09542522278
0.09542482812
0.09542442901
0.09542406769
0.09542377761
0.09542356837
0.09542344082
0.09542338922
0.09542339279
0.09542343251
0.09542351105
0.0954236367
0.09542381547
0.09542404846
0.09542433143
0.0954246537
0.09542499485
0.09542531419
0.09542556142
0.09542570934
0.09542576037
0.09542574578
0.09542568016
0.09542556139
0.09542539632
0.09542520765
0.09542502741
0.09542488549
0.09542478551
0.09542471585
0.09542466643
0.09542463128
0.09542461078
0.09542460912
0.0954246273
0.09542466832
0.09542473873
0.09542484755
0.09542500107
0.0954251987
0.09542543366
0.09542569276
0.09542595802
0.09542620847
0.09542643521
0.09542664716
0.09542685517
0.09542706454
0.09542727452
0.09542747199
0.09542762648
0.09542770318
0.09542769556
0.09542761801
0.09542745842
0.09542720455
0.09542686368
0.09542645497
0.09542601537
0.09542560556
0.09542528312
0.09542506267
0.09542493269
0.09542487157
0.09542485439
0.09542486725
0.09542491481
0.09542500412
0.09542514047
0.09542533236
0.09542558599
0.09542590376
0.09542628042
0.0954267002
0.09542713224
0.09542752554
0.09542784035
0.09542807161
0.09542823386
0.09542834977
0.09542844162
0.0954285191
0.09542858007
0.09542861328
0.09542860705
0.09542854768
0.09542840694
0.09542815723
0.09542778564
0.09542729455
0.09542670772
0.09542607564
0.09542549308
0.09542506164
0.09542482056
0.09542475357
0.09542479682
0.09542490092
0.09542506798
0.09542529215
0.09542555279
0.09542583149
0.09542612103
0.09542642908
0.09542677128
0.09542715985
0.09542759409
0.0954280504
0.09542846146
0.09542873669
0.09542882962
0.0954287763
0.09542861357
0.09542832363
0.09542791515
0.09542742858
0.09542692799
0.09542650087
0.09542619411
0.09542599294
0.09542586702
0.09542578949
0.09542574303
0.09542572377
0.09542573229
0.09542577742
0.09542587949
0.09542605747
0.09542632244
0.09542667417
0.09542709152
0.09542751741
0.09542784538
0.09542799015
0.09542796766
0.09542782819
0.09542756391
0.09542717448
0.09542669897
0.09542621442
0.09542582995
0.09542560936
0.09542553699
0.09542555567
0.09542562394
0.09542573414
0.09542587835
0.09542604945
0.09542624541
0.09542647258
0.09542674859
0.09542709176
0.09542751342
0.09542800934
0.09542855154
0.09542906719
0.09542944897
0.09542963598
0.09542965784
0.09542957367
0.09542939097
0.09542912167
0.09542882449
0.09542858384
0.09542845094
0.09542840393
0.09542839934
0.0954284036
0.09542839451
0.09542834995
0.09542826128
0.09542813494
0.09542800125
0.09542791253
0.0954279005
0.09542795591
0.09542808553
0.09542828479
0.09542850577
0.0954286646
0.0954287061
0.09542866749
0.09542859345
0.09542852326
0.09542852028
0.09542862188
0.09542886075
0.0954292618
0.09542980552
0.09543042362
0.09543096378
0.09543125614
0.095431284
0.09543113561
0.09543082509
0.0954303548
0.09542978705
0.09542924927
0.09542888236
0.09542871391
0.09542867754
0.09542869447
0.09542872405
0.09542875286
0.09542878056
0.09542883216
0.09542894984
0.09542917601
0.09542954504
0.09543009182
0.09543080706
0.0954316255
0.09543237879
0.09543284491
0.09543295883
0.095432832
0.09543249981
0.09543195715
0.09543128861
0.09543066344
0.0954302598
0.09543010525
0.09543010267
0.09543015339
0.09543021402
0.09543025798
0.09543025971
0.09543023976
0.0954302447
0.09543032343
0.09543052018
0.0954308768
0.09543140412
0.09543205292
0.09543267813
0.09543305374
0.09543309572
0.09543292171
0.09543257495
0.09543208162
0.09543159356
0.09543133962
0.09543138369
0.09543164849
0.09543215032
0.09543285772
0.09543359043
0.09543404219
0.09543406832
0.09543379463
0.09543324032
0.09543240309
0.09543139583
0.09543044403
0.09542981308
0.09542955548
0.09542952549
0.09542957959
0.09542965534
0.09542967398
0.09542957596
0.09542936692
0.09542908563
0.09542887241
0.09542889052
0.09542916943
0.09542974346
0.09543065999
0.09543185524
0.09543313933
0.09543413929
0.09543455095
0.09543446561
0.09543403288
0.09543325012
0.09543218041
0.09543106268
0.0954302688
0.09542999887
0.09543009888
0.09543041558
0.09543092255
0.09543154965
0.09543208935
0.09543235287
0.09543238009
0.09543230017
0.09543221833
0.09543227609
0.09543258393
0.09543319933
0.09543416928
0.09543544901
0.09543685992
0.09543802484
0.09543857906
0.0954385653
0.09543817822
0.09543743127
0.09543639972
0.09543538445
0.09543477664
0.09543468088
0.09543486834
0.09543519638
0.09543559843
0.09543583645
0.09543577026
0.09543544931
0.09543491941
0.09543438909
0.0954342226
0.0954344849
0.09543513302
0.09543624069
0.09543772585
0.09543929289
0.0954403911
0.09544065029
0.09544027167
0.0954393802
0.09543796421
0.0954362651
0.09543477429
0.09543397193
0.09543384893
0.09543409764
0.09543464698
0.09543542769
0.09543607374
0.09543619424
0.09543589223
0.09543532051
0.09543468987
0.09543443145
0.09543471134
0.0954355132
0.09543692429
0.0954388114
0.09544078578
0.09544219235
0.09544261772
0.09544227467
0.09544132257
0.09543983793
0.09543815981
0.09543694818
0.09543659618
0.0954368496
0.09543754548
0.09543865659
0.0954399152
0.09544082271
0.09544103573
0.09544068008
0.09544000049
0.09543940743
0.09543947322
0.09544026229
0.0954417621
0.09544398955
0.09544673093
0.09544938895
0.09545114384
0.09545167589
0.09545122745
0.09545001292
0.09544826127
0.09544664545
0.09544584547
0.09544595921
0.09544670817
0.09544810489
0.09545011532
0.09545241867
0.09545416459
0.09545476503
0.09545437118
0.09545329319
0.09545214769
0.09545179996
0.09545242413
0.09545383387
0.09545604001
0.09545889289
0.09546182521
0.09546392727
0.09546456214
0.09546383651
0.0954618473
0.09545910628
0.09545645956
0.09545444989
0.09545325748
0.09545274029
0.09545311649
0.09545441365
0.09545626863
0.09545765456
0.09545754874
0.09545624754
0.09545409108
0.09545219385
0.09545143832
0.09545178255
0.09545319902
0.09545594903
0.09545961469
0.09546323494
0.0954662326
0.09546776039
0.09546776938
0.09546651794
0.09546473925
0.09546360805
0.09546332616
0.0954635456
0.09546464062
0.09546748066
0.09547258415
0.09547889821
0.09548457898
0.09548869409
0.09549078189
0.09549181158
0.09549355762
0.09549698918
0.09550215036
0.09550970843
0.09552006947
0.09553246205
0.09554493243
0.09555509267
0.09556123571
0.0955643858
0.09556830012
0.09557575964
0.09558647041
0.09559873956
0.09561143794
0.09562558158
0.09564377064
0.0956676803
0.09569397473
0.09571605034
0.09573488409
0.0957550767
0.09577765011
0.09580269327
0.09582926275
0.09585866027
0.09589145825
0.09592716213
0.09595930243
0.09598162682
0.09600052186
0.09602054032
0.09604194425
0.09606385324
0.09608591852
0.09611174766
0.09614266581
0.09618102337
0.09623689785
0.09635093655
0.09663336355
0.09708948589
0.09718242076
0.09517353807
0.08780760587
0.07241889312
0.0512755999
0.0315981808
0.01774508076
0.009405187606
0.004822237559
0.002428877108
0.001212212733
0.0006022028374
0.0002984742754
0.0001477675097
7.311598067e-05
3.616870414e-05
1.788971672e-05
8.848201422e-06
4.37626018e-06
2.164490729e-06
1.070574363e-06
5.295276254e-07
2.619221956e-07
1.295593128e-07
6.40882098e-08
3.170306189e-08
1.568332556e-08
7.758705303e-09
3.838439738e-09
1.89904279e-09
9.395706844e-10
4.648778139e-10
2.300185238e-10
1.138155256e-10
5.631892682e-11
2.786896378e-11
1.379106732e-11
6.824702642e-12
3.377287077e-12
1.671337103e-12
8.270684164e-13
4.091910879e-13
2.024637566e-13
1.000630459e-13
4.944275054e-14
2.433635649e-14
1.187239556e-14
5.79573504e-15
2.755946761e-15
1.248755273e-15
4.744463057e-16
1.196891104e-16
-8.900043227e-18
-3.797078804e-18
-3.782158725e-18
-3.896107788e-18
-3.973694715e-18
-4.050567298e-18
-4.063309786e-18
-4.034211062e-18
-4.031003548e-18
-4.089286877e-18
-4.201004588e-18
-4.324271163e-18
-4.413455595e-18
-4.451079752e-18
-4.435719386e-18
-4.391590094e-18
-4.3407839e-18
-4.298334855e-18
-4.272201281e-18
-4.252776439e-18
-4.234175714e-18
-4.213664142e-18
-4.192426976e-18
-4.168698157e-18
-4.149524385e-18
-4.143906873e-18
-4.156741939e-18
-4.188068404e-18
-4.23426442e-18
-4.295230852e-18
-4.360268288e-18
-4.415564705e-18
-4.463933565e-18
-4.490809897e-18
-4.497943899e-18
-4.47975117e-18
-4.441485608e-18
-4.386955442e-18
-4.330157147e-18
-4.275285743e-18
-4.224316776e-18
-4.185739527e-18
-4.158647993e-18
-4.151398732e-18
-4.159080275e-18
-4.179470838e-18
-4.210512597e-18
-4.245944587e-18
-4.280834575e-18
-4.312329383e-18
-4.34339326e-18
-4.368584934e-18
-4.386773719e-18
-4.396680917e-18
-4.404155264e-18
-4.410500449e-18
-4.417111648e-18
-4.422915117e-18
-4.429395537e-18
-4.435553777e-18
-4.438523079e-18
-4.444375971e-18
-4.448264111e-18
-4.456293292e-18
-4.464798165e-18
-4.471674902e-18
-4.477168849e-18
-4.485313887e-18
-4.496211841e-18
-4.500179949e-18
-4.50519999e-18
-4.511786549e-18
-4.517028178e-18
-4.515143808e-18
-4.510869934e-18
-4.498851841e-18
-4.482864136e-18
-4.46387499e-18
-4.446226618e-18
-4.427476568e-18
-4.405685548e-18
-4.38191235e-18
-4.359838366e-18
-4.336584065e-18
-4.310808587e-18
-4.283015582e-18
-4.255795868e-18
-4.226976343e-18
-4.198054754e-18
-4.166264897e-18
-4.14005697e-18
-4.11439539e-18
-4.089990523e-18
-4.063093531e-18
-4.039177779e-18
-4.016346482e-18
-3.994362408e-18
-3.974920418e-18
-3.957503751e-18
-3.94010867e-18
-3.921430216e-18
-3.903565335e-18
-3.885002335e-18
-3.869619411e-18
-3.853240592e-18
-3.840688545e-18
-3.82721447e-18
-3.81962926e-18
-3.812127844e-18
-3.803930728e-18
-3.795532966e-18
-3.790746205e-18
-3.783798555e-18
-3.78477083e-18
-3.791271717e-18
-3.800900425e-18
-3.812764647e-18
-3.828963102e-18
-3.846342622e-18
-3.861205677e-18
-3.8782195e-18
-3.895577306e-18
-3.912594678e-18
-3.928982121e-18
-3.949562898e-18
-3.971459428e-18
-3.991920467e-18
-4.015266838e-18
-4.04057406e-18
-4.067884397e-18
-4.095979849e-18
-4.123147227e-18
-4.152775089e-18
-4.181678116e-18
-4.207328811e-18
-4.236008501e-18
-4.260941581e-18
-4.284547802e-18
-4.30437902e-18
-4.318971993e-18
-4.332319197e-18
-4.341545637e-18
-4.352346281e-18
-4.358837203e-18
-4.366653904e-18
-4.369353297e-18
-4.371897242e-18
-4.37620863e-18
-4.378837426e-18
-4.381378751e-18
-4.379608973e-18
-4.375779824e-18
-4.374524618e-18
-4.369820315e-18
-4.367386891e-18
-4.364271979e-18
-4.358645101e-18
-4.351078111e-18
-4.34449791e-18
-4.336630273e-18
-4.32766611e-18
-4.320318001e-18
-4.309888644e-18
-4.301955544e-18
-4.293528024e-18
-4.284900352e-18
-4.279029518e-18
-4.272497828e-18
-4.267536061e-18
-4.261067624e-18
-4.252513699e-18
-4.244510703e-18
-4.234000244e-18
-4.227190897e-18
-4.2197061e-18
-4.211275384e-18
-4.205402687e-18
-4.194390859e-18
-4.185608975e-18
-4.173345217e-18
-4.165797732e-18
-4.158006392e-18
-4.155028883e-18
-4.150471313e-18
-4.145323292e-18
-4.13783248e-18
-4.131583027e-18
-4.125698562e-18
-4.116235397e-18
-4.11484378e-18
-4.113114349e-18
-4.109549242e-18
-4.110055603e-18
-4.111158778e-18
-4.112487671e-18
-4.116751902e-18
-4.118543818e-18
-4.125408357e-18
-4.136444454e-18
-4.146813805e-18
-4.160239039e-18
-4.17336847e-18
-4.186427045e-18
-4.194691701e-18
-4.205493123e-18
-4.213984027e-18
-4.227472565e-18
-4.238351552e-18
-4.250318203e-18
-4.262318823e-18
-4.271905956e-18
-4.28102257e-18
-4.28866513e-18
-4.295903226e-18
-4.302969601e-18
-4.309835539e-18
-4.31717554e-18
-4.324088949e-18
-4.329339144e-18
-4.333984586e-18
-4.340176363e-18
-4.342738248e-18
-4.345990227e-18
-4.346564751e-18
-4.345758137e-18
-4.344734073e-18
-4.345074181e-18
-4.341724558e-18
-4.339191254e-18
-4.33626749e-18
-4.336031998e-18
-4.333036378e-18
-4.333433388e-18
-4.328821212e-18
-4.322917481e-18
-4.322696277e-18
-4.316830418e-18
-4.312024898e-18
-4.306257035e-18
-4.301325993e-18
-4.295278654e-18
-4.289596027e-18
-4.281361725e-18
-4.276769738e-18
-4.27124718e-18
-4.261825522e-18
-4.255762336e-18
-4.250139948e-18
-4.24385619e-18
-4.237266079e-18
-4.23328118e-18
-4.231246326e-18
-4.229097923e-18
-4.233431265e-18
-4.236895097e-18
-4.246718426e-18
-4.258468539e-18
-4.272808776e-18
-4.287845288e-18
-4.302831746e-18
-4.317458977e-18
-4.333729762e-18
-4.349628773e-18
-4.366977549e-18
-4.385453011e-18
-4.401927097e-18
-4.41552893e-18
-4.432604455e-18
-4.44771907e-18
-4.458577507e-18
-4.467155118e-18
-4.476708585e-18
-4.483535305e-18
-4.491802034e-18
-4.499591489e-18
-4.507388961e-18
-4.511726507e-18
-4.519940136e-18
-4.527594469e-18
-4.537145122e-18
-4.541444588e-18
-4.549508539e-18
-4.55642516e-18
-4.561609028e-18
-4.562328459e-18
-4.554712148e-18
-4.544123886e-18
-4.529245435e-18
-4.510041541e-18
-4.481665274e-18
-4.44242448e-18
-4.402307511e-18
-4.352066911e-18
-4.294400706e-18
-4.230998352e-18
-4.159384877e-18
-4.07940721e-18
-3.992592263e-18
-3.900759278e-18
-3.802550746e-18
-3.694689934e-18
-3.583411521e-18
-3.468218908e-18
-3.34900406e-18
-3.223669157e-18
-3.093966793e-18
-2.969640903e-18
-2.845140372e-18
-2.721416606e-18
-2.598724089e-18
-2.475702388e-18
-2.353867333e-18
-2.230091678e-18
-2.10958046e-18
-1.986903474e-18
-1.865292142e-18
-1.747304557e-18
-1.629164388e-18
-1.516371791e-18
-1.410754641e-18
-1.307065788e-18
-1.210469868e-18
-1.112880567e-18
-1.026368184e-18
-9.437895165e-19
-8.680246721e-19
-7.9358563e-19
-7.227367586e-19
-6.597487728e-19
-6.05300589e-19
-5.546725021e-19
-5.048296638e-19
-4.543775262e-19
-4.124399665e-19
-3.787194866e-19
-3.477035823e-19
-3.149149147e-19
-2.815373449e-19
-2.524429509e-19
-2.23896753e-19
-2.026627197e-19
-1.813886855e-19
-1.672655023e-19
-1.560594597e-19
-1.459415278e-19
-1.381459586e-19
-1.309827893e-19
-1.216501319e-19
-1.119052442e-19
-1.002111763e-19
-9.34510791e-20
-8.554086703e-20
-7.814931039e-20
-7.082556079e-20
-6.206954379e-20
-5.18392852e-20
-4.366527584e-20
-3.351842929e-20
-2.623062314e-20
-2.053859789e-20
-1.240363501e-20
-7.400968076e-21
-3.105589562e-23
6.959728432e-21
1.164815843e-20
1.681451661e-20
2.037758591e-20
2.573114102e-20
3.004861921e-20
3.716765557e-20
3.569599613e-20
3.775120315e-20
3.533797929e-20
3.694436144e-20
3.834886268e-20
3.990872848e-20
4.056542403e-20
4.265326482e-20
4.452970301e-20
4.72891433e-20
4.837002869e-20
5.005660616e-20
5.264396405e-20
5.20535401e-20
4.789006243e-20
4.770578715e-20
4.577594496e-20
4.444608845e-20
4.532228971e-20
4.588397074e-20
4.558798328e-20
4.837788966e-20
4.697196238e-20
4.600251219e-20
4.37858448e-20
4.556426597e-20
4.376849098e-20
4.507596641e-20
4.732311401e-20
4.972262873e-20
4.870171303e-20
4.869623991e-20
4.81208552e-20
5.002247561e-20
5.244239022e-20
5.460988035e-20
5.015905464e-20
4.661453984e-20
4.650603396e-20
4.737797306e-20
4.766430539e-20
4.814191935e-20
4.755414588e-20
4.772457725e-20
4.878189996e-20
5.02799287e-20
4.830261286e-20
4.619838861e-20
4.379080018e-20
4.203731133e-20
3.904982514e-20
4.105184265e-20
4.017381928e-20
4.122747328e-20
4.057418027e-20
4.287713919e-20
4.544710352e-20
4.537855208e-20
4.407092626e-20
4.529070841e-20
4.44003754e-20
4.452833353e-20
4.281750324e-20
4.101156694e-20
3.914785507e-20
4.07931494e-20
4.106804324e-20
4.433860833e-20
4.444551051e-20
4.288528518e-20
4.019903642e-20
4.038070093e-20
4.026027789e-20
4.080619677e-20
3.83770033e-20
3.857964606e-20
3.493820346e-20
3.244288252e-20
2.94832616e-20
2.892923625e-20
2.704626709e-20
2.801756454e-20
3.068886257e-20
3.302029828e-20
3.531896208e-20
3.73165453e-20
3.654082219e-20
3.905368752e-20
4.496380602e-20
4.502304035e-20
4.748285257e-20
4.729929903e-20
4.858692358e-20
4.700544351e-20
4.488021516e-20
4.647665236e-20
4.608426663e-20
4.655479152e-20
4.637414377e-20
4.535482569e-20
4.248247052e-20
4.074277554e-20
3.703280399e-20
3.53070405e-20
3.471821604e-20
3.369305157e-20
3.20920175e-20
3.094853864e-20
2.807061857e-20
2.609714415e-20
2.705031171e-20
2.886757205e-20
2.86010117e-20
2.90396715e-20
2.872379493e-20
2.823144472e-20
2.656656401e-20
2.401418817e-20
2.221435377e-20
2.298770921e-20
2.338187299e-20
1.862289454e-20
1.840615967e-20
1.359014613e-20
1.102526003e-20
1.176550685e-20
1.222584186e-20
1.336035892e-20
1.567303854e-20
1.730795423e-20
1.851432584e-20
2.396537093e-20
2.473183096e-20
2.40032852e-20
2.467458534e-20
2.304355921e-20
2.38278931e-20
2.844960651e-20
3.06012876e-20
3.145781785e-20
3.311900384e-20
3.079701402e-20
2.939780017e-20
3.249212507e-20
3.133021895e-20
3.318877233e-20
3.255397346e-20
3.067970808e-20
3.123492491e-20
2.824079102e-20
2.864463276e-20
2.871032539e-20
3.354170817e-20
3.639227685e-20
3.704813021e-20
3.6729134e-20
3.870810354e-20
3.836846986e-20
3.933640483e-20
3.963453638e-20
4.071088196e-20
3.897206319e-20
4.025262087e-20
4.190727691e-20
4.186975419e-20
4.220043347e-20
4.169742595e-20
4.019800532e-20
4.350227701e-20
4.101227779e-20
3.815025176e-20
3.609086896e-20
3.383236474e-20
3.268316832e-20
3.31109173e-20
3.550580685e-20
3.596780108e-20
3.349441152e-20
3.280490051e-20
2.92606244e-20
2.511001788e-20
2.34242096e-20
1.996004648e-20
1.588363509e-20
1.642036814e-20
1.514032504e-20
1.176237662e-20
1.316301199e-20
1.320258003e-20
1.137765243e-20
1.025042165e-20
1.040758828e-20
1.417171116e-20
1.524704795e-20
1.659426825e-20
1.500116348e-20
1.38275381e-20
1.04354677e-20
1.177350633e-20
1.259260907e-20
1.433598586e-20
1.683859523e-20
2.010665035e-20
2.058124892e-20
1.880558163e-20
1.633376175e-20
1.665293482e-20
1.485311115e-20
1.488502415e-20
1.705069349e-20
1.915815805e-20
1.924988368e-20
2.315798042e-20
2.749887433e-20
2.859755528e-20
2.757796698e-20
2.562754872e-20
2.378457228e-20
2.281246338e-20
2.234074195e-20
2.384785419e-20
2.450353641e-20
2.379344939e-20
2.731489953e-20
2.695873843e-20
2.638846804e-20
2.736841199e-20
2.358248376e-20
2.261363302e-20
2.365565874e-20
2.537719949e-20
2.387978142e-20
2.124243716e-20
1.980506683e-20
1.993660043e-20
1.784171848e-20
1.611791826e-20
1.771116892e-20
1.980502127e-20
1.778506716e-20
1.844340808e-20
1.451595742e-20
1.153984574e-20
9.575250686e-21
1.100518837e-20
1.377834183e-20
1.150584657e-20
1.173431625e-20
8.053235722e-21
1.205317406e-20
1.754524797e-20
1.838108174e-20
1.996257239e-20
2.254789706e-20
2.490138917e-20
2.777880621e-20
2.830918172e-20
2.940956716e-20
3.18326993e-20
3.340688404e-20
3.599653391e-20
3.671485368e-20
3.44377332e-20
3.525288151e-20
3.199141812e-20
3.3020188e-20
3.297619089e-20
3.586106021e-20
3.434694065e-20
3.329371982e-20
3.260641803e-20
3.107253913e-20
2.994610789e-20
2.819073575e-20
2.75707723e-20
2.627391289e-20
2.838383629e-20
2.571555523e-20
2.241484299e-20
2.598985008e-20
2.86037718e-20
2.674823844e-20
2.610259172e-20
2.755080767e-20
2.75433956e-20
2.737011647e-20
2.512770981e-20
2.703234136e-20
3.016521804e-20
3.230558709e-20
3.548637156e-20
4.109745056e-20
4.234541514e-20
4.073805033e-20
3.708103542e-20
3.431322226e-20
3.249676008e-20
3.522328311e-20
3.46021551e-20
3.504000346e-20
3.636520377e-20
3.671554014e-20
4.027029265e-20
4.117374261e-20
4.015268411e-20
4.156411553e-20
3.903180162e-20
4.096267857e-20
4.128233112e-20
4.317926621e-20
4.530987474e-20
4.43883122e-20
4.637920064e-20
5.071392408e-20
5.317622227e-20
5.356534248e-20
5.562250158e-20
5.852154979e-20
6.055042764e-20
5.860667731e-20
5.681409911e-20
5.554439516e-20
5.723390868e-20
5.654071972e-20
5.792659273e-20
5.824568596e-20
5.920423011e-20
6.146151727e-20
5.863854856e-20
6.060486257e-20
5.587856525e-20
5.168392272e-20
5.048163467e-20
5.166302078e-20
4.978159344e-20
5.036299931e-20
5.38482203e-20
5.632486004e-20
5.824990109e-20
5.669450207e-20
5.726756558e-20
5.634504029e-20
5.754282014e-20
6.000079211e-20
6.260694871e-20
6.402923466e-20
6.63672309e-20
6.766790201e-20
6.81914157e-20
6.767715757e-20
6.491730277e-20
6.218987756e-20
6.106109428e-20
6.230141203e-20
6.193660822e-20
6.191167793e-20
6.31717078e-20
6.488302751e-20
6.312347624e-20
5.898718475e-20
5.510152477e-20
5.226396054e-20
5.048036203e-20
5.125148538e-20
5.221091929e-20
5.039495461e-20
4.982276979e-20
5.153448705e-20
4.694392352e-20
4.565510155e-20
4.35049365e-20
4.098874172e-20
3.945790591e-20
3.626376334e-20
3.431911324e-20
3.026720859e-20
2.933886488e-20
2.66155088e-20
2.650850529e-20
2.531618614e-20
2.041774761e-20
1.877511454e-20
1.960851571e-20
1.913415722e-20
2.008591584e-20
1.806575733e-20
1.644663685e-20
1.600273036e-20
1.741717805e-20
1.961207205e-20
2.175201781e-20
2.358744325e-20
2.518581336e-20
2.667930228e-20
2.912523367e-20
2.802081847e-20
2.950427251e-20
2.600096763e-20
2.869326658e-20
3.094333997e-20
3.131423024e-20
3.344772808e-20
3.141443643e-20
3.068689032e-20
3.147190584e-20
3.120389246e-20
2.822205919e-20
2.655659779e-20
2.820906124e-20
2.634031776e-20
2.809691049e-20
3.023322494e-20
3.198073319e-20
3.261201237e-20
3.497877946e-20
3.362228621e-20
3.830220946e-20
4.359781775e-20
4.512484601e-20
4.75101112e-20
5.188228331e-20
5.28619175e-20
5.364896748e-20
5.495272989e-20
5.715350637e-20
5.735494645e-20
5.765571438e-20
5.791194965e-20
5.810255567e-20
5.600278831e-20
5.635127832e-20
5.721195775e-20
5.665073645e-20
5.710160714e-20
5.518267802e-20
5.591492272e-20
5.421082121e-20
5.436492057e-20
5.311320974e-20
5.022415116e-20
5.061126445e-20
5.006007721e-20
5.339279524e-20
5.565279068e-20
5.730335937e-20
6.016579753e-20
6.100245281e-20
6.365892502e-20
6.587298157e-20
6.384290021e-20
6.802545074e-20
6.580847184e-20
6.25239995e-20
6.286803724e-20
6.587530978e-20
6.829378766e-20
6.903193774e-20
7.284854066e-20
7.083408819e-20
6.640025074e-20
6.730497508e-20
6.680616302e-20
6.705779732e-20
6.844492025e-20
6.765970206e-20
6.711671327e-20
6.888669877e-20
6.479796727e-20
6.230789727e-20
6.076044421e-20
6.105782949e-20
5.972872199e-20
5.787007951e-20
5.903614688e-20
5.512410808e-20
5.23938317e-20
5.200573805e-20
5.12780922e-20
4.937676107e-20
5.026741734e-20
5.359587604e-20
5.410274735e-20
5.317414624e-20
5.49449993e-20
5.608764778e-20
5.548525401e-20
5.534727292e-20
5.474252124e-20
5.432048177e-20
5.887937368e-20
6.097546072e-20
6.013101459e-20
5.845993206e-20
6.144292593e-20
6.001684226e-20
5.75994693e-20
5.825459555e-20
5.856909603e-20
5.774174917e-20
5.481602883e-20
5.452761493e-20
5.336667494e-20
5.558531158e-20
5.491650177e-20
5.555447218e-20
5.71169018e-20
5.679327126e-20
5.649448825e-20
5.76255865e-20
5.595948921e-20
5.975147492e-20
6.119129521e-20
6.205421206e-20
6.232220187e-20
6.136709192e-20
5.963844897e-20
5.867285676e-20
5.616500152e-20
5.758031747e-20
5.895702033e-20
5.614670436e-20
5.538623951e-20
5.348028873e-20
5.133624878e-20
5.039891866e-20
5.249162794e-20
5.474169823e-20
5.257622526e-20
5.20406422e-20
5.036001186e-20
4.866168034e-20
4.642924205e-20
4.464377542e-20
4.715567389e-20
4.918422558e-20
5.076290785e-20
5.137662929e-20
4.964126927e-20
4.685228823e-20
4.823397212e-20
4.440335912e-20
4.366907902e-20
4.192960447e-20
4.011054765e-20
3.987304664e-20
4.269913733e-20
4.409572963e-20
4.243263572e-20
4.480845514e-20
4.829083224e-20
5.055749505e-20
4.861122809e-20
4.503537424e-20
4.343582954e-20
3.903468847e-20
3.609338868e-20
3.726858925e-20
3.541792451e-20
3.60323245e-20
3.656889055e-20
3.34424756e-20
3.066208673e-20
2.868179744e-20
2.635653819e-20
2.418309235e-20
2.339064183e-20
2.116290187e-20
1.891883671e-20
1.772913079e-20
1.938930931e-20
1.904562156e-20
1.839045002e-20
1.602435574e-20
1.504806975e-20
1.570287728e-20
1.75328118e-20
1.856515919e-20
1.79221829e-20
1.588028199e-20
1.23932023e-20
1.192719246e-20
1.007208733e-20
7.92055982e-21
5.311504119e-21
3.809644119e-21
2.762877247e-21
-1.232662794e-23
-2.092849117e-21
-3.873906698e-21
-2.586285078e-21
-2.876405513e-21
-3.437592413e-21
-7.279786206e-21
-7.374020003e-21
-4.800148446e-21
-5.211372771e-21
-3.815961873e-21
-2.927244211e-21
-1.299553792e-21
-9.920283908e-22
-2.549927462e-21
-4.098860692e-21
-2.60316546e-21
-6.159884186e-21
-1.058380135e-20
-1.228345276e-20
-1.389737673e-20
-1.383821158e-20
-1.334314501e-20
-1.35130407e-20
-1.415126631e-20
-1.433569802e-20
-1.596795426e-20
-1.965709047e-20
-1.869480379e-20
-1.800958587e-20
-2.013295484e-20
-1.922274232e-20
-1.657542769e-20
-1.441822743e-20
-1.058900954e-20
-1.199299268e-20
-1.396172816e-20
-1.39685555e-20
-1.193213655e-20
-1.093764126e-20
-9.470326817e-21
-7.18028129e-21
-8.513401149e-21
-1.05811814e-20
-1.033687854e-20
-1.111341129e-20
-1.23979117e-20
-1.128488864e-20
-1.082698735e-20
-1.110213599e-20
-1.312893375e-20
-1.346495409e-20
-1.339936326e-20
-1.543145185e-20
-1.448418954e-20
-1.234425137e-20
-1.187332316e-20
-1.360651818e-20
-1.535622002e-20
-1.983071749e-20
-2.331779394e-20
-2.551631667e-20
-2.736097753e-20
-2.909215717e-20
-3.111475743e-20
-2.985905711e-20
-3.227228263e-20
-3.246981491e-20
-3.197472656e-20
-3.00169944e-20
-3.102606316e-20
-3.026391931e-20
-3.505139767e-20
-3.683425296e-20
-3.926927009e-20
-3.861746267e-20
-3.909426354e-20
-4.07388562e-20
-4.09716359e-20
-4.04089653e-20
-3.853090769e-20
-3.582549165e-20
-3.36181058e-20
-3.373243188e-20
-3.222068542e-20
-3.088037246e-20
-2.962728342e-20
-2.632060721e-20
-2.439798143e-20
-1.978478407e-20
-2.089540729e-20
-1.964317729e-20
-2.216808477e-20
-2.363719954e-20
-2.328704032e-20
-2.128152818e-20
-2.20425881e-20
-2.016942523e-20
-2.030038061e-20
-1.922679865e-20
-1.762760256e-20
-1.674853931e-20
-1.7437676e-20
-1.579354463e-20
-9.837326253e-21
-5.031603595e-21
-2.438513553e-21
2.411619845e-21
5.145943007e-21
6.11973093e-21
6.585935431e-21
6.586083713e-21
4.964274533e-21
2.58078279e-21
4.98693497e-22
6.953587222e-22
2.595287004e-21
5.699248946e-21
4.039914979e-21
3.197191177e-21
1.220154423e-21
3.073040147e-21
9.230431934e-22
2.183150256e-21
1.532701058e-21
-2.808283178e-22
8.557938897e-22
1.539857812e-21
8.897329532e-22
3.131711694e-21
2.947410879e-21
2.361684017e-22
-4.703813203e-21
-9.423663268e-21
-1.05300766e-20
-1.617214028e-20
-1.731059566e-20
-1.746620272e-20
-1.978659627e-20
-2.166249266e-20
-1.929861978e-20
-2.11645157e-20
-1.99260764e-20
-2.119241598e-20
-1.988358189e-20
-1.96966908e-20
-1.710229479e-20
-1.848482992e-20
-1.825896384e-20
-1.949626128e-20
-1.786328681e-20
-1.765404681e-20
-1.753029117e-20
-1.63197422e-20
-1.59073415e-20
-1.720813754e-20
-1.925107777e-20
-1.829174941e-20
-1.726240286e-20
-1.609868856e-20
-1.7072434e-20
-1.789005449e-20
-1.623659253e-20
-1.805451146e-20
-1.829594029e-20
-1.855872478e-20
-1.595272162e-20
-1.763378473e-20
-2.037961984e-20
-2.153339483e-20
-1.940506291e-20
-1.998649005e-20
-2.617787853e-20
-2.636981508e-20
-2.859206079e-20
-2.888389857e-20
-2.945485425e-20
-3.039199841e-20
-2.947741465e-20
-3.060770938e-20
-3.290152415e-20
-3.76306081e-20
-4.007273992e-20
-4.156301748e-20
-4.397017324e-20
-4.574984287e-20
-4.820599672e-20
-4.986097407e-20
-5.104227746e-20
-5.076881835e-20
-5.154047506e-20
-5.001683605e-20
-4.756215001e-20
-4.835598155e-20
-5.128131593e-20
-5.38324617e-20
-5.555181092e-20
-5.833274388e-20
-5.885020636e-20
-6.067589273e-20
-6.128861561e-20
-5.982729641e-20
-5.918728683e-20
-5.910596626e-20
-5.650099948e-20
-5.482263178e-20
-5.274706405e-20
-5.05955677e-20
-5.293360488e-20
-5.440064022e-20
-5.548090261e-20
-5.319640164e-20
-5.035089984e-20
-4.998901263e-20
-4.795304202e-20
-4.778856772e-20
-4.907483123e-20
-4.521894019e-20
-4.471804836e-20
-4.270336717e-20
-4.11657564e-20
-3.871930249e-20
-3.754759899e-20