/*--------------------------------*- C++ -*----------------------------------*\
| =========                 |                                                 |
| \\      /  F ield         | OpenFOAM: The Open Source CFD Toolbox           |
|  \\    /   O peration     | Version:  2312                                  |
|   \\  /    A nd           | Website:  www.openfoam.com                      |
|    \\/     M anipulation  |                                                 |
\*---------------------------------------------------------------------------*/
FoamFile
{
    version     2.0;
    format      ascii;
    arch        "LSB;label=32;scalar=64";
    class       volScalarField;
    location    "0.0008";
    object      p_rgh;
}
// * * * * * * * * * * * * * * * * * * * * * * * * * * * * * * * * * * * * * //

dimensions      [1 -1 -2 0 0 0 0];

internalField   nonuniform List<scalar> 
5000
(
1000000000
1000000000
1000000000
1000000000
1000000000
1000000000
1000000000
1000000000
1000000000
1000000000
1000000000
1000000000
1000000000
1000000000
1000000000
1000000000
1000000000
1000000000
1000000000
1000000000
1000000000
1000000000
1000000000
1000000000
1000000000
1000000000
1000000000
1000000000
1000000000
1000000000
1000000000
1000000000
1000000000
1000000000
1000000000
1000000000
1000000000
1000000000
1000000000
1000000000
1000000000
1000000000
1000000000
1000000000
1000000000
1000000000
1000000000
1000000000
1000000000
1000000000
1000000000
1000000000
1000000000
1000000000
1000000000
1000000000
1000000000
1000000000
1000000000
1000000000
1000000000
1000000000
1000000000
1000000000
1000000000
1000000000
1000000000
1000000000
1000000000
1000000000
1000000000
1000000000
1000000000
999999999.9
999999999.8
999999999.7
999999999.3
999999998.5
999999996.9
999999993.6
999999987.2
999999974.4
999999949.4
999999901.2
999999809.3
999999636.2
999999314.7
999998725.2
999997658.6
999995756.2
999992411.5
999986618.5
999976739.5
999960161.5
999932803.6
999888437.4
999817788.5
999707413.3
999538388.5
999284926.6
998913127.2
998380189.5
997634493.9
996616982.2
995264145.8
993512644.9
991305151.7
988596540.3
985359225.1
981586462.8
977292848.9
972511970.8
967291955.7
961690194.4
955767764.1
949582907.9
943186973.5
936623526.5
929928836.2
923132804.3
916259965.8
909330416.8
902360619
895364070
888351842.8
881332998.4
874314944.2
867304277.5
860306563
853326317
846367329.2
839432799.1
832525438.3
825647553.3
818801111.5
811987793.9
805209039.4
798466080
791759971.3
785091616.9
778461788.4
771871139.3
765320204.9
758809447.5
752339309.2
745910128.5
739522179.7
733175688.2
726870832.8
720607751.4
714386546.2
708207287.1
702070015
695974745
689921468.4
683910155.7
677940757.7
672013208.7
666127428.1
660283324.2
654480798.4
648719752.5
643000096
637321750.7
631684640.2
626088660.2
620533647.1
615019383
609545603.2
604111815.7
598716833.9
593358647.1
588035743.1
582749249.5
577502595.9
572297560
567132772.4
562006191.8
556916638.9
551866146.4
546854671.1
541880565.3
536941557
532041004.8
527179363.3
522356073.4
517574959.1
512834447
508138704.6
503478668.6
498850028.8
494256733.7
489708557.8
485196607.9
480719225
476278866
471878806.4
467510077.9
463179353.4
458886428.1
454626715.8
450393937.9
446196519.9
442043823.3
437920894.3
433824751.1
429760114.2
425740251.7
421748909.9
417791617.4
413871523.9
409981692.9
406132161.8
402325004.9
398556627.6
394835874
391173622.8
387575807.8
384060200.3
380640485.6
377339775.9
374179226.9
371184348.9
368386133.1
365804166.7
363469385.6
361403907
359609954.4
358107577.1
356887880
355925170
355215344.2
354719137.8
354395873.4
354237141.7
354197115.1
354260491
354425499.4
354641557
354840307.6
355000346.1
355129733.7
355230569.1
355308271.1
355368350.1
355414858.4
355452120.3
355479982.9
355503452.8
355521703.8
355537158.9
355551177.4
355564877.7
355577452.1
355590038.7
355601315.7
355611523.2
355620706.7
355627644.3
355630975.5
355631055.9
355629649.5
355628800.7
355628107.6
355627477.2
355626861.9
355626332
355625679.3
355625222.5
355624882.3
355624641.1
355624565.1
355624661.1
355624807.6
355624833.5
355624771.1
355624614.7
355624262.1
355623753.8
355623315.3
355623020.9
355622857.1
355622764.6
355622912.8
355623201.8
355623406.1
355623402
355623212.9
355622973.2
355622706.8
355622455
355622366.1
355622443.5
355622689.5
355623096.9
355623547.1
355623893.4
355623996.5
355623761
355623091.3
355622098.5
355621072.7
355620129.8
355619346.5
355618867
355618707
355618890.5
355619280.3
355619707
355620001.8
355620029.2
355619583.6
355618588.1
355617331.4
355616145.9
355615138.1
355614320.7
355613758.9
355613447.9
355613454.5
355613828.9
355614289.6
355614580.3
355614483.1
355613790.8
355612232.9
355609882.7
355607487.2
355605625.1
355604470.3
355604171.1
355604795.4
355606117.2
355607517.6
355608001.8
355607184.7
355605191.9
355602499.3
355601916.3
355601715.1
355604232.3
355610285.7
355609431.7
355618273.8
355610186.9
355613726.1
355596054.1
355635970.4
355596019.6
355592989.7
355625189.2
355622958.7
355615092.2
355616138
355618203.9
355616851.8
355614600.1
355613458.9
355613148.1
355612516.7
355611114.6
355609359.4
355607901
355606985
355606374.7
355605717.7
355604988.8
355604367.9
355603966.3
355603723.7
355603551.5
355603428.6
355603466.9
355603745.8
355604307.9
355605159
355606293.3
355607697
355609335.6
355611120.1
355612880.8
355614415.7
355615630.1
355616520.2
355617104.9
355617435
355617597.2
355617611.4
355617450
355617089.5
355616509.4
355615711.7
355614722
355613602.4
355612477.5
355611550.5
355610988.4
355610840.4
355611025.6
355611429.4
355612051.6
355612892.4
355613883.4
355614909.6
355615829.6
355616569
355617156.3
355617636.7
355618042.1
355618383.7
355618648.2
355618824.6
355618905.5
355618867.1
355618681.4
355618311.5
355617746.8
355617001.9
355616118.6
355615162.2
355614216.7
355613352.1
355612561.8
355611797.5
355611024.5
355610232
355609443.2
355608747.9
355608289.4
355608164.4
355608331.5
355608785.5
355609604
355610790.8
355612295.9
355614006.9
355615722.4
355617176.2
355618219.6
355618865.7
355619188.5
355619294.6
355619281.8
355619166.8
355618920.3
355618521.1
355617946.7
355617166.4
355616162.6
355614939.9
355613539.3
355612052.1
355610650.4
355609539
355608802.9
355608409.6
355608274.1
355608295.2
355608395.3
355608559.4
355608810.7
355609195.9
355609754.5
355610576.1
355611788
355613472.7
355615654.2
355618279.8
355621198.2
355624109.4
355626564.5
355628261.1
355629162.7
355629447.1
355629371.2
355629020.1
355628372
355627498.4
355626482.9
355625386.2
355624207.7
355622896.3
355621391.1
355619666.7
355617769.7
355615886.2
355614373
355613541.7
355613405.1
355613764.3
355614610.9
355615997
355617803.3
355619818
355621709.5
355623164.7
355624138.3
355624739.7
355625089.9
355625282.2
355625361.7
355625334.2
355625190
355624860.4
355624258.8
355623326
355622037.9
355620437.4
355618678.7
355617116.4
355616196.5
355616074
355616544.3
355617542.3
355619120.5
355621195.6
355623526.3
355625705.6
355627330.7
355628316.7
355628834.8
355629106.7
355629208.9
355629155.5
355628989.6
355628719.6
355628339.3
355627789.7
355626988.8
355625864.1
355624393
355622632.2
355620777.9
355619226.5
355618360.3
355618239.3
355618611.4
355619356.3
355620475.1
355621813.3
355623058.6
355623890.3
355624262.4
355624338
355624284.4
355624212.8
355624222.1
355624384.5
355624713.9
355625141.7
355625493
355625572.3
355625365.8
355624886.3
355624102.5
355623126.5
355622251.2
355621813.6
355621844.2
355622134.1
355622550.1
355622861.6
355622854.9
355622394.7
355621336.2
355619665
355617551.6
355615448.8
355614095.9
355613930.4
355614680
355616143.9
355618341.7
355621143.2
355624145.2
355626729.5
355628507
355629606.3
355630353.2
355630993.9
355631621.4
355632266.6
355632884.7
355633325.3
355633396.5
355632938
355631796.6
355629895
355627372.8
355624693.3
355622741.7
355622197.3
355622836.8
355624301.7
355626637.7
355629695.9
355632921.8
355635518.2
355637015.7
355637624.3
355637792.1
355637800.9
355637775.3
355637848.9
355638034
355638194.2
355638120.7
355637624.1
355636515.5
355634673.6
355632164.4
355629379.2
355627145.4
355626219.9
355626438.5
355627404.4
355629097.4
355631149.2
355632708.8
355633065.8
355632397.2
355630815
355628256
355625161.4
355622601.5
355621688.3
355622308.9
355624093.6
355627154.3
355631248.5
355635679.4
355639324.1
355641438.3
355642307.9
355642624.1
355642758.6
355642981.2
355643621.5
355644789.1
355646406.7
355648123.7
355649225.3
355649310.6
355648304.5
355645953.2
355642278.2
355637777.4
355633643
355631475.7
355631719.9
355633599
355636953.6
355641747.3
355647338.7
355652390.1
355655537.3
355656777.4
355656895.9
355656180.2
355654747.4
355653212.7
355652518
355652992.2
355654137.9
355655541.9
355656702.9
355657026.2
355656188.1
355653951.7
355650267.8
355645570.1
355641006.7
355638320.2
355638239.5
355639970.7
355643178.3
355647821.6
355653084.5
355657397.4
355659563.8
355660034.9
355659656.8
355658718.7
355657831.5
355657980
355659220.3
355661421.9
355664156.8
355666049.7
355666073.4
355664422.2
355660926.1
355655536.2
355649022.6
355643186.8
355640229.6
355640389.8
355642727
355647328.2
355653752.7
355660423.9
355665077.4
355666640.7
355666096.7
355664333.7
355661380.4
355658146.7
355656453.1
355656942.7
355658874.6
355661772.3
355664215.5
355664736.7
355663216.6
355659402.2
355653272.3
355646015
355639903.4
355637464.1
355638923.4
355643180.2
355650095.6
355658917
355667500
355673181.3
355675841.3
355676508.5
355675427.9
355673177.7
355671525.5
355672491.7
355676260.9
355682004.6
355688551.7
355693724.6
355696200.6
355695880.5
355692531.6
355686341.1
355678980.3
355673761.7
355673596.3
355678175.3
355686473.2
355697614.6
355709687.3
355719696.7
355726153.8
355729905.6
355731106.4
355729185.7
355724615.8
355720198.9
355719626.4
355723769
355731611.5
355740780.1
355747525.7
355749834
355748184.9
355743342.1
355735587.9
355726070.9
355716913.1
355711881
355712653.6
355719022.1
355729828.4
355741834
355751232.7
355756445.6
355758748.8
355758260.5
355753763.1
355745858
355736780.1
355731634.5
355733081.9
355739953.2
355750399
355758795.7
355762160.2
355759966.2
355752317.4
355740046.3
355729272.8
355724319.3
355725059
355731868
355744524
355761827.5
355782332.7
355801370.6
355817048.4
355829079.9
355836252.9
355835072.9
355832338.6
355841734.5
355859656.3
355883343.3
355910653.1
355937727.9
355960821.2
355984856.5
356017136.6
356043267.8
356055123.2
356055182.4
356055059.3
356080894.5
356148172
356223140.1
356292677.9
356353042.4
356404506
356463719.7
356550728.2
356641088.1
356709634.2
356753884.4
356803017.1
356885327.8
357013283.7
357172368.6
357328692.1
357473311.6
357598692.3
357701427.9
357794344.2
357903620.4
358048186.2
358206854.2
358341680.6
358438343
358514061.2
358595114.1
358701627.5
358842193.3
359010705.6
359214638.1
359556955.3
360365569.3
362053063
363759026.6
360972488.3
342957570.3
296264689
221327232.9
141712879.2
81165014.18
43507829.37
22451235.51
11350437.65
5679353.768
2828798.123
1407684.241
702100.1045
352486.5848
179426.8928
93802.97992
51448.78641
30500.18808
20139.27305
15014.91399
12480.44935
11226.89908
10606.87572
10300.19516
10148.49815
10073.46021
10036.34104
10017.97864
10008.89469
10004.40068
10002.17732
10001.07731
10000.53306
10000.26377
10000.13052
10000.06459
10000.03196
10000.01582
10000.00783
10000.00387
10000.00192
10000.00095
10000.00047
10000.00023
10000.00011
10000.00006
10000.00003
10000.00001
10000.00001
10000
10000
10000
10000
10000
10000
10000
10000
10000
10000
10000
10000
10000
10000
10000
10000
10000
10000
10000
10000
10000
10000
10000
10000
10000
10000
10000
10000
10000
10000
10000
10000
10000
10000
10000
10000
10000
10000
10000
10000
10000
10000
10000
10000
10000
10000
10000
10000
10000
10000
10000
10000
10000
10000
10000
10000
10000
10000
10000
10000
10000
10000
10000
10000
10000
10000
10000
10000
10000
10000
10000
10000
10000
10000
10000
10000
10000
10000
10000
10000
10000
10000
10000
10000
10000
10000
10000
10000
10000
10000
10000
10000
10000
10000
10000
10000
10000
10000
10000
10000
10000
10000
10000
10000
10000
10000
10000
10000
10000
10000
10000
10000
10000
10000
10000
10000
10000
10000
10000
10000
10000
10000
10000
10000
10000
10000
10000
10000
10000
10000
10000
10000
10000
10000
10000
10000
10000
10000
10000
10000
10000
10000
10000
10000
10000
10000
10000
10000
10000
10000
10000
10000
10000
10000
10000
10000
10000
10000
10000
10000
10000
10000
10000
10000
10000
10000
10000
10000
10000
10000
10000
10000
10000
10000
10000
10000
10000
10000
10000
10000
10000
10000
10000
10000
10000
10000
10000
10000
10000
10000
10000
10000
10000
10000
10000
10000
10000
10000
10000
10000
10000
10000
10000
10000
10000
10000
10000
10000
10000
10000
10000
10000
10000
10000
10000
10000
10000
10000
10000
10000
10000
10000
10000
10000
10000
10000
10000
10000
10000
10000
10000
10000
10000
10000
10000
10000
10000
10000
10000
10000
10000
10000
10000
10000
10000
10000
10000
10000
10000
10000
10000
10000
10000
10000
10000
10000
10000
10000
10000
10000
10000
10000
10000
10000
10000
10000
10000
10000
10000
10000
10000
10000
10000
10000
10000
10000
10000
10000
10000
10000
10000
10000
10000
10000
10000
10000
10000
10000
10000
10000
10000
10000
10000
10000
10000
10000
10000
10000
10000
10000
10000
10000
10000
10000
10000
10000
10000
10000
10000
10000
10000
10000
10000
10000
10000
10000
10000
10000
10000
10000
10000
10000
10000
10000
10000
10000
10000
10000
10000
10000
10000
10000
10000
10000
10000
10000
10000
10000
10000
10000
10000
10000
10000
10000
10000
10000
10000
10000
10000
10000
10000
10000
10000
10000
10000
10000
10000
10000
10000
10000
10000
10000
10000
10000
10000
10000
10000
10000
10000
10000
10000
10000
10000
10000
10000
10000
10000
10000
10000
10000
10000
10000
10000
10000
10000
10000
10000
10000
10000
10000
10000
10000
10000
10000
10000
10000
10000
10000
10000
10000
10000
10000
10000
10000
10000
10000
10000
10000
10000
10000
10000
10000
10000
10000
10000
10000
10000
10000
10000
10000
10000
10000
10000
10000
10000
10000
10000
10000
10000
10000
10000
10000
10000
10000
10000
10000
10000
10000
10000
10000
10000
10000
10000
10000
10000
10000
10000
10000
10000
10000
10000
10000
10000
10000
10000
10000
10000
10000
10000
10000
10000
10000
10000
10000
10000
10000
10000
10000
10000
10000
10000
10000
10000
10000
10000
10000
10000
10000
10000
10000
10000
10000
10000
10000
10000
10000
10000
10000
10000
10000
10000
10000
10000
10000
10000
10000
10000
10000
10000
10000
10000
10000
10000
10000
10000
10000
10000
10000
10000
10000
10000
10000
10000
10000
10000
10000
10000
10000
10000
10000
10000
10000
10000
10000
10000
10000
10000
10000
10000
10000
10000
10000
10000
10000
10000
10000
10000
10000
10000
10000
10000
10000
10000
10000
10000
10000
10000
10000
10000
10000
10000
10000
10000
10000
10000
10000
10000
10000
10000
10000
10000
10000
10000
10000
10000
10000
10000
10000
10000
10000
10000
10000
10000
10000
10000
10000
10000
10000
10000
10000
10000
10000
10000
10000
10000
10000
10000
10000
10000
10000
10000
10000
10000
10000
10000
10000
10000
10000
10000
10000
10000
10000
10000
10000
10000
10000
10000
10000
10000
10000
10000
10000
10000
10000
10000
10000
10000
10000
10000
10000
10000
10000
10000
10000
10000
10000
10000
10000
10000
10000
10000
10000
10000
10000
10000
10000
10000
10000
10000
10000
10000
10000
10000
10000
10000
10000
10000
10000
10000
10000
10000
10000
10000
10000
10000
10000
10000
10000
10000
10000
10000
10000
10000
10000
10000
10000
10000
10000
10000
10000
10000
10000
10000
10000
10000
10000
10000
10000
10000
10000
10000
10000
10000
10000
10000
10000
10000
10000
10000
10000
10000
10000
10000
10000
10000
10000
10000
10000
10000
10000
10000
10000
10000
10000
10000
10000
10000
10000
10000
10000
10000
10000
10000
10000
10000
10000
10000
10000
10000
10000
10000
10000
10000
10000
10000
10000
10000
10000
10000
10000
10000
10000
10000
10000
10000
10000
10000
10000
10000
10000
10000
10000
10000
10000
10000
10000
10000
10000
10000
10000
10000
10000
10000
10000
10000
10000
10000
10000
10000
10000
10000
10000
10000
10000
10000
10000
10000
10000
10000
10000
10000
10000
10000
10000
10000
10000
10000
10000
10000
10000
10000
10000
10000
10000
10000
10000
10000
10000
10000
10000
10000
10000
10000
10000
10000
10000
10000
10000
10000
10000
10000
10000
10000
10000
10000
10000
10000
10000
10000
10000
10000
10000
10000
10000
10000
10000
10000
10000
10000
10000
10000
10000
10000
10000
10000
10000
10000
10000
10000
10000
10000
10000
10000
10000
10000
10000
10000
10000
10000
10000
10000
10000
10000
10000
10000
10000
10000
10000
10000
10000
10000
10000
10000
10000
10000
10000
10000
10000
10000
10000
10000
10000
10000
10000
10000
10000
10000
10000
10000
10000
10000
10000
10000
10000
10000
10000
10000
10000
10000
10000
10000
10000
10000
10000
10000
10000
10000
10000
10000
10000
10000
10000
10000
10000
10000
10000
10000
10000
10000
10000
10000
10000
10000
10000
10000
10000
10000
10000
10000
10000
10000
10000
10000
10000
10000
10000
10000
10000
10000
10000
10000
10000
10000
10000
10000
10000
10000
10000
10000
10000
10000
10000
10000
10000
10000
10000
10000
10000
10000
10000
10000
10000
10000
10000
10000
10000
10000
10000
10000
10000
10000
10000
10000
10000
10000
10000
10000
10000
10000
10000
10000
10000
10000
10000
10000
10000
10000
10000
10000
10000
10000
10000
10000
10000
10000
10000
10000
10000
10000
10000
10000
10000
10000
10000
10000
10000
10000
10000
10000
10000
10000
10000
10000
10000
10000
10000
10000
10000
10000
10000
10000
10000
10000
10000
10000
10000
10000
10000
10000
10000
10000
10000
10000
10000
10000
10000
10000
10000
10000
10000
10000
10000
10000
10000
10000
10000
10000
10000
10000
10000
10000
10000
10000
10000
10000
10000
10000
10000
10000
10000
10000
10000
10000
10000
10000
10000
10000
10000
10000
10000
10000
10000
10000
10000
10000
10000
10000
10000
10000
10000
10000
10000
10000
10000
10000
10000
10000
10000
10000
10000
10000
10000
10000
10000
10000
10000
10000
10000
10000
10000
10000
10000
10000
10000
10000
10000
10000
10000
10000
10000
10000
10000
10000
10000
10000
10000
10000
10000
10000
10000
10000
10000
10000
10000
10000
10000
10000
10000
10000
10000
10000
10000
10000
10000
10000
10000
10000
10000
10000
10000
10000
10000
10000
10000
10000
10000
10000
10000
10000
10000
10000
10000
10000
10000
10000
10000
10000
10000
10000
10000
10000
10000
10000
10000
10000
10000
10000
10000
10000
10000
10000
10000
10000
10000
10000
10000
10000
10000
10000
10000
10000
10000
10000
10000
10000
10000
10000
10000
10000
10000
10000
10000
10000
10000
10000
10000
10000
10000
10000
10000
10000
10000
10000
10000
10000
10000
10000
10000
10000
10000
10000
10000
10000
10000
10000
10000
10000
10000
10000
10000
10000
10000
10000
10000
10000
10000
10000
10000
10000
10000
10000
10000
10000
10000
10000
10000
10000
10000
10000
10000
10000
10000
10000
10000
10000
10000
10000
10000
10000
10000
10000
10000
10000
10000
10000
10000
10000
10000
10000
10000
10000
10000
10000
10000
10000
10000
10000
10000
10000
10000
10000
10000
10000
10000
10000
10000
10000
10000
10000
10000
10000
10000
10000
10000
10000
10000
10000
10000
10000
10000
10000
10000
10000
10000
10000
10000
10000
10000
10000
10000
10000
10000
10000
10000
10000
10000
10000
10000
10000
10000
10000
10000
10000
10000
10000
10000
10000
10000
10000
10000
10000
10000
10000
10000
10000
10000
10000
10000
10000
10000
10000
10000
10000
10000
10000
10000
10000
10000
10000
10000
10000
10000
10000
10000
10000
10000
10000
10000
10000
10000
10000
10000
10000
10000
10000
10000
10000
10000
10000
10000
10000
10000
10000
10000
10000
10000
10000
10000
10000
10000
10000
10000
10000
10000
10000
10000
10000
10000
10000
10000
10000
10000
10000
10000
10000
10000
10000
10000
10000
10000
10000
10000
10000
10000
10000
10000
10000
10000
10000
10000
10000
10000
10000
10000
10000
10000
10000
10000
10000
10000
10000
10000
10000
10000
10000
10000
10000
10000
10000
10000
10000
10000
10000
10000
10000
10000
10000
10000
10000
10000
10000
10000
10000
10000
10000
10000
10000
10000
10000
10000
10000
10000
10000
10000
10000
10000
10000
10000
10000
10000
10000
10000
10000
10000
10000
10000
10000
10000
10000
10000
10000
10000
10000
10000
10000
10000
10000
10000
10000
10000
10000
10000
10000
10000
10000
10000
10000
10000
10000
10000
10000
10000
10000
10000
10000
10000
10000
10000
10000
10000
10000
10000
10000
10000
10000
10000
10000
10000
10000
10000
10000
10000
10000
10000
10000
10000
10000
10000
10000
10000
10000
10000
10000
10000
10000
10000
10000
10000
10000
10000
10000
10000
10000
10000
10000
10000
10000
10000
10000
10000
10000
10000
10000
10000
10000
10000
10000
10000
10000
10000
10000
10000
10000
10000
10000
10000
10000
10000
10000
10000
10000
10000
10000
10000
10000
10000
10000
10000
10000
10000
10000
10000
10000
10000
10000
10000
10000
10000
10000
10000
10000
10000
10000
10000
10000
10000
10000
10000
10000
10000
10000
10000
10000
10000
10000
10000
10000
10000
10000
10000
10000
10000
10000
10000
10000
10000
10000
10000
10000
10000
10000
10000
10000
10000
10000
10000
10000
10000
10000
10000
10000
10000
10000
10000
10000
10000
10000
10000
10000
10000
10000
10000
10000
10000
10000
10000
10000
10000
10000
10000
10000
10000
10000
10000
10000
10000
10000
10000
10000
10000
10000
10000
10000
10000
10000
10000
10000
10000
10000
10000
10000
10000
10000
10000
10000
10000
10000
10000
10000
10000
10000
10000
10000
10000
10000
10000
10000
10000
10000
10000
10000
10000
10000
10000
10000
10000
10000
10000
10000
10000
10000
10000
10000
10000
10000
10000
10000
10000
10000
10000
10000
10000
10000
10000
10000
10000
10000
10000
10000
10000
10000
10000
10000
10000
10000
10000
10000
10000
10000
10000
10000
10000
10000
10000
10000
10000
10000
10000
10000
10000
10000
10000
10000
10000
10000
10000
10000
10000
10000
10000
10000
10000
10000
10000
10000
10000
10000
10000
10000
10000
10000
10000
10000
10000
10000
10000
10000
10000
10000
10000
10000
10000
10000
10000
10000
10000
10000
10000
10000
10000
10000
10000
10000
10000
10000
10000
10000
10000
10000
10000
10000
10000
10000
10000
10000
10000
10000
10000
10000
10000
10000
10000
10000
10000
10000
10000
10000
10000
10000
10000
10000
10000
10000
10000
10000
10000
10000
10000
10000
10000
10000
10000
10000
10000
10000
10000
10000
10000
10000
10000
10000
10000
10000
10000
10000
10000
10000
10000
10000
10000
10000
10000
10000
10000
10000
10000
10000
10000
10000
10000
10000
10000
10000
10000
10000
10000
10000
10000
10000
10000
10000
10000
10000
10000
10000
10000
10000
10000
10000
10000
10000
10000
10000
10000
10000
10000
10000
10000
10000
10000
10000
10000
10000
10000
10000
10000
10000
10000
10000
10000
10000
10000
10000
10000
10000
10000
10000
10000
10000
10000
10000
10000
10000
10000
10000
10000
10000
10000
10000
10000
10000
10000
10000
10000
10000
10000
10000
10000
10000
10000
10000
10000
10000
10000
10000
10000
10000
10000
10000
10000
10000
10000
10000
10000
10000
10000
10000
10000
10000
10000
10000
10000
10000
10000
10000
10000
10000
10000
10000
10000
10000
10000
10000
10000
10000
10000
10000
10000
10000
10000
10000
10000
10000
10000
10000
10000
10000
10000
10000
10000
10000
10000
10000
10000
10000
10000
10000
10000
10000
10000
10000
10000
10000
10000
10000
10000
10000
10000
10000
10000
10000
10000
10000
10000
10000
10000
10000
10000
10000
10000
10000
10000
10000
10000
10000
10000
10000
10000
10000
10000
10000
10000
10000
10000
10000
10000
10000
10000
10000
10000
10000
10000
10000
10000
10000
10000
10000
10000
10000
10000
10000
10000
10000
10000
10000
10000
10000
10000
10000
10000
10000
10000
10000
10000
10000
10000
10000
10000
10000
10000
10000
10000
10000
10000
10000
10000
10000
10000
10000
10000
10000
10000
10000
10000
10000
10000
10000
10000
10000
10000
10000
10000
10000
10000
10000
10000
10000
10000
10000
10000
10000
10000
10000
10000
10000
10000
10000
10000
10000
10000
10000
10000
10000
10000
10000
10000
10000
10000
10000
10000
10000
10000
10000
10000
10000
10000
10000
10000
10000
10000
10000
10000
10000
10000
10000
10000
10000
10000
10000
10000
10000
10000
10000
10000
10000
10000
10000
10000
10000
10000
10000
10000
10000
10000
10000
10000
10000
10000
10000
10000
10000
10000
10000
10000
10000
10000
10000
10000
10000
10000
10000
10000
10000
10000
10000
10000
10000
10000
10000
10000
10000
10000
10000
10000
10000
10000
10000
10000
10000
10000
10000
10000
10000
10000
10000
10000
10000
10000
10000
10000
10000
10000
10000
10000
10000
10000
10000
10000
10000
10000
10000
10000
10000
10000
10000
10000
10000
10000
10000
10000
10000
10000
10000
10000
10000
10000
10000
10000
10000
10000
10000
10000
10000
10000
10000
10000
10000
10000
10000
10000
10000
10000
10000
10000
10000
10000
10000
10000
10000
10000
10000
10000
10000
10000
10000
10000
10000
10000
10000
10000
10000
10000
10000
10000
10000
10000
10000
10000
10000
10000
10000
10000
10000
10000
10000
10000
10000
10000
10000
10000
10000
10000
10000
10000
10000
10000
10000
10000
10000
10000
10000
10000
10000
10000
10000
10000
10000
10000
10000
10000
10000
10000
10000
10000
10000
10000
10000
10000
10000
10000
10000
10000
10000
10000
10000
10000
10000
10000
10000
10000
10000
10000
10000
10000
10000
10000
10000
10000
10000
10000
10000
10000
10000
10000
10000
10000
10000
10000
10000
10000
10000
10000
10000
10000
10000
10000
10000
10000
10000
10000
10000
10000
10000
10000
10000
10000
10000
10000
10000
10000
10000
10000
10000
10000
10000
10000
10000
10000
10000
10000
10000
10000
10000
10000
10000
10000
10000
10000
10000
10000
10000
10000
10000
10000
10000
10000
10000
10000
10000
10000
10000
10000
10000
10000
10000
10000
10000
10000
10000
10000
10000
10000
10000
10000
10000
10000
10000
10000
10000
10000
10000
10000
10000
10000
10000
10000
10000
10000
10000
10000
10000
10000
10000
10000
10000
10000
10000
10000
10000
10000
10000
10000
10000
10000
10000
10000
10000
10000
10000
10000
10000
10000
10000
10000
10000
10000
10000
10000
10000
10000
10000
10000
10000
10000
10000
10000
10000
10000
10000
10000
10000
10000
10000
10000
10000
10000
10000
10000
10000
10000
10000
10000
10000
10000
10000
10000
10000
10000
10000
10000
10000
10000
10000
10000
10000
10000
10000
10000
10000
10000
10000
10000
10000
10000
10000
10000
10000
10000
10000
10000
10000
10000
10000
10000
10000
10000
10000
10000
10000
10000
10000
10000
10000
10000
10000
10000
10000
10000
10000
10000
10000
10000
10000
10000
10000
10000
10000
10000
10000
10000
10000
10000
10000
10000
10000
10000
10000
10000
10000
10000
10000
10000
10000
10000
10000
10000
10000
10000
10000
10000
10000
10000
10000
10000
10000
10000
10000
10000
10000
10000
10000
10000
10000
10000
10000
10000
10000
10000
10000
10000
10000
10000
10000
10000
10000
10000
10000
10000
10000
10000
10000
10000
10000
10000
10000
10000
10000
10000
10000
10000
10000
10000
10000
10000
10000
10000
10000
10000
10000
10000
10000
10000
10000
10000
10000
10000
10000
10000
10000
10000
10000
10000
10000
10000
10000
10000
10000
10000
10000
10000
10000
10000
10000
10000
10000
10000
10000
10000
10000
10000
10000
10000
10000
10000
10000
10000
10000
10000
10000
10000
10000
10000
10000
10000
10000
10000
10000
10000
10000
10000
10000
10000
10000
10000
10000
10000
10000
10000
10000
10000
10000
10000
10000
10000
10000
10000
10000
10000
10000
10000
10000
10000
10000
10000
10000
10000
10000
10000
10000
10000
10000
10000
10000
10000
10000
10000
10000
10000
10000
10000
10000
10000
10000
10000
10000
10000
10000
10000
10000
10000
10000
10000
10000
10000
10000
10000
10000
10000
10000
10000
10000
10000
10000
10000
10000
10000
10000
10000
10000
10000
10000
10000
10000
10000
10000
10000
10000
10000
10000
10000
10000
10000
10000
10000
10000
10000
10000
10000
10000
10000
10000
10000
10000
10000
10000
10000
10000
10000
10000
10000
10000
10000
10000
10000
10000
10000
10000
10000
10000
10000
10000
10000
10000
10000
10000
10000
10000
10000
10000
10000
10000
10000
10000
10000
10000
10000
10000
10000
10000
10000
10000
10000
10000
10000
10000
10000
10000
10000
10000
10000
10000
10000
10000
10000
10000
10000
10000
10000
10000
10000
10000
10000
10000
10000
10000
10000
10000
10000
10000
10000
10000
10000
10000
10000
10000
10000
10000
10000
10000
10000
10000
10000
10000
10000
10000
10000
10000
10000
10000
10000
10000
10000
10000
10000
10000
10000
10000
10000
10000
10000
10000
10000
10000
10000
10000
10000
10000
10000
10000
10000
10000
10000
10000
10000
10000
10000
10000
10000
10000
10000
10000
10000
10000
10000
10000
10000
10000
10000
10000
10000
10000
10000
10000
10000
10000
10000
10000
10000
10000
10000
10000
10000
10000
10000
10000
10000
10000
10000
10000
10000
10000
10000
10000
10000
10000
10000
10000
10000
10000
10000
10000
10000
10000
10000
10000
10000
10000
10000
10000
10000
10000
10000
10000
10000
10000
10000
10000
10000
10000
10000
10000
10000
10000
10000
10000
10000
10000
10000
10000
10000
10000
10000
10000
10000
10000
10000
10000
10000
10000
10000
10000
10000
10000
10000
10000
10000
10000
10000
10000
10000
10000
10000
10000
10000
10000
10000
10000
10000
10000
10000
10000
10000
10000
10000
10000
10000
10000
10000
10000
10000
10000
10000
10000
10000
10000
10000
10000
10000
10000
10000
10000
10000
10000
10000
10000
10000
10000
10000
10000
10000
10000
10000
10000
10000
10000
10000
10000
10000
10000
10000
10000
10000
10000
10000
10000
10000
10000
10000
10000
10000
10000
10000
10000
10000
10000
10000
10000
10000
10000
10000
10000
10000
10000
10000
10000
10000
10000
10000
10000
10000
10000
10000
10000
10000
10000
10000
10000
10000
10000
10000
10000
10000
10000
10000
10000
10000
10000
10000
10000
10000
10000
10000
10000
10000
10000
10000
10000
10000
10000
10000
10000
10000
10000
10000
10000
10000
10000
10000
10000
10000
10000
10000
10000
10000
10000
10000
10000
10000
10000
10000
10000
10000
10000
10000
10000
10000
10000
10000
10000
10000
10000
10000
10000
10000
10000
10000
10000
10000
10000
10000
10000
10000
10000
10000
10000
10000
10000
10000
10000
10000
10000
10000
10000
10000
10000
10000
10000
10000
10000
10000
10000
10000
10000
10000
10000
10000
10000
10000
10000
10000
10000
10000
10000
10000
10000
10000
10000
10000
10000
10000
10000
10000
10000
10000
10000
10000
10000
10000
10000
10000
10000
10000
10000
10000
10000
10000
10000
10000
10000
10000