/*--------------------------------*- C++ -*----------------------------------*\
| =========                 |                                                 |
| \\      /  F ield         | OpenFOAM: The Open Source CFD Toolbox           |
|  \\    /   O peration     | Version:  2312                                  |
|   \\  /    A nd           | Website:  www.openfoam.com                      |
|    \\/     M anipulation  |                                                 |
\*---------------------------------------------------------------------------*/
FoamFile
{
    version     2.0;
    format      ascii;
    arch        "LSB;label=32;scalar=64";
    class       surfaceScalarField;
    location    "0.0008";
    object      phi;
}
// * * * * * * * * * * * * * * * * * * * * * * * * * * * * * * * * * * * * * //

dimensions      [0 3 -1 0 0 0 0];

oriented        oriented;

internalField   nonuniform List<scalar> 
4999
(
2.854868758e-16
2.997810633e-17
-4.787356475e-17
8.601194883e-17
3.458132268e-16
5.062384952e-16
9.211952914e-16
1.599784554e-15
1.095659663e-15
7.27424864e-16
1.164856437e-15
1.545052887e-15
2.017451357e-15
1.684407074e-15
1.792999718e-15
1.390826148e-15
6.878164628e-16
6.351070352e-16
2.230748903e-16
6.92499131e-16
1.091341333e-15
1.496385308e-15
1.709622426e-15
1.779127443e-15
1.64810128e-15
2.126406394e-15
1.688565436e-15
1.112372668e-15
1.202632801e-15
1.082906042e-15
6.914700291e-16
2.922670007e-16
-1.558387092e-16
-2.247162332e-16
-6.907985865e-16
-3.096545349e-16
1.451036984e-16
-2.788898224e-16
6.562627894e-17
2.636449243e-16
7.40270821e-16
9.936266986e-16
1.424042952e-15
1.486062385e-15
2.125484988e-15
1.75794127e-15
1.815859773e-15
1.730638592e-15
9.425237145e-16
4.201096947e-16
9.869423844e-16
1.305715234e-15
9.551477057e-16
4.273553315e-16
-1.558324451e-17
-7.491295139e-17
-4.772134986e-16
-5.646557375e-17
-4.231659704e-16
4.940611233e-17
3.742076333e-16
1.229790905e-15
2.617498724e-15
4.846692686e-15
9.525034026e-15
1.966097522e-14
4.378500036e-14
9.965490807e-14
2.240485831e-13
5.003831628e-13
1.109124556e-12
2.438323575e-12
5.309792639e-12
1.145208688e-11
2.445765709e-11
5.171355238e-11
1.082385268e-10
2.242179945e-10
4.596148641e-10
9.321108172e-10
1.869829322e-09
3.709407017e-09
7.27573955e-09
1.4106415e-08
2.702797542e-08
5.116247852e-08
9.565491871e-08
1.765830499e-07
3.217628802e-07
5.785185324e-07
1.02596147e-06
1.793919561e-06
3.091328578e-06
5.247531949e-06
8.770299947e-06
1.442409605e-05
2.333063909e-05
3.709047337e-05
5.79184645e-05
8.877769511e-05
0.0001334858954
0.000196758583
0.0002841475911
0.0004018379873
0.0005562852433
0.0007537088516
0.0009995023456
0.001297659027
0.001650329863
0.002057611713
0.002517610337
0.003026749684
0.00358023175
0.004172522392
0.004797948107
0.005451304484
0.006128089553
0.00682451291
0.007537425928
0.008264230444
0.009002788448
0.009751341269
0.01050844082
0.01127289319
0.0120437145
0.01282009792
0.01360135238
0.01438685857
0.01517611002
0.01596868224
0.01676421273
0.01756239051
0.01836294713
0.01916564963
0.01997029488
0.02077670502
0.02158472363
0.02239421264
0.0232050497
0.02401712607
0.02483034505
0.02564462144
0.02645988073
0.02727604985
0.02809306268
0.02891086225
0.02972939645
0.03054861792
0.03136848365
0.03218895436
0.03300999418
0.03383157026
0.03465365252
0.03547621339
0.03629922758
0.03712267191
0.03794652507
0.03877076742
0.03959538067
0.04042034734
0.04124565006
0.04207127041
0.0428971879
0.04372338016
0.0445498259
0.04537651024
0.04620342733
0.04703057734
0.0478579754
0.04868570613
0.04951399505
0.05034313309
0.05117315465
0.05200361682
0.05283397998
0.05366422992
0.05449462522
0.055325457
0.05615658224
0.05698767955
0.05781893591
0.05865069213
0.0594829133
0.06031487654
0.06114701068
0.06197860808
0.06280963293
0.06363960229
0.06446874436
0.06529885306
0.06612973961
0.06695971976
0.06778846385
0.06861775999
0.06944697521
0.0702753733
0.07110356114
0.07193226217
0.07275971585
0.07358711696
0.07441526576
0.07524476715
0.07607188891
0.07689841887
0.07772605234
0.07855531306
0.07938236888
0.08020872634
0.08103574397
0.08186161298
0.08268735946
0.08351253738
0.08433506524
0.08515572789
0.08597428756
0.08678806109
0.08759434001
0.08839166424
0.08917530029
0.08994052052
0.09068250046
0.09139435469
0.09206863559
0.09269941364
0.09327860617
0.09379887069
0.094256716
0.09464766185
0.09497005294
0.09522814371
0.09542446582
0.09556457728
0.09565842936
0.09571147581
0.09573180177
0.0957288063
0.09569941035
0.09564985256
0.09559786716
0.09555439573
0.09551991911
0.09549299181
0.09547191619
0.09545563122
0.09544283063
0.09543310244
0.09542599466
0.09542038386
0.09541625045
0.09541257843
0.09540950435
0.09540694949
0.09540429756
0.09540166234
0.09539922044
0.0953969988
0.0953949959
0.09539368994
0.09539286449
0.09539271987
0.09539291276
0.09539317448
0.09539339625
0.09539345749
0.09539338348
0.09539331721
0.09539328332
0.09539329957
0.09539340303
0.09539355653
0.09539372841
0.09539389278
0.09539402464
0.09539408629
0.09539408137
0.09539403549
0.09539394783
0.0953938273
0.09539373601
0.09539370677
0.09539374147
0.09539383307
0.09539396543
0.0953941495
0.09539432179
0.09539442199
0.09539443248
0.09539436781
0.09539423575
0.09539404516
0.09539385223
0.09539370102
0.09539359882
0.09539355958
0.09539357571
0.09539363888
0.09539375385
0.09539389392
0.09539405403
0.095394225
0.0953943567
0.09539440649
0.0953943875
0.09539435374
0.095394302
0.09539426191
0.09539425378
0.09539426966
0.09539430998
0.09539439315
0.0953945074
0.0953946628
0.09539486558
0.09539504096
0.09539514319
0.09539521843
0.09539529457
0.09539540078
0.09539549624
0.09539557318
0.09539560876
0.09539564418
0.09539570558
0.09539581566
0.0953960427
0.09539644364
0.09539691234
0.09539725908
0.09539741903
0.09539749936
0.09539760782
0.09539790444
0.09539869234
0.09540048573
0.09540377504
0.09540908147
0.09541652742
0.09542622115
0.09543754922
0.09544941916
0.09546220192
0.09547340689
0.09548217592
0.09548938148
0.09548614193
0.09548573138
0.09547547856
0.09546705938
0.09546496223
0.09540362473
0.09540909119
0.09541432163
0.09541896231
0.09542211123
0.09542339938
0.09542370556
0.09542387597
0.09542428709
0.09542478243
0.09542515579
0.09542538549
0.09542558621
0.09542582826
0.09542607361
0.09542625094
0.0954263242
0.09542633392
0.09542636534
0.0954264254
0.0954264846
0.09542651131
0.09542646202
0.0954263841
0.09542627272
0.09542611245
0.09542588419
0.09542558346
0.09542522348
0.09542482844
0.09542442915
0.09542406775
0.09542377764
0.09542356838
0.09542344083
0.09542338922
0.09542339279
0.09542343251
0.09542351104
0.0954236367
0.09542381547
0.09542404846
0.09542433143
0.0954246537
0.09542499485
0.09542531419
0.09542556142
0.09542570934
0.09542576037
0.09542574578
0.09542568016
0.09542556138
0.09542539632
0.09542520765
0.09542502741
0.09542488549
0.09542478551
0.09542471585
0.09542466643
0.09542463128
0.09542461078
0.09542460912
0.0954246273
0.09542466832
0.09542473873
0.09542484755
0.09542500107
0.0954251987
0.09542543366
0.09542569276
0.09542595802
0.09542620847
0.09542643521
0.09542664716
0.09542685517
0.09542706454
0.09542727452
0.09542747199
0.09542762648
0.09542770318
0.09542769556
0.09542761801
0.09542745842
0.09542720455
0.09542686368
0.09542645497
0.09542601537
0.09542560556
0.09542528312
0.09542506267
0.09542493269
0.09542487157
0.09542485438
0.09542486725
0.09542491481
0.09542500412
0.09542514047
0.09542533236
0.09542558599
0.09542590376
0.09542628042
0.0954267002
0.09542713224
0.09542752554
0.09542784035
0.09542807161
0.09542823387
0.09542834977
0.09542844162
0.0954285191
0.09542858007
0.09542861328
0.09542860705
0.09542854767
0.09542840694
0.09542815723
0.09542778564
0.09542729455
0.09542670772
0.09542607565
0.09542549308
0.09542506164
0.09542482056
0.09542475357
0.09542479682
0.09542490092
0.09542506797
0.09542529215
0.09542555279
0.09542583149
0.09542612103
0.09542642908
0.09542677128
0.09542715985
0.09542759409
0.09542805039
0.09542846146
0.09542873669
0.09542882963
0.0954287763
0.09542861357
0.09542832363
0.09542791515
0.09542742858
0.09542692799
0.09542650087
0.09542619411
0.09542599294
0.09542586702
0.09542578949
0.09542574303
0.09542572377
0.09542573229
0.09542577742
0.09542587949
0.09542605747
0.09542632244
0.09542667417
0.09542709152
0.09542751741
0.09542784538
0.09542799016
0.09542796766
0.0954278282
0.0954275639
0.09542717448
0.09542669897
0.09542621442
0.09542582995
0.09542560936
0.09542553699
0.09542555566
0.09542562393
0.09542573413
0.09542587835
0.09542604945
0.09542624541
0.09542647258
0.09542674859
0.09542709176
0.09542751342
0.09542800934
0.09542855154
0.09542906718
0.09542944897
0.09542963598
0.09542965784
0.09542957367
0.09542939097
0.09542912167
0.09542882449
0.09542858384
0.09542845094
0.09542840392
0.09542839934
0.0954284036
0.09542839451
0.09542834995
0.09542826128
0.09542813494
0.09542800125
0.09542791253
0.0954279005
0.09542795591
0.09542808553
0.0954282848
0.09542850577
0.0954286646
0.09542870609
0.09542866749
0.09542859345
0.09542852326
0.09542852028
0.09542862187
0.09542886075
0.0954292618
0.09542980552
0.09543042362
0.09543096378
0.09543125615
0.095431284
0.09543113562
0.09543082509
0.09543035479
0.09542978705
0.09542924927
0.09542888236
0.09542871391
0.09542867753
0.09542869446
0.09542872404
0.09542875286
0.09542878056
0.09542883216
0.09542894984
0.09542917601
0.09542954504
0.09543009182
0.09543080706
0.09543162549
0.09543237877
0.09543284415
0.09543295796
0.09543283173
0.0954324998
0.09543195715
0.09543128861
0.09543066345
0.0954302598
0.09543010525
0.09543010267
0.09543015339
0.09543021402
0.09543025799
0.09543025971
0.09543023976
0.0954302447
0.09543032343
0.09543052018
0.0954308768
0.09543140412
0.09543205291
0.09543267813
0.09543305374
0.09543309573
0.09543292171
0.09543257495
0.09543208162
0.09543159356
0.09543133961
0.09543138368
0.09543164849
0.09543215032
0.09543285772
0.09543359043
0.09543404219
0.09543406832
0.09543379464
0.09543324033
0.09543240308
0.09543139584
0.09543044404
0.09542981307
0.09542955548
0.09542952548
0.09542957959
0.09542965533
0.09542967398
0.09542957595
0.09542936691
0.09542908562
0.09542887241
0.09542889051
0.09542916943
0.09542974345
0.09543065999
0.09543185524
0.09543313932
0.0954341393
0.09543455095
0.09543446561
0.09543403288
0.09543325012
0.0954321804
0.09543106268
0.0954302688
0.09542999886
0.09543009887
0.09543041557
0.09543092254
0.09543154965
0.09543208935
0.09543235287
0.09543238009
0.09543230016
0.09543221832
0.09543227608
0.09543258393
0.09543319932
0.09543416928
0.09543544901
0.09543685991
0.09543802484
0.09543857906
0.09543856531
0.09543817822
0.09543743127
0.09543639971
0.09543538446
0.09543477664
0.09543468087
0.09543486833
0.09543519636
0.09543559844
0.09543583645
0.09543577026
0.09543544931
0.09543491941
0.09543438909
0.09543422259
0.09543448489
0.095435133
0.09543624071
0.09543772584
0.09543929288
0.09544039111
0.09544065032
0.0954402717
0.0954393802
0.09543796421
0.0954362651
0.0954347743
0.09543397192
0.09543384893
0.09543409762
0.09543464697
0.0954354277
0.09543607373
0.09543619425
0.09543589224
0.09543532052
0.09543468985
0.09543443144
0.09543471133
0.0954355132
0.09543692429
0.0954388114
0.09544078577
0.09544219236
0.09544261772
0.09544227468
0.09544132256
0.09543983793
0.09543815981
0.09543694818
0.09543659617
0.09543684958
0.09543754546
0.09543865657
0.0954399152
0.0954408227
0.09544103574
0.09544068006
0.09544000049
0.09543940743
0.09543947321
0.09544026225
0.09544176206
0.09544398954
0.09544673093
0.09544938895
0.09545114386
0.09545167589
0.09545122745
0.09545001291
0.09544826123
0.09544664545
0.09544584547
0.09544595919
0.09544670814
0.09544810485
0.09545011529
0.09545241868
0.09545416461
0.09545476501
0.09545437119
0.09545329318
0.09545214764
0.09545179995
0.09545242411
0.09545383382
0.09545604
0.09545889286
0.0954618252
0.0954639273
0.09546456216
0.09546383652
0.09546184729
0.09545910627
0.09545645954
0.09545444988
0.09545325743
0.09545274026
0.0954531164
0.09545441362
0.09545626865
0.09545765465
0.09545754877
0.09545624755
0.09545409104
0.0954521938
0.09545143824
0.09545178253
0.095453199
0.09545594901
0.09545961467
0.09546323504
0.09546623261
0.09546776043
0.0954677694
0.09546651786
0.09546473904
0.09546360777
0.09546332596
0.09546354548
0.09546464051
0.09546748059
0.09547258411
0.09547889813
0.09548457894
0.09548869405
0.09549078181
0.09549181149
0.0954935576
0.09549698904
0.09550215014
0.09550970806
0.0955200691
0.0955324618
0.09554493239
0.09555509259
0.09556123536
0.09556438533
0.09556829965
0.09557575952
0.09558646997
0.0955987386
0.09561143615
0.09562557904
0.095643769
0.09566767933
0.09569397384
0.09571604991
0.09573488392
0.09575507642
0.09577764946
0.09580269271
0.09582926207
0.09585865912
0.09589145785
0.095927162
0.09595930145
0.09598162511
0.09600051978
0.09602053879
0.09604194354
0.0960638531
0.09608591884
0.09611174826
0.09614266616
0.09618102423
0.09623690045
0.09635093363
0.09663335028
0.09708945169
0.09718243353
0.09517357479
0.0878076921
0.07241889745
0.0512756836
0.03159840761
0.01774518971
0.00940521931
0.004822244683
0.002428878336
0.001212212914
0.0006022028617
0.0002984742785
0.0001477675101
7.311598072e-05
3.616870415e-05
1.788971672e-05
8.848201422e-06
4.37626018e-06
2.164490729e-06
1.070574363e-06
5.295276254e-07
2.619221956e-07
1.295593129e-07
6.40882098e-08
3.170306189e-08
1.568332555e-08
7.758705305e-09
3.83843974e-09
1.899042785e-09
9.395706893e-10
4.648778164e-10
2.300185211e-10
1.138155204e-10
5.631892983e-11
2.786896373e-11
1.379106654e-11
6.824702678e-12
3.377290831e-12
1.671337489e-12
8.270664586e-13
4.09190313e-13
2.02465585e-13
1.000652838e-13
4.944182002e-14
2.43410598e-14
1.186376493e-14
5.801642565e-15
2.750389907e-15
1.252505987e-15
4.671636752e-16
1.231634278e-16
-6.460270702e-18
-3.84440677e-18
-3.785229219e-18
-3.895578392e-18
-3.973747654e-18
-4.049455568e-18
-4.062409814e-18
-4.034740458e-18
-4.032221157e-18
-4.090292729e-18
-4.201163407e-18
-4.323582948e-18
-4.412502683e-18
-4.45017978e-18
-4.435084112e-18
-4.391378336e-18
-4.340995658e-18
-4.298546613e-18
-4.2723601e-18
-4.252935257e-18
-4.233911016e-18
-4.21382296e-18
-4.192374037e-18
-4.168751096e-18
-4.149683204e-18
-4.14433039e-18
-4.157006636e-18
-4.188333102e-18
-4.234476178e-18
-4.295336731e-18
-4.360162409e-18
-4.415405886e-18
-4.463562988e-18
-4.49038638e-18
-4.497573322e-18
-4.479380593e-18
-4.44116797e-18
-4.386902502e-18
-4.330263026e-18
-4.275338683e-18
-4.224475595e-18
-4.185898346e-18
-4.158965631e-18
-4.15166343e-18
-4.159186154e-18
-4.179576717e-18
-4.210777295e-18
-4.245997527e-18
-4.280781635e-18
-4.312382323e-18
-4.34334032e-18
-4.368373175e-18
-4.38666784e-18
-4.396575037e-18
-4.404208204e-18
-4.410553388e-18
-4.417058708e-18
-4.422968056e-18
-4.429342597e-18
-4.435606716e-18
-4.43847014e-18
-4.444428911e-18
-4.448264111e-18
-4.456346231e-18
-4.464851104e-18
-4.471621962e-18
-4.477168849e-18
-4.485313887e-18
-4.496105961e-18
-4.500179949e-18
-4.505305869e-18
-4.51173361e-18
-4.516922299e-18
-4.515037929e-18
-4.510816994e-18
-4.498745961e-18
-4.482864136e-18
-4.463927929e-18
-4.446279557e-18
-4.427317749e-18
-4.405579669e-18
-4.382071169e-18
-4.359785426e-18
-4.336584065e-18
-4.310808587e-18
-4.283015582e-18
-4.255901747e-18
-4.226870464e-18
-4.198054754e-18
-4.166370776e-18
-4.140215789e-18
-4.11439539e-18
-4.089778765e-18
-4.063199411e-18
-4.039283658e-18
-4.016293542e-18
-3.994468287e-18
-3.974973357e-18
-3.957450811e-18
-3.94010867e-18
-3.921377276e-18
-3.903512395e-18
-3.885055275e-18
-3.869619411e-18
-3.853293532e-18
-3.840688545e-18
-3.827320349e-18
-3.8196822e-18
-3.811969025e-18
-3.804036607e-18
-3.795638845e-18
-3.790640326e-18
-3.783904435e-18
-3.78482377e-18
-3.791377596e-18
-3.801059244e-18
-3.812711707e-18
-3.828963102e-18
-3.846342622e-18
-3.861258616e-18
-3.878272439e-18
-3.895524367e-18
-3.912488799e-18
-3.929246819e-18
-3.949509959e-18
-3.971353549e-18
-3.991867527e-18
-4.015266838e-18
-4.040626999e-18
-4.067990276e-18
-4.096032789e-18
-4.123253106e-18
-4.152669209e-18
-4.181731056e-18
-4.207328811e-18
-4.235902622e-18
-4.260994521e-18
-4.284336044e-18
-4.304273141e-18
-4.319024933e-18
-4.332319197e-18
-4.341598577e-18
-4.352293341e-18
-4.358837203e-18
-4.366600964e-18
-4.369141539e-18
-4.371950181e-18
-4.37620863e-18
-4.378890366e-18
-4.381325811e-18
-4.379608973e-18
-4.375779824e-18
-4.3743658e-18
-4.369979134e-18
-4.367333951e-18
-4.36421904e-18
-4.358539222e-18
-4.35118399e-18
-4.344339092e-18
-4.336630273e-18
-4.32771905e-18
-4.320318001e-18
-4.309888644e-18
-4.302008484e-18
-4.293528024e-18
-4.284847412e-18
-4.279082458e-18
-4.272497828e-18
-4.267430182e-18
-4.260855866e-18
-4.252566638e-18
-4.244457764e-18
-4.234212002e-18
-4.227137957e-18
-4.219811979e-18
-4.211222445e-18
-4.205349747e-18
-4.194390859e-18
-4.185608975e-18
-4.173556976e-18
-4.165744792e-18
-4.158112271e-18
-4.154975944e-18
-4.150471313e-18
-4.145164473e-18
-4.137885419e-18
-4.131530087e-18
-4.125698562e-18
-4.116447155e-18
-4.114949659e-18
-4.11295553e-18
-4.109655121e-18
-4.110002663e-18
-4.111264657e-18
-4.112381792e-18
-4.116751902e-18
-4.118702636e-18
-4.125461296e-18
-4.136391514e-18
-4.146866745e-18
-4.160239039e-18
-4.173474349e-18
-4.186321166e-18
-4.194691701e-18
-4.205546063e-18
-4.214142845e-18
-4.227366685e-18
-4.238404491e-18
-4.250212324e-18
-4.262371763e-18
-4.271905956e-18
-4.28096963e-18
-4.28866513e-18
-4.295903226e-18
-4.30302254e-18
-4.30972966e-18
-4.317069661e-18
-4.324194829e-18
-4.329233265e-18
-4.334037525e-18
-4.340070484e-18
-4.342685308e-18
-4.345990227e-18
-4.346564751e-18
-4.345758137e-18
-4.344734073e-18
-4.345021241e-18
-4.341724558e-18
-4.339085375e-18
-4.336426309e-18
-4.335926118e-18
-4.333248136e-18
-4.333274569e-18
-4.328715333e-18
-4.3230763e-18
-4.322590398e-18
-4.316936298e-18
-4.312024898e-18
-4.306257035e-18
-4.301220114e-18
-4.295225715e-18
-4.289596027e-18
-4.281414665e-18
-4.276875617e-18
-4.27130012e-18
-4.261666703e-18
-4.255921155e-18
-4.24992819e-18
-4.244015009e-18
-4.237424898e-18
-4.23328118e-18
-4.231246326e-18
-4.229203802e-18
-4.233484204e-18
-4.237000976e-18
-4.246771365e-18
-4.258468539e-18
-4.272808776e-18
-4.287845288e-18
-4.302990565e-18
-4.317353098e-18
-4.333782701e-18
-4.349681713e-18
-4.367030489e-18
-4.385400071e-18
-4.401821218e-18
-4.415687748e-18
-4.432657394e-18
-4.447560251e-18
-4.458577507e-18
-4.467155118e-18
-4.476549766e-18
-4.483694124e-18
-4.491696155e-18
-4.49953855e-18
-4.507388961e-18
-4.511832386e-18
-4.519887197e-18
-4.527594469e-18
-4.537092182e-18
-4.541550467e-18
-4.549455599e-18
-4.556266341e-18
-4.561609028e-18
-4.5621167e-18
-4.554659208e-18
-4.544123886e-18
-4.529139556e-18
-4.509882723e-18
-4.481400576e-18
-4.44247742e-18
-4.402042813e-18
-4.351855153e-18
-4.294347766e-18
-4.230839533e-18
-4.159226058e-18
-4.079248391e-18
-3.992433444e-18
-3.900653399e-18
-3.802550746e-18
-3.694531116e-18
-3.583358582e-18
-3.46806009e-18
-3.348845241e-18
-3.223669157e-18
-3.093966793e-18
-2.969587964e-18
-2.845299191e-18
-2.721416606e-18
-2.59856527e-18
-2.475914146e-18
-2.353655575e-18
-2.230303436e-18
-2.109474581e-18
-1.986903474e-18
-1.865398021e-18
-1.747251618e-18
-1.629270267e-18
-1.51647767e-18
-1.41080758e-18
-1.307118728e-18
-1.210575747e-18
-1.113145265e-18
-1.026315244e-18
-9.440012748e-19
-8.679717325e-19
-7.937444487e-19
-7.228426377e-19
-6.597487728e-19
-6.054064681e-19
-5.547783812e-19
-5.049355429e-19
-4.543775262e-19
-4.125987852e-19
-3.786665471e-19
-3.476506428e-19
-3.149678542e-19
-2.814844054e-19
-2.524958904e-19
-2.241085112e-19
-2.026627197e-19
-1.815475042e-19
-1.672655023e-19
-1.560594597e-19
-1.459944673e-19
-1.379871399e-19
-1.310357289e-19
-1.215971924e-19
-1.119052442e-19
-1.002641159e-19
-9.34510791e-20
-8.554086703e-20
-7.820224995e-20
-7.077262123e-20
-6.185778555e-20
-5.199810388e-20
-4.361233628e-20
-3.362430841e-20
-2.617768358e-20
-2.059153745e-20
-1.245657457e-20
-7.400968076e-21
7.482322279e-23
6.853849314e-21
1.164815843e-20
1.686745617e-20
2.027170679e-20
2.567820146e-20
3.010155877e-20
3.685001822e-20
3.585481481e-20
3.769826359e-20
3.539091885e-20
3.6997301e-20
3.829592312e-20
3.996166804e-20
4.061836359e-20
4.249444614e-20
4.474146124e-20
4.72891433e-20
4.842296825e-20
5.016248528e-20
5.248514537e-20
5.189472142e-20
4.804888111e-20
4.754696848e-20
4.582888452e-20
4.449902801e-20
4.532228971e-20
4.588397074e-20
4.574680196e-20
4.827201054e-20
4.697196238e-20
4.600251219e-20
4.37858448e-20
4.540544729e-20
4.403318878e-20
4.507596641e-20
4.721723489e-20
4.972262873e-20
4.864877347e-20
4.864330035e-20
4.817379476e-20
5.018129429e-20
5.23365111e-20
5.450400124e-20
5.015905464e-20
4.66674794e-20
4.650603396e-20
4.737797306e-20
4.766430539e-20
4.819485891e-20
4.755414588e-20
4.772457725e-20
4.87289604e-20
5.017404958e-20
4.830261286e-20
4.630426773e-20
4.379080018e-20
4.203731133e-20
3.920864382e-20
4.089302397e-20
4.022675884e-20
4.117453372e-20
4.062711982e-20
4.293007875e-20
4.539416396e-20
4.532561252e-20
4.407092626e-20
4.529070841e-20
4.44003754e-20
4.458127308e-20
4.2605745e-20
4.111744606e-20
3.920079463e-20
4.07931494e-20
4.11209828e-20
4.428566877e-20
4.444551051e-20
4.283234562e-20
4.025197598e-20
4.038070093e-20
4.026027789e-20
4.070031765e-20
3.842994286e-20
3.842082739e-20
3.509702213e-20
3.23370034e-20
2.943032204e-20
2.88762967e-20
2.699332753e-20
2.80705041e-20
3.084768124e-20
3.296735873e-20
3.531896208e-20
3.721066618e-20
3.654082219e-20
3.92125062e-20
4.480498734e-20
4.512891947e-20
4.742991301e-20
4.714048035e-20
4.853398402e-20
4.711132263e-20
4.498609428e-20
4.647665236e-20
4.624308531e-20
4.64489124e-20
4.648002289e-20
4.50901279e-20
4.26412892e-20
4.068983598e-20
3.713868311e-20
3.535998006e-20
3.455939737e-20
3.379893069e-20
3.198613838e-20
3.10014782e-20
2.812355813e-20
2.609714415e-20
2.705031171e-20
2.886757205e-20
2.86010117e-20
2.90396715e-20
2.867085537e-20
2.823144472e-20
2.667244313e-20
2.396124861e-20
2.232023289e-20
2.293476965e-20
2.322305431e-20
1.872877366e-20
1.835322011e-20
1.359014613e-20
1.097232047e-20
1.181844641e-20
1.222584186e-20
1.35191776e-20
1.556715942e-20
1.730795423e-20
1.846138628e-20
2.396537093e-20
2.452007272e-20
2.395034564e-20
2.462164578e-20
2.320237789e-20
2.388083266e-20
2.850254607e-20
3.049540848e-20
3.151075741e-20
3.29072456e-20
3.079701402e-20
2.96095584e-20
3.238624595e-20
3.13831585e-20
3.308289321e-20
3.255397346e-20
3.062676852e-20
3.128786447e-20
2.824079102e-20
2.864463276e-20
2.876326495e-20
3.348876861e-20
3.633933729e-20
3.704813021e-20
3.678207356e-20
3.865516398e-20
3.83155303e-20
3.938934439e-20
3.968747594e-20
4.06579424e-20
3.897206319e-20
4.041143955e-20
4.180139779e-20
4.176387507e-20
4.220043347e-20
4.169742595e-20
4.030388444e-20
4.339639789e-20
4.085345911e-20
3.80973122e-20
3.609086896e-20
3.399118341e-20
3.268316832e-20
3.316385686e-20
3.539992773e-20
3.591486152e-20
3.360029064e-20
3.280490051e-20
2.915474528e-20
2.516295744e-20
2.321245136e-20
2.001298604e-20
1.598951421e-20
1.64733077e-20
1.498150636e-20
1.197413485e-20
1.311007243e-20
1.293788223e-20
1.148353155e-20
1.014454253e-20
1.056640695e-20
1.417171116e-20
1.524704795e-20
1.648838913e-20
1.51070426e-20
1.38275381e-20
1.048840726e-20
1.166762721e-20
1.275142775e-20
1.423010674e-20
1.673271611e-20
2.005371079e-20
2.04753698e-20
1.896440031e-20
1.633376175e-20
1.665293482e-20
1.485311115e-20
1.488502415e-20
1.705069349e-20
1.926403717e-20
1.930282324e-20
2.315798042e-20
2.760475345e-20
2.84387366e-20
2.736620874e-20
2.568048828e-20
2.383751183e-20
2.297128206e-20
2.234074195e-20
2.384785419e-20
2.450353641e-20
2.395226807e-20
2.720902042e-20
2.679991975e-20
2.638846804e-20
2.726253288e-20
2.368836288e-20
2.266657258e-20
2.365565874e-20
2.537719949e-20
2.387978142e-20
2.129537672e-20
1.975212727e-20
1.977778175e-20
1.800053716e-20
1.611791826e-20
1.771116892e-20
1.964620259e-20
1.783800672e-20
1.849634764e-20
1.451595742e-20
1.148690618e-20
9.734069363e-21
1.089930925e-20
1.361952315e-20
1.155878613e-20
1.162843713e-20
8.317933518e-21
1.205317406e-20
1.738642929e-20
1.859283997e-20
2.006845151e-20
2.238907838e-20
2.495432873e-20
2.767292709e-20
2.841506084e-20
2.956838584e-20
3.18326993e-20
3.335394448e-20
3.589065479e-20
3.660897457e-20
3.454361232e-20
3.519994195e-20
3.204435768e-20
3.3020188e-20
3.308207001e-20
3.580812065e-20
3.434694065e-20
3.329371982e-20
3.260641803e-20
3.096666001e-20
2.999904745e-20
2.819073575e-20
2.75707723e-20
2.632685245e-20
2.827795717e-20
2.571555523e-20
2.252072211e-20
2.598985008e-20
2.86037718e-20
2.674823844e-20
2.610259172e-20
2.749786811e-20
2.759633516e-20
2.731717691e-20
2.533946804e-20
2.692646224e-20
3.016521804e-20
3.246440577e-20
3.538049245e-20
4.120332968e-20
4.208071735e-20
4.084392944e-20
3.713397498e-20
3.436616182e-20
3.249676008e-20
3.522328311e-20
3.46021551e-20
3.504000346e-20
3.636520377e-20
3.671554014e-20
4.016441353e-20
4.122668217e-20
4.009974455e-20
4.161705508e-20
3.908474118e-20
4.096267857e-20
4.138821023e-20
4.302044753e-20
4.525693518e-20
4.444125176e-20
4.637920064e-20
5.060804496e-20
5.322916183e-20
5.372416115e-20
5.556956202e-20
5.836273111e-20
6.055042764e-20
5.855373775e-20
5.691997822e-20
5.554439516e-20
5.723390868e-20
5.664659884e-20
5.787365317e-20
5.824568596e-20
5.920423011e-20
6.146151727e-20
5.863854856e-20
6.060486257e-20
5.587856525e-20
5.15780436e-20
5.053457423e-20
5.166302078e-20
4.978159344e-20
5.046887843e-20
5.374234118e-20
5.632486004e-20
5.824990109e-20
5.669450207e-20
5.71087469e-20
5.650385896e-20
5.764869926e-20
6.000079211e-20
6.255400915e-20
6.39762951e-20
6.647311001e-20
6.756202289e-20
6.824435526e-20
6.762421801e-20
6.486436321e-20
6.224281712e-20
6.111403384e-20
6.230141203e-20
6.193660822e-20
6.191167793e-20
6.322464736e-20
6.472420883e-20
6.307053669e-20
5.904012431e-20
5.510152477e-20
5.226396054e-20
5.042742247e-20
5.130442494e-20
5.205210062e-20
5.055377328e-20
4.992864891e-20
5.148154749e-20
4.694392352e-20
4.560216199e-20
4.35049365e-20
4.104168127e-20
3.935202679e-20
3.615788422e-20
3.431911324e-20
3.042602727e-20
2.933886488e-20
2.656256924e-20
2.650850529e-20
2.542206525e-20
2.025892893e-20
1.893393321e-20
1.950263659e-20
1.918709678e-20
2.008591584e-20
1.795987821e-20
1.649957641e-20
1.600273036e-20
1.752305716e-20
1.955913249e-20
2.169907825e-20
2.379920149e-20
2.507993424e-20
2.673224184e-20
2.907229411e-20
2.807375803e-20
2.929251428e-20
2.610684675e-20
2.869326658e-20
3.083746085e-20
3.147304892e-20
3.339478852e-20
3.136149687e-20
3.068689032e-20
3.15248454e-20
3.104507378e-20
2.827499875e-20
2.660953735e-20
2.805024256e-20
2.6552076e-20
2.799103137e-20
3.02861645e-20
3.187485407e-20
3.261201237e-20
3.508465858e-20
3.367522577e-20
3.819633034e-20
4.359781775e-20
4.517778557e-20
4.75101112e-20
5.182934375e-20
5.270309883e-20
5.380778615e-20
5.500566945e-20
5.699468769e-20
5.740788601e-20
5.765571438e-20
5.801782877e-20
5.799667655e-20
5.616160699e-20
5.62453992e-20
5.721195775e-20
5.665073645e-20
5.710160714e-20
5.518267802e-20
5.591492272e-20
5.421082121e-20
5.436492057e-20
5.306027018e-20
5.027709072e-20
5.061126445e-20
5.016595633e-20
5.333985568e-20
5.570573024e-20
5.709160113e-20
6.021873708e-20
6.105539237e-20
6.35530459e-20
6.576710245e-20
6.389583976e-20
6.797251118e-20
6.580847184e-20
6.257693906e-20
6.286803724e-20
6.587530978e-20
6.829378766e-20
6.913781686e-20
7.268972198e-20
7.083408819e-20
6.64531903e-20
6.725203552e-20
6.691204214e-20
6.705779732e-20
6.849785981e-20
6.76067625e-20
6.711671327e-20
6.883375921e-20
6.479796727e-20
6.236083683e-20
6.070750466e-20
6.111076905e-20
5.972872199e-20
5.787007951e-20
5.88773282e-20
5.517704764e-20
5.244677126e-20
5.200573805e-20
5.12780922e-20
4.937676107e-20
5.026741734e-20
5.359587604e-20
5.404980779e-20
5.312120668e-20
5.489205974e-20
5.624646646e-20
5.53793749e-20
5.540021248e-20
5.463664213e-20
5.453224001e-20
5.8720555e-20
6.092252116e-20
6.018395415e-20
5.851287162e-20
6.128410725e-20
6.001684226e-20
5.770534841e-20
5.825459555e-20
5.856909603e-20
5.763587005e-20
5.486896839e-20
5.458055449e-20
5.336667494e-20
5.558531158e-20
5.491650177e-20
5.555447218e-20
5.71169018e-20
5.679327126e-20
5.649448825e-20
5.757264694e-20
5.606536832e-20
5.985735403e-20
6.103247654e-20
6.205421206e-20
6.232220187e-20
6.120827324e-20
5.979726764e-20
5.867285676e-20
5.60591224e-20
5.758031747e-20
5.885114122e-20
5.619964392e-20
5.522742083e-20
5.348028873e-20
5.14421279e-20
5.039891866e-20
5.249162794e-20
5.474169823e-20
5.257622526e-20
5.20406422e-20
5.03070723e-20
4.866168034e-20
4.632336294e-20
4.48025941e-20
4.710273433e-20
4.918422558e-20
5.076290785e-20
5.127075017e-20
4.958832971e-20
4.701110691e-20
4.807515345e-20
4.45621778e-20
4.377495813e-20
4.166490668e-20
4.021642677e-20
3.987304664e-20
4.275207689e-20
4.393691095e-20
4.25914544e-20
4.48613947e-20
4.818495312e-20
5.050455549e-20
4.866416764e-20
4.503537424e-20
4.343582954e-20
3.892880935e-20
3.61992678e-20
3.726858925e-20
3.541792451e-20
3.592644538e-20
3.662183011e-20
3.328365692e-20
3.066208673e-20
2.862885788e-20
2.651535687e-20
2.428897147e-20
2.328476271e-20
2.121584143e-20
1.891883671e-20
1.78350099e-20
1.933636975e-20
1.888680288e-20
1.860220825e-20
1.597141618e-20
1.504806975e-20
1.575581684e-20
1.737399313e-20
1.861809875e-20
1.797512246e-20
1.582734243e-20
1.244614186e-20
1.176837378e-20
1.023090601e-20
7.92055982e-21
5.205625e-21
3.862583679e-21
2.656998129e-21
1.464920497e-22
-2.039909558e-21
-3.926846258e-21
-2.533345519e-21
-2.876405513e-21
-3.490531972e-21
-7.279786206e-21
-7.479899122e-21
-4.747208886e-21
-5.158433212e-21
-3.868901432e-21
-2.768425533e-21
-1.246614233e-21
-1.097907509e-21
-2.549927462e-21
-4.098860692e-21
-2.60316546e-21
-6.159884186e-21
-1.058380135e-20
-1.228345276e-20
-1.389737673e-20
-1.383821158e-20
-1.334314501e-20
-1.35130407e-20
-1.415126631e-20
-1.433569802e-20
-1.612677294e-20
-1.955121135e-20
-1.880068291e-20
-1.795664631e-20
-2.013295484e-20
-1.916980276e-20
-1.657542769e-20
-1.441822743e-20
-1.053606998e-20
-1.204593224e-20
-1.401466772e-20
-1.391561594e-20
-1.193213655e-20
-1.093764126e-20
-9.364447699e-21
-7.233220849e-21
-8.513401149e-21
-1.052824184e-20