/*--------------------------------*- C++ -*----------------------------------*\
| =========                 |                                                 |
| \\      /  F ield         | OpenFOAM: The Open Source CFD Toolbox           |
|  \\    /   O peration     | Version:  2312                                  |
|   \\  /    A nd           | Website:  www.openfoam.com                      |
|    \\/     M anipulation  |                                                 |
\*---------------------------------------------------------------------------*/
FoamFile
{
    version     2.0;
    format      ascii;
    arch        "LSB;label=32;scalar=64";
    class       volScalarField;
    location    "0.0008";
    object      rho;
}
// * * * * * * * * * * * * * * * * * * * * * * * * * * * * * * * * * * * * * //

dimensions      [1 -3 0 0 0 0 0];

internalField   nonuniform List<scalar> 
5000
(
11586.22649
11586.22649
11586.22649
11586.22649
11586.22649
11586.22649
11586.22649
11586.22649
11586.22649
11586.22649
11586.22649
11586.22649
11586.22649
11586.22649
11586.22649
11586.22649
11586.22649
11586.22649
11586.22649
11586.22649
11586.22649
11586.22649
11586.22649
11586.22649
11586.22649
11586.22649
11586.22649
11586.22649
11586.22649
11586.22649
11586.22649
11586.22649
11586.22649
11586.22649
11586.22649
11586.22649
11586.22649
11586.22649
11586.22649
11586.22649
11586.22649
11586.22649
11586.22649
11586.22649
11586.22649
11586.22649
11586.22649
11586.22649
11586.22649
11586.22649
11586.22649
11586.22649
11586.22649
11586.22649
11586.22649
11586.22649
11586.22649
11586.22649
11586.22649
11586.22649
11586.22649
11586.22649
11586.22649
11586.22649
11586.22649
11586.22649
11586.22649
11586.22649
11586.22649
11586.22649
11586.22649
11586.22649
11586.22649
11586.22649
11586.22649
11586.22649
11586.22648
11586.22648
11586.22646
11586.22644
11586.22638
11586.22628
11586.22607
11586.22567
11586.22491
11586.22348
11586.22082
11586.21595
11586.20713
11586.1914
11586.16375
11586.11585
11586.03418
11585.89711
11585.67092
11585.3041
11584.71997
11583.80735
11582.40976
11580.31388
11577.23921
11572.83146
11566.66299
11558.244
11547.04679
11532.5435
11514.25391
11491.7963
11464.93149
11433.59057
11397.87971
11358.06188
11314.52111
11267.71975
11218.15311
11166.29546
11112.56582
11057.32027
11000.85571
10943.41732
10885.20664
10826.38908
10767.10045
10707.4524
10647.53678
10587.42903
10527.19161
10466.8796
10406.53974
10346.21039
10285.92399
10225.70815
10165.58651
10105.57937
10045.70426
9985.976369
9926.408908
9867.013384
9807.799855
9748.777132
9689.952944
9631.334038
9572.926209
9514.734686
9456.764406
9399.019518
9341.503641
9284.219986
9227.171374
9170.360286
9113.788902
9057.459127
9001.372623
8945.530832
8889.934993
8834.586162
8779.485229
8724.632938
8670.029903
8615.676641
8561.573611
8507.721279
8454.120191
8400.771013
8347.674435
8294.83089
8242.240256
8189.90189
8137.814698
8085.975405
8034.374043
7982.992629
7931.817804
7880.861566
7830.158305
7779.726824
7729.555142
7679.6251
7629.926478
7580.480531
7531.288321
7482.335072
7433.599725
7385.116818
7336.892442
7288.923527
7241.247563
7193.853374
7146.77895
7099.941352
7053.296097
7006.884737
6960.810683
6914.973956
6869.374612
6824.031182
6778.975825
6734.124986
6689.549538
6645.233979
6601.154697
6557.233288
6513.563265
6470.235099
6427.11108
6384.152915
6341.394404
6299.022197
6256.806305
6214.842546
6173.19909
6131.698182
6090.624396
6049.73242
6009.338407
5969.174656
5929.651662
5890.601696
5852.592452
5815.260161
5779.029042
5744.676325
5711.82148
5680.892063
5652.592579
5626.761232
5603.80878
5584.151041
5567.368105
5553.671332
5543.295324
5535.305735
5529.464334
5526.130398
5524.493839
5523.72705
5524.230611
5526.138925
5528.763891
5531.067631
5532.766878
5534.132188
5535.307385
5536.228961
5536.862965
5537.305451
5537.71211
5538.053628
5538.334768
5538.516236
5538.636558
5538.770974
5538.928642
5539.082497
5539.232456
5539.347291
5539.428257
5539.507975
5539.58833
5539.635258
5539.630289
5539.589524
5539.56101
5539.542497
5539.528245
5539.515523
5539.501384
5539.480253
5539.459378
5539.443361
5539.430892
5539.420682
5539.411808
5539.40068
5539.384661
5539.365388
5539.343619
5539.319202
5539.293411
5539.267646
5539.241211
5539.212373
5539.179574
5539.147986
5539.122468
5539.101699
5539.082435
5539.063416
5539.044674
5539.02524
5539.005347
5538.986355
5538.967525
5538.948181
5538.928114
5538.906013
5538.880459
5538.849341
5538.809581
5538.759311
5538.70107
5538.640637
5538.579823
5538.520126
5538.463178
5538.408644
5538.357375
5538.305523
5538.248896
5538.185382
5538.113183
5538.027606
5537.928562
5537.821231
5537.710705
5537.5984
5537.484728
5537.370794
5537.255364
5537.137234
5537.014608
5536.876453
5536.70948
5536.493902
5536.199227
5535.779995
5535.171427
5534.285757
5532.974864
5530.99316
5527.939802
5523.17571
5515.700517
5504.002281
5485.881373
5458.254359
5416.947414
5356.553298
5270.394868
5150.613667
4988.779948
4776.550802
4506.905119
4175.993879
3783.863097
3337.1293
2848.132846
2382.490417
2022.115872
1754.549609
1563.659367
1432.829984
1344.665601
1286.117444
1247.803455
1223.113567
1207.458043
1197.694828
1191.70795
1188.097868
1185.957061
1184.708641
1183.992916
1183.589719
1183.366583
1183.245074
1183.179743
1183.145863
1183.129966
1183.124284
1183.124155
1183.126051
1183.128436
1183.131096
1183.133912
1183.136844
1183.139858
1183.142933
1183.146035
1183.149107
1183.152062
1183.154811
1183.157322
1183.159605
1183.161672
1183.163546
1183.165266
1183.166841
1183.168258
1183.16951
1183.170597
1183.171531
1183.172335
1183.173046
1183.173724
1183.174468
1183.175358
1183.176416
1183.177605
1183.178874
1183.180223
1183.181654
1183.183133
1183.184602
1183.18599
1183.187264
1183.188441
1183.189544
1183.190592
1183.191589
1183.192525
1183.193391
1183.194179
1183.194876
1183.19547
1183.195951
1183.196317
1183.196578
1183.196757
1183.196885
1183.197006
1183.197153
1183.197324
1183.197494
1183.197647
1183.197777
1183.197896
1183.198047
1183.198301
1183.198709
1183.199249
1183.199926
1183.200778
1183.201812
1183.203
1183.204284
1183.205558
1183.206684
1183.207588
1183.208277
1183.208789
1183.209179
1183.209501
1183.209764
1183.209955
1183.210061
1183.21007
1183.209965
1183.209736
1183.209384
1183.208932
1183.208429
1183.207967
1183.20765
1183.207522
1183.207561
1183.207722
1183.207952
1183.208213
1183.208498
1183.20882
1183.209206
1183.209677
1183.21028
1183.211077
1183.212111
1183.213393
1183.214896
1183.216543
1183.218182
1183.219582
1183.220592
1183.221191
1183.221471
1183.221564
1183.221511
1183.221299
1183.220966
1183.220556
1183.220102
1183.219602
1183.219032
1183.21836
1183.217573
1183.216694
1183.215819
1183.21513
1183.214786
1183.214791
1183.215045
1183.215546
1183.216321
1183.217309
1183.218403
1183.219429
1183.220229
1183.220779
1183.221135
1183.221359
1183.221499
1183.22158
1183.221605
1183.221569
1183.221437
1183.221165
1183.220722
1183.220096
1183.219307
1183.218433
1183.21766
1183.217213
1183.217169
1183.217426
1183.217953
1183.218776
1183.219853
1183.221061
1183.222187
1183.223027
1183.223538
1183.223807
1183.223947
1183.223996
1183.223964
1183.223871
1183.223723
1183.223521
1183.223237
1183.222828
1183.222256
1183.221509
1183.220613
1183.219668
1183.218876
1183.218428
1183.218353
1183.218528
1183.218892
1183.219448
1183.220117
1183.220737
1183.221145
1183.221317
1183.221339
1183.221295
1183.221242
1183.221232
1183.221303
1183.221461
1183.22167
1183.221839
1183.221868
1183.221749
1183.221484
1183.221058
1183.220527
1183.220044
1183.219785
1183.219769
1183.219895
1183.220094
1183.220242
1183.220232
1183.21999
1183.219437
1183.218564
1183.217456
1183.216347
1183.215621
1183.215499
1183.215851
1183.216577
1183.217681
1183.219098
1183.22062
1183.221923
1183.222812
1183.223352
1183.223709
1183.224007
1183.224295
1183.224591
1183.224873
1183.22507
1183.225088
1183.224848
1183.224261
1183.223287
1183.221993
1183.220615
1183.219604
1183.219295
1183.21958
1183.220287
1183.221442
1183.222976
1183.224605
1183.225917
1183.226673
1183.226976
1183.227051
1183.227038
1183.226998
1183.227002
1183.22706
1183.227104
1183.227035
1183.226755
1183.226166
1183.225207
1183.223909
1183.222474
1183.221332
1183.220862
1183.22097
1183.221461
1183.222319
1183.223353
1183.224119
1183.224263
1183.223884
1183.223039
1183.221701
1183.220089
1183.218762
1183.218277
1183.218571
1183.219468
1183.22102
1183.223106
1183.225367
1183.227217
1183.228284
1183.228709
1183.228844
1183.228881
1183.228957
1183.229251
1183.229825
1183.230643
1183.231522
1183.232089
1183.232144
1183.231636
1183.230428
1183.228526
1183.226188
1183.224038
1183.222894
1183.222973
1183.223901
1183.225585
1183.22801
1183.230853
1183.233421
1183.235029
1183.235679
1183.235768
1183.235428
1183.234704
1183.233896
1183.233497
1183.233669
1183.234188
1183.234861
1183.235434
1183.235613
1183.235219
1183.234113
1183.232258
1183.229862
1183.22751
1183.226085
1183.225972
1183.226798
1183.228399
1183.23076
1183.233467
1183.235695
1183.23683
1183.23709
1183.236898
1183.236384
1183.235877
1183.235883
1183.236462
1183.237555
1183.238944
1183.239909
1183.239939
1183.239104
1183.237315
1183.234544
1183.231193
1183.228208
1183.226711
1183.226797
1183.227993
1183.230333
1183.233591
1183.236952
1183.239259
1183.239997
1183.2397
1183.238806
1183.237328
1183.235719
1183.234913
1183.235164
1183.236124
1183.237556
1183.238732
1183.238931
1183.238132
1183.236175
1183.233049
1183.22936
1183.226284
1183.225076
1183.225788
1183.227926
1183.231404
1183.235876
1183.240242
1183.243142
1183.244505
1183.244841
1183.244273
1183.24307
1183.242184
1183.242633
1183.244566
1183.247542
1183.250956
1183.253655
1183.254944
1183.254777
1183.253001
1183.249748
1183.24589
1183.243169
1183.243028
1183.24537
1183.249673
1183.255461
1183.261721
1183.266859
1183.270112
1183.27192
1183.27242
1183.271395
1183.268988
1183.266685
1183.266374
1183.268519
1183.272658
1183.277469
1183.280962
1183.282095
1183.281152
1183.278539
1183.274524
1183.269629
1183.264925
1183.262372
1183.262793
1183.266115
1183.27178
1183.277998
1183.282726
1183.285245
1183.286207
1183.285909
1183.283605
1183.279598
1183.27496
1183.272407
1183.273251
1183.276806
1183.282216
1183.286402
1183.287934
1183.286878
1183.283027
1183.276458
1183.270897
1183.268509
1183.268965
1183.272561
1183.279253
1183.288103
1183.298276
1183.307784
1183.315702
1183.321928
1183.325891
1183.32541
1183.322992
1183.328006
1183.337556
1183.350035
1183.364213
1183.378077
1183.389141
1183.400472
1183.417501
1183.431472
1183.437984
1183.438166
1183.437028
1183.448447
1183.484562
1183.523667
1183.559287
1183.589925
1183.615492
1183.643763
1183.689721
1183.736543
1183.771489
1183.794389
1183.819162
1183.859987
1183.924776
1184.006948
1184.086652
1184.160977
1184.225343
1184.277318
1184.323251
1184.378136
1184.45277
1184.535184
1184.604066
1184.652306
1184.689948
1184.731356
1184.786628
1184.858797
1184.944345
1185.048516
1185.225297
1185.64291
1186.503849
1187.356855
1185.844847
1176.481209
1152.397245
1113.420989
1071.255247
1038.73077
1018.382684
1006.980225
1000.965007
997.8914425
996.3464504
995.5762021
995.193772
995.0042796
994.9104803
994.8640717
994.8411155
994.8297613
994.8241456
994.8213682
994.8199945
994.819315
994.818979
994.8188128
994.8187305
994.8186899
994.8186698
994.8186598
994.8186549
994.8186524
994.8186512
994.8186506
994.8186503
994.8186502
994.8186501
994.8186501
994.8186501
994.8186501
994.8186501
994.8186501
994.8186501
994.8186501
994.8186501
994.8186501
994.8186501
994.8186501
994.8186501
994.8186501
994.8186501
994.8186501
994.8186501
994.8186501
994.8186501
994.8186501
994.8186501
994.8186501
994.8186501
994.8186501
994.8186501
994.8186501
994.8186501
994.8186501
994.8186501
994.8186501
994.8186501
994.8186501
994.8186501
994.8186501
994.8186501
994.8186501
994.8186501
994.8186501
994.8186501
994.8186501
994.8186501
994.8186501
994.8186501
994.8186501
994.8186501
994.8186501
994.8186501
994.8186501
994.8186501
994.8186501
994.8186501
994.8186501
994.8186501
994.8186501
994.8186501
994.8186501
994.8186501
994.8186501
994.8186501
994.8186501
994.8186501
994.8186501
994.8186501
994.8186501
994.8186501
994.8186501
994.8186501
994.8186501
994.8186501
994.8186501
994.8186501
994.8186501
994.8186501
994.8186501
994.8186501
994.8186501
994.8186501
994.8186501
994.8186501
994.8186501
994.8186501
994.8186501
994.8186501
994.8186501
994.8186501
994.8186501
994.8186501
994.8186501
994.8186501
994.8186501
994.8186501
994.8186501
994.8186501
994.8186501
994.8186501
994.8186501
994.8186501
994.8186501
994.8186501
994.8186501
994.8186501
994.8186501
994.8186501
994.8186501
994.8186501
994.8186501
994.8186501
994.8186501
994.8186501
994.8186501
994.8186501
994.8186501
994.8186501
994.8186501
994.8186501
994.8186501
994.8186501
994.8186501
994.8186501
994.8186501
994.8186501
994.8186501
994.8186501
994.8186501
994.8186501
994.8186501
994.8186501
994.8186501
994.8186501
994.8186501
994.8186501
994.8186501
994.8186501
994.8186501
994.8186501
994.8186501
994.8186501
994.8186501
994.8186501
994.8186501
994.8186501
994.8186501
994.8186501
994.8186501
994.8186501
994.8186501
994.8186501
994.8186501
994.8186501
994.8186501
994.8186501
994.8186501
994.8186501
994.8186501
994.8186501
994.8186501
994.8186501
994.8186501
994.8186501
994.8186501
994.8186501
994.8186501
994.8186501
994.8186501
994.8186501
994.8186501
994.8186501
994.8186501
994.8186501
994.8186501
994.8186501
994.8186501
994.8186501
994.8186501
994.8186501
994.8186501
994.8186501
994.8186501
994.8186501
994.8186501
994.8186501
994.8186501
994.8186501
994.8186501
994.8186501
994.8186501
994.8186501
994.8186501
994.8186501
994.8186501
994.8186501
994.8186501
994.8186501
994.8186501
994.8186501
994.8186501
994.8186501
994.8186501
994.8186501
994.8186501
994.8186501
994.8186501
994.8186501
994.8186501
994.8186501
994.8186501
994.8186501
994.8186501
994.8186501
994.8186501
994.8186501
994.8186501
994.8186501
994.8186501
994.8186501
994.8186501
994.8186501
994.8186501
994.8186501
994.8186501
994.8186501
994.8186501
994.8186501
994.8186501
994.8186501
994.8186501
994.8186501
994.8186501
994.8186501
994.8186501
994.8186501
994.8186501
994.8186501
994.8186501
994.8186501
994.8186501
994.8186501
994.8186501
994.8186501
994.8186501
994.8186501
994.8186501
994.8186501
994.8186501
994.8186501
994.8186501
994.8186501
994.8186501
994.8186501
994.8186501
994.8186501
994.8186501
994.8186501
994.8186501
994.8186501
994.8186501
994.8186501
994.8186501
994.8186501
994.8186501
994.8186501
994.8186501
994.8186501
994.8186501
994.8186501
994.8186501
994.8186501
994.8186501
994.8186501
994.8186501
994.8186501
994.8186501
994.8186501
994.8186501
994.8186501
994.8186501
994.8186501
994.8186501
994.8186501
994.8186501
994.8186501
994.8186501
994.8186501
994.8186501
994.8186501
994.8186501
994.8186501
994.8186501
994.8186501
994.8186501
994.8186501
994.8186501
994.8186501
994.8186501
994.8186501
994.8186501
994.8186501
994.8186501
994.8186501
994.8186501
994.8186501
994.8186501
994.8186501
994.8186501
994.8186501
994.8186501
994.8186501
994.8186501
994.8186501
994.8186501
994.8186501
994.8186501
994.8186501
994.8186501
994.8186501
994.8186501
994.8186501
994.8186501
994.8186501
994.8186501
994.8186501
994.8186501
994.8186501
994.8186501
994.8186501
994.8186501
994.8186501
994.8186501
994.8186501
994.8186501
994.8186501
994.8186501
994.8186501
994.8186501
994.8186501
994.8186501
994.8186501
994.8186501
994.8186501
994.8186501
994.8186501
994.8186501
994.8186501
994.8186501
994.8186501
994.8186501
994.8186501
994.8186501
994.8186501
994.8186501
994.8186501
994.8186501
994.8186501
994.8186501
994.8186501
994.8186501
994.8186501
994.8186501
994.8186501
994.8186501
994.8186501
994.8186501
994.8186501
994.8186501
994.8186501
994.8186501
994.8186501
994.8186501
994.8186501
994.8186501
994.8186501
994.8186501
994.8186501
994.8186501
994.8186501
994.8186501
994.8186501
994.8186501
994.8186501
994.8186501
994.8186501
994.8186501
994.8186501
994.8186501
994.8186501
994.8186501
994.8186501
994.8186501
994.8186501
994.8186501
994.8186501
994.8186501
994.8186501
994.8186501
994.8186501
994.8186501
994.8186501
994.8186501
994.8186501
994.8186501
994.8186501
994.8186501
994.8186501
994.8186501
994.8186501
994.8186501
994.8186501
994.8186501
994.8186501
994.8186501
994.8186501
994.8186501
994.8186501
994.8186501
994.8186501
994.8186501
994.8186501
994.8186501
994.8186501
994.8186501
994.8186501
994.8186501
994.8186501
994.8186501
994.8186501
994.8186501
994.8186501
994.8186501
994.8186501
994.8186501
994.8186501
994.8186501
994.8186501
994.8186501
994.8186501
994.8186501
994.8186501
994.8186501
994.8186501
994.8186501
994.8186501
994.8186501
994.8186501
994.8186501
994.8186501
994.8186501
994.8186501
994.8186501
994.8186501
994.8186501
994.8186501
994.8186501
994.8186501
994.8186501
994.8186501
994.8186501
994.8186501
994.8186501
994.8186501
994.8186501
994.8186501
994.8186501
994.8186501
994.8186501
994.8186501
994.8186501
994.8186501
994.8186501
994.8186501
994.8186501
994.8186501
994.8186501
994.8186501
994.8186501
994.8186501
994.8186501
994.8186501
994.8186501
994.8186501
994.8186501
994.8186501
994.8186501
994.8186501
994.8186501
994.8186501
994.8186501
994.8186501
994.8186501
994.8186501
994.8186501
994.8186501
994.8186501
994.8186501
994.8186501
994.8186501
994.8186501
994.8186501
994.8186501
994.8186501
994.8186501
994.8186501
994.8186501
994.8186501
994.8186501
994.8186501
994.8186501
994.8186501
994.8186501
994.8186501
994.8186501
994.8186501
994.8186501
994.8186501
994.8186501
994.8186501
994.8186501
994.8186501
994.8186501
994.8186501
994.8186501
994.8186501
994.8186501
994.8186501
994.8186501
994.8186501
994.8186501
994.8186501
994.8186501
994.8186501
994.8186501
994.8186501
994.8186501
994.8186501
994.8186501
994.8186501
994.8186501
994.8186501
994.8186501
994.8186501
994.8186501
994.8186501
994.8186501
994.8186501
994.8186501
994.8186501
994.8186501
994.8186501
994.8186501
994.8186501
994.8186501
994.8186501
994.8186501
994.8186501
994.8186501
994.8186501
994.8186501
994.8186501
994.8186501
994.8186501
994.8186501
994.8186501
994.8186501
994.8186501
994.8186501
994.8186501
994.8186501
994.8186501
994.8186501
994.8186501
994.8186501
994.8186501
994.8186501
994.8186501
994.8186501
994.8186501
994.8186501
994.8186501
994.8186501
994.8186501
994.8186501
994.8186501
994.8186501
994.8186501
994.8186501
994.8186501
994.8186501
994.8186501
994.8186501
994.8186501
994.8186501
994.8186501
994.8186501
994.8186501
994.8186501
994.8186501
994.8186501
994.8186501
994.8186501
994.8186501
994.8186501
994.8186501
994.8186501
994.8186501
994.8186501
994.8186501
994.8186501
994.8186501
994.8186501
994.8186501
994.8186501
994.8186501
994.8186501
994.8186501
994.8186501
994.8186501
994.8186501
994.8186501
994.8186501
994.8186501
994.8186501
994.8186501
994.8186501
994.8186501
994.8186501
994.8186501
994.8186501
994.8186501
994.8186501
994.8186501
994.8186501
994.8186501
994.8186501
994.8186501
994.8186501
994.8186501
994.8186501
994.8186501
994.8186501
994.8186501
994.8186501
994.8186501
994.8186501
994.8186501
994.8186501
994.8186501
994.8186501
994.8186501
994.8186501
994.8186501
994.8186501
994.8186501
994.8186501
994.8186501
994.8186501
994.8186501
994.8186501
994.8186501
994.8186501
994.8186501
994.8186501
994.8186501
994.8186501
994.8186501
994.8186501
994.8186501
994.8186501
994.8186501
994.8186501
994.8186501
994.8186501
994.8186501
994.8186501
994.8186501
994.8186501
994.8186501
994.8186501
994.8186501
994.8186501
994.8186501
994.8186501
994.8186501
994.8186501
994.8186501
994.8186501
994.8186501
994.8186501
994.8186501
994.8186501
994.8186501
994.8186501
994.8186501
994.8186501
994.8186501
994.8186501
994.8186501
994.8186501
994.8186501
994.8186501
994.8186501
994.8186501
994.8186501
994.8186501
994.8186501
994.8186501
994.8186501
994.8186501
994.8186501
994.8186501
994.8186501
994.8186501
994.8186501
994.8186501
994.8186501
994.8186501
994.8186501
994.8186501
994.8186501
994.8186501
994.8186501
994.8186501
994.8186501
994.8186501
994.8186501
994.8186501
994.8186501
994.8186501
994.8186501
994.8186501
994.8186501
994.8186501
994.8186501
994.8186501
994.8186501
994.8186501
994.8186501
994.8186501
994.8186501
994.8186501
994.8186501
994.8186501
994.8186501
994.8186501
994.8186501
994.8186501
994.8186501
994.8186501
994.8186501
994.8186501
994.8186501
994.8186501
994.8186501
994.8186501
994.8186501
994.8186501
994.8186501
994.8186501
994.8186501
994.8186501
994.8186501
994.8186501
994.8186501
994.8186501
994.8186501
994.8186501
994.8186501
994.8186501
994.8186501
994.8186501
994.8186501
994.8186501
994.8186501
994.8186501
994.8186501
994.8186501
994.8186501
994.8186501
994.8186501
994.8186501
994.8186501
994.8186501
994.8186501
994.8186501
994.8186501
994.8186501
994.8186501
994.8186501
994.8186501
994.8186501
994.8186501
994.8186501
994.8186501
994.8186501
994.8186501
994.8186501
994.8186501
994.8186501
994.8186501
994.8186501
994.8186501
994.8186501
994.8186501
994.8186501
994.8186501
994.8186501
994.8186501
994.8186501
994.8186501
994.8186501
994.8186501
994.8186501
994.8186501
994.8186501
994.8186501
994.8186501
994.8186501
994.8186501
994.8186501
994.8186501
994.8186501
994.8186501
994.8186501
994.8186501
994.8186501
994.8186501
994.8186501
994.8186501
994.8186501
994.8186501
994.8186501
994.8186501
994.8186501
994.8186501
994.8186501
994.8186501
994.8186501
994.8186501
994.8186501
994.8186501
994.8186501
994.8186501
994.8186501
994.8186501
994.8186501
994.8186501
994.8186501
994.8186501
994.8186501
994.8186501
994.8186501
994.8186501
994.8186501
994.8186501
994.8186501
994.8186501
994.8186501
994.8186501
994.8186501
994.8186501
994.8186501
994.8186501
994.8186501
994.8186501
994.8186501
994.8186501
994.8186501
994.8186501
994.8186501
994.8186501
994.8186501
994.8186501
994.8186501
994.8186501
994.8186501
994.8186501
994.8186501
994.8186501
994.8186501
994.8186501
994.8186501
994.8186501
994.8186501
994.8186501
994.8186501
994.8186501
994.8186501
994.8186501
994.8186501
994.8186501
994.8186501
994.8186501
994.8186501
994.8186501
994.8186501
994.8186501
994.8186501
994.8186501
994.8186501
994.8186501
994.8186501
994.8186501
994.8186501
994.8186501
994.8186501
994.8186501
994.8186501
994.8186501
994.8186501
994.8186501
994.8186501
994.8186501
994.8186501
994.8186501
994.8186501
994.8186501
994.8186501
994.8186501
994.8186501
994.8186501
994.8186501
994.8186501
994.8186501
994.8186501
994.8186501
994.8186501
994.8186501
994.8186501
994.8186501
994.8186501
994.8186501
994.8186501
994.8186501
994.8186501
994.8186501
994.8186501
994.8186501
994.8186501
994.8186501
994.8186501
994.8186501
994.8186501
994.8186501
994.8186501
994.8186501
994.8186501
994.8186501
994.8186501
994.8186501
994.8186501
994.8186501
994.8186501
994.8186501
994.8186501
994.8186501
994.8186501
994.8186501
994.8186501
994.8186501
994.8186501
994.8186501
994.8186501
994.8186501
994.8186501
994.8186501
994.8186501
994.8186501
994.8186501
994.8186501
994.8186501
994.8186501
994.8186501
994.8186501
994.8186501
994.8186501
994.8186501
994.8186501
994.8186501
994.8186501
994.8186501
994.8186501
994.8186501
994.8186501
994.8186501
994.8186501
994.8186501
994.8186501
994.8186501
994.8186501
994.8186501
994.8186501
994.8186501
994.8186501
994.8186501
994.8186501
994.8186501
994.8186501
994.8186501
994.8186501
994.8186501
994.8186501
994.8186501
994.8186501
994.8186501
994.8186501
994.8186501
994.8186501
994.8186501
994.8186501
994.8186501
994.8186501
994.8186501
994.8186501
994.8186501
994.8186501
994.8186501
994.8186501
994.8186501
994.8186501
994.8186501
994.8186501
994.8186501
994.8186501
994.8186501
994.8186501
994.8186501
994.8186501
994.8186501
994.8186501
994.8186501
994.8186501
994.8186501
994.8186501
994.8186501
994.8186501
994.8186501
994.8186501
994.8186501
994.8186501
994.8186501
994.8186501
994.8186501
994.8186501
994.8186501
994.8186501
994.8186501
994.8186501
994.8186501
994.8186501
994.8186501
994.8186501
994.8186501
994.8186501
994.8186501
994.8186501
994.8186501
994.8186501
994.8186501
994.8186501
994.8186501
994.8186501
994.8186501
994.8186501
994.8186501
994.8186501
994.8186501
994.8186501
994.8186501
994.8186501
994.8186501
994.8186501
994.8186501
994.8186501
994.8186501
994.8186501
994.8186501
994.8186501
994.8186501
994.8186501
994.8186501
994.8186501
994.8186501
994.8186501
994.8186501
994.8186501
994.8186501
994.8186501
994.8186501
994.8186501
994.8186501
994.8186501
994.8186501
994.8186501
994.8186501
994.8186501
994.8186501
994.8186501
994.8186501
994.8186501
994.8186501
994.8186501
994.8186501
994.8186501
994.8186501
994.8186501
994.8186501
994.8186501
994.8186501
994.8186501
994.8186501
994.8186501
994.8186501
994.8186501
994.8186501
994.8186501
994.8186501
994.8186501
994.8186501
994.8186501
994.8186501
994.8186501
994.8186501
994.8186501
994.8186501
994.8186501
994.8186501
994.8186501
994.8186501
994.8186501
994.8186501
994.8186501
994.8186501
994.8186501
994.8186501
994.8186501
994.8186501
994.8186501
994.8186501
994.8186501
994.8186501
994.8186501
994.8186501
994.8186501
994.8186501
994.8186501
994.8186501
994.8186501
994.8186501
994.8186501
994.8186501
994.8186501
994.8186501
994.8186501
994.8186501
994.8186501
994.8186501
994.8186501
994.8186501
994.8186501
994.8186501
994.8186501
994.8186501
994.8186501
994.8186501
994.8186501
994.8186501
994.8186501
994.8186501
994.8186501
994.8186501
994.8186501
994.8186501
994.8186501
994.8186501
994.8186501
994.8186501
994.8186501
994.8186501
994.8186501
994.8186501
994.8186501
994.8186501
994.8186501
994.8186501
994.8186501
994.8186501
994.8186501
994.8186501
994.8186501
994.8186501
994.8186501
994.8186501
994.8186501
994.8186501
994.8186501
994.8186501
994.8186501
994.8186501
994.8186501
994.8186501
994.8186501
994.8186501
994.8186501
994.8186501
994.8186501
994.8186501
994.8186501
994.8186501
994.8186501
994.8186501
994.8186501
994.8186501
994.8186501
994.8186501
994.8186501
994.8186501
994.8186501
994.8186501
994.8186501
994.8186501
994.8186501
994.8186501
994.8186501
994.8186501
994.8186501
994.8186501
994.8186501
994.8186501
994.8186501
994.8186501
994.8186501
994.8186501
994.8186501
994.8186501
994.8186501
994.8186501
994.8186501
994.8186501
994.8186501
994.8186501
994.8186501
994.8186501
994.8186501
994.8186501
994.8186501
994.8186501
994.8186501
994.8186501
994.8186501
994.8186501
994.8186501
994.8186501
994.8186501
994.8186501
994.8186501
994.8186501
994.8186501
994.8186501
994.8186501
994.8186501
994.8186501
994.8186501
994.8186501
994.8186501
994.8186501
994.8186501
994.8186501
994.8186501
994.8186501
994.8186501
994.8186501
994.8186501
994.8186501
994.8186501
994.8186501
994.8186501
994.8186501
994.8186501
994.8186501
994.8186501
994.8186501
994.8186501
994.8186501
994.8186501
994.8186501
994.8186501
994.8186501
994.8186501
994.8186501
994.8186501
994.8186501
994.8186501
994.8186501
994.8186501
994.8186501
994.8186501
994.8186501
994.8186501
994.8186501
994.8186501
994.8186501
994.8186501
994.8186501
994.8186501
994.8186501
994.8186501
994.8186501
994.8186501
994.8186501
994.8186501
994.8186501
994.8186501
994.8186501
994.8186501
994.8186501
994.8186501
994.8186501
994.8186501
994.8186501
994.8186501
994.8186501
994.8186501
994.8186501
994.8186501
994.8186501
994.8186501
994.8186501
994.8186501
994.8186501
994.8186501
994.8186501
994.8186501
994.8186501
994.8186501
994.8186501
994.8186501
994.8186501
994.8186501
994.8186501
994.8186501
994.8186501
994.8186501
994.8186501
994.8186501
994.8186501
994.8186501
994.8186501
994.8186501
994.8186501
994.8186501
994.8186501
994.8186501
994.8186501
994.8186501
994.8186501
994.8186501
994.8186501
994.8186501
994.8186501
994.8186501
994.8186501
994.8186501
994.8186501
994.8186501
994.8186501
994.8186501
994.8186501
994.8186501
994.8186501
994.8186501
994.8186501
994.8186501
994.8186501
994.8186501
994.8186501
994.8186501
994.8186501
994.8186501
994.8186501
994.8186501
994.8186501
994.8186501
994.8186501
994.8186501
994.8186501
994.8186501
994.8186501
994.8186501
994.8186501
994.8186501
994.8186501
994.8186501
994.8186501
994.8186501
994.8186501
994.8186501
994.8186501
994.8186501
994.8186501
994.8186501
994.8186501
994.8186501
994.8186501
994.8186501
994.8186501
994.8186501
994.8186501
994.8186501
994.8186501
994.8186501
994.8186501
994.8186501
994.8186501
994.8186501
994.8186501
994.8186501
994.8186501
994.8186501
994.8186501
994.8186501
994.8186501
994.8186501
994.8186501
994.8186501
994.8186501
994.8186501
994.8186501
994.8186501
994.8186501
994.8186501
994.8186501
994.8186501
994.8186501
994.8186501
994.8186501
994.8186501
994.8186501
994.8186501
994.8186501
994.8186501
994.8186501
994.8186501
994.8186501
994.8186501
994.8186501
994.8186501
994.8186501
994.8186501
994.8186501
994.8186501
994.8186501
994.8186501
994.8186501
994.8186501
994.8186501
994.8186501
994.8186501
994.8186501
994.8186501
994.8186501
994.8186501
994.8186501
994.8186501
994.8186501
994.8186501
994.8186501
994.8186501
994.8186501
994.8186501
994.8186501
994.8186501
994.8186501
994.8186501
994.8186501
994.8186501
994.8186501
994.8186501
994.8186501
994.8186501
994.8186501
994.8186501
994.8186501
994.8186501
994.8186501
994.8186501
994.8186501
994.8186501
994.8186501
994.8186501
994.8186501
994.8186501
994.8186501
994.8186501
994.8186501
994.8186501
994.8186501
994.8186501
994.8186501
994.8186501
994.8186501
994.8186501
994.8186501
994.8186501
994.8186501
994.8186501
994.8186501
994.8186501
994.8186501
994.8186501
994.8186501
994.8186501
994.8186501
994.8186501
994.8186501
994.8186501
994.8186501
994.8186501
994.8186501
994.8186501
994.8186501
994.8186501
994.8186501
994.8186501
994.8186501
994.8186501
994.8186501
994.8186501
994.8186501
994.8186501
994.8186501
994.8186501
994.8186501
994.8186501
994.8186501
994.8186501
994.8186501
994.8186501
994.8186501
994.8186501
994.8186501
994.8186501
994.8186501
994.8186501
994.8186501
994.8186501
994.8186501
994.8186501
994.8186501
994.8186501
994.8186501
994.8186501
994.8186501
994.8186501
994.8186501