/*--------------------------------*- C++ -*----------------------------------*\
| =========                 |                                                 |
| \\      /  F ield         | OpenFOAM: The Open Source CFD Toolbox           |
|  \\    /   O peration     | Version:  2312                                  |
|   \\  /    A nd           | Website:  www.openfoam.com                      |
|    \\/     M anipulation  |                                                 |
\*---------------------------------------------------------------------------*/
FoamFile
{
    version     2.0;
    format      ascii;
    arch        "LSB;label=32;scalar=64";
    class       volVectorField;
    location    "0.0008";
    object      U;
}
// * * * * * * * * * * * * * * * * * * * * * * * * * * * * * * * * * * * * * //

dimensions      [0 1 -1 0 0 0 0];

internalField   nonuniform List<vector> 
5000
(
(8.161458908e-13 0 0)
(4.49196395e-13 0 0)
(-3.580831785e-14 0 0)
(3.147913245e-13 0 0)
(-1.753337025e-13 0 0)
(1.4006198e-12 0 0)
(1.518946068e-12 0 0)
(3.418195106e-12 0 0)
(4.051218826e-12 0 0)
(1.480365835e-12 0 0)
(2.61433331e-12 0 0)
(2.933829903e-12 0 0)
(5.022100696e-12 0 0)
(4.786214726e-12 0 0)
(4.233311852e-12 0 0)
(4.350651326e-12 0 0)
(1.788734532e-12 0 0)
(2.135645346e-12 0 0)
(9.050695272e-13 0 0)
(7.488321825e-13 0 0)
(2.071232725e-12 0 0)
(3.470137284e-12 0 0)
(4.357956985e-12 0 0)
(3.957543335e-12 0 0)
(4.559466123e-12 0 0)
(4.266987764e-12 0 0)
(6.001524893e-12 0 0)
(2.413980372e-12 0 0)
(3.332909476e-12 0 0)
(2.984997046e-12 0 0)
(2.015648306e-12 0 0)
(1.736349779e-12 0 0)
(-4.872811139e-13 0 0)
(-2.067480369e-13 0 0)
(-1.268148082e-12 0 0)
(-1.923696527e-12 0 0)
(4.484361829e-13 0 0)
(2.398034977e-13 0 0)
(-1.212491665e-12 0 0)
(1.109685159e-12 0 0)
(6.87528173e-13 0 0)
(2.385795351e-12 0 0)
(3.019121886e-12 0 0)
(3.753389337e-12 0 0)
(4.267557394e-12 0 0)
(5.69680479e-12 0 0)
(3.605421151e-12 0 0)
(5.151561212e-12 0 0)
(3.400396826e-12 0 0)
(9.357829419e-13 0 0)
(1.672019744e-12 0 0)
(3.293598677e-12 0 0)
(2.763091354e-12 0 0)
(1.78162369e-12 0 0)
(5.9425714e-14 0 0)
(5.193328406e-13 0 0)
(-1.689381802e-12 0 0)
(1.179705137e-14 0 0)
(-6.875832301e-13 0 0)
(-1.008242375e-12 0 0)
(1.258352146e-12 0 0)
(5.96853296e-13 0 0)
(5.271390963e-12 0 0)
(8.29956763e-12 0 0)
(1.748276003e-11 0 0)
(3.301232985e-11 0 0)
(7.071981838e-11 0 0)
(1.610837919e-10 0 0)
(3.645081012e-10 0 0)
(8.175851798e-10 0 0)
(1.819167776e-09 0 0)
(4.019993105e-09 0 0)
(8.802978941e-09 0 0)
(1.909260347e-08 0 0)
(4.100980092e-08 0 0)
(8.721436561e-08 0 0)
(1.836188895e-07 0 0)
(3.826403955e-07 0 0)
(7.891135221e-07 0 0)
(1.610197919e-06 0 0)
(3.250299803e-06 0 0)
(6.489049899e-06 0 0)
(1.281022101e-05 0 0)
(2.500053696e-05 0 0)
(4.822282865e-05 0 0)
(9.190807871e-05 0 0)
(0.0001730343556 0 0)
(0.0003217072337 0 0)
(0.0005904766061 0 0)
(0.001069576608 0 0)
(0.001911312572 0 0)
(0.003368167075 0 0)
(0.005850810796 0 0)
(0.01001389784 0 0)
(0.01687888233 0 0)
(0.0280033582 0 0)
(0.04570442795 0 0)
(0.07333779309 0 0)
(0.1156229529 0 0)
(0.1789869519 0 0)
(0.271875045 0 0)
(0.4049501132 0 0)
(0.5910817275 0 0)
(0.845022733 0 0)
(1.182699665 0 0)
(1.620111339 0 0)
(2.171931587 0 0)
(2.850021405 0 0)
(3.66213052 0 0)
(4.611066866 0 0)
(5.694517064 0 0)
(6.905534414 0 0)
(8.233529359 0 0)
(9.665504304 0 0)
(11.18745674 0 0)
(12.7858311 0 0)
(14.44850372 0 0)
(16.1650953 0 0)
(17.92691088 0 0)
(19.72674633 0 0)
(21.5586643 0 0)
(23.41778083 0 0)
(25.30007801 0 0)
(27.20224682 0 0)
(29.12156079 0 0)
(31.05577843 0 0)
(33.00302413 0 0)
(34.96165997 0 0)
(36.93028076 0 0)
(38.90772208 0 0)
(40.89299957 0 0)
(42.88527186 0 0)
(44.88381516 0 0)
(46.8880032 0 0)
(48.89729141 0 0)
(50.91120408 0 0)
(52.92932385 0 0)
(54.9512831 0 0)
(56.97675678 0 0)
(59.00545647 0 0)
(61.03712582 0 0)
(63.07153795 0 0)
(65.10849323 0 0)
(67.14780703 0 0)
(69.18930636 0 0)
(71.23283791 0 0)
(73.2782651 0 0)
(75.32546385 0 0)
(77.37432146 0 0)
(79.42473521 0 0)
(81.47661134 0 0)
(83.52986408 0 0)
(85.58441492 0 0)
(87.64019193 0 0)
(89.69712913 0 0)
(91.75516604 0 0)
(93.81424712 0 0)
(95.87432123 0 0)
(97.93534094 0 0)
(99.99726146 0 0)
(102.060039 0 0)
(104.1236286 0 0)
(106.1879814 0 0)
(108.2530442 0 0)
(110.3187637 0 0)
(112.3850962 0 0)
(114.4520163 0 0)
(116.5195183 0 0)
(118.587631 0 0)
(120.6565013 0 0)
(122.7265235 0 0)
(124.7982823 0 0)
(126.8720745 0 0)
(128.9473788 0 0)
(131.0231496 0 0)
(133.0988278 0 0)
(135.174622 0 0)
(137.2510881 0 0)
(139.3283212 0 0)
(141.4059051 0 0)
(143.4837928 0 0)
(145.5625046 0 0)
(147.6421783 0 0)
(149.7220807 0 0)
(151.8019594 0 0)
(153.8813111 0 0)
(155.9593 0 0)
(158.0354155 0 0)
(160.1093455 0 0)
(162.1836803 0 0)
(164.2593245 0 0)
(166.3348477 0 0)
(168.4082026 0 0)
(170.4807103 0 0)
(172.5534614 0 0)
(174.6252341 0 0)
(176.6958398 0 0)
(178.7666049 0 0)
(180.836528 0 0)
(182.9050949 0 0)
(184.9746921 0 0)
(187.0457291 0 0)
(189.1159304 0 0)
(191.1830851 0 0)
(193.2512942 0 0)
(195.3212103 0 0)
(197.390787 0 0)
(199.4573579 0 0)
(201.5236868 0 0)
(203.5889139 0 0)
(205.653064 0 0)
(207.7142155 0 0)
(209.7745033 0 0)
(211.8236442 0 0)
(213.8732486 0 0)
(215.9071474 0 0)
(217.9268295 0 0)
(219.9304337 0 0)
(221.8906537 0 0)
(223.8245823 0 0)
(225.7004722 0 0)
(227.49924 0 0)
(229.2343486 0 0)
(230.8500605 0 0)
(232.3560557 0 0)
(233.7381591 0 0)
(234.9485295 0 0)
(236.0254587 0 0)
(236.9298074 0 0)
(237.6587011 0 0)
(238.258244 0 0)
(238.6951629 0 0)
(239.0023 0 0)
(239.2183961 0 0)
(239.3263721 0 0)
(239.3456022 0 0)
(239.3048947 0 0)
(239.2151245 0 0)
(239.1008112 0 0)
(238.9865432 0 0)
(238.8879615 0 0)
(238.808117 0 0)
(238.7463171 0 0)
(238.6973074 0 0)
(238.6600516 0 0)
(238.6286218 0 0)
(238.6060054 0 0)
(238.5894901 0 0)
(238.5745187 0 0)
(238.5629746 0 0)
(238.5524039 0 0)
(238.5421723 0 0)
(238.532367 0 0)
(238.5225204 0 0)
(238.512457 0 0)
(238.5035865 0 0)
(238.4942281 0 0)
(238.4880443 0 0)
(238.4825637 0 0)
(238.4806904 0 0)
(238.4812813 0 0)
(238.4823242 0 0)
(238.4833192 0 0)
(238.4837511 0 0)
(238.4837074 0 0)
(238.4834434 0 0)
(238.4832123 0 0)
(238.4831887 0 0)
(238.4832904 0 0)
(238.4836013 0 0)
(238.4840496 0 0)
(238.4845259 0 0)
(238.4849262 0 0)
(238.4851771 0 0)
(238.4852402 0 0)
(238.4851879 0 0)
(238.4850125 0 0)
(238.4847227 0 0)
(238.4844311 0 0)
(238.4842838 0 0)
(238.4842843 0 0)
(238.4844273 0 0)
(238.484719 0 0)
(238.4851171 0 0)
(238.4855892 0 0)
(238.485951 0 0)
(238.4860803 0 0)
(238.486027 0 0)
(238.4857915 0 0)
(238.4853893 0 0)
(238.4848975 0 0)
(238.4844598 0 0)
(238.4841306 0 0)
(238.4839464 0 0)
(238.4839229 0 0)
(238.4840119 0 0)
(238.4842407 0 0)
(238.484558 0 0)
(238.4849188 0 0)
(238.4853052 0 0)
(238.4856371 0 0)
(238.4858241 0 0)
(238.4858782 0 0)
(238.4858424 0 0)
(238.4857713 0 0)
(238.4857111 0 0)
(238.4856837 0 0)
(238.4857007 0 0)
(238.4857764 0 0)
(238.485918 0 0)
(238.4861274 0 0)
(238.4864333 0 0)
(238.486819 0 0)
(238.4872107 0 0)
(238.4875126 0 0)
(238.487756 0 0)
(238.4879851 0 0)
(238.4882336 0 0)
(238.4885231 0 0)
(238.488898 0 0)
(238.4890675 0 0)
(238.4891382 0 0)
(238.4892336 0 0)
(238.4894144 0 0)
(238.4898002 0 0)
(238.4905013 0 0)
(238.4914243 0 0)
(238.4923749 0 0)
(238.493002 0 0)
(238.493368 0 0)
(238.4937092 0 0)
(238.4942547 0 0)
(238.4955496 0 0)
(238.4985697 0 0)
(238.5045674 0 0)
(238.5148253 0 0)
(238.5302704 0 0)
(238.5511338 0 0)
(238.5773181 0 0)
(238.6071687 0 0)
(238.6400308 0 0)
(238.6721753 0 0)
(238.6966578 0 0)
(238.7167512 0 0)
(238.721414 0 0)
(238.7180495 0 0)
(238.7007986 0 0)
(238.6773042 0 0)
(238.6714173 0 0)
(238.5988185 0 0)
(238.4974943 0 0)
(238.5161056 0 0)
(238.5485205 0 0)
(238.5536411 0 0)
(238.5566291 0 0)
(238.5591478 0 0)
(238.5596721 0 0)
(238.5602045 0 0)
(238.5613165 0 0)
(238.5624371 0 0)
(238.5631701 0 0)
(238.5636914 0 0)
(238.5642378 0 0)
(238.5648595 0 0)
(238.5653846 0 0)
(238.5657254 0 0)
(238.5658125 0 0)
(238.5658514 0 0)
(238.5659584 0 0)
(238.5661223 0 0)
(238.5662626 0 0)
(238.5662145 0 0)
(238.5660541 0 0)
(238.5658137 0 0)
(238.5654808 0 0)
(238.5649989 0 0)
(238.5643379 0 0)
(238.5635149 0 0)
(238.562576 0 0)
(238.5615895 0 0)
(238.5606438 0 0)
(238.559832 0 0)
(238.5592093 0 0)
(238.5587882 0 0)
(238.5585615 0 0)
(238.5584956 0 0)
(238.5585461 0 0)
(238.5586883 0 0)
(238.5589407 0 0)
(238.5593192 0 0)
(238.5598321 0 0)
(238.5604749 0 0)
(238.5612289 0 0)
(238.5620531 0 0)
(238.5628738 0 0)
(238.5635793 0 0)
(238.5640726 0 0)
(238.564326 0 0)
(238.5643782 0 0)
(238.5642806 0 0)
(238.5640558 0 0)
(238.5637047 0 0)
(238.5632675 0 0)
(238.5628111 0 0)
(238.5624095 0 0)
(238.5621074 0 0)
(238.5618945 0 0)
(238.5617448 0 0)
(238.5616386 0 0)
(238.5615685 0 0)
(238.5615387 0 0)
(238.5615577 0 0)
(238.5616286 0 0)
(238.5617661 0 0)
(238.561989 0 0)
(238.5623157 0 0)
(238.5627529 0 0)
(238.5632916 0 0)
(238.5639068 0 0)
(238.5645589 0 0)
(238.5652021 0 0)
(238.5657984 0 0)
(238.5663474 0 0)
(238.566873 0 0)
(238.5673946 0 0)
(238.5679172 0 0)
(238.568423 0 0)
(238.5688585 0 0)
(238.5691466 0 0)
(238.5692388 0 0)
(238.5691348 0 0)
(238.5688477 0 0)
(238.5683365 0 0)
(238.5675983 0 0)
(238.5666658 0 0)
(238.5656127 0 0)
(238.5645568 0 0)
(238.5636433 0 0)
(238.5629647 0 0)
(238.5625249 0 0)
(238.5622838 0 0)
(238.5621818 0 0)
(238.5621715 0 0)
(238.562242 0 0)
(238.5624068 0 0)
(238.5626854 0 0)
(238.5630945 0 0)
(238.5636512 0 0)
(238.5643653 0 0)
(238.5652327 0 0)
(238.566226 0 0)
(238.5672847 0 0)
(238.5683127 0 0)
(238.5691958 0 0)
(238.5698788 0 0)
(238.5703729 0 0)
(238.5707232 0 0)
(238.570985 0 0)
(238.5711977 0 0)
(238.5713706 0 0)
(238.5714881 0 0)
(238.5715231 0 0)
(238.5714404 0 0)
(238.5711939 0 0)
(238.5707092 0 0)
(238.5699371 0 0)
(238.568864 0 0)
(238.5675233 0 0)
(238.5660125 0 0)
(238.5645054 0 0)
(238.5632433 0 0)
(238.562403 0 0)
(238.5620073 0 0)
(238.5619657 0 0)
(238.56214 0 0)
(238.5624714 0 0)
(238.5629576 0 0)
(238.563561 0 0)
(238.5642336 0 0)
(238.5649437 0 0)
(238.5656917 0 0)
(238.5665056 0 0)
(238.5674191 0 0)
(238.5684456 0 0)
(238.5695504 0 0)
(238.5706255 0 0)
(238.5714761 0 0)
(238.5719406 0 0)
(238.571998 0 0)
(238.5717349 0 0)
(238.5711791 0 0)
(238.5703137 0 0)
(238.5692044 0 0)
(238.5679839 0 0)
(238.5668302 0 0)
(238.5659151 0 0)
(238.5652786 0 0)
(238.5648662 0 0)
(238.5646086 0 0)
(238.5644513 0 0)
(238.5643667 0 0)
(238.5643493 0 0)
(238.5644125 0 0)
(238.5645906 0 0)
(238.5649355 0 0)
(238.5654837 0 0)
(238.5662484 0 0)
(238.5672014 0 0)
(238.5682413 0 0)
(238.5691767 0 0)
(238.5697701 0 0)
(238.5699368 0 0)
(238.5697404 0 0)
(238.5692492 0 0)
(238.5684394 0 0)
(238.5673689 0 0)
(238.5661853 0 0)
(238.5651066 0 0)
(238.5643534 0 0)
(238.5639808 0 0)
(238.5639016 0 0)
(238.5640032 0 0)
(238.5642169 0 0)
(238.5645314 0 0)
(238.5649238 0 0)
(238.5653826 0 0)
(238.5659128 0 0)
(238.5665433 0 0)
(238.5673172 0 0)
(238.5682708 0 0)
(238.5694134 0 0)
(238.5707022 0 0)
(238.5720131 0 0)
(238.5731287 0 0)
(238.5738385 0 0)
(238.5741108 0 0)
(238.5740344 0 0)
(238.5737122 0 0)
(238.5731556 0 0)
(238.5724605 0 0)
(238.5717939 0 0)
(238.5713268 0 0)
(238.5710979 0 0)
(238.5710285 0 0)
(238.5710251 0 0)
(238.5710156 0 0)
(238.5709462 0 0)
(238.5707781 0 0)
(238.5705094 0 0)
(238.5701889 0 0)
(238.569912 0 0)
(238.5697803 0 0)
(238.5698318 0 0)
(238.5700536 0 0)
(238.5704557 0 0)
(238.5709668 0 0)
(238.5714339 0 0)
(238.5716869 0 0)
(238.5716951 0 0)
(238.5715633 0 0)
(238.5713909 0 0)
(238.571296 0 0)
(238.5714222 0 0)
(238.5718394 0 0)
(238.5726323 0 0)
(238.5738037 0 0)
(238.5752365 0 0)
(238.5766668 0 0)
(238.5777045 0 0)
(238.578124 0 0)
(238.5779826 0 0)
(238.5774319 0 0)
(238.5764703 0 0)
(238.5751926 0 0)
(238.5738328 0 0)
(238.5727085 0 0)
(238.5720385 0 0)
(238.571772 0 0)
(238.571738 0 0)
(238.5717913 0 0)
(238.5718611 0 0)
(238.571933 0 0)
(238.5720347 0 0)
(238.5722475 0 0)
(238.5726755 0 0)
(238.573416 0 0)
(238.5745539 0 0)
(238.5761199 0 0)
(238.5780146 0 0)
(238.5799531 0 0)
(238.5814662 0 0)
(238.5822073 0 0)
(238.5822068 0 0)
(238.5816561 0 0)
(238.5805826 0 0)
(238.5790923 0 0)
(238.5775007 0 0)
(238.57622 0 0)
(238.5755167 0 0)
(238.5753016 0 0)
(238.5753512 0 0)
(238.5754779 0 0)
(238.5756053 0 0)
(238.5756644 0 0)
(238.5756418 0 0)
(238.5756249 0 0)
(238.5757275 0 0)
(238.5760646 0 0)
(238.5767483 0 0)
(238.5778433 0 0)
(238.5792946 0 0)
(238.580858 0 0)
(238.5820996 0 0)
(238.5826379 0 0)
(238.5824794 0 0)
(238.5818547 0 0)
(238.5808253 0 0)
(238.5796297 0 0)
(238.5787035 0 0)
(238.5784221 0 0)
(238.5787989 0 0)
(238.5797313 0 0)
(238.5812226 0 0)
(238.5829828 0 0)
(238.5844505 0 0)
(238.5850675 0 0)
(238.5847646 0 0)
(238.5837669 0 0)
(238.5820511 0 0)
(238.5797816 0 0)
(238.5773716 0 0)
(238.5754011 0 0)
(238.5742818 0 0)
(238.5738953 0 0)
(238.5739111 0 0)
(238.5740576 0 0)
(238.5741741 0 0)
(238.5740686 0 0)
(238.5736906 0 0)
(238.5730933 0 0)
(238.5724899 0 0)
(238.5722406 0 0)
(238.5726129 0 0)
(238.57365 0 0)
(238.5754907 0 0)
(238.5781016 0 0)
(238.5811523 0 0)
(238.583983 0 0)
(238.5857563 0 0)
(238.5861997 0 0)
(238.5855663 0 0)
(238.5840882 0 0)
(238.5818096 0 0)
(238.5791391 0 0)
(238.5767815 0 0)
(238.5754416 0 0)
(238.5751855 0 0)
(238.5756763 0 0)
(238.5766773 0 0)
(238.5780794 0 0)
(238.579524 0 0)
(238.580528 0 0)
(238.5808946 0 0)
(238.5808246 0 0)
(238.5806421 0 0)
(238.5806351 0 0)
(238.5811084 0 0)
(238.5822507 0 0)
(238.5842033 0 0)
(238.586973 0 0)
(238.5902796 0 0)
(238.5934782 0 0)
(238.5956549 0 0)
(238.5963904 0 0)
(238.5958858 0 0)
(238.5944884 0 0)
(238.5922911 0 0)
(238.5898085 0 0)
(238.5878363 0 0)
(238.5869611 0 0)
(238.587032 0 0)
(238.5875908 0 0)
(238.5884394 0 0)
(238.5892427 0 0)
(238.5895315 0 0)
(238.5890939 0 0)
(238.5880571 0 0)
(238.5867244 0 0)
(238.5857919 0 0)
(238.5859275 0 0)
(238.5870874 0 0)
(238.5892955 0 0)
(238.5924781 0 0)
(238.5961458 0 0)
(238.5993691 0 0)
(238.6011059 0 0)
(238.6010847 0 0)
(238.59964 0 0)
(238.596807 0 0)
(238.5928999 0 0)
(238.5888795 0 0)
(238.5860098 0 0)
(238.5849239 0 0)
(238.5851819 0 0)
(238.5861295 0 0)
(238.5876202 0 0)
(238.589197 0 0)
(238.5901226 0 0)
(238.5900432 0 0)
(238.5891825 0 0)
(238.5878182 0 0)
(238.5866043 0 0)
(238.58639 0 0)
(238.5876345 0 0)
(238.5904579 0 0)
(238.5947298 0 0)
(238.5995893 0 0)
(238.6037081 0 0)
(238.6058259 0 0)
(238.6058985 0 0)
(238.6045213 0 0)
(238.6018101 0 0)
(238.5980548 0 0)
(238.5943016 0 0)
(238.5918942 0 0)
(238.59152 0 0)
(238.5929578 0 0)
(238.5956187 0 0)
(238.5988216 0 0)
(238.601396 0 0)
(238.6023856 0 0)
(238.6019773 0 0)
(238.6009893 0 0)
(238.6000085 0 0)
(238.599754 0 0)
(238.6005816 0 0)
(238.6026786 0 0)
(238.606703 0 0)
(238.6129258 0 0)
(238.6202822 0 0)
(238.6266377 0 0)
(238.6297881 0 0)
(238.6292401 0 0)
(238.6265576 0 0)
(238.6228567 0 0)
(238.6195175 0 0)
(238.6176563 0 0)
(238.6170914 0 0)
(238.6171309 0 0)
(238.6183077 0 0)
(238.6220446 0 0)
(238.6281571 0 0)
(238.6347116 0 0)
(238.6389366 0 0)
(238.6385948 0 0)
(238.6354242 0 0)
(238.6317666 0 0)
(238.6306935 0 0)
(238.6330492 0 0)
(238.6367909 0 0)
(238.6406909 0 0)
(238.6445069 0 0)
(238.6496695 0 0)
(238.6561331 0 0)
(238.6619679 0 0)
(238.6644258 0 0)
(238.6612792 0 0)
(238.6538149 0 0)
(238.6449848 0 0)
(238.6390085 0 0)
(238.6385364 0 0)
(238.6400327 0 0)
(238.6404227 0 0)
(238.639428 0 0)
(238.6374962 0 0)
(238.640707 0 0)
(238.6446825 0 0)
(238.6472386 0 0)
(238.6459084 0 0)
(238.6395322 0 0)
(238.6319166 0 0)
(238.6282431 0 0)
(238.6342007 0 0)
(238.647394 0 0)
(238.6664506 0 0)
(238.6704959 0 0)
(238.6670041 0 0)
(238.6666716 0 0)
(238.6690758 0 0)
(238.6732071 0 0)
(238.6811459 0 0)
(238.6787518 0 0)
(238.6707299 0 0)
(238.658392 0 0)
(238.6620971 0 0)
(238.6784608 0 0)
(238.7125845 0 0)
(238.7440169 0 0)
(238.7402431 0 0)
(238.7277078 0 0)
(238.7269055 0 0)
(238.7350989 0 0)
(238.7529673 0 0)
(238.7899961 0 0)
(238.7927944 0 0)
(238.7844341 0 0)
(238.7946353 0 0)
(238.8295987 0 0)
(238.8956882 0 0)
(238.9892202 0 0)
(239.0302597 0 0)
(239.0001921 0 0)
(238.9597456 0 0)
(238.9575992 0 0)
(238.9926247 0 0)
(239.0649443 0 0)
(239.1636542 0 0)
(239.1595948 0 0)
(239.1472698 0 0)
(239.1812675 0 0)
(239.2741102 0 0)
(239.4161682 0 0)
(239.582257 0 0)
(239.64693 0 0)
(239.6230104 0 0)
(239.6147835 0 0)
(239.6579991 0 0)
(239.7814681 0 0)
(239.9811539 0 0)
(240.158079 0 0)
(240.2062934 0 0)
(240.2018353 0 0)
(240.2235825 0 0)
(240.3114747 0 0)
(240.44598 0 0)
(240.5494067 0 0)
(240.6017398 0 0)
(240.6505386 0 0)
(240.7280951 0 0)
(240.8422243 0 0)
(240.992087 0 0)
(241.2408018 0 0)
(241.7813548 0 0)
(242.785458 0 0)
(243.5483539 0 0)
(241.2997004 0 0)
(229.3883264 0 0)
(200.0612113 0 0)
(153.1621298 0 0)
(101.4496678 0 0)
(59.83897661 0 0)
(32.64777498 0 0)
(17.01655636 0 0)
(8.646774524 0 0)
(4.33513949 0 0)
(2.15856353 0 0)
(1.071089706 0 0)
(0.5305697982 0 0)
(0.2625998948 0 0)
(0.1299185607 0 0)
(0.06426382811 0 0)
(0.03178538744 0 0)
(0.01572089524 0 0)
(0.007775486748 0 0)
(0.003845779621 0 0)
(0.001902176446 0 0)
(0.0009408675563 0 0)
(0.0004653915167 0 0)
(0.0002302084943 0 0)
(0.0001138774133 0 0)
(5.633360796e-05 0 0)
(2.786836916e-05 0 0)
(1.378700104e-05 0 0)
(6.820913189e-06 0 0)
(3.374658785e-06 0 0)
(1.669674812e-06 0 0)
(8.261303252e-07 0 0)
(4.087708171e-07 0 0)
(2.022673098e-07 0 0)
(1.000889089e-07 0 0)
(4.952888268e-08 0 0)
(2.450982178e-08 0 0)
(1.212906814e-08 0 0)
(6.002322706e-09 0 0)
(2.970456549e-09 0 0)
(1.469811886e-09 0 0)
(7.272516859e-10 0 0)
(3.597359359e-10 0 0)
(1.778083053e-10 0 0)
(8.778928665e-11 0 0)
(4.301512551e-11 0 0)
(2.104430603e-11 0 0)
(1.02134894e-11 0 0)
(4.78485704e-12 0 0)
(2.045203597e-12 0 0)
(6.782514996e-13 0 0)
(1.301431051e-13 0 0)
(-1.34950319e-14 0 0)
(-9.536385887e-15 0 0)
(-9.601025658e-15 0 0)
(-9.836659946e-15 0 0)
(-1.002900865e-14 0 0)
(-1.013983612e-14 0 0)
(-1.012143703e-14 0 0)
(-1.008370442e-14 0 0)
(-1.015314881e-14 0 0)
(-1.036432492e-14 0 0)
(-1.065593917e-14 0 0)
(-1.092011094e-14 0 0)
(-1.10783524e-14 0 0)
(-1.110658071e-14 0 0)
(-1.103307822e-14 0 0)
(-1.09154689e-14 0 0)
(-1.079942787e-14 0 0)
(-1.071363321e-14 0 0)
(-1.065661979e-14 0 0)
(-1.060855672e-14 0 0)
(-1.055966672e-14 0 0)
(-1.050774667e-14 0 0)
(-1.045140791e-14 0 0)
(-1.039804442e-14 0 0)
(-1.03675181e-14 0 0)
(-1.037667059e-14 0 0)
(-1.043167578e-14 0 0)
(-1.052851407e-14 0 0)
(-1.066226711e-14 0 0)
(-1.081937533e-14 0 0)
(-1.096945975e-14 0 0)
(-1.109871241e-14 0 0)
(-1.119243792e-14 0 0)
(-1.123494751e-14 0 0)
(-1.122119201e-14 0 0)
(-1.115068469e-14 0 0)
(-1.103508723e-14 0 0)
(-1.089645641e-14 0 0)
(-1.075700022e-14 0 0)
(-1.062476817e-14 0 0)
(-1.051296824e-14 0 0)
(-1.043107943e-14 0 0)
(-1.038828783e-14 0 0)
(-1.038856286e-14 0 0)
(-1.042345489e-14 0 0)
(-1.048794267e-14 0 0)
(-1.057096886e-14 0 0)
(-1.065847474e-14 0 0)
(-1.074145181e-14 0 0)
(-1.081965321e-14 0 0)
(-1.088964277e-14 0 0)
(-1.094380035e-14 0 0)
(-1.097905583e-14 0 0)
(-1.100098025e-14 0 0)
(-1.101845082e-14 0 0)
(-1.103451673e-14 0 0)
(-1.105003309e-14 0 0)
(-1.106538867e-14 0 0)
(-1.108118911e-14 0 0)
(-1.109259438e-14 0 0)
(-1.110362457e-14 0 0)
(-1.11158671e-14 0 0)
(-1.113076127e-14 0 0)
(-1.115149791e-14 0 0)
(-1.117059208e-14 0 0)
(-1.118598824e-14 0 0)
(-1.120310312e-14 0 0)
(-1.1226776e-14 0 0)
(-1.124535939e-14 0 0)
(-1.125685668e-14 0 0)
(-1.127129899e-14 0 0)
(-1.128582041e-14 0 0)
(-1.128994907e-14 0 0)
(-1.128231937e-14 0 0)
(-1.12619534e-14 0 0)
(-1.122701252e-14 0 0)
(-1.118349119e-14 0 0)
(-1.113775715e-14 0 0)
(-1.1091997e-14 0 0)
(-1.104112436e-14 0 0)
(-1.098456356e-14 0 0)
(-1.092732059e-14 0 0)
(-1.0870462e-14 0 0)
(-1.080924004e-14 0 0)
(-1.07422821e-14 0 0)
(-1.067364678e-14 0 0)
(-1.060346465e-14 0 0)
(-1.053115872e-14 0 0)
(-1.045553115e-14 0 0)
(-1.038323065e-14 0 0)
(-1.031826337e-14 0 0)
(-1.025521876e-14 0 0)
(-1.019122523e-14 0 0)
(-1.012810437e-14 0 0)
(-1.006947122e-14 0 0)
(-1.001345326e-14 0 0)
(-9.961800999e-15 0 0)
(-9.915530583e-15 0 0)
(-9.871947729e-15 0 0)
(-9.826855788e-15 0 0)
(-9.781114509e-15 0 0)
(-9.735709273e-15 0 0)
(-9.693342892e-15 0 0)
(-9.653641841e-15 0 0)
(-9.61747828e-15 0 0)
(-9.585011183e-15 0 0)
(-9.558752076e-15 0 0)
(-9.53956407e-15 0 0)
(-9.520007453e-15 0 0)
(-9.499594445e-15 0 0)
(-9.482849207e-15 0 0)
(-9.468181227e-15 0 0)
(-9.460912119e-15 0 0)
(-9.470250729e-15 0 0)
(-9.490543796e-15 0 0)
(-9.51721546e-15 0 0)
(-9.552094564e-15 0 0)
(-9.5941324e-15 0 0)
(-9.634501399e-15 0 0)
(-9.674414156e-15 0 0)
(-9.717247377e-15 0 0)
(-9.760015717e-15 0 0)
(-9.802168582e-15 0 0)
(-9.848445977e-15 0 0)
(-9.901078963e-15 0 0)
(-9.954027311e-15 0 0)
(-1.000891902e-14 0 0)
(-1.006986672e-14 0 0)
(-1.013577311e-14 0 0)
(-1.020502958e-14 0 0)
(-1.02741064e-14 0 0)
(-1.034490194e-14 0 0)
(-1.041800067e-14 0 0)
(-1.048632579e-14 0 0)
(-1.055403776e-14 0 0)
(-1.062112107e-14 0 0)
(-1.068166449e-14 0 0)
(-1.07357621e-14 0 0)
(-1.077912188e-14 0 0)
(-1.081417986e-14 0 0)
(-1.084239706e-14 0 0)
(-1.086736499e-14 0 0)
(-1.088891356e-14 0 0)
(-1.090679746e-14 0 0)
(-1.09196777e-14 0 0)
(-1.092636468e-14 0 0)
(-1.093519897e-14 0 0)
(-1.094387299e-14 0 0)
(-1.095026916e-14 0 0)
(-1.095117027e-14 0 0)
(-1.094423747e-14 0 0)
(-1.093768154e-14 0 0)
(-1.093043156e-14 0 0)
(-1.092164148e-14 0 0)
(-1.091444139e-14 0 0)
(-1.090344867e-14 0 0)
(-1.088715399e-14 0 0)
(-1.086940321e-14 0 0)
(-1.085121093e-14 0 0)
(-1.083043654e-14 0 0)
(-1.081004758e-14 0 0)
(-1.078775868e-14 0 0)
(-1.076487111e-14 0 0)
(-1.074442062e-14 0 0)
(-1.072296872e-14 0 0)
(-1.07049124e-14 0 0)
(-1.068947514e-14 0 0)
(-1.06749103e-14 0 0)
(-1.066035813e-14 0 0)
(-1.064177836e-14 0 0)
(-1.06212816e-14 0 0)
(-1.059833716e-14 0 0)
(-1.057668648e-14 0 0)
(-1.055868677e-14 0 0)
(-1.053879308e-14 0 0)
(-1.052071531e-14 0 0)
(-1.049967726e-14 0 0)
(-1.047500014e-14 0 0)
(-1.044895687e-14 0 0)
(-1.042412698e-14 0 0)
(-1.040482032e-14 0 0)
(-1.039136132e-14 0 0)
(-1.038180997e-14 0 0)
(-1.036954443e-14 0 0)
(-1.035381301e-14 0 0)
(-1.033676895e-14 0 0)
(-1.032153564e-14 0 0)
(-1.030268265e-14 0 0)
(-1.028924484e-14 0 0)
(-1.028488146e-14 0 0)
(-1.02782635e-14 0 0)
(-1.027457221e-14 0 0)
(-1.027658484e-14 0 0)
(-1.027955752e-14 0 0)
(-1.028641614e-14 0 0)
(-1.029431933e-14 0 0)
(-1.030520632e-14 0 0)
(-1.032731583e-14 0 0)
(-1.035407253e-14 0 0)
(-1.038388154e-14 0 0)
(-1.041714144e-14 0 0)
(-1.044974554e-14 0 0)
(-1.047626701e-14 0 0)
(-1.050029687e-14 0 0)
(-1.052461029e-14 0 0)
(-1.055188761e-14 0 0)
(-1.058221463e-14 0 0)
(-1.061077072e-14 0 0)
(-1.064073042e-14 0 0)
(-1.066784644e-14 0 0)
(-1.069109642e-14 0 0)
(-1.071204503e-14 0 0)
(-1.073070906e-14 0 0)
(-1.074865785e-14 0 0)
(-1.076593998e-14 0 0)
(-1.078349896e-14 0 0)
(-1.080158086e-14 0 0)
(-1.0816786e-14 0 0)
(-1.082908953e-14 0 0)
(-1.084263513e-14 0 0)
(-1.085344354e-14 0 0)
(-1.086084267e-14 0 0)
(-1.086569641e-14 0 0)
(-1.086540457e-14 0 0)
(-1.086311457e-14 0 0)
(-1.08621933e-14 0 0)
(-1.085843066e-14 0 0)
(-1.085101214e-14 0 0)
(-1.084438953e-14 0 0)
(-1.084044129e-14 0 0)
(-1.083646824e-14 0 0)
(-1.083315331e-14 0 0)
(-1.082748661e-14 0 0)
(-1.081473821e-14 0 0)
(-1.080708368e-14 0 0)
(-1.0799409e-14 0 0)
(-1.078620151e-14 0 0)
(-1.077285288e-14 0 0)
(-1.075934735e-14 0 0)
(-1.074555799e-14 0 0)
(-1.073102727e-14 0 0)
(-1.071376323e-14 0 0)
(-1.069786198e-14 0 0)
(-1.068521878e-14 0 0)
(-1.06662081e-14 0 0)
(-1.064698494e-14 0 0)
(-1.063231205e-14 0 0)
(-1.061742875e-14 0 0)
(-1.060180124e-14 0 0)
(-1.058838333e-14 0 0)
(-1.05806585e-14 0 0)
(-1.057556255e-14 0 0)
(-1.057836023e-14 0 0)
(-1.058810778e-14 0 0)
(-1.06047155e-14 0 0)
(-1.06315495e-14 0 0)
(-1.066409776e-14 0 0)
(-1.070081786e-14 0 0)
(-1.073854505e-14 0 0)
(-1.077542903e-14 0 0)
(-1.08139193e-14 0 0)
(-1.085433302e-14 0 0)
(-1.089589083e-14 0 0)
(-1.094053661e-14 0 0)
(-1.098402641e-14 0 0)
(-1.102188543e-14 0 0)
(-1.106043153e-14 0 0)
(-1.110027242e-14 0 0)
(-1.113267205e-14 0 0)
(-1.115716746e-14 0 0)
(-1.117963136e-14 0 0)
(-1.120030363e-14 0 0)
(-1.121923857e-14 0 0)
(-1.123904257e-14 0 0)
(-1.125865812e-14 0 0)
(-1.127402714e-14 0 0)
(-1.128964974e-14 0 0)
(-1.13093537e-14 0 0)
(-1.133085833e-14 0 0)
(-1.134830356e-14 0 0)
(-1.13637584e-14 0 0)
(-1.138215128e-14 0 0)
(-1.139734426e-14 0 0)
(-1.140465757e-14 0 0)
(-1.139596855e-14 0 0)
(-1.137347881e-14 0 0)
(-1.13415804e-14 0 0)
(-1.129877742e-14 0 0)
(-1.123910357e-14 0 0)
(-1.115484722e-14 0 0)
(-1.105564991e-14 0 0)
(-1.094237295e-14 0 0)
(-1.080775473e-14 0 0)
(-1.065648434e-14 0 0)
(-1.048758181e-14 0 0)
(-1.029809179e-14 0 0)
(-1.008960273e-14 0 0)
(-9.866358315e-15 0 0)
(-9.629003491e-15 0 0)
(-9.371352498e-15 0 0)
(-9.097361845e-15 0 0)
(-8.81427479e-15 0 0)
(-8.521131545e-15 0 0)
(-8.215640303e-15 0 0)
(-7.897044194e-15 0 0)
(-7.579441994e-15 0 0)
(-7.268607682e-15 0 0)
(-6.95839479e-15 0 0)
(-6.649977138e-15 0 0)
(-6.34309856e-15 0 0)
(-6.036962375e-15 0 0)
(-5.729949638e-15 0 0)
(-5.424722318e-15 0 0)
(-5.120471072e-15 0 0)
(-4.815375584e-15 0 0)
(-4.515811091e-15 0 0)
(-4.220652369e-15 0 0)
(-3.932186055e-15 0 0)
(-3.659105301e-15 0 0)
(-3.397406293e-15 0 0)
(-3.1471185e-15 0 0)
(-2.904651183e-15 0 0)
(-2.674325068e-15 0 0)
(-2.462896153e-15 0 0)
(-2.264965791e-15 0 0)
(-2.077143576e-15 0 0)
(-1.895733303e-15 0 0)
(-1.728238277e-15 0 0)
(-1.581443703e-15 0 0)
(-1.450231145e-15 0 0)
(-1.324641863e-15 0 0)
(-1.199141504e-15 0 0)
(-1.083720857e-15 0 0)
(-9.890833814e-16 0 0)
(-9.078953458e-16 0 0)
(-8.28272491e-16 0 0)
(-7.455647695e-16 0 0)
(-6.674734913e-16 0 0)
(-5.957561567e-16 0 0)
(-5.334637697e-16 0 0)
(-4.802626146e-16 0 0)
(-4.360182746e-16 0 0)
(-4.041568284e-16 0 0)
(-3.775673661e-16 0 0)
(-3.54977322e-16 0 0)
(-3.362768363e-16 0 0)
(-3.15791967e-16 0 0)
(-2.918802434e-16 0 0)
(-2.652109065e-16 0 0)
(-2.421426487e-16 0 0)
(-2.23739948e-16 0 0)
(-2.046786047e-16 0 0)
(-1.862187769e-16 0 0)
(-1.657889667e-16 0 0)
(-1.423200433e-16 0 0)
(-1.195118304e-16 0 0)
(-9.654438519e-17 0 0)
(-7.475308744e-17 0 0)
(-5.846202377e-17 0 0)
(-4.130991678e-17 0 0)
(-2.482136374e-17 0 0)
(-9.158698839e-18 0 0)
(8.659547038e-18 0 0)
(2.312745294e-17 0 0)
(3.564269561e-17 0 0)
(4.642421941e-17 0 0)
(5.744071421e-17 0 0)
(6.972357082e-17 0 0)
(8.368844751e-17 0 0)
(9.088285089e-17 0 0)
(9.194164207e-17 0 0)
(9.13600307e-17 0 0)
(9.048425323e-17 0 0)
(9.41166101e-17 0 0)
(9.782237924e-17 0 0)
(1.007252662e-16 0 0)
(1.038900075e-16 0 0)
(1.090446352e-16 0 0)
(1.150383342e-16 0 0)
(1.196400434e-16 0 0)
(1.232318167e-16 0 0)
(1.283099302e-16 0 0)
(1.304763679e-16 0 0)
(1.249290879e-16 0 0)
(1.194927018e-16 0 0)
(1.167208713e-16 0 0)
(1.129093781e-16 0 0)
(1.12275551e-16 0 0)
(1.140092699e-16 0 0)
(1.145391824e-16 0 0)
(1.17524529e-16 0 0)
(1.190550716e-16 0 0)
(1.162178421e-16 0 0)
(1.122360014e-16 0 0)
(1.114894709e-16 0 0)
(1.117978542e-16 0 0)
(1.113871073e-16 0 0)
(1.153661046e-16 0 0)
(1.211736879e-16 0 0)
(1.22964534e-16 0 0)
(1.216149371e-16 0 0)
(1.210222105e-16 0 0)
(1.229441129e-16 0 0)
(1.281478545e-16 0 0)
(1.335511533e-16 0 0)
(1.308276612e-16 0 0)
(1.210330672e-16 0 0)
(1.164680642e-16 0 0)
(1.173541815e-16 0 0)
(1.1880304e-16 0 0)
(1.198233156e-16 0 0)
(1.196850213e-16 0 0)
(1.190990156e-16 0 0)
(1.205672611e-16 0 0)
(1.236298974e-16 0 0)
(1.230958489e-16 0 0)
(1.182578763e-16 0 0)
(1.126180555e-16 0 0)
(1.072848085e-16 0 0)
(1.015578752e-16 0 0)
(1.001273697e-16 0 0)
(1.013999354e-16 0 0)
(1.017514872e-16 0 0)
(1.022524484e-16 0 0)
(1.044462865e-16 0 0)
(1.104043133e-16 0 0)
(1.133994826e-16 0 0)
(1.117453799e-16 0 0)
(1.117024699e-16 0 0)
(1.121134753e-16 0 0)
(1.112265826e-16 0 0)
(1.089838891e-16 0 0)
(1.046541156e-16 0 0)
(1.003985299e-16 0 0)
(9.999243588e-17 0 0)
(1.023933276e-16 0 0)
(1.067582563e-16 0 0)
(1.109130294e-16 0 0)
(1.09098402e-16 0 0)
(1.038566618e-16 0 0)
(1.007914407e-16 0 0)
(1.008002294e-16 0 0)
(1.011977931e-16 0 0)
(9.891244819e-17 0 0)
(9.606591291e-17 0 0)
(9.189666413e-17 0 0)
(8.429177237e-17 0 0)
(7.720903838e-17 0 0)
(7.288391775e-17 0 0)
(6.983782514e-17 0 0)
(6.882788931e-17 0 0)
(7.364725036e-17 0 0)
(7.976993785e-17 0 0)
(8.53572844e-17 0 0)
(9.066132158e-17 0 0)
(9.219005475e-17 0 0)
(9.468994966e-17 0 0)
(1.050214355e-16 0 0)
(1.124177227e-16 0 0)
(1.156985278e-16 0 0)
(1.182154833e-16 0 0)
(1.195935145e-16 0 0)
(1.195555159e-16 0 0)
(1.151228618e-16 0 0)
(1.143292854e-16 0 0)
(1.158991191e-16 0 0)
(1.158637054e-16 0 0)
(1.161594225e-16 0 0)
(1.144621512e-16 0 0)
(1.096655377e-16 0 0)
(1.041655621e-16 0 0)
(9.728548732e-17 0 0)
(9.06220305e-17 0 0)
(8.739912804e-17 0 0)
(8.544698179e-17 0 0)
(8.223235114e-17 0 0)
(7.873647908e-17 0 0)
(7.390600279e-17 0 0)
(6.777504349e-17 0 0)
(6.643371843e-17 0 0)
(6.989753724e-17 0 0)
(7.183546632e-17 0 0)
(7.205156726e-17 0 0)
(7.213997218e-17 0 0)
(7.11282269e-17 0 0)
(6.8627815e-17 0 0)
(6.329120758e-17 0 0)
(5.785197807e-17 0 0)
(5.657114059e-17 0 0)
(5.769972513e-17 0 0)
(5.243885644e-17 0 0)
(4.635261659e-17 0 0)
(3.992981763e-17 0 0)
(3.070261789e-17 0 0)
(2.848758331e-17 0 0)
(3.005431509e-17 0 0)
(3.218120324e-17 0 0)
(3.635846533e-17 0 0)
(4.109407434e-17 0 0)
(4.471221404e-17 0 0)
(5.303210003e-17 0 0)
(6.060597252e-17 0 0)
(6.058891192e-17 0 0)
(6.071505696e-17 0 0)
(5.978034287e-17 0 0)
(5.885441757e-17 0 0)
(6.547754934e-17 0 0)
(7.374625354e-17 0 0)
(7.750837436e-17 0 0)
(8.052241372e-17 0 0)
(7.963035113e-17 0 0)
(7.550763125e-17 0 0)
(7.749493267e-17 0 0)
(7.971151822e-17 0 0)
(8.058186732e-17 0 0)
(8.204701098e-17 0 0)
(7.897636145e-17 0 0)
(7.739256907e-17 0 0)
(7.440954899e-17 0 0)
(7.110547943e-17 0 0)
(7.176127856e-17 0 0)
(7.781598215e-17 0 0)
(8.728306426e-17 0 0)
(9.173329596e-17 0 0)
(9.228750697e-17 0 0)
(9.429703887e-17 0 0)
(9.62155809e-17 0 0)
(9.713220042e-17 0 0)
(9.884446428e-17 0 0)
(1.004308416e-16 0 0)
(9.953722805e-17 0 0)
(9.922987875e-17 0 0)
(1.027676268e-16 0 0)
(1.044558508e-16 0 0)
(1.049537101e-16 0 0)
(1.048728015e-16 0 0)
(1.02502929e-16 0 0)
(1.046256813e-16 0 0)
(1.053124997e-16 0 0)
(9.868988491e-17 0 0)
(9.273521847e-17 0 0)
(8.760256277e-17 0 0)
(8.334361659e-17 0 0)
(8.230731438e-17 0 0)
(8.570418327e-17 0 0)
(8.914422064e-17 0 0)
(8.689273841e-17 0 0)
(8.3006282e-17 0 0)
(7.744995473e-17 0 0)
(6.789653564e-17 0 0)
(6.046948772e-17 0 0)
(5.403247159e-17 0 0)
(4.50037952e-17 0 0)
(4.057889591e-17 0 0)
(3.931796247e-17 0 0)