/*--------------------------------*- C++ -*----------------------------------*\
| =========                 |                                                 |
| \\      /  F ield         | OpenFOAM: The Open Source CFD Toolbox           |
|  \\    /   O peration     | Version:  2312                                  |
|   \\  /    A nd           | Website:  www.openfoam.com                      |
|    \\/     M anipulation  |                                                 |
\*---------------------------------------------------------------------------*/
FoamFile
{
    version     2.0;
    format      ascii;
    arch        "LSB;label=32;scalar=64";
    class       volScalarField;
    location    "0.0001";
    object      p;
}
// * * * * * * * * * * * * * * * * * * * * * * * * * * * * * * * * * * * * * //

dimensions      [1 -1 -2 0 0 0 0];

internalField   nonuniform List<scalar> 
800
(
1e+07
1e+07
1e+07
1e+07
1e+07
1e+07
1e+07
1e+07
1e+07
1e+07
1e+07
1e+07
1e+07
1e+07
1e+07
1e+07
1e+07
1e+07
1e+07
1e+07
1e+07
1e+07
1e+07
1e+07
1e+07
1e+07
1e+07
1e+07
1e+07
1e+07
1e+07
1e+07
1e+07
1e+07
1e+07
1e+07
1e+07
1e+07
1e+07
1e+07
1e+07
1e+07
1e+07
1e+07
1e+07
1e+07
1e+07
1e+07
1e+07
1e+07
1e+07
1e+07
1e+07
1e+07
1e+07
1e+07
1e+07
1e+07
1e+07
1e+07
1e+07
1e+07
1e+07
1e+07
1e+07
1e+07
1e+07
1e+07
1e+07
1e+07
1e+07
1e+07
1e+07
1e+07
1e+07
1e+07
1e+07
1e+07
1e+07
1e+07
1e+07
1e+07
1e+07
1e+07
1e+07
1e+07
1e+07
1e+07
1e+07
1e+07
1e+07
1e+07
1e+07
1e+07
1e+07
1e+07
1e+07
1e+07
1e+07
1e+07
1e+07
1e+07
1e+07
1e+07
1e+07
1e+07
1e+07
1e+07
1e+07
1e+07
1e+07
1e+07
1e+07
1e+07
1e+07
1e+07
1e+07
1e+07
1e+07
1e+07
1e+07
1e+07
1e+07
1e+07
1e+07
1e+07
1e+07
1e+07
1e+07
1e+07
1e+07
1e+07
1e+07
1e+07
1e+07
1e+07
1e+07
1e+07
1e+07
1e+07
1e+07
1e+07
1e+07
1e+07
1e+07
1e+07
1e+07
1e+07
1e+07
1e+07
1e+07
1e+07
1e+07
1e+07
1e+07
1e+07
1e+07
1e+07
1e+07
1e+07
1e+07
1e+07
1e+07
1e+07
1e+07
1e+07
1e+07
1e+07
1e+07
1e+07
1e+07
1e+07
1e+07
1e+07
1e+07
1e+07
1e+07
1e+07
1e+07
1e+07
1e+07
1e+07
1e+07
1e+07
1e+07
1e+07
1e+07
1e+07
1e+07
1e+07
1e+07
1e+07
1e+07
1e+07
1e+07
1e+07
1e+07
1e+07
1e+07
1e+07
1e+07
1e+07
1e+07
1e+07
1e+07
1e+07
1e+07
1e+07
1e+07
1e+07
1e+07
1e+07
1e+07
1e+07
1e+07
1e+07
1e+07
1e+07
1e+07
1e+07
1e+07
1e+07
1e+07
1e+07
1e+07
1e+07
1e+07
1e+07
1e+07
1e+07
1e+07
1e+07
1e+07
1e+07
1e+07
1e+07
1e+07
1e+07
1e+07
1e+07
1e+07
1e+07
1e+07
1e+07
1e+07
1e+07
9.99999e+06
9.99999e+06
9.99998e+06
9.99996e+06
9.99994e+06
9.9999e+06
9.99985e+06
9.99975e+06
9.99961e+06
9.99938e+06
9.99903e+06
9.99849e+06
9.99769e+06
9.99648e+06
9.9947e+06
9.9921e+06
9.98834e+06
9.98295e+06
9.97534e+06
9.96471e+06
9.95003e+06
9.93003e+06
9.90313e+06
9.86741e+06
9.82065e+06
9.76029e+06
9.68352e+06
9.58735e+06
9.46878e+06
9.32496e+06
9.15348e+06
8.95266e+06
8.72181e+06
8.46164e+06
8.17452e+06
7.86628e+06
7.56003e+06
7.27075e+06
7.00129e+06
6.75526e+06
6.53492e+06
6.34125e+06
6.17413e+06
6.03247e+06
5.9145e+06
5.81794e+06
5.74023e+06
5.67874e+06
5.63088e+06
5.59423e+06
5.56661e+06
5.54613e+06
5.53117e+06
5.52043e+06
5.51282e+06
5.5075e+06
5.50384e+06
5.50135e+06
5.49968e+06
5.49856e+06
5.49782e+06
5.49733e+06
5.49701e+06
5.4968e+06
5.49665e+06
5.49655e+06
5.49646e+06
5.4964e+06
5.49634e+06
5.49629e+06
5.49626e+06
5.49622e+06
5.49619e+06
5.49616e+06
5.49613e+06
5.4961e+06
5.49607e+06
5.49604e+06
5.49602e+06
5.49599e+06
5.49597e+06
5.49595e+06
5.49593e+06
5.49591e+06
5.49589e+06
5.49587e+06
5.49585e+06
5.49583e+06
5.49582e+06
5.4958e+06
5.49579e+06
5.49577e+06
5.49575e+06
5.49574e+06
5.49572e+06
5.49571e+06
5.49569e+06
5.49568e+06
5.49567e+06
5.49566e+06
5.49565e+06
5.49564e+06
5.49562e+06
5.49561e+06
5.4956e+06
5.49559e+06
5.49558e+06
5.49557e+06
5.49556e+06
5.49555e+06
5.49554e+06
5.49553e+06
5.49552e+06
5.49551e+06
5.4955e+06
5.49549e+06
5.49548e+06
5.49547e+06
5.49547e+06
5.49546e+06
5.49545e+06
5.49544e+06
5.49543e+06
5.49542e+06
5.49541e+06
5.49541e+06
5.4954e+06
5.49539e+06
5.49538e+06
5.49537e+06
5.49537e+06
5.49536e+06
5.49535e+06
5.49534e+06
5.49534e+06
5.49533e+06
5.49532e+06
5.49532e+06
5.49531e+06
5.4953e+06
5.49529e+06
5.49529e+06
5.49528e+06
5.49527e+06
5.49526e+06
5.49526e+06
5.49525e+06
5.49524e+06
5.49524e+06
5.49523e+06
5.49522e+06
5.49522e+06
5.49521e+06
5.4952e+06
5.49519e+06
5.49519e+06
5.49518e+06
5.49517e+06
5.49517e+06
5.49516e+06
5.49515e+06
5.49515e+06
5.49514e+06
5.49513e+06
5.49512e+06
5.49512e+06
5.49511e+06
5.4951e+06
5.49509e+06
5.49509e+06
5.49508e+06
5.49507e+06
5.49506e+06
5.49506e+06
5.49505e+06
5.49504e+06
5.49503e+06
5.49502e+06
5.49502e+06
5.49501e+06
5.495e+06
5.49499e+06
5.49499e+06
5.49498e+06
5.49497e+06
5.49496e+06
5.49495e+06
5.49494e+06
5.49493e+06
5.49492e+06
5.49491e+06
5.4949e+06
5.49489e+06
5.49488e+06
5.49487e+06
5.49486e+06
5.49485e+06
5.49484e+06
5.49484e+06
5.49483e+06
5.49481e+06
5.4948e+06
5.49479e+06
5.49478e+06
5.49476e+06
5.49475e+06
5.49474e+06
5.49473e+06
5.49472e+06
5.4947e+06
5.49469e+06
5.49467e+06
5.49466e+06
5.49464e+06
5.49463e+06
5.49461e+06
5.4946e+06
5.49458e+06
5.49457e+06
5.49455e+06
5.49453e+06
5.49451e+06
5.49449e+06
5.49446e+06
5.49444e+06
5.49442e+06
5.4944e+06
5.49438e+06
5.49436e+06
5.49433e+06
5.4943e+06
5.49427e+06
5.49424e+06
5.49421e+06
5.49418e+06
5.49415e+06
5.49412e+06
5.49408e+06
5.49404e+06
5.49399e+06
5.49393e+06
5.49387e+06
5.4938e+06
5.49371e+06
5.49359e+06
5.49342e+06
5.49318e+06
5.4928e+06
5.49224e+06
5.4914e+06
5.49013e+06
5.48823e+06
5.48541e+06
5.48127e+06
5.47526e+06
5.46667e+06
5.45455e+06
5.4377e+06
5.41465e+06
5.38358e+06
5.34237e+06
5.28856e+06
5.21944e+06
5.13208e+06
5.02355e+06
4.89103e+06
4.73207e+06
4.54486e+06
4.32851e+06
4.08335e+06
3.81116e+06
3.51539e+06
3.19941e+06
2.87455e+06
2.56964e+06
2.29466e+06
2.0523e+06
1.8432e+06
1.66634e+06
1.51952e+06
1.39976e+06
1.3037e+06
1.22787e+06
1.1689e+06
1.12372e+06
1.08958e+06
1.06413e+06
1.0454e+06
1.0318e+06
1.02203e+06
1.01511e+06
1.01026e+06
1.00689e+06
1.00459e+06
1.00302e+06
1.00197e+06
1.00128e+06
1.00082e+06
1.00052e+06
1.00033e+06
1.0002e+06
1.00013e+06
1.00008e+06
1.00005e+06
1.00003e+06
1.00002e+06
1.00001e+06
1.00001e+06
1e+06
1e+06
1e+06
1e+06
1e+06
1e+06
1e+06
1e+06
1e+06
1e+06
1e+06
1e+06
1e+06
1e+06
1e+06
1e+06
1e+06
1e+06
1e+06
1e+06
1e+06
1e+06
1e+06
1e+06
1e+06
1e+06
1e+06
1e+06
1e+06
1e+06
1e+06
1e+06
1e+06
1e+06
1e+06
1e+06
1e+06
1e+06
1e+06
1e+06
1e+06
1e+06
1e+06
1e+06
1e+06
1e+06
1e+06
1e+06
1e+06
1e+06
1e+06
1e+06
1e+06
1e+06
1e+06
1e+06
1e+06
1e+06
1e+06
1e+06
1e+06
1e+06
1e+06
1e+06
1e+06
1e+06
1e+06
1e+06
1e+06
1e+06
1e+06
1e+06
1e+06
1e+06
1e+06
1e+06
1e+06
1e+06
1e+06
1e+06
1e+06
1e+06
1e+06
1e+06
1e+06
1e+06
1e+06
1e+06
1e+06
1e+06
1e+06
1e+06
1e+06
1e+06
1e+06
1e+06
1e+06
1e+06
1e+06
1e+06
1e+06
1e+06
1e+06
1e+06
1e+06
1e+06
1e+06
1e+06
1e+06
1e+06
1e+06
1e+06
1e+06
1e+06
1e+06
1e+06
1e+06
1e+06
1e+06
1e+06
1e+06
1e+06
1e+06
1e+06
1e+06
1e+06
1e+06
1e+06
1e+06
1e+06
1e+06
1e+06
1e+06
1e+06
1e+06
1e+06
1e+06
1e+06
1e+06
1e+06
1e+06
1e+06
1e+06
1e+06
1e+06
1e+06
1e+06
1e+06
1e+06
1e+06
1e+06
1e+06
1e+06
1e+06
1e+06
1e+06
1e+06
1e+06
1e+06
1e+06
1e+06
1e+06
1e+06
1e+06
1e+06
1e+06
1e+06
1e+06
1e+06
1e+06
1e+06
1e+06
1e+06
1e+06
1e+06
1e+06
1e+06
1e+06
1e+06
1e+06
1e+06
1e+06
1e+06
1e+06
1e+06
1e+06
1e+06
1e+06
1e+06
1e+06
1e+06
1e+06
1e+06
1e+06
1e+06
1e+06
1e+06
1e+06
1e+06
1e+06
1e+06
1e+06
1e+06
1e+06
1e+06
1e+06
1e+06
1e+06
1e+06
1e+06
1e+06
1e+06
1e+06
1e+06
1e+06
1e+06
1e+06
1e+06
1e+06
1e+06
1e+06
1e+06
1e+06
1e+06
1e+06
1e+06
1e+06
1e+06
1e+06
1e+06
1e+06
1e+06
1e+06
1e+06
1e+06
1e+06
1e+06
1e+06
1e+06
1e+06
1e+06
1e+06
1e+06
1e+06
1e+06
1e+06
)
;

boundaryField
{
    sides
    {
        type            zeroGradient;
    }
    empty1
    {
        type            empty;
    }
    empty2
    {
        type            empty;
    }
}


// ************************************************************************* //
