/*--------------------------------*- C++ -*----------------------------------*\
| =========                 |                                                 |
| \\      /  F ield         | OpenFOAM: The Open Source CFD Toolbox           |
|  \\    /   O peration     | Version:  2312                                  |
|   \\  /    A nd           | Website:  www.openfoam.com                      |
|    \\/     M anipulation  |                                                 |
\*---------------------------------------------------------------------------*/
FoamFile
{
    version     2.0;
    format      ascii;
    arch        "LSB;label=32;scalar=64";
    class       surfaceScalarField;
    location    "0.0001";
    object      phi;
}
// * * * * * * * * * * * * * * * * * * * * * * * * * * * * * * * * * * * * * //

dimensions      [1 0 -1 0 0 0 0];

oriented        oriented;

internalField   nonuniform List<scalar> 
799
(
-6.25278e-13
-1.84741e-12
-3.69482e-12
-3.46745e-12
-2.98428e-12
-2.98428e-12
-3.0127e-12
-2.6148e-12
-1.81899e-12
-1.59162e-12
-9.09495e-13
5.96856e-13
6.25278e-13
2.27374e-13
1.90425e-12
2.359e-12
3.35376e-12
3.2685e-12
2.55795e-12
2.07478e-12
1.73372e-12
1.87583e-12
2.01794e-12
2.30216e-12
3.32534e-12
3.2685e-12
2.92744e-12
2.78533e-12
3.6664e-12
4.12115e-12
5.76961e-12
7.07701e-12
6.90648e-12
4.37694e-12
2.30216e-12
1.25056e-12
9.09495e-13
-3.41061e-13
-2.58638e-12
-2.87059e-12
-2.04636e-12
-1.22213e-12
-4.54747e-13
-5.68434e-14
-8.81073e-13
-2.07478e-12
-2.64322e-12
-4.46221e-12
-4.74643e-12
-3.0127e-12
-1.44951e-12
-1.16529e-12
-7.95808e-13
-9.66338e-13
-1.56319e-12
-1.56319e-12
1.36424e-12
3.63798e-12
4.60432e-12
3.09797e-12
1.9611e-12
1.19371e-12
1.98952e-13
-1.7053e-13
-5.11591e-13
9.9476e-13
1.62004e-12
1.27898e-12
4.26326e-13
2.27374e-13
8.2423e-13
-8.52651e-13
-1.39266e-12
-1.90425e-12
-9.9476e-13
8.52651e-13
1.76215e-12
3.41061e-12
4.3201e-12
3.78009e-12
2.95586e-12
2.55795e-12
2.07478e-12
2.52953e-12
1.53477e-12
5.11591e-13
4.54747e-13
1.9611e-12
4.68958e-12
4.51905e-12
3.63798e-12
2.33058e-12
-1.98952e-13
-5.11591e-13
-4.26326e-13
-2.55795e-13
-5.11591e-13
-7.95808e-13
-4.26326e-13
-1.44951e-12
-2.50111e-12
-2.75691e-12
-2.84217e-12
-1.87583e-12
5.96856e-13
2.359e-12
2.58638e-12
3.58114e-12
3.32534e-12
1.7053e-12
-1.47793e-12
-4.0643e-12
-3.43903e-12
-2.44427e-12
-9.66338e-13
1.42109e-13
6.53699e-13
3.97904e-13
-6.53699e-13
2.84217e-14
3.97904e-13
1.98952e-13
-3.97904e-13
-1.81899e-12
-1.36424e-12
-1.0516e-12
-1.47793e-12
-1.19371e-12
-5.11591e-13
5.11591e-13
5.68434e-13
5.11591e-13
1.7053e-13
1.3074e-12
1.59162e-12
1.19371e-12
2.04636e-12
3.35376e-12
3.72324e-12
3.04112e-12
6.25278e-13
4.26326e-13
1.53477e-12
1.73372e-12
2.18847e-12
1.98952e-12
8.2423e-13
8.52651e-13
9.66338e-13
-1.98952e-13
-1.36424e-12
-7.67386e-13
1.98952e-13
-1.13687e-13
-1.7053e-13
7.10543e-13
1.53477e-12
2.21689e-12
3.49587e-12
3.75167e-12
3.38218e-12
3.29692e-12
2.27374e-12
1.42109e-12
1.44951e-12
2.33058e-12
3.55271e-12
3.49587e-12
1.67688e-12
8.81073e-13
1.81899e-12
2.50111e-12
3.06954e-12
3.29692e-12
2.70006e-12
1.16529e-12
3.12639e-13
-8.52651e-13
-2.55795e-13
4.26326e-13
-8.52651e-14
-1.42109e-12
-2.24532e-12
-2.44427e-12
-2.92744e-12
-3.58114e-12
-3.0127e-12
-3.06954e-12
-3.15481e-12
-2.81375e-12
-2.95586e-12
-3.15481e-12
-4.29168e-12
-4.3201e-12
-4.26326e-12
-3.83693e-12
-4.03588e-12
-2.81375e-12
-2.01794e-12
-1.73372e-12
-1.67688e-12
-2.44427e-12
-3.69482e-12
-4.77485e-12
-4.54747e-12
-3.97904e-12
-3.35376e-12
-2.87059e-12
-4.5759e-12
-6.48015e-12
-7.38964e-12
-6.6791e-12
-4.5759e-12
-3.06954e-12
-2.10321e-12
-1.25056e-12
0
1.42109e-12
3.72324e-12
4.86011e-12
6.99174e-12
7.5886e-12
7.70228e-12
7.81597e-12
9.89075e-12
1.50067e-11
2.33058e-11
4.04441e-11
7.07701e-11
1.29461e-10
2.41727e-10
4.56538e-10
8.63281e-10
1.62376e-09
3.02697e-09
5.57688e-09
1.01719e-08
1.84052e-08
3.30528e-08
5.89099e-08
1.04267e-07
1.83207e-07
3.19537e-07
5.53146e-07
9.50368e-07
1.62043e-06
2.74161e-06
4.60222e-06
7.66419e-06
1.26605e-05
2.07426e-05
3.37017e-05
5.42947e-05
8.67202e-05
0.000137303
0.000215462
0.000335064
0.000516275
0.000788064
0.0011915
0.00178402
0.00264486
0.00388166
0.00563845
0.00810478
0.0115258
0.0162125
0.0225521
0.0310154
0.0421619
0.0566385
0.0751702
0.0985408
0.127561
0.16302
0.205629
0.255944
0.314285
0.38065
0.454631
0.535322
0.619964
0.701163
0.777189
0.847213
0.910434
0.966429
1.01511
1.05666
1.09151
1.12022
1.14347
1.16198
1.17647
1.18763
1.19608
1.20238
1.20701
1.21035
1.21273
1.2144
1.21555
1.21634
1.21686
1.21722
1.21745
1.2176
1.2177
1.21777
1.21782
1.21785
1.21787
1.21789
1.21791
1.21792
1.21793
1.21794
1.21795
1.21796
1.21796
1.21797
1.21798
1.21798
1.21799
1.21799
1.218
1.21801
1.21801
1.21802
1.21802
1.21802
1.21803
1.21803
1.21804
1.21804
1.21804
1.21805
1.21805
1.21805
1.21806
1.21806
1.21806
1.21806
1.21807
1.21807
1.21807
1.21807
1.21808
1.21808
1.21808
1.21808
1.21808
1.21809
1.21809
1.21809
1.21809
1.21809
1.21809
1.21809
1.2181
1.2181
1.2181
1.2181
1.2181
1.2181
1.2181
1.2181
1.2181
1.21811
1.21811
1.21811
1.21811
1.21811
1.21811
1.21811
1.21811
1.21811
1.21811
1.21811
1.21811
1.21811
1.21811
1.21812
1.21812
1.21812
1.21812
1.21812
1.21812
1.21812
1.21812
1.21812
1.21813
1.21813
1.21813
1.21814
1.21814
1.21815
1.21815
1.21816
1.21816
1.21815
1.21815
1.21814
1.21813
1.21812
1.21812
1.21811
1.2181
1.2181
1.2181
1.2181
1.21809
1.21809
1.21809
1.21809
1.21809
1.21809
1.21809
1.21809
1.21809
1.21809
1.21808
1.21808
1.21808
1.21808
1.21808
1.21808
1.21808
1.21808
1.21808
1.21808
1.21807
1.21807
1.21807
1.21807
1.21807
1.21807
1.21807
1.21806
1.21806
1.21806
1.21806
1.21806
1.21805
1.21805
1.21805
1.21805
1.21805
1.21805
1.21804
1.21804
1.21804
1.21804
1.21803
1.21803
1.21803
1.21802
1.21802
1.21802
1.21802
1.21801
1.21801
1.218
1.218
1.218
1.21799
1.21799
1.21798
1.21798
1.21797
1.21797
1.21796
1.21796
1.21795
1.21795
1.21794
1.21793
1.21793
1.21792
1.21791
1.2179
1.21789
1.21788
1.21787
1.21786
1.21785
1.21784
1.21782
1.2178
1.21777
1.21773
1.21768
1.2176
1.21749
1.21731
1.21705
1.21665
1.21604
1.21515
1.21384
1.21196
1.20928
1.20551
1.2003
1.19321
1.18369
1.17113
1.15483
1.134
1.10785
1.07556
1.0364
0.989742
0.935189
0.872625
0.802301
0.724899
0.641534
0.55302
0.46694
0.38835
0.318233
0.257039
0.204717
0.160832
0.124686
0.0954205
0.0721087
0.0538262
0.0396998
0.0289396
0.0208556
0.0148624
0.0104759
0.00730513
0.00504075
0.00344256
0.0023274
0.00155793
0.00103274
0.00067807
0.000441033
0.000284219
0.000181504
0.000114878
7.20721e-05
4.48269e-05
2.76447e-05
1.6906e-05
1.02538e-05
6.16872e-06
3.68151e-06
2.17986e-06
1.2807e-06
7.46653e-07
4.32017e-07
2.48109e-07
1.41443e-07
8.00516e-08
4.49855e-08
2.51004e-08
1.38951e-08
7.64845e-09
4.1571e-09
2.22224e-09
1.18746e-09
6.35737e-10
3.34154e-10
1.66466e-10
6.30678e-11
1.4353e-11
-1.55751e-11
-4.14389e-11
-5.79234e-11
-6.50289e-11
-6.0254e-11
-4.38263e-11
-2.39311e-11
-9.00968e-12
1.02034e-11
1.3813e-11
3.72324e-12
-2.20837e-11
-4.26894e-11
-4.63274e-11
-4.75779e-11
-5.30065e-11
-4.75211e-11
-4.83453e-11
-5.00791e-11
-5.50529e-11
-5.26086e-11
-4.97664e-11
-4.4281e-11
-3.7744e-11
-2.73701e-11
-6.13909e-12
-5.40012e-13
2.95586e-12
-3.78009e-12
-1.34435e-11
-1.09992e-11
-1.23066e-11
-2.59774e-11
-5.11591e-12
-5.59908e-12
-1.42109e-12
-6.84963e-12
1.35856e-11
2.39595e-11
1.40119e-11
1.35003e-11
9.9476e-12
1.29887e-11
-7.84439e-12
-1.6513e-11
-2.54943e-11
-3.01554e-11
-3.65219e-11
-3.38218e-11
-1.7053e-11
3.04112e-12
6.30962e-12
8.21387e-12
9.49285e-12
9.09495e-13
-1.73372e-11
-3.66356e-11
-4.2121e-11
-3.93641e-11
-2.93596e-11
-2.54943e-11
-2.42437e-11
-2.06342e-11
-2.10036e-11
-2.73417e-11
-3.06386e-11
-3.51292e-11
-3.96199e-11
-3.42197e-11
-2.77964e-11
-1.11982e-11
-9.86233e-12
-6.73595e-12
-3.2685e-12
-3.12639e-13
-4.60432e-12
5.82645e-12
2.19131e-11
2.82512e-11
2.88765e-11
2.51532e-11
2.33911e-11
1.67972e-11
7.30438e-12
5.22959e-12
1.62856e-11
2.50395e-11
2.82512e-11
2.98996e-11
1.78488e-11
1.96678e-11
2.14584e-11
1.82183e-11
2.07478e-12
-5.91172e-12
-2.49827e-11
-3.17186e-11
-4.49063e-11
-4.30305e-11
-3.97904e-11
-3.7943e-11
-4.0842e-11
-3.50724e-11
-2.06057e-11
-2.18563e-11
-2.74554e-11
-5.09033e-11
-6.13625e-11
-5.64171e-11
-5.56213e-11
-5.52518e-11
-6.0453e-11
-6.16751e-11
-5.12443e-11
-4.9539e-11
-4.65263e-11
-4.53895e-11
-5.35465e-11
-4.09841e-11
-2.52385e-11
-1.97815e-11
-2.50395e-11
-3.67777e-11
-4.78622e-11
-5.75824e-11
-6.17035e-11
-5.76676e-11
-4.80327e-11
-3.75735e-11
-3.01554e-11
-3.0866e-11
-1.70246e-11
-9.6918e-12
-1.62004e-12
-5.76961e-12
-2.20268e-11
-3.96199e-11
-5.43992e-11
-6.70752e-11
-6.2272e-11
-5.23812e-11
-4.28315e-11
-3.76303e-11
-3.16618e-11
-3.67493e-11
-3.85398e-11
-4.75495e-11
-3.85114e-11
-1.94689e-11
-2.197e-11
-1.97531e-11
-1.63425e-11
-1.06013e-11
-4.17799e-12
1.44382e-11
6.48015e-12
-8.29914e-12
-1.23919e-11
-1.33014e-11
-1.14539e-11
-1.78488e-11
-1.67972e-11
-1.00613e-11
-3.15481e-12
6.53699e-13
-1.67688e-12
8.2423e-13
-6.33804e-12
-1.84173e-11
-2.06626e-11
-2.66027e-11
-2.67164e-11
-3.00417e-11
-2.48406e-11
-1.85594e-11
-1.64277e-11
-2.55795e-12
1.89289e-11
3.0866e-11
3.3566e-11
3.29692e-11
3.15765e-11
3.06954e-12
-7.56017e-12
-1.29035e-11
-1.91562e-11
-3.53566e-11
-4.76632e-11
-5.40297e-11
-5.55644e-11
-6.53699e-11
-6.3352e-11
-5.89182e-11
-5.67582e-11
-5.13865e-11
-4.84022e-11
-4.17231e-11
-3.62093e-11
-3.08091e-11
-2.52385e-11
-1.85025e-11
-5.79803e-12
5.54223e-12
2.73985e-11
4.26041e-11
4.83453e-11
5.41718e-11
5.22675e-11
6.4432e-11
7.90124e-11
9.37916e-11
9.14611e-11
8.6203e-11
8.49809e-11
8.10303e-11
7.20206e-11
6.57678e-11
3.8284e-11
2.58922e-11
1.60298e-11
9.49285e-12
5.85487e-12
-1.98952e-12
5.54223e-12
-1.69393e-11
-1.55467e-11
-1.51772e-11
-5.96856e-12
)
;

boundaryField
{
    sides
    {
        type            calculated;
        value           uniform 0;
    }
    empty1
    {
        type            empty;
        value           nonuniform List<scalar> 0();
    }
    empty2
    {
        type            empty;
        value           nonuniform List<scalar> 0();
    }
}


// ************************************************************************* //
