/*--------------------------------*- C++ -*----------------------------------*\
| =========                 |                                                 |
| \\      /  F ield         | OpenFOAM: The Open Source CFD Toolbox           |
|  \\    /   O peration     | Version:  2312                                  |
|   \\  /    A nd           | Website:  www.openfoam.com                      |
|    \\/     M anipulation  |                                                 |
\*---------------------------------------------------------------------------*/
FoamFile
{
    version     2.0;
    format      ascii;
    arch        "LSB;label=32;scalar=64";
    class       volScalarField;
    location    "0.0001";
    object      thermo:psiGasEff;
}
// * * * * * * * * * * * * * * * * * * * * * * * * * * * * * * * * * * * * * //

dimensions      [-2 4 2 0 0 0 0];

internalField   nonuniform List<scalar> 
800
(
8.4091e-10
8.4091e-10
8.4091e-10
8.4091e-10
8.4091e-10
8.4091e-10
8.4091e-10
8.4091e-10
8.4091e-10
8.4091e-10
8.4091e-10
8.4091e-10
8.4091e-10
8.4091e-10
8.4091e-10
8.4091e-10
8.4091e-10
8.4091e-10
8.4091e-10
8.4091e-10
8.4091e-10
8.4091e-10
8.4091e-10
8.4091e-10
8.4091e-10
8.4091e-10
8.4091e-10
8.4091e-10
8.4091e-10
8.4091e-10
8.4091e-10
8.4091e-10
8.4091e-10
8.4091e-10
8.4091e-10
8.4091e-10
8.4091e-10
8.4091e-10
8.4091e-10
8.4091e-10
8.4091e-10
8.4091e-10
8.4091e-10
8.4091e-10
8.4091e-10
8.4091e-10
8.4091e-10
8.4091e-10
8.4091e-10
8.4091e-10
8.4091e-10
8.4091e-10
8.4091e-10
8.4091e-10
8.4091e-10
8.4091e-10
8.4091e-10
8.4091e-10
8.4091e-10
8.4091e-10
8.4091e-10
8.4091e-10
8.4091e-10
8.4091e-10
8.4091e-10
8.4091e-10
8.4091e-10
8.4091e-10
8.4091e-10
8.4091e-10
8.4091e-10
8.4091e-10
8.4091e-10
8.4091e-10
8.4091e-10
8.4091e-10
8.4091e-10
8.4091e-10
8.4091e-10
8.4091e-10
8.4091e-10
8.4091e-10
8.4091e-10
8.4091e-10
8.4091e-10
8.4091e-10
8.4091e-10
8.4091e-10
8.4091e-10
8.4091e-10
8.4091e-10
8.4091e-10
8.4091e-10
8.4091e-10
8.4091e-10
8.4091e-10
8.4091e-10
8.4091e-10
8.4091e-10
8.4091e-10
8.4091e-10
8.4091e-10
8.4091e-10
8.4091e-10
8.4091e-10
8.4091e-10
8.4091e-10
8.4091e-10
8.4091e-10
8.4091e-10
8.4091e-10
8.4091e-10
8.4091e-10
8.4091e-10
8.4091e-10
8.4091e-10
8.4091e-10
8.4091e-10
8.4091e-10
8.4091e-10
8.4091e-10
8.4091e-10
8.4091e-10
8.4091e-10
8.4091e-10
8.4091e-10
8.4091e-10
8.4091e-10
8.4091e-10
8.4091e-10
8.4091e-10
8.4091e-10
8.4091e-10
8.4091e-10
8.4091e-10
8.4091e-10
8.4091e-10
8.4091e-10
8.4091e-10
8.4091e-10
8.4091e-10
8.4091e-10
8.4091e-10
8.4091e-10
8.4091e-10
8.4091e-10
8.4091e-10
8.4091e-10
8.4091e-10
8.4091e-10
8.4091e-10
8.4091e-10
8.4091e-10
8.4091e-10
8.4091e-10
8.4091e-10
8.4091e-10
8.4091e-10
8.4091e-10
8.4091e-10
8.4091e-10
8.4091e-10
8.4091e-10
8.4091e-10
8.4091e-10
8.4091e-10
8.4091e-10
8.4091e-10
8.4091e-10
8.4091e-10
8.4091e-10
8.4091e-10
8.4091e-10
8.4091e-10
8.4091e-10
8.4091e-10
8.4091e-10
8.4091e-10
8.4091e-10
8.4091e-10
8.4091e-10
8.4091e-10
8.4091e-10
8.4091e-10
8.4091e-10
8.4091e-10
8.4091e-10
8.4091e-10
8.4091e-10
8.4091e-10
8.4091e-10
8.4091e-10
8.4091e-10
8.4091e-10
8.4091e-10
8.4091e-10
8.4091e-10
8.4091e-10
8.4091e-10
8.4091e-10
8.4091e-10
8.4091e-10
8.4091e-10
8.4091e-10
8.4091e-10
8.4091e-10
8.4091e-10
8.4091e-10
8.4091e-10
8.4091e-10
8.4091e-10
8.4091e-10
8.4091e-10
8.4091e-10
8.4091e-10
8.4091e-10
8.4091e-10
8.4091e-10
8.4091e-10
8.4091e-10
8.4091e-10
8.4091e-10
8.4091e-10
8.4091e-10
8.4091e-10
8.4091e-10
8.4091e-10
8.4091e-10
8.4091e-10
8.4091e-10
8.4091e-10
8.4091e-10
8.4091e-10
8.4091e-10
8.4091e-10
8.4091e-10
8.4091e-10
8.4091e-10
8.4091e-10
8.4091e-10
8.4091e-10
8.4091e-10
8.4091e-10
8.4091e-10
8.4091e-10
8.40911e-10
8.40911e-10
8.40912e-10
8.40914e-10
8.40916e-10
8.4092e-10
8.40926e-10
8.40936e-10
8.40951e-10
8.40976e-10
8.41014e-10
8.41073e-10
8.41162e-10
8.41297e-10
8.41499e-10
8.41797e-10
8.42234e-10
8.42866e-10
8.43772e-10
8.45055e-10
8.46851e-10
8.49341e-10
8.52751e-10
8.57372e-10
8.63564e-10
8.71773e-10
8.82545e-10
8.96537e-10
9.14541e-10
9.37499e-10
9.66526e-10
1.00294e-09
1.04827e-09
1.10429e-09
1.17299e-09
1.25653e-09
1.35667e-09
1.4683e-09
1.58717e-09
1.71132e-09
1.83788e-09
1.96355e-09
2.08499e-09
2.1991e-09
2.30333e-09
2.3959e-09
2.47589e-09
2.54322e-09
2.59846e-09
2.64272e-09
2.67738e-09
2.70395e-09
2.72391e-09
2.73862e-09
2.74927e-09
2.75685e-09
2.76216e-09
2.76582e-09
2.76832e-09
2.77001e-09
2.77113e-09
2.77187e-09
2.77236e-09
2.77268e-09
2.7729e-09
2.77305e-09
2.77315e-09
2.77324e-09
2.7733e-09
2.77336e-09
2.77341e-09
2.77345e-09
2.77348e-09
2.77351e-09
2.77354e-09
2.77357e-09
2.7736e-09
2.77363e-09
2.77366e-09
2.77369e-09
2.77371e-09
2.77373e-09
2.77375e-09
2.77377e-09
2.77379e-09
2.77382e-09
2.77384e-09
2.77386e-09
2.77387e-09
2.77389e-09
2.7739e-09
2.77392e-09
2.77393e-09
2.77395e-09
2.77397e-09
2.77398e-09
2.774e-09
2.77401e-09
2.77402e-09
2.77403e-09
2.77404e-09
2.77405e-09
2.77407e-09
2.77408e-09
2.77409e-09
2.77411e-09
2.77412e-09
2.77413e-09
2.77413e-09
2.77414e-09
2.77415e-09
2.77416e-09
2.77418e-09
2.77419e-09
2.7742e-09
2.77421e-09
2.77421e-09
2.77422e-09
2.77423e-09
2.77424e-09
2.77425e-09
2.77426e-09
2.77426e-09
2.77427e-09
2.77428e-09
2.77429e-09
2.7743e-09
2.7743e-09
2.77431e-09
2.77432e-09
2.77433e-09
2.77433e-09
2.77434e-09
2.77435e-09
2.77435e-09
2.77436e-09
2.77437e-09
2.77438e-09
2.77438e-09
2.7744e-09
2.77441e-09
2.77443e-09
2.77446e-09
2.77451e-09
2.77458e-09
2.77469e-09
2.77486e-09
2.77511e-09
2.77547e-09
2.77599e-09
2.77673e-09
2.77773e-09
2.77905e-09
2.78076e-09
2.7829e-09
2.78537e-09
2.78773e-09
2.78964e-09
2.79115e-09
2.79229e-09
2.79315e-09
2.79376e-09
2.7942e-09
2.7945e-09
2.7947e-09
2.79484e-09
2.79493e-09
2.79498e-09
2.79502e-09
2.79505e-09
2.79506e-09
2.79508e-09
2.79509e-09
2.79509e-09
2.7951e-09
2.79511e-09
2.79512e-09
2.79513e-09
2.79513e-09
2.79514e-09
2.79515e-09
2.79515e-09
2.79516e-09
2.79517e-09
2.79518e-09
2.79519e-09
2.7952e-09
2.79521e-09
2.79521e-09
2.79522e-09
2.79523e-09
2.79524e-09
2.79525e-09
2.79526e-09
2.79527e-09
2.79528e-09
2.79529e-09
2.7953e-09
2.79531e-09
2.79532e-09
2.79533e-09
2.79534e-09
2.79535e-09
2.79536e-09
2.79538e-09
2.79539e-09
2.7954e-09
2.79541e-09
2.79542e-09
2.79544e-09
2.79545e-09
2.79546e-09
2.79548e-09
2.7955e-09
2.79551e-09
2.79553e-09
2.79554e-09
2.79556e-09
2.79557e-09
2.79559e-09
2.79561e-09
2.79563e-09
2.79565e-09
2.79567e-09
2.79569e-09
2.79571e-09
2.79573e-09
2.79575e-09
2.79578e-09
2.7958e-09
2.79583e-09
2.79586e-09
2.79589e-09
2.79592e-09
2.79595e-09
2.79598e-09
2.79601e-09
2.79604e-09
2.79608e-09
2.79613e-09
2.79618e-09
2.79623e-09
2.7963e-09
2.79637e-09
2.79646e-09
2.79658e-09
2.79675e-09
2.797e-09
2.79738e-09
2.79795e-09
2.79881e-09
2.8001e-09
2.80203e-09
2.80491e-09
2.80913e-09
2.81529e-09
2.82412e-09
2.83666e-09
2.85423e-09
2.87853e-09
2.91177e-09
2.95676e-09
3.0171e-09
3.09737e-09
3.20348e-09
3.3431e-09
3.52634e-09
3.76674e-09
4.08283e-09
4.50039e-09
5.05602e-09
5.80274e-09
6.81867e-09
8.22912e-09
1.01938e-08
1.27515e-08
1.59871e-08
1.99821e-08
2.47689e-08
3.03016e-08
3.6436e-08
4.29332e-08
4.94892e-08
5.57876e-08
6.15548e-08
6.66018e-08
7.08389e-08
7.42662e-08
7.69492e-08
7.89908e-08
8.05064e-08
8.16078e-08
8.23934e-08
8.29445e-08
8.33255e-08
8.35854e-08
8.37604e-08
8.3877e-08
8.39538e-08
8.40038e-08
8.40361e-08
8.40567e-08
8.40698e-08
8.4078e-08
8.40831e-08
8.40862e-08
8.40881e-08
8.40893e-08
8.409e-08
8.40904e-08
8.40907e-08
8.40908e-08
8.40909e-08
8.40909e-08
8.4091e-08
8.4091e-08
8.4091e-08
8.4091e-08
8.4091e-08
8.4091e-08
8.4091e-08
8.4091e-08
8.4091e-08
8.4091e-08
8.4091e-08
8.4091e-08
8.4091e-08
8.4091e-08
8.4091e-08
8.4091e-08
8.4091e-08
8.4091e-08
8.4091e-08
8.4091e-08
8.4091e-08
8.4091e-08
8.4091e-08
8.4091e-08
8.4091e-08
8.4091e-08
8.4091e-08
8.4091e-08
8.4091e-08
8.4091e-08
8.4091e-08
8.4091e-08
8.4091e-08
8.4091e-08
8.4091e-08
8.4091e-08
8.4091e-08
8.4091e-08
8.4091e-08
8.4091e-08
8.4091e-08
8.4091e-08
8.4091e-08
8.4091e-08
8.4091e-08
8.4091e-08
8.4091e-08
8.4091e-08
8.4091e-08
8.4091e-08
8.4091e-08
8.4091e-08
8.4091e-08
8.4091e-08
8.4091e-08
8.4091e-08
8.4091e-08
8.4091e-08
8.4091e-08
8.4091e-08
8.4091e-08
8.4091e-08
8.4091e-08
8.4091e-08
8.4091e-08
8.4091e-08
8.4091e-08
8.4091e-08
8.4091e-08
8.4091e-08
8.4091e-08
8.4091e-08
8.4091e-08
8.4091e-08
8.4091e-08
8.4091e-08
8.4091e-08
8.4091e-08
8.4091e-08
8.4091e-08
8.4091e-08
8.4091e-08
8.4091e-08
8.4091e-08
8.4091e-08
8.4091e-08
8.4091e-08
8.4091e-08
8.4091e-08
8.4091e-08
8.4091e-08
8.4091e-08
8.4091e-08
8.4091e-08
8.4091e-08
8.4091e-08
8.4091e-08
8.4091e-08
8.4091e-08
8.4091e-08
8.4091e-08
8.4091e-08
8.4091e-08
8.4091e-08
8.4091e-08
8.4091e-08
8.4091e-08
8.4091e-08
8.4091e-08
8.4091e-08
8.4091e-08
8.4091e-08
8.4091e-08
8.4091e-08
8.4091e-08
8.4091e-08
8.4091e-08
8.4091e-08
8.4091e-08
8.4091e-08
8.4091e-08
8.4091e-08
8.4091e-08
8.4091e-08
8.4091e-08
8.4091e-08
8.4091e-08
8.4091e-08
8.4091e-08
8.4091e-08
8.4091e-08
8.4091e-08
8.4091e-08
8.4091e-08
8.4091e-08
8.4091e-08
8.4091e-08
8.4091e-08
8.4091e-08
8.4091e-08
8.4091e-08
8.4091e-08
8.4091e-08
8.4091e-08
8.4091e-08
8.4091e-08
8.4091e-08
8.4091e-08
8.4091e-08
8.4091e-08
8.4091e-08
8.4091e-08
8.4091e-08
8.4091e-08
8.4091e-08
8.4091e-08
8.4091e-08
8.4091e-08
8.4091e-08
8.4091e-08
8.4091e-08
8.4091e-08
8.4091e-08
8.4091e-08
8.4091e-08
8.4091e-08
8.4091e-08
8.4091e-08
8.4091e-08
8.4091e-08
8.4091e-08
8.4091e-08
8.4091e-08
8.4091e-08
8.4091e-08
8.4091e-08
8.4091e-08
8.4091e-08
8.4091e-08
8.4091e-08
8.4091e-08
8.4091e-08
8.4091e-08
8.4091e-08
8.4091e-08
8.4091e-08
8.4091e-08
8.4091e-08
8.4091e-08
8.4091e-08
8.4091e-08
8.4091e-08
8.4091e-08
8.4091e-08
8.4091e-08
8.4091e-08
8.4091e-08
8.4091e-08
8.4091e-08
8.4091e-08
8.4091e-08
8.4091e-08
8.4091e-08
8.4091e-08
8.4091e-08
8.4091e-08
8.4091e-08
8.4091e-08
8.4091e-08
8.4091e-08
8.4091e-08
8.4091e-08
8.4091e-08
8.4091e-08
8.4091e-08
8.4091e-08
8.4091e-08
8.4091e-08
8.4091e-08
8.4091e-08
8.4091e-08
8.4091e-08
8.4091e-08
8.4091e-08
8.4091e-08
8.4091e-08
8.4091e-08
8.4091e-08
8.4091e-08
8.4091e-08
8.4091e-08
8.4091e-08
8.4091e-08
8.4091e-08
8.4091e-08
8.4091e-08
8.4091e-08
8.4091e-08
8.4091e-08
8.4091e-08
8.4091e-08
)
;

boundaryField
{
    sides
    {
        type            calculated;
        value           nonuniform List<scalar> 2(8.4091e-08 8.4091e-10);
    }
    empty1
    {
        type            empty;
    }
    empty2
    {
        type            empty;
    }
}


// ************************************************************************* //
