/*--------------------------------*- C++ -*----------------------------------*\
| =========                 |                                                 |
| \\      /  F ield         | OpenFOAM: The Open Source CFD Toolbox           |
|  \\    /   O peration     | Version:  2312                                  |
|   \\  /    A nd           | Website:  www.openfoam.com                      |
|    \\/     M anipulation  |                                                 |
\*---------------------------------------------------------------------------*/
FoamFile
{
    version     2.0;
    format      ascii;
    arch        "LSB;label=32;scalar=64";
    class       volVectorField;
    location    "0.0001";
    object      U;
}
// * * * * * * * * * * * * * * * * * * * * * * * * * * * * * * * * * * * * * //

dimensions      [0 1 -1 0 0 0 0];

internalField   nonuniform List<vector> 
800
(
(-2.9019e-12 0 0)
(-2.84461e-12 0 0)
(-4.76808e-12 0 0)
(-9.76811e-12 0 0)
(-8.27552e-12 0 0)
(-4.58837e-12 0 0)
(-6.37739e-12 0 0)
(-6.94338e-12 0 0)
(-4.89021e-12 0 0)
(-4.12765e-12 0 0)
(-3.02264e-12 0 0)
(1.7062e-12 0 0)
(3.85988e-12 0 0)
(5.26449e-13 0 0)
(2.43712e-12 0 0)
(6.17353e-12 0 0)
(7.59652e-12 0 0)
(8.37816e-12 0 0)
(6.78159e-12 0 0)
(4.63097e-12 0 0)
(4.17863e-12 0 0)
(5.11637e-12 0 0)
(3.41685e-12 0 0)
(3.87574e-12 0 0)
(6.71481e-12 0 0)
(9.27601e-12 0 0)
(6.89835e-12 0 0)
(6.89519e-12 0 0)
(9.82439e-12 0 0)
(1.04431e-11 0 0)
(1.16808e-11 0 0)
(1.45635e-11 0 0)
(1.71092e-11 0 0)
(1.47126e-11 0 0)
(9.77931e-12 0 0)
(2.86768e-12 0 0)
(3.70807e-13 0 0)
(7.16953e-13 0 0)
(-3.0135e-12 0 0)
(-6.7745e-12 0 0)
(-3.29425e-12 0 0)
(-1.94135e-12 0 0)
(-1.5544e-12 0 0)
(8.73127e-13 0 0)
(-2.32193e-12 0 0)
(-4.86905e-12 0 0)
(-4.79378e-12 0 0)
(-1.09922e-11 0 0)
(-1.40092e-11 0 0)
(-9.50661e-12 0 0)
(-4.07244e-12 0 0)
(-1.24832e-12 0 0)
(-2.97832e-12 0 0)
(-1.80022e-12 0 0)
(-1.55023e-12 0 0)
(-5.37197e-12 0 0)
(-1.49069e-12 0 0)
(7.30899e-12 0 0)
(1.09589e-11 0 0)
(8.4375e-12 0 0)
(6.30789e-12 0 0)
(3.50311e-12 0 0)
(1.75904e-12 0 0)
(-4.69761e-13 0 0)
(-1.43376e-12 0 0)
(1.39308e-12 0 0)
(5.25419e-12 0 0)
(5.83484e-12 0 0)
(1.03049e-12 0 0)
(-7.82472e-13 0 0)
(2.39754e-12 0 0)
(-2.65906e-13 0 0)
(-3.24404e-12 0 0)
(-2.60962e-12 0 0)
(-3.76639e-12 0 0)
(1.7852e-13 0 0)
(3.63935e-12 0 0)
(5.7451e-12 0 0)
(8.6309e-12 0 0)
(1.16712e-11 0 0)
(9.79275e-12 0 0)
(9.42689e-12 0 0)
(7.90296e-12 0 0)
(8.07827e-12 0 0)
(6.29498e-12 0 0)
(1.24166e-12 0 0)
(1.93033e-12 0 0)
(3.24523e-12 0 0)
(7.28999e-12 0 0)
(9.61685e-12 0 0)
(9.29203e-12 0 0)
(8.48796e-12 0 0)
(2.75803e-12 0 0)
(-1.41739e-12 0 0)
(-2.03185e-12 0 0)
(-1.09644e-12 0 0)
(-8.98302e-13 0 0)
(-3.39758e-12 0 0)
(-1.34811e-12 0 0)
(-2.4391e-12 0 0)
(-5.66798e-12 0 0)
(-5.3912e-12 0 0)
(-5.94156e-12 0 0)
(-6.56395e-12 0 0)
(-3.08166e-12 0 0)
(4.69386e-12 0 0)
(5.42841e-12 0 0)
(7.2067e-12 0 0)
(8.1319e-12 0 0)
(6.16995e-12 0 0)
(1.84685e-12 0 0)
(-6.06911e-12 0 0)
(-9.91674e-12 0 0)
(-8.38519e-12 0 0)
(-3.83209e-12 0 0)
(-2.56988e-12 0 0)
(7.22343e-13 0 0)
(1.15775e-12 0 0)
(-5.76829e-13 0 0)
(7.03352e-13 0 0)
(9.1403e-13 0 0)
(5.0602e-13 0 0)
(1.90814e-13 0 0)
(-1.23832e-12 0 0)
(-1.74898e-12 0 0)
(-1.87445e-12 0 0)
(-2.47685e-12 0 0)
(-4.65652e-12 0 0)
(-4.34305e-12 0 0)
(-4.73937e-13 0 0)
(1.06589e-12 0 0)
(9.46361e-13 0 0)
(1.46633e-12 0 0)
(1.54267e-12 0 0)
(2.44505e-12 0 0)
(2.58514e-12 0 0)
(4.56365e-12 0 0)
(7.21569e-12 0 0)
(1.05073e-11 0 0)
(1.05954e-11 0 0)
(4.87141e-12 0 0)
(-7.95985e-14 0 0)
(1.80508e-12 0 0)
(4.27888e-12 0 0)
(6.05663e-12 0 0)
(6.09963e-12 0 0)
(4.43698e-12 0 0)
(2.81659e-12 0 0)
(2.81148e-12 0 0)
(6.33823e-13 0 0)
(-3.37544e-12 0 0)
(-4.3168e-12 0 0)
(-1.95522e-12 0 0)
(-2.09147e-13 0 0)
(-2.26371e-12 0 0)
(-4.15114e-14 0 0)
(2.14054e-12 0 0)
(3.96408e-12 0 0)
(7.93214e-12 0 0)
(1.03615e-11 0 0)
(9.48609e-12 0 0)
(9.85164e-12 0 0)
(7.40989e-12 0 0)
(4.17747e-12 0 0)
(4.19886e-12 0 0)
(3.87948e-12 0 0)
(6.46686e-12 0 0)
(8.93389e-12 0 0)
(6.00069e-12 0 0)
(3.47881e-12 0 0)
(3.12941e-12 0 0)
(5.28731e-12 0 0)
(8.15447e-12 0 0)
(7.75038e-12 0 0)
(6.35953e-12 0 0)
(3.61129e-12 0 0)
(1.81237e-12 0 0)
(-3.47518e-13 0 0)
(-2.95725e-12 0 0)
(-2.08427e-12 0 0)
(3.62618e-12 0 0)
(6.36401e-13 0 0)
(-4.85358e-12 0 0)
(-6.19833e-12 0 0)
(-5.436e-12 0 0)
(-6.78189e-12 0 0)
(-7.02963e-12 0 0)
(-6.60824e-12 0 0)
(-7.74992e-12 0 0)
(-8.29835e-12 0 0)
(-6.15724e-12 0 0)
(-7.92569e-12 0 0)
(-1.09345e-11 0 0)
(-1.19468e-11 0 0)
(-1.05256e-11 0 0)
(-1.04238e-11 0 0)
(-1.16755e-11 0 0)
(-9.39035e-12 0 0)
(-3.80894e-12 0 0)
(-3.29368e-12 0 0)
(-4.02925e-12 0 0)
(-4.30926e-12 0 0)
(-6.99315e-12 0 0)
(-9.74201e-12 0 0)
(-1.04052e-11 0 0)
(-1.12046e-11 0 0)
(-9.87462e-12 0 0)
(-7.74803e-12 0 0)
(-1.12481e-11 0 0)
(-1.39472e-11 0 0)
(-1.70771e-11 0 0)
(-1.89083e-11 0 0)
(-1.37686e-11 0 0)
(-9.02897e-12 0 0)
(-6.96486e-12 0 0)
(-4.43017e-12 0 0)
(-6.22528e-13 0 0)
(1.98348e-12 0 0)
(7.33829e-12 0 0)
(1.1424e-11 0 0)
(1.49957e-11 0 0)
(1.98679e-11 0 0)
(1.88827e-11 0 0)
(1.8354e-11 0 0)
(2.11896e-11 0 0)
(2.74005e-11 0 0)
(4.45381e-11 0 0)
(7.34446e-11 0 0)
(1.24893e-10 0 0)
(2.25179e-10 0 0)
(4.17058e-10 0 0)
(7.82262e-10 0 0)
(1.48447e-09 0 0)
(2.80093e-09 0 0)
(5.25761e-09 0 0)
(9.76544e-09 0 0)
(1.79129e-08 0 0)
(3.25834e-08 0 0)
(5.88075e-08 0 0)
(1.05312e-07 0 0)
(1.87243e-07 0 0)
(3.30602e-07 0 0)
(5.79424e-07 0 0)
(1.00791e-06 0 0)
(1.74024e-06 0 0)
(2.98195e-06 0 0)
(5.07058e-06 0 0)
(8.55513e-06 0 0)
(1.43205e-05 0 0)
(2.37794e-05 0 0)
(3.91654e-05 0 0)
(6.39745e-05 0 0)
(0.000103624 0 0)
(0.000166417 0 0)
(0.00026495 0 0)
(0.000418113 0 0)
(0.000653917 0 0)
(0.0010134 0 0)
(0.00155598 0 0)
(0.00236654 0 0)
(0.00356481 0 0)
(0.00531731 0 0)
(0.00785238 0 0)
(0.0114783 0 0)
(0.0166049 0 0)
(0.0237676 0 0)
(0.0336536 0 0)
(0.0471278 0 0)
(0.0652565 0 0)
(0.0893243 0 0)
(0.12084 0 0)
(0.161526 0 0)
(0.213283 0 0)
(0.278128 0 0)
(0.358099 0 0)
(0.455117 0 0)
(0.570823 0 0)
(0.706375 0 0)
(0.862237 0 0)
(1.03796 0 0)
(1.23205 0 0)
(1.44057 0 0)
(1.64686 0 0)
(1.84238 0 0)
(2.02459 0 0)
(2.19103 0 0)
(2.34017 0 0)
(2.4713 0 0)
(2.58452 0 0)
(2.68052 0 0)
(2.76052 0 0)
(2.82603 0 0)
(2.87877 0 0)
(2.92053 0 0)
(2.95303 0 0)
(2.97793 0 0)
(2.9967 0 0)
(3.01063 0 0)
(3.0208 0 0)
(3.02812 0 0)
(3.0333 0 0)
(3.03693 0 0)
(3.03942 0 0)
(3.04112 0 0)
(3.04225 0 0)
(3.04301 0 0)
(3.04351 0 0)
(3.04384 0 0)
(3.04406 0 0)
(3.04421 0 0)
(3.04431 0 0)
(3.04438 0 0)
(3.04444 0 0)
(3.04447 0 0)
(3.04451 0 0)
(3.04453 0 0)
(3.04456 0 0)
(3.04459 0 0)
(3.04461 0 0)
(3.04463 0 0)
(3.04465 0 0)
(3.04466 0 0)
(3.04468 0 0)
(3.04469 0 0)
(3.04471 0 0)
(3.04472 0 0)
(3.04474 0 0)
(3.04475 0 0)
(3.04477 0 0)
(3.04478 0 0)
(3.04479 0 0)
(3.0448 0 0)
(3.0448 0 0)
(3.04481 0 0)
(3.04483 0 0)
(3.04484 0 0)
(3.04484 0 0)
(3.04485 0 0)
(3.04486 0 0)
(3.04487 0 0)
(3.04487 0 0)
(3.04488 0 0)
(3.04489 0 0)
(3.04489 0 0)
(3.0449 0 0)
(3.04491 0 0)
(3.04491 0 0)
(3.04492 0 0)
(3.04492 0 0)
(3.04493 0 0)
(3.04493 0 0)
(3.04494 0 0)
(3.04494 0 0)
(3.04495 0 0)
(3.04495 0 0)
(3.04496 0 0)
(3.04496 0 0)
(3.04496 0 0)
(3.04496 0 0)
(3.04497 0 0)
(3.04497 0 0)
(3.04497 0 0)
(3.04498 0 0)
(3.04498 0 0)
(3.04498 0 0)
(3.04499 0 0)
(3.04499 0 0)
(3.04499 0 0)
(3.04499 0 0)
(3.045 0 0)
(3.045 0 0)
(3.045 0 0)
(3.045 0 0)
(3.04501 0 0)
(3.04501 0 0)
(3.04501 0 0)
(3.04501 0 0)
(3.04501 0 0)
(3.04501 0 0)
(3.04501 0 0)
(3.04501 0 0)
(3.04502 0 0)
(3.04502 0 0)
(3.04502 0 0)
(3.04502 0 0)
(3.04502 0 0)
(3.04502 0 0)
(3.04502 0 0)
(3.04502 0 0)
(3.04502 0 0)
(3.04502 0 0)
(3.04502 0 0)
(3.04502 0 0)
(3.04502 0 0)
(3.04502 0 0)
(3.04502 0 0)
(3.04502 0 0)
(3.04502 0 0)
(3.04503 0 0)
(3.04503 0 0)
(3.04503 0 0)
(3.04502 0 0)
(3.04502 0 0)
(3.04502 0 0)
(3.04502 0 0)
(3.04502 0 0)
(3.04502 0 0)
(3.04502 0 0)
(3.04502 0 0)
(3.04502 0 0)
(3.04502 0 0)
(3.04502 0 0)
(3.04502 0 0)
(3.04501 0 0)
(3.04501 0 0)
(3.04501 0 0)
(3.04501 0 0)
(3.04501 0 0)
(3.045 0 0)
(3.045 0 0)
(3.045 0 0)
(3.045 0 0)
(3.045 0 0)
(3.045 0 0)
(3.04499 0 0)
(3.04499 0 0)
(3.04499 0 0)
(3.04498 0 0)
(3.04498 0 0)
(3.04498 0 0)
(3.04498 0 0)
(3.04498 0 0)
(3.04497 0 0)
(3.04497 0 0)
(3.04496 0 0)
(3.04496 0 0)
(3.04496 0 0)
(3.04495 0 0)
(3.04495 0 0)
(3.04495 0 0)
(3.04494 0 0)
(3.04494 0 0)
(3.04493 0 0)
(3.04493 0 0)
(3.04492 0 0)
(3.04492 0 0)
(3.04491 0 0)
(3.04491 0 0)
(3.0449 0 0)
(3.0449 0 0)
(3.04489 0 0)
(3.04489 0 0)
(3.04488 0 0)
(3.04487 0 0)
(3.04486 0 0)
(3.04486 0 0)
(3.04485 0 0)
(3.04484 0 0)
(3.04484 0 0)
(3.04483 0 0)
(3.04482 0 0)
(3.04481 0 0)
(3.0448 0 0)
(3.04479 0 0)
(3.04478 0 0)
(3.04477 0 0)
(3.04476 0 0)
(3.04475 0 0)
(3.04474 0 0)
(3.04473 0 0)
(3.04472 0 0)
(3.0447 0 0)
(3.04469 0 0)
(3.04467 0 0)
(3.04466 0 0)
(3.04464 0 0)
(3.04463 0 0)
(3.04461 0 0)
(3.0446 0 0)
(3.04458 0 0)
(3.04456 0 0)
(3.04453 0 0)
(3.04451 0 0)
(3.04448 0 0)
(3.04446 0 0)
(3.04443 0 0)
(3.0444 0 0)
(3.04437 0 0)
(3.04432 0 0)
(3.04425 0 0)
(3.04417 0 0)
(3.04405 0 0)
(3.04388 0 0)
(3.04363 0 0)
(3.04326 0 0)
(3.04269 0 0)
(3.04183 0 0)
(3.04054 0 0)
(3.03862 0 0)
(3.0358 0 0)
(3.03172 0 0)
(3.02589 0 0)
(3.01767 0 0)
(3.00626 0 0)
(2.99064 0 0)
(2.9696 0 0)
(2.94168 0 0)
(2.90524 0 0)
(2.85844 0 0)
(2.79932 0 0)
(2.72589 0 0)
(2.63625 0 0)
(2.52874 0 0)
(2.40212 0 0)
(2.25579 0 0)
(2.08996 0 0)
(1.90581 0 0)
(1.70568 0 0)
(1.49227 0 0)
(1.27229 0 0)
(1.06529 0 0)
(0.878772 0 0)
(0.714341 0 0)
(0.572438 0 0)
(0.452392 0 0)
(0.352721 0 0)
(0.271416 0 0)
(0.206196 0 0)
(0.154705 0 0)
(0.114668 0 0)
(0.0839894 0 0)
(0.060809 0 0)
(0.0435296 0 0)
(0.0308165 0 0)
(0.0215806 0 0)
(0.0149528 0 0)
(0.0102531 0 0)
(0.00695897 0 0)
(0.00467605 0 0)
(0.00311126 0 0)
(0.0020502 0 0)
(0.00133823 0 0)
(0.000865398 0 0)
(0.00055452 0 0)
(0.00035213 0 0)
(0.000221635 0 0)
(0.000138287 0 0)
(8.55459e-05 0 0)
(5.24741e-05 0 0)
(3.1921e-05 0 0)
(1.92597e-05 0 0)
(1.1527e-05 0 0)
(6.84434e-06 0 0)
(4.03217e-06 0 0)
(2.35713e-06 0 0)
(1.36746e-06 0 0)
(7.87335e-07 0 0)
(4.5002e-07 0 0)
(2.5532e-07 0 0)
(1.4387e-07 0 0)
(8.04541e-08 0 0)
(4.46723e-08 0 0)
(2.46225e-08 0 0)
(1.34533e-08 0 0)
(7.27409e-09 0 0)
(3.83169e-09 0 0)
(2.03939e-09 0 0)
(1.12906e-09 0 0)
(5.80682e-10 0 0)
(2.51332e-10 0 0)
(6.13042e-11 0 0)
(-6.12643e-13 0 0)
(-6.9524e-11 0 0)
(-1.11705e-10 0 0)
(-1.3565e-10 0 0)
(-1.65234e-10 0 0)
(-1.289e-10 0 0)
(-7.91673e-11 0 0)
(-5.43486e-11 0 0)
(1.59667e-12 0 0)
(4.09499e-11 0 0)
(1.86018e-11 0 0)
(-2.76083e-11 0 0)
(-8.62118e-11 0 0)
(-9.71928e-11 0 0)
(-1.14808e-10 0 0)
(-1.42754e-10 0 0)
(-1.10323e-10 0 0)
(-1.14875e-10 0 0)
(-1.30957e-10 0 0)
(-1.28036e-10 0 0)
(-1.30369e-10 0 0)
(-1.286e-10 0 0)
(-1.21671e-10 0 0)
(-9.7689e-11 0 0)
(-7.46453e-11 0 0)
(-5.07548e-11 0 0)
(-1.4409e-11 0 0)
(-7.30317e-12 0 0)
(-4.54176e-12 0 0)
(-4.3491e-11 0 0)
(-3.61857e-11 0 0)
(-1.59188e-11 0 0)
(-4.52549e-11 0 0)
(-2.50786e-11 0 0)
(1.18304e-11 0 0)
(-9.04809e-12 0 0)
(-2.59752e-11 0 0)
(8.5064e-12 0 0)
(5.48418e-11 0 0)
(3.68881e-11 0 0)
(3.3952e-11 0 0)
(4.20413e-11 0 0)
(3.81169e-11 0 0)
(-3.62734e-12 0 0)
(-2.65776e-11 0 0)
(-4.28722e-11 0 0)
(-5.08287e-11 0 0)
(-6.51974e-11 0 0)
(-1.00915e-10 0 0)
(-7.75699e-11 0 0)
(-1.98721e-11 0 0)
(1.47621e-11 0 0)
(2.21047e-11 0 0)
(2.2572e-11 0 0)
(1.00257e-11 0 0)
(-1.40779e-11 0 0)
(-5.63304e-11 0 0)
(-1.13989e-10 0 0)
(-1.12471e-10 0 0)
(-7.95573e-11 0 0)
(-6.94992e-11 0 0)
(-7.7904e-11 0 0)
(-8.2334e-11 0 0)
(-4.37028e-11 0 0)
(-3.54607e-11 0 0)
(-5.73127e-11 0 0)
(-7.21538e-11 0 0)
(-8.78211e-11 0 0)
(-1.05395e-10 0 0)
(-1.05101e-10 0 0)
(-3.0732e-11 0 0)
(-2.16941e-11 0 0)
(-3.97315e-11 0 0)
(-9.85492e-12 0 0)
(1.19355e-11 0 0)
(-2.25997e-11 0 0)
(-1.01504e-11 0 0)
(5.64828e-11 0 0)
(7.62369e-11 0 0)
(7.03849e-11 0 0)
(6.10621e-11 0 0)
(5.58122e-11 0 0)
(5.38856e-11 0 0)
(2.32979e-11 0 0)
(5.88173e-12 0 0)
(3.92583e-11 0 0)
(7.06999e-11 0 0)
(6.6728e-11 0 0)
(7.53562e-11 0 0)
(5.69752e-11 0 0)
(4.15279e-11 0 0)
(5.45763e-11 0 0)
(5.73792e-11 0 0)
(2.78617e-11 0 0)
(1.51715e-12 0 0)
(-2.30371e-11 0 0)
(-6.01041e-11 0 0)
(-8.51853e-11 0 0)
(-1.12665e-10 0 0)
(-9.68363e-11 0 0)
(-8.39003e-11 0 0)
(-1.01957e-10 0 0)
(-1.24826e-10 0 0)
(-1.02212e-10 0 0)
(-5.00102e-11 0 0)
(-6.90421e-11 0 0)
(-1.14714e-10 0 0)
(-1.48304e-10 0 0)
(-1.64853e-10 0 0)
(-1.46178e-10 0 0)
(-1.24853e-10 0 0)
(-1.28896e-10 0 0)
(-1.59585e-10 0 0)
(-1.53879e-10 0 0)
(-1.14982e-10 0 0)
(-1.23429e-10 0 0)
(-1.23808e-10 0 0)
(-1.16913e-10 0 0)
(-9.62117e-11 0 0)
(-7.30531e-11 0 0)
(-5.11822e-11 0 0)
(-4.16074e-11 0 0)
(-8.49825e-11 0 0)
(-1.11674e-10 0 0)
(-1.25613e-10 0 0)
(-1.5482e-10 0 0)
(-1.59739e-10 0 0)
(-1.35306e-10 0 0)
(-1.29634e-10 0 0)
(-1.10952e-10 0 0)
(-7.48963e-11 0 0)
(-5.21561e-11 0 0)
(-4.09651e-11 0 0)
(-1.5955e-11 0 0)
(1.06359e-11 0 0)
(-3.17353e-11 0 0)
(-8.61047e-11 0 0)
(-1.22559e-10 0 0)
(-1.63218e-10 0 0)
(-1.47512e-10 0 0)
(-1.37613e-10 0 0)
(-1.23484e-10 0 0)
(-8.13614e-11 0 0)
(-6.63556e-11 0 0)
(-8.97363e-11 0 0)
(-1.02204e-10 0 0)
(-1.05782e-10 0 0)
(-1.08877e-10 0 0)
(-6.6183e-11 0 0)
(-7.87841e-11 0 0)
(-8.73106e-11 0 0)
(-5.44551e-11 0 0)
(-2.43644e-11 0 0)
(-2.00463e-11 0 0)
(1.13977e-11 0 0)
(3.6014e-11 0 0)
(-2.62035e-11 0 0)
(-3.85023e-11 0 0)
(-2.25e-11 0 0)
(-8.73576e-12 0 0)
(-1.79776e-11 0 0)
(-3.11619e-11 0 0)
(-4.41247e-11 0 0)
(-1.80261e-11 0 0)
(6.39978e-14 0 0)
(-1.32723e-11 0 0)
(3.04928e-11 0 0)
(1.81629e-11 0 0)
(-3.28711e-11 0 0)
(-5.69911e-11 0 0)
(-4.99085e-11 0 0)
(-4.69411e-11 0 0)
(-7.12996e-11 0 0)
(-6.43397e-11 0 0)
(-6.33906e-11 0 0)
(-6.14335e-11 0 0)
(-2.30616e-11 0 0)
(3.3482e-11 0 0)
(7.58443e-11 0 0)
(8.71837e-11 0 0)
(9.05564e-11 0 0)
(7.92282e-11 0 0)
(2.01754e-11 0 0)
(-2.99041e-11 0 0)
(-3.07924e-11 0 0)
(-4.79715e-11 0 0)
(-4.81642e-11 0 0)
(-8.82353e-11 0 0)
(-1.44695e-10 0 0)
(-1.45101e-10 0 0)
(-1.58004e-10 0 0)
(-1.68033e-10 0 0)
(-1.52633e-10 0 0)
(-1.32408e-10 0 0)
(-1.51618e-10 0 0)
(-1.51437e-10 0 0)
(-1.11647e-10 0 0)
(-1.16515e-10 0 0)
(-1.04923e-10 0 0)
(-6.98183e-11 0 0)
(-3.08083e-11 0 0)
(-1.12307e-11 0 0)
(-8.97472e-12 0 0)
(5.35612e-11 0 0)
(9.60238e-11 0 0)
(1.09485e-10 0 0)
(1.24947e-10 0 0)
(1.16065e-10 0 0)
(1.47611e-10 0 0)
(1.82559e-10 0 0)
(1.99193e-10 0 0)
(2.31459e-10 0 0)
(2.07204e-10 0 0)
(1.9811e-10 0 0)
(2.0459e-10 0 0)
(1.88981e-10 0 0)
(1.86368e-10 0 0)
(1.59207e-10 0 0)
(9.10426e-11 0 0)
(5.23706e-11 0 0)
(1.69382e-11 0 0)
(1.54459e-11 0 0)
(2.75905e-12 0 0)
(-4.45606e-12 0 0)
(-2.99451e-11 0 0)
(-6.89793e-11 0 0)
(-4.5557e-11 0 0)
(-2.08877e-11 0 0)
(-2.36528e-11 0 0)
)
;

boundaryField
{
    sides
    {
        type            fixedValue;
        value           uniform (0 0 0);
    }
    empty1
    {
        type            empty;
    }
    empty2
    {
        type            empty;
    }
}


// ************************************************************************* //
