/*--------------------------------*- C++ -*----------------------------------*\
| =========                 |                                                 |
| \\      /  F ield         | OpenFOAM: The Open Source CFD Toolbox           |
|  \\    /   O peration     | Version:  2312                                  |
|   \\  /    A nd           | Website:  www.openfoam.com                      |
|    \\/     M anipulation  |                                                 |
\*---------------------------------------------------------------------------*/
FoamFile
{
    version     2.0;
    format      ascii;
    arch        "LSB;label=32;scalar=64";
    class       surfaceScalarField;
    location    "600";
    object      phi;
}
// * * * * * * * * * * * * * * * * * * * * * * * * * * * * * * * * * * * * * //

dimensions      [1 0 -1 0 0 0 0];

oriented        oriented;

internalField   nonuniform List<scalar> 
40240
(
3.10446e-05
-3.10446e-05
-2.58637e-06
3.3631e-05
-9.84833e-05
9.58969e-05
-0.000245653
0.00014717
-0.0004295
0.000183848
-0.000636192
0.000206692
-0.000854956
0.000218765
-0.00107875
0.000223794
-0.00130438
0.000225627
-0.00153372
0.000229345
-0.00176554
0.000231813
-0.00199689
0.000231358
-0.00222588
0.00022899
-0.0024517
0.000225815
-0.00267416
0.000222467
-0.00289332
0.000219157
-0.00310913
0.000215807
-0.00332154
0.000212416
-0.00353074
0.000209194
-0.00373708
0.000206345
-0.00394112
0.000204033
-0.0041434
0.000202282
-0.00434376
0.000200359
-0.00454115
0.00019739
-0.00473447
0.000193327
-0.00492345
0.000188977
-0.00510831
0.000184862
-0.0052894
0.000181083
-0.00546688
0.000177487
-0.00564058
0.000173697
-0.00581024
0.000169658
-0.00597673
0.000166491
-0.00614103
0.0001643
-0.00630215
0.000161121
-0.00645942
0.000157276
-0.0066127
0.000153273
-0.00676193
0.000149231
-0.00690703
0.000145106
-0.00704789
0.000140854
-0.00718432
0.000136433
-0.00731611
0.000131792
-0.00744301
0.0001269
-0.00756477
0.000121754
-0.00768111
0.000116339
-0.00779171
0.000110602
-0.00789624
0.000104533
-0.00799441
9.81677e-05
-0.00808591
9.15047e-05
-0.00817049
8.45747e-05
-0.00824789
7.74049e-05
-0.00831786
6.99687e-05
-0.00837996
6.20976e-05
-0.00843382
5.38635e-05
-0.0084792
4.53751e-05
-0.00851581
3.66138e-05
-0.00854333
2.75161e-05
-0.00856108
1.77497e-05
-0.0085695
8.42556e-06
-0.00856958
7.57278e-08
-0.0085583
-1.12819e-05
-0.00853548
-2.28118e-05
-0.00850057
-3.49157e-05
-0.00845468
-4.58868e-05
-0.00839993
-5.47479e-05
-0.00832972
-7.02191e-05
-0.00824722
-8.24976e-05
-0.00815287
-9.43456e-05
-0.00804635
-0.000106526
-0.0079275
-0.000118845
-0.00779619
-0.000131309
-0.00765222
-0.000143968
-0.00749537
-0.000156853
-0.00732532
-0.000170054
-0.00714145
-0.000183868
-0.00694265
-0.0001988
-0.00672938
-0.00021327
-0.00651312
-0.000216262
-0.00630015
-0.000212972
-0.00605399
-0.000246153
-0.0057994
-0.000254594
-0.00553672
-0.000262681
-0.00526561
-0.00027111
-0.00498654
-0.000279071
-0.00469953
-0.000287005
-0.00440403
-0.000295505
-0.00409752
-0.000306506
-0.00377771
-0.000319814
-0.00349292
-0.000284785
-0.00316855
-0.000324369
-0.00284685
-0.000321705
-0.00252397
-0.000322879
-0.00219875
-0.000325216
-0.00187115
-0.000327608
-0.00153908
-0.000332062
-0.00120458
-0.0003345
-0.000875377
-0.000329206
-0.000549214
-0.000326163
-0.000225036
-0.000324178
9.76585e-05
-0.000322695
0.000421295
-0.000323637
0.000745505
-0.00032421
0.00106842
-0.000322913
0.00138819
-0.000319774
0.00170347
-0.000315274
0.00201325
-0.000309784
0.00231679
-0.000303543
0.00261352
-0.000296723
0.00290297
-0.000289451
0.00318479
-0.000281821
0.00345869
-0.000273903
0.00372444
-0.000265754
0.00398187
-0.000257421
0.00423081
-0.000248948
0.00447119
-0.000240373
0.00470292
-0.000231731
0.00492598
-0.000223057
0.00514036
-0.000214383
0.0053461
-0.000205739
0.00554325
-0.000197155
0.00573191
-0.000188661
0.0059122
-0.000180286
0.00608425
-0.000172051
0.00624821
-0.000163965
0.00640421
-0.000155996
0.00655234
-0.000148132
0.00669284
-0.000140499
0.0068259
-0.000133055
0.00695169
-0.000125791
0.00707059
-0.000118901
0.00718277
-0.000112182
0.00728844
-0.000105669
0.00738788
-9.94428e-05
0.00748133
-9.34485e-05
0.00756902
-8.76898e-05
0.00765121
-8.21875e-05
0.00772815
-7.69474e-05
0.00780013
-7.19712e-05
0.00786737
-6.72467e-05
0.00793013
-6.27571e-05
0.00798862
-5.84898e-05
0.00804306
-5.44368e-05
0.00809365
-5.05929e-05
0.0081406
-4.69536e-05
0.00818412
-4.35147e-05
0.00822439
-4.02718e-05
0.00826161
-3.72201e-05
0.00829596
-3.43541e-05
0.00832763
-3.16682e-05
0.00835679
-2.91562e-05
0.0083836
-2.6812e-05
0.00840823
-2.46288e-05
0.00843083
-2.26e-05
0.00845155
-2.0719e-05
0.00847053
-1.89789e-05
0.0084879
-1.7373e-05
0.00850379
-1.58947e-05
0.00851833
-1.45374e-05
0.00853163
-1.32945e-05
0.00854379
-1.21599e-05
0.00855491
-1.11274e-05
0.0085651
-1.0191e-05
0.00857445
-9.34491e-06
0.00858303
-8.5836e-06
0.00859093
-7.90175e-06
0.00859823
-7.29417e-06
0.00860498
-6.75586e-06
0.00861127
-6.28214e-06
0.00861714
-5.86849e-06
0.00862265
-5.51041e-06
0.00862785
-5.2036e-06
0.00863279
-4.94446e-06
0.00863752
-4.72951e-06
0.00864208
-4.55479e-06
0.00864649
-4.41632e-06
0.00865081
-4.3116e-06
0.00865505
-4.23952e-06
0.00865924
-4.19775e-06
0.00866342
-4.18123e-06
0.00866761
-4.18483e-06
0.00867182
-4.20682e-06
0.00867606
-4.24738e-06
0.00868037
-4.30546e-06
0.00868475
-4.3803e-06
0.00868922
-4.47232e-06
0.0086938
-4.57981e-06
0.0086985
-4.69733e-06
0.00870332
-4.81902e-06
0.00870826
-4.94203e-06
0.00871333
-5.06601e-06
0.00871852
-5.19102e-06
0.00872383
-5.31664e-06
0.00872928
-5.44225e-06
0.00873484
-5.5673e-06
0.00874053
-5.69135e-06
0.00874635
-5.81391e-06
0.00875228
-5.93454e-06
0.00875834
-6.05278e-06
0.0087645
-6.16824e-06
0.00877078
-6.28047e-06
0.00877717
-6.38892e-06
0.00878367
-6.49303e-06
0.00879026
-6.59248e-06
0.00879695
-6.68708e-06
0.00880372
-6.77673e-06
0.00881058
-6.86112e-06
0.00881752
-6.93985e-06
0.00882454
-7.0126e-06
0.00883162
-7.07919e-06
0.00883875
-7.13958e-06
0.00884595
-7.1938e-06
0.00885319
-7.24195e-06
0.00886047
-7.28418e-06
0.0088678
-7.32062e-06
0.00887515
-7.35132e-06
0.00888252
-7.37637e-06
0.00888992
-7.39595e-06
0.00889733
-7.41038e-06
0.00890475
-7.41988e-06
0.00891217
-7.42417e-06
0.0089196
-7.42277e-06
0.00892701
-7.41566e-06
0.00893442
-7.40348e-06
0.0089418
-7.38671e-06
0.00894917
-7.36512e-06
0.00895651
-7.33886e-06
0.00896381
-7.30841e-06
0.00897109
-7.27368e-06
0.00897832
-7.23482e-06
0.00898552
-7.19231e-06
0.00899266
-7.14622e-06
0.00899976
-7.09659e-06
0.0090068
-7.04393e-06
0.00901379
-6.98866e-06
0.00902072
-6.93079e-06
0.00902759
-6.87009e-06
0.0090344
-6.80655e-06
0.00904114
-6.74044e-06
0.00904781
-6.67202e-06
0.00905441
-6.60141e-06
0.00906094
-6.52862e-06
0.00906739
-6.45369e-06
0.00907377
-6.37683e-06
0.00908007
-6.2983e-06
0.00908629
-6.21835e-06
0.00909243
-6.13712e-06
0.00909848
-6.05472e-06
0.00910445
-5.9712e-06
0.00911034
-5.88669e-06
0.00911614
-5.80128e-06
0.00912185
-5.71515e-06
0.00912748
-5.62845e-06
0.00913302
-5.54132e-06
0.00913848
-5.45386e-06
0.00914384
-5.36614e-06
0.00914912
-5.27822e-06
0.00915431
-5.19019e-06
0.00915941
-5.10212e-06
0.00916443
-5.01408e-06
0.00916935
-4.92614e-06
0.00917419
-4.83838e-06
0.00917894
-4.75089e-06
0.00918361
-4.66375e-06
0.00918818
-4.57702e-06
0.00919268
-4.49076e-06
0.00919708
-4.40502e-06
0.0092014
-4.31983e-06
0.00920564
-4.23525e-06
0.00920979
-4.15132e-06
0.00921385
-4.06807e-06
0.00921784
-3.98555e-06
0.00922174
-3.90378e-06
0.00922557
-3.82281e-06
0.00922931
-3.74267e-06
0.00923297
-3.66337e-06
0.00923656
-3.58496e-06
0.00924007
-3.50744e-06
0.0092435
-3.43085e-06
0.00924685
-3.3552e-06
0.00925013
-3.28051e-06
0.00925334
-3.20679e-06
0.00925647
-3.13405e-06
0.00925954
-3.06232e-06
0.00926253
-2.99158e-06
0.00926545
-2.92186e-06
0.0092683
-2.85316e-06
0.00927109
-2.78548e-06
0.00927381
-2.71883e-06
0.00927646
-2.6532e-06
0.00927905
-2.58861e-06
0.00928157
-2.52504e-06
0.00928404
-2.46249e-06
0.00928644
-2.40096e-06
0.00928878
-2.34045e-06
0.00929106
-2.28094e-06
0.00929328
-2.22245e-06
0.00929545
-2.16494e-06
0.00929755
-2.10842e-06
0.00929961
-2.05289e-06
0.0093016
-1.99833e-06
0.00930355
-1.94473e-06
0.00930544
-1.89209e-06
0.00930728
-1.84039e-06
0.00930907
-1.78963e-06
0.00931081
-1.73981e-06
0.0093125
-1.69091e-06
0.00931415
-1.64293e-06
0.00931574
-1.59587e-06
0.00931729
-1.54971e-06
0.0093188
-1.50443e-06
0.00932026
-1.45998e-06
0.00932167
-1.41635e-06
0.00932305
-1.37353e-06
0.00932438
-1.3315e-06
0.00932567
-1.29026e-06
0.00932692
-1.2498e-06
0.00932813
-1.21011e-06
0.0093293
-1.17118e-06
0.00933043
-1.13301e-06
0.00933153
-1.0956e-06
0.00933259
-1.05894e-06
0.00933361
-1.02304e-06
0.0093346
-9.87907e-07
0.00933555
-9.53477e-07
0.00933647
-9.197e-07
0.00933736
-8.86539e-07
0.00933821
-8.53974e-07
0.00933903
-8.22011e-07
0.00933982
-7.90658e-07
0.00934058
-7.59935e-07
0.00934131
-7.29871e-07
0.00934201
-7.00475e-07
0.00934268
-6.71715e-07
0.00934333
-6.43511e-07
0.00934394
-6.15796e-07
0.00934453
-5.8854e-07
0.00934509
-5.61767e-07
0.00934563
-5.35542e-07
0.00934614
-5.09933e-07
0.00934662
-4.8493e-07
0.00934709
-4.60431e-07
0.00934752
-4.36329e-07
0.00934793
-4.12589e-07
0.00934832
-3.89304e-07
0.00934869
-3.66618e-07
0.00934903
-3.44552e-07
0.00934936
-3.22986e-07
0.00934966
-3.01728e-07
0.00934994
-2.80789e-07
0.0093502
-2.60405e-07
0.00935044
-2.40717e-07
0.00935066
-2.21681e-07
0.00935087
-2.02903e-07
0.00935105
-1.84351e-07
0.00935122
-1.66165e-07
0.00935136
-1.48492e-07
0.0093515
-1.31695e-07
0.00935161
-1.15291e-07
0.00935171
-9.9209e-08
0.00935179
-8.27994e-08
0.00935186
-6.6841e-08
0.00935191
-5.05933e-08
0.00935195
-3.46749e-08
0.00935197
-1.94142e-08
0.00935197
-4.60335e-09
0.00935196
9.36359e-09
0.00935194
2.39169e-08
0.0093519
3.906e-08
0.00935184
5.3887e-08
0.00935178
6.81254e-08
0.00935169
8.18825e-08
0.0093516
9.52653e-08
0.00935149
1.08324e-07
0.00935137
1.21079e-07
0.00935124
1.33545e-07
0.00935109
1.45729e-07
0.00935093
1.57638e-07
0.00935076
1.69273e-07
0.00935058
1.80639e-07
0.00935039
1.91736e-07
0.00935019
2.02567e-07
0.00934997
2.13134e-07
0.00934975
2.23439e-07
0.00934952
2.33483e-07
0.00934927
2.43266e-07
0.00934902
2.52791e-07
0.00934876
2.62055e-07
0.00934849
2.71063e-07
0.00934821
2.79813e-07
0.00934792
2.88305e-07
0.00934762
2.9654e-07
0.00934732
3.04518e-07
0.00934701
3.1224e-07
0.00934669
3.19702e-07
0.00934636
3.26908e-07
0.00934603
3.33855e-07
0.00934569
3.40542e-07
0.00934534
3.4697e-07
0.00934499
3.53138e-07
0.00934463
3.59045e-07
0.00934426
3.64692e-07
0.00934389
3.70079e-07
0.00934352
3.75204e-07
0.00934314
3.80062e-07
0.00934275
3.84652e-07
0.00934236
3.88973e-07
0.00934197
3.93023e-07
0.00934157
3.96801e-07
0.00934117
4.00307e-07
0.00934077
4.03541e-07
0.00934036
4.06504e-07
0.00933995
4.09205e-07
0.00933954
4.11654e-07
0.00933913
4.13866e-07
0.00933871
4.15856e-07
0.0093383
4.17635e-07
0.00933788
4.19218e-07
0.00933746
4.20604e-07
0.00933703
4.2178e-07
0.00933661
4.22716e-07
0.00933619
4.23357e-07
0.00933576
4.23628e-07
0.00933534
4.23502e-07
0.00933492
4.2303e-07
0.0093345
4.22272e-07
0.00933407
4.21243e-07
0.00933365
4.19941e-07
0.00933324
4.18366e-07
0.00933282
4.16518e-07
0.0093324
4.14396e-07
0.00933199
4.12002e-07
0.00933158
4.09332e-07
0.00933118
4.06388e-07
0.00933077
4.0317e-07
0.00933037
3.99677e-07
0.00932998
3.95912e-07
0.00932959
3.91872e-07
0.0093292
3.87559e-07
0.00932882
3.82975e-07
0.00932844
3.78116e-07
0.00932806
3.72986e-07
0.0093277
3.67585e-07
0.00932734
3.61916e-07
0.00932698
3.55977e-07
0.00932663
3.49772e-07
0.00932629
3.43304e-07
0.00932595
3.3657e-07
0.00932562
3.29579e-07
0.0093253
3.22327e-07
0.00932498
3.14822e-07
0.00932468
3.07064e-07
0.00932438
2.99058e-07
0.00932409
2.90806e-07
0.0093238
2.82314e-07
0.00932353
2.73585e-07
0.00932327
2.64626e-07
0.00932301
2.55438e-07
0.00932276
2.46029e-07
0.00932253
2.36403e-07
0.0093223
2.26566e-07
0.00932208
2.16522e-07
0.00932188
2.06276e-07
0.00932168
1.95837e-07
0.0093215
1.85206e-07
0.00932132
1.74389e-07
0.00932116
1.63395e-07
0.00932101
1.5223e-07
0.00932087
1.40907e-07
0.00932074
1.29441e-07
0.00932062
1.17856e-07
0.00932051
1.06183e-07
0.00932042
9.44758e-08
0.00932034
8.27961e-08
0.00932026
7.12255e-08
0.0093202
5.98519e-08
0.00932016
4.87489e-08
0.00932012
3.78904e-08
0.00932009
2.69815e-08
0.00932008
1.54395e-08
0.00932007
2.75122e-09
0.00932008
-8.70548e-09
0.0093201
-2.11232e-08
0.00932014
-3.34847e-08
0.00932018
-4.54458e-08
0.00932024
-5.71052e-08
0.00932031
-6.86135e-08
0.00932039
-8.00342e-08
0.00932048
-9.14088e-08
0.00932058
-1.02804e-07
0.0093207
-1.14314e-07
0.00932082
-1.26085e-07
0.00932096
-1.38337e-07
0.00932111
-1.51427e-07
0.00932128
-1.65914e-07
0.00932146
-1.82643e-07
0.00932166
-2.0315e-07
0.00932189
-2.31815e-07
0.00932218
-2.82438e-07
0.00932257
-3.89799e-07
0.00932319
-6.27132e-07
-9.9363e-07
-3.2373e-05
1.32839e-06
-0.000180213
0.000181471
-0.000468226
0.00038391
-0.000874963
0.000553907
-0.00137254
0.000681421
-0.00193295
0.000767107
-0.00253266
0.00081847
-0.00315519
0.000846325
-0.00378965
0.000860084
-0.00442775
0.000867448
-0.00506272
0.000866786
-0.0056903
0.000858935
-0.00630846
0.000847149
-0.00691623
0.000833584
-0.00751321
0.000819446
-0.00809929
0.00080524
-0.00867432
0.000790842
-0.00923829
0.000776383
-0.00979165
0.000762556
-0.0103352
0.000749915
-0.0108699
0.000738744
-0.0113966
0.000728938
-0.0119147
0.000718447
-0.0124223
0.000705051
-0.0129178
0.00068876
-0.0134006
0.000671808
-0.0138712
0.000655482
-0.0143301
0.00063998
-0.0147776
0.000624968
-0.0152135
0.000609626
-0.0156376
0.000593721
-0.0160512
0.000580079
-0.0164558
0.000568947
-0.0168495
0.000554837
-0.0172312
0.000538976
-0.0176006
0.000522613
-0.0179573
0.000505976
-0.0183012
0.000488937
-0.0186317
0.000471377
-0.0189484
0.000453183
-0.0192508
0.000434205
-0.0195383
0.000414354
-0.0198102
0.00039361
-0.0200658
0.000371935
-0.0203043
0.000349194
-0.0205252
0.000325362
-0.0207275
0.000300529
-0.0209107
0.000274651
-0.021074
0.00024786
-0.0212168
0.000220252
-0.0213386
0.000191732
-0.0214382
0.000161765
-0.0215148
0.000130454
-0.0215677
9.82851e-05
-0.0215971
6.59497e-05
-0.0216034
3.38017e-05
-0.021588
2.33439e-06
-0.0215449
-3.46235e-05
-0.0214736
-7.11811e-05
-0.0213743
-0.000110624
-0.0212452
-0.000151936
-0.0210857
-0.000194381
-0.020897
-0.000234621
-0.0206851
-0.000266624
-0.0204359
-0.000319401
-0.020156
-0.000362392
-0.0198452
-0.000405131
-0.0195034
-0.000448328
-0.0191307
-0.000491609
-0.0187269
-0.000535078
-0.0182921
-0.000578807
-0.0178261
-0.000622781
-0.0173291
-0.000667102
-0.0168008
-0.000712183
-0.0162405
-0.000759064
-0.0156464
-0.000807362
-0.0150298
-0.000832853
-0.0144098
-0.000833048
-0.0137418
-0.00091415
-0.0130549
-0.000941444
-0.0123459
-0.00097169
-0.011616
-0.00100101
-0.0108669
-0.00102812
-0.0101
-0.00105392
-0.00931653
-0.001079
-0.00851859
-0.00110445
-0.00770724
-0.00113116
-0.0068447
-0.00114732
-0.0060151
-0.00115397
-0.00517481
-0.00116199
-0.0043278
-0.00116989
-0.00347637
-0.00117664
-0.00262243
-0.00118155
-0.00176884
-0.00118565
-0.000904674
-0.00119866
-4.22403e-05
-0.00119164
0.000822434
-0.00119084
0.00168544
-0.00118718
0.00254368
-0.00118093
0.00340128
-0.00118125
0.00425456
-0.00117749
0.00510015
-0.00116851
0.0059354
-0.00115502
0.00675803
-0.00113791
0.0075662
-0.00111795
0.0083584
-0.00109574
0.00913337
-0.0010717
0.00989012
-0.0010462
0.0106278
-0.00101949
0.0113457
-0.000991789
0.0120432
-0.000963276
0.0127199
-0.000934106
0.0133754
-0.000904419
0.0140093
-0.000874345
0.0146216
-0.000844005
0.0152121
-0.000813514
0.0157807
-0.000782981
0.0163274
-0.000752508
0.0168525
-0.000722195
0.0173559
-0.000692144
0.0178381
-0.000662452
0.0182993
-0.000633205
0.0187398
-0.00060446
0.0191599
-0.000576174
0.0195602
-0.000548389
0.0199408
-0.000521122
0.0203023
-0.000494488
0.020645
-0.000468562
0.0209697
-0.000443538
0.0212767
-0.000419202
0.0215667
-0.000395638
0.0218403
-0.000373066
0.0220981
-0.000351279
0.0223407
-0.000330327
0.0225688
-0.000310268
0.022783
-0.000291106
0.0229839
-0.000272846
0.0231721
-0.000255451
0.0233482
-0.000238872
0.0235128
-0.000223077
0.0236664
-0.000208041
0.0238095
-0.000193749
0.0239428
-0.000180187
0.0240666
-0.00016734
0.0241815
-0.000155194
0.024288
-0.000143733
0.0243866
-0.000132939
0.0244777
-0.000122793
0.0245618
-0.000113275
0.0246394
-0.000104363
0.0247108
-9.60361e-05
0.0247765
-8.82711e-05
0.0248368
-8.10453e-05
0.0248922
-7.43357e-05
0.0249429
-6.81191e-05
0.0249894
-6.23726e-05
0.0250319
-5.70733e-05
0.0250708
-5.21987e-05
0.0251064
-4.77267e-05
0.0251389
-4.36356e-05
0.0251686
-3.99044e-05
0.0251958
-3.65126e-05
0.0252206
-3.34403e-05
0.0252434
-3.06684e-05
0.0252643
-2.81783e-05
0.0252835
-2.5952e-05
0.0253012
-2.39725e-05
0.0253175
-2.22233e-05
0.0253327
-2.06884e-05
0.0253469
-1.93523e-05
0.0253601
-1.82013e-05
0.0253726
-1.72224e-05
0.0253845
-1.64011e-05
0.0253958
-1.57237e-05
0.0254066
-1.51802e-05
0.0254172
-1.47647e-05
0.0254274
-1.44686e-05
0.0254375
-1.42799e-05
0.0254475
-1.4185e-05
0.0254575
-1.417e-05
0.0254675
-1.42231e-05
0.0254775
-1.43396e-05
0.0254876
-1.45214e-05
0.0254979
-1.47698e-05
0.0255084
-1.50788e-05
0.0255192
-1.54321e-05
0.0255302
-1.58119e-05
0.0255414
-1.62078e-05
0.025553
-1.66164e-05
0.0255648
-1.70358e-05
0.025577
-1.74639e-05
0.0255894
-1.7898e-05
0.0256022
-1.83359e-05
0.0256153
-1.87753e-05
0.0256287
-1.92139e-05
0.0256424
-1.96497e-05
0.0256564
-2.00805e-05
0.0256708
-2.05047e-05
0.0256854
-2.09202e-05
0.0257003
-2.13251e-05
0.0257156
-2.17171e-05
0.0257311
-2.20948e-05
0.0257468
-2.24573e-05
0.0257629
-2.28037e-05
0.0257791
-2.31331e-05
0.0257956
-2.34437e-05
0.0258124
-2.37346e-05
0.0258293
-2.40049e-05
0.0258464
-2.42542e-05
0.0258637
-2.44824e-05
0.0258811
-2.46898e-05
0.0258987
-2.48765e-05
0.0259164
-2.50429e-05
0.0259343
-2.51892e-05
0.0259522
-2.53155e-05
0.0259702
-2.54222e-05
0.0259883
-2.551e-05
0.0260065
-2.55793e-05
0.0260247
-2.56303e-05
0.026043
-2.56626e-05
0.0260612
-2.56766e-05
0.0260795
-2.56715e-05
0.0260977
-2.56466e-05
0.026116
-2.56028e-05
0.0261342
-2.55425e-05
0.0261523
-2.54664e-05
0.0261704
-2.53743e-05
0.0261885
-2.52668e-05
0.0262064
-2.51454e-05
0.0262243
-2.50104e-05
0.0262421
-2.48623e-05
0.0262597
-2.47024e-05
0.0262773
-2.45321e-05
0.0262947
-2.43514e-05
0.026312
-2.41597e-05
0.0263291
-2.39572e-05
0.0263461
-2.37447e-05
0.026363
-2.35231e-05
0.0263797
-2.32926e-05
0.0263962
-2.30536e-05
0.0264125
-2.28062e-05
0.0264287
-2.25511e-05
0.0264447
-2.22894e-05
0.0264605
-2.20217e-05
0.0264761
-2.17485e-05
0.0264915
-2.14703e-05
0.0265068
-2.11873e-05
0.0265218
-2.09e-05
0.0265366
-2.06088e-05
0.0265512
-2.03144e-05
0.0265656
-2.00171e-05
0.0265797
-1.97176e-05
0.0265937
-1.94161e-05
0.0266075
-1.9113e-05
0.026621
-1.88085e-05
0.0266343
-1.85029e-05
0.0266474
-1.81966e-05
0.0266603
-1.78898e-05
0.0266729
-1.75828e-05
0.0266854
-1.72759e-05
0.0266976
-1.69694e-05
0.0267096
-1.66636e-05
0.0267214
-1.63588e-05
0.0267329
-1.60551e-05
0.0267443
-1.57528e-05
0.0267554
-1.5452e-05
0.0267663
-1.51529e-05
0.026777
-1.48558e-05
0.0267875
-1.45606e-05
0.0267978
-1.42677e-05
0.0268079
-1.39771e-05
0.0268177
-1.3689e-05
0.0268274
-1.34035e-05
0.0268369
-1.31207e-05
0.0268461
-1.28408e-05
0.0268552
-1.25637e-05
0.026864
-1.22897e-05
0.0268727
-1.20188e-05
0.0268812
-1.17511e-05
0.0268894
-1.14866e-05
0.0268975
-1.12254e-05
0.0269054
-1.09676e-05
0.0269132
-1.07131e-05
0.0269207
-1.04621e-05
0.0269281
-1.02145e-05
0.0269352
-9.97044e-06
0.0269423
-9.72988e-06
0.0269491
-9.49284e-06
0.0269558
-9.25935e-06
0.0269623
-9.02939e-06
0.0269686
-8.80297e-06
0.0269748
-8.5801e-06
0.0269808
-8.36075e-06
0.0269867
-8.14493e-06
0.0269924
-7.9326e-06
0.0269979
-7.72376e-06
0.0270034
-7.51839e-06
0.0270086
-7.31647e-06
0.0270137
-7.11797e-06
0.0270187
-6.92287e-06
0.0270236
-6.73115e-06
0.0270283
-6.54278e-06
0.0270328
-6.35773e-06
0.0270373
-6.176e-06
0.0270416
-5.99755e-06
0.0270457
-5.82237e-06
0.0270498
-5.65044e-06
0.0270537
-5.48171e-06
0.0270575
-5.31606e-06
0.0270612
-5.15343e-06
0.0270648
-4.99373e-06
0.0270683
-4.83693e-06
0.0270716
-4.68299e-06
0.0270749
-4.5319e-06
0.027078
-4.38362e-06
0.027081
-4.23813e-06
0.027084
-4.09539e-06
0.0270868
-3.95538e-06
0.0270895
-3.81809e-06
0.0270921
-3.68353e-06
0.0270947
-3.5517e-06
0.0270971
-3.42255e-06
0.0270994
-3.29594e-06
0.0271017
-3.1717e-06
0.0271039
-3.04972e-06
0.0271059
-2.92996e-06
0.0271079
-2.81241e-06
0.0271098
-2.69711e-06
0.0271116
-2.5841e-06
0.0271134
-2.47345e-06
0.0271151
-2.36518e-06
0.0271166
-2.25915e-06
0.0271182
-2.15515e-06
0.0271196
-2.05298e-06
0.027121
-1.95258e-06
0.0271222
-1.85401e-06
0.0271235
-1.75744e-06
0.0271246
-1.66304e-06
0.0271257
-1.57076e-06
0.0271267
-1.48032e-06
0.0271277
-1.39143e-06
0.0271286
-1.304e-06
0.0271294
-1.21828e-06
0.0271302
-1.13465e-06
0.0271309
-1.05315e-06
0.0271315
-9.735e-07
0.0271321
-8.95172e-07
0.0271327
-8.18136e-07
0.0271331
-7.42983e-07
0.0271336
-6.70013e-07
0.027134
-5.99402e-07
0.0271343
-5.3014e-07
0.0271346
-4.61945e-07
0.0271348
-3.95027e-07
0.027135
-3.29199e-07
0.0271351
-2.65703e-07
0.0271352
-2.03075e-07
0.0271352
-1.43668e-07
0.0271352
-8.57657e-08
0.0271352
-2.8629e-08
0.0271351
2.99312e-08
0.027135
8.98719e-08
0.0271348
1.48951e-07
0.0271346
2.06185e-07
0.0271344
2.61815e-07
0.0271341
3.16784e-07
0.0271337
3.71211e-07
0.0271334
4.24543e-07
0.027133
4.76506e-07
0.0271325
5.2716e-07
0.027132
5.76615e-07
0.0271315
6.24933e-07
0.027131
6.72152e-07
0.0271304
7.18303e-07
0.0271298
7.63409e-07
0.0271291
8.07481e-07
0.0271284
8.50536e-07
0.0271277
8.92578e-07
0.027127
9.33619e-07
0.0271262
9.73663e-07
0.0271254
1.01272e-06
0.0271246
1.05078e-06
0.0271237
1.08786e-06
0.0271228
1.12397e-06
0.0271219
1.15909e-06
0.027121
1.19324e-06
0.02712
1.22641e-06
0.0271191
1.2586e-06
0.0271181
1.28982e-06
0.027117
1.32007e-06
0.027116
1.34934e-06
0.0271149
1.37764e-06
0.0271138
1.40495e-06
0.0271127
1.43129e-06
0.0271116
1.45664e-06
0.0271105
1.48101e-06
0.0271093
1.50439e-06
0.0271082
1.52678e-06
0.027107
1.54817e-06
0.0271058
1.56857e-06
0.0271045
1.58797e-06
0.0271033
1.60637e-06
0.0271021
1.62376e-06
0.0271008
1.64013e-06
0.0270995
1.65546e-06
0.0270983
1.66978e-06
0.027097
1.68306e-06
0.0270957
1.69531e-06
0.0270944
1.70653e-06
0.0270931
1.71673e-06
0.0270918
1.72593e-06
0.0270904
1.73417e-06
0.0270891
1.74148e-06
0.0270878
1.74791e-06
0.0270864
1.75351e-06
0.0270851
1.75828e-06
0.0270838
1.76222e-06
0.0270824
1.76528e-06
0.0270811
1.76728e-06
0.0270797
1.76795e-06
0.0270784
1.7672e-06
0.027077
1.76514e-06
0.0270757
1.76192e-06
0.0270744
1.7576e-06
0.027073
1.7522e-06
0.0270717
1.74573e-06
0.0270704
1.73818e-06
0.0270691
1.72956e-06
0.0270678
1.71986e-06
0.0270665
1.70908e-06
0.0270652
1.69722e-06
0.0270639
1.68428e-06
0.0270626
1.67025e-06
0.0270614
1.65514e-06
0.0270601
1.63894e-06
0.0270589
1.62166e-06
0.0270577
1.60329e-06
0.0270565
1.58384e-06
0.0270553
1.56331e-06
0.0270541
1.54169e-06
0.027053
1.519e-06
0.0270519
1.49523e-06
0.0270507
1.47039e-06
0.0270496
1.44448e-06
0.0270486
1.4175e-06
0.0270475
1.38948e-06
0.0270465
1.3604e-06
0.0270455
1.33028e-06
0.0270445
1.29914e-06
0.0270435
1.26697e-06
0.0270426
1.23379e-06
0.0270417
1.19963e-06
0.0270408
1.16447e-06
0.02704
1.12836e-06
0.0270391
1.09129e-06
0.0270383
1.05329e-06
0.0270376
1.01437e-06
0.0270368
9.74558e-07
0.0270361
9.33867e-07
0.0270354
8.92316e-07
0.0270348
8.49926e-07
0.0270342
8.06717e-07
0.0270336
7.62714e-07
0.0270331
7.17936e-07
0.0270326
6.72413e-07
0.0270321
6.26178e-07
0.0270316
5.79274e-07
0.0270312
5.31759e-07
0.0270309
4.83708e-07
0.0270305
4.35226e-07
0.0270303
3.86446e-07
0.02703
3.37533e-07
0.0270298
2.88684e-07
0.0270296
2.40086e-07
0.0270295
1.91904e-07
0.0270294
1.44204e-07
0.0270293
9.69217e-08
0.0270293
4.96376e-08
0.0270293
1.51398e-09
0.0270293
-4.62956e-08
0.0270294
-9.72578e-08
0.0270295
-1.49355e-07
0.0270296
-2.00518e-07
0.0270298
-2.5067e-07
0.0270301
-3.00196e-07
0.0270303
-3.49374e-07
0.0270306
-3.98395e-07
0.027031
-4.47493e-07
0.0270314
-4.97018e-07
0.0270318
-5.47478e-07
0.0270322
-5.9964e-07
0.0270328
-6.54662e-07
0.0270333
-7.14328e-07
0.0270339
-7.81423e-07
0.0270346
-8.60729e-07
0.0270353
-9.6274e-07
0.0270361
-1.11562e-06
0.0270371
-1.38112e-06
0.0270383
-1.81946e-06
-2.38517e-06
-0.000104143
0.000105472
-0.000412344
0.000489672
-0.00091629
0.000887856
-0.00158391
0.00122152
-0.00237373
0.00147125
-0.00324865
0.00164202
-0.0041796
0.00174943
-0.00514666
0.00181338
-0.00613294
0.00184636
-0.00711915
0.00185366
-0.00809292
0.00184056
-0.00905011
0.00181612
-0.00998909
0.00178613
-0.0109089
0.00175343
-0.0118092
0.00171967
-0.0126896
0.00168571
-0.01355
0.00165126
-0.0143903
0.00161664
-0.0152111
0.00158337
-0.0160136
0.00155245
-0.016799
0.00152413
-0.0175686
0.0014985
-0.0183218
0.00147163
-0.0190561
0.00143941
-0.0197693
0.00140193
-0.0204614
0.00136386
-0.021133
0.00132714
-0.0217848
0.00129178
-0.0224171
0.0012573
-0.0230299
0.00122242
-0.023622
0.00118578
-0.0241953
0.00115333
-0.0247532
0.00112691
-0.0252914
0.00109304
-0.0258088
0.00105637
-0.0263052
0.00101896
-0.0267801
0.0009809
-0.027233
0.000941899
-0.0276634
0.000901756
-0.0280705
0.000860284
-0.0284535
0.000817214
-0.0288116
0.000772395
-0.0291438
0.000725806
-0.0294492
0.000677395
-0.029727
0.000626919
-0.029976
0.000574383
-0.0301955
0.000520023
-0.0303845
0.000463657
-0.030542
0.00040537
-0.0306669
0.000345183
-0.0307588
0.00028361
-0.0308176
0.000220538
-0.0308428
0.000155666
-0.0308335
8.90474e-05
-0.0307886
2.09638e-05
-0.0307067
-4.80437e-05
-0.0305849
-0.000119518
-0.0304243
-0.000195136
-0.030222
-0.00027356
-0.0299778
-0.000354785
-0.0296911
-0.000438619
-0.0293609
-0.00052465
-0.0289853
-0.00061013
-0.0285776
-0.000674411
-0.0281175
-0.000779419
-0.0276155
-0.00086442
-0.0270692
-0.000951415
-0.0264788
-0.00103875
-0.0258446
-0.00112583
-0.0251669
-0.00121275
-0.0244464
-0.0012993
-0.023684
-0.00138522
-0.0228807
-0.00147041
-0.0220377
-0.00155517
-0.0211567
-0.00164008
-0.0202388
-0.00172524
-0.019266
-0.00180565
-0.0182268
-0.00187227
-0.0172088
-0.00193213
-0.0161557
-0.00199456
-0.0150726
-0.00205478
-0.013961
-0.00211259
-0.0128221
-0.00216698
-0.011659
-0.00221712
-0.0104752
-0.00226273
-0.00927577
-0.00230391
-0.00806327
-0.00234366
-0.00678532
-0.00242528
-0.00553183
-0.00240746
-0.00426325
-0.00243057
-0.00298473
-0.00244841
-0.00170006
-0.00246132
-0.000411707
-0.0024699
0.00087747
-0.00247483
0.00216416
-0.00248535
0.00345894
-0.00248642
0.0047531
-0.00248499
0.00604366
-0.00247774
0.00732819
-0.00246547
0.00860056
-0.00245361
0.00985966
-0.00243659
0.0111038
-0.00241267
0.012331
-0.00238221
0.0135392
-0.00234609
0.0147264
-0.00230518
0.0158909
-0.00226023
0.0170311
-0.0022119
0.0181456
-0.00216072
0.0192333
-0.00210714
0.020293
-0.00205156
0.0213241
-0.0019943
0.0223256
-0.00193566
0.0232971
-0.00187592
0.0242381
-0.00181533
0.0251482
-0.00175414
0.0260273
-0.00169257
0.0268752
-0.00163085
0.0276918
-0.00156916
0.0284773
-0.00150771
0.0292319
-0.0014467
0.0299557
-0.00138629
0.0306492
-0.00132668
0.0313127
-0.001268
0.0319469
-0.0012103
0.0325522
-0.00115368
0.0331291
-0.00109808
0.0336783
-0.0010437
0.0342005
-0.000990727
0.034696
-0.000939064
0.0351657
-0.0008889
0.0356104
-0.000840329
0.0360308
-0.000793512
0.0364278
-0.000748257
0.0368022
-0.000704703
0.0371549
-0.000662948
0.0374868
-0.000622977
0.0377987
-0.000584806
0.0380916
-0.000548349
0.0383663
-0.000513524
0.0386235
-0.000480277
0.038864
-0.000448572
0.0390886
-0.000418381
0.0392981
-0.000389679
0.0394932
-0.000362441
0.0396747
-0.000336638
0.0398432
-0.000312239
0.0399994
-0.000289211
0.0401442
-0.000267517
0.040278
-0.000247117
0.0404016
-0.000227971
0.0405156
-0.000210035
0.0406206
-0.000193266
0.0407172
-0.000177619
0.0408059
-0.000163049
0.0408873
-0.000149509
0.0409619
-0.000136955
0.0410301
-0.00012534
0.0410926
-0.00011462
0.0411496
-0.00010475
0.0412016
-9.56864e-05
0.0412491
-8.73869e-05
0.0412924
-7.98095e-05
0.0413319
-7.29138e-05
0.0413679
-6.66606e-05
0.0414007
-6.1012e-05
0.0414307
-5.59308e-05
0.0414581
-5.1382e-05
0.0414832
-4.73318e-05
0.0415063
-4.37465e-05
0.0415275
-4.05943e-05
0.0415471
-3.78471e-05
0.0415654
-3.54768e-05
0.0415825
-3.34534e-05
0.0415985
-3.1748e-05
0.0416136
-3.03401e-05
0.0416281
-2.92156e-05
0.041642
-2.83552e-05
0.0416554
-2.7734e-05
0.0416686
-2.73288e-05
0.0416815
-2.71182e-05
0.0416944
-2.70768e-05
0.0417072
-2.71784e-05
0.0417201
-2.74118e-05
0.0417331
-2.7783e-05
0.0417463
-2.82879e-05
0.0417598
-2.88971e-05
0.0417736
-2.95768e-05
0.0417877
-3.03064e-05
0.0418021
-3.10774e-05
0.041817
-3.18846e-05
0.0418322
-3.27221e-05
0.0418479
-3.35838e-05
0.041864
-3.44637e-05
0.0418806
-3.53561e-05
0.0418977
-3.62555e-05
0.0419152
-3.71564e-05
0.0419331
-3.80541e-05
0.0419516
-3.89441e-05
0.0419705
-3.9822e-05
0.0419898
-4.06831e-05
0.0420096
-4.15226e-05
0.0420299
-4.23371e-05
0.0420506
-4.31242e-05
0.0420716
-4.38819e-05
0.0420931
-4.46075e-05
0.042115
-4.52978e-05
0.0421372
-4.59501e-05
0.0421597
-4.65626e-05
0.0421826
-4.71342e-05
0.0422058
-4.76645e-05
0.0422293
-4.81534e-05
0.042253
-4.86013e-05
0.0422769
-4.90088e-05
0.0423011
-4.93756e-05
0.0423255
-4.97019e-05
0.0423501
-4.99881e-05
0.0423748
-5.02353e-05
0.0423997
-5.04443e-05
0.0424247
-5.0615e-05
0.0424497
-5.07471e-05
0.0424749
-5.08408e-05
0.0425001
-5.08962e-05
0.0425254
-5.09134e-05
0.0425507
-5.08934e-05
0.042576
-5.08362e-05
0.0426013
-5.07419e-05
0.0426265
-5.06125e-05
0.0426517
-5.04512e-05
0.0426768
-5.02603e-05
0.0427018
-5.00401e-05
0.0427268
-4.97915e-05
0.0427516
-4.9518e-05
0.0427763
-4.92216e-05
0.0428008
-4.89017e-05
0.0428252
-4.85577e-05
0.0428494
-4.81901e-05
0.0428735
-4.78007e-05
0.0428974
-4.73911e-05
0.042921
-4.69617e-05
0.0429445
-4.65131e-05
0.0429677
-4.6046e-05
0.0429907
-4.5562e-05
0.0430135
-4.50629e-05
0.0430361
-4.45501e-05
0.0430583
-4.40246e-05
0.0430803
-4.34872e-05
0.0431021
-4.29387e-05
0.0431236
-4.23799e-05
0.0431448
-4.18119e-05
0.0431657
-4.12358e-05
0.0431863
-4.06527e-05
0.0432067
-4.00636e-05
0.0432267
-3.94692e-05
0.0432465
-3.88701e-05
0.043266
-3.82671e-05
0.0432851
-3.76607e-05
0.043304
-3.70515e-05
0.0433225
-3.64402e-05
0.0433408
-3.58274e-05
0.0433587
-3.52138e-05
0.0433763
-3.46e-05
0.0433936