/*--------------------------------*- C++ -*----------------------------------*\
| =========                 |                                                 |
| \\      /  F ield         | OpenFOAM: The Open Source CFD Toolbox           |
|  \\    /   O peration     | Version:  2312                                  |
|   \\  /    A nd           | Website:  www.openfoam.com                      |
|    \\/     M anipulation  |                                                 |
\*---------------------------------------------------------------------------*/
FoamFile
{
    version     2.0;
    format      ascii;
    arch        "LSB;label=32;scalar=64";
    class       surfaceScalarField;
    location    "600";
    object      phiByRho;
}
// * * * * * * * * * * * * * * * * * * * * * * * * * * * * * * * * * * * * * //

dimensions      [0 3 -1 0 0 0 0];

oriented        oriented;

internalField   nonuniform List<scalar> 
40240
(
3.10446e-08
-3.10446e-08
-2.58636e-09
3.36309e-08
-9.84832e-08
9.58969e-08
-2.45653e-07
1.47169e-07
-4.295e-07
1.83847e-07
-6.36192e-07
2.06691e-07
-8.54956e-07
2.18764e-07
-1.07875e-06
2.23794e-07
-1.30438e-06
2.25627e-07
-1.53372e-06
2.29345e-07
-1.76553e-06
2.31812e-07
-1.99689e-06
2.31358e-07
-2.22588e-06
2.2899e-07
-2.4517e-06
2.25814e-07
-2.67416e-06
2.22466e-07
-2.89332e-06
2.19156e-07
-3.10913e-06
2.15807e-07
-3.32154e-06
2.12416e-07
-3.53074e-06
2.09194e-07
-3.73708e-06
2.06345e-07
-3.94111e-06
2.04033e-07
-4.1434e-06
2.02282e-07
-4.34375e-06
2.00358e-07
-4.54114e-06
1.9739e-07
-4.73447e-06
1.93327e-07
-4.92345e-06
1.88977e-07
-5.10831e-06
1.84862e-07
-5.28939e-06
1.81083e-07
-5.46688e-06
1.77486e-07
-5.64057e-06
1.73697e-07
-5.81023e-06
1.69658e-07
-5.97672e-06
1.66491e-07
-6.14102e-06
1.643e-07
-6.30214e-06
1.61121e-07
-6.45942e-06
1.57276e-07
-6.61269e-06
1.53273e-07
-6.76192e-06
1.49231e-07
-6.90703e-06
1.45106e-07
-7.04788e-06
1.40853e-07
-7.18432e-06
1.36433e-07
-7.31611e-06
1.31792e-07
-7.44301e-06
1.269e-07
-7.56476e-06
1.21754e-07
-7.6811e-06
1.16339e-07
-7.7917e-06
1.10602e-07
-7.89624e-06
1.04533e-07
-7.9944e-06
9.81676e-08
-8.08591e-06
9.15046e-08
-8.17048e-06
8.45747e-08
-8.24789e-06
7.74049e-08
-8.31786e-06
6.99686e-08
-8.37995e-06
6.20975e-08
-8.43382e-06
5.38634e-08
-8.47919e-06
4.53751e-08
-8.51581e-06
3.66137e-08
-8.54332e-06
2.75161e-08
-8.56107e-06
1.77497e-08
-8.5695e-06
8.42555e-09
-8.56957e-06
7.57278e-11
-8.55829e-06
-1.12819e-08
-8.53548e-06
-2.28118e-08
-8.50056e-06
-3.49157e-08
-8.45468e-06
-4.58867e-08
-8.39993e-06
-5.47478e-08
-8.32971e-06
-7.0219e-08
-8.24721e-06
-8.24976e-08
-8.15287e-06
-9.43455e-08
-8.04634e-06
-1.06526e-07
-7.9275e-06
-1.18845e-07
-7.79619e-06
-1.31309e-07
-7.65222e-06
-1.43968e-07
-7.49537e-06
-1.56853e-07
-7.32531e-06
-1.70054e-07
-7.14145e-06
-1.83867e-07
-6.94265e-06
-1.98799e-07
-6.72938e-06
-2.1327e-07
-6.51311e-06
-2.16262e-07
-6.30014e-06
-2.12972e-07
-6.05399e-06
-2.46153e-07
-5.7994e-06
-2.54593e-07
-5.53671e-06
-2.62681e-07
-5.2656e-06
-2.71109e-07
-4.98653e-06
-2.79071e-07
-4.69953e-06
-2.87005e-07
-4.40402e-06
-2.95505e-07
-4.09752e-06
-3.06505e-07
-3.77771e-06
-3.19813e-07
-3.49292e-06
-2.84785e-07
-3.16855e-06
-3.24369e-07
-2.84685e-06
-3.21704e-07
-2.52397e-06
-3.22879e-07
-2.19875e-06
-3.25216e-07
-1.87114e-06
-3.27608e-07
-1.53908e-06
-3.32062e-07
-1.20458e-06
-3.345e-07
-8.75376e-07
-3.29206e-07
-5.49214e-07
-3.26163e-07
-2.25036e-07
-3.24177e-07
9.76585e-08
-3.22695e-07
4.21295e-07
-3.23636e-07
7.45505e-07
-3.2421e-07
1.06842e-06
-3.22913e-07
1.38819e-06
-3.19773e-07
1.70347e-06
-3.15274e-07
2.01325e-06
-3.09783e-07
2.31679e-06
-3.03542e-07
2.61351e-06
-2.96723e-07
2.90297e-06
-2.89451e-07
3.18479e-06
-2.81821e-07
3.45869e-06
-2.73903e-07
3.72444e-06
-2.65753e-07
3.98186e-06
-2.57421e-07
4.23081e-06
-2.48948e-07
4.47118e-06
-2.40373e-07
4.70292e-06
-2.31731e-07
4.92597e-06
-2.23057e-07
5.14036e-06
-2.14383e-07
5.34609e-06
-2.05739e-07
5.54325e-06
-1.97154e-07
5.73191e-06
-1.88661e-07
5.91219e-06
-1.80286e-07
6.08425e-06
-1.72051e-07
6.24821e-06
-1.63965e-07
6.40421e-06
-1.55996e-07
6.55234e-06
-1.48132e-07
6.69284e-06
-1.40499e-07
6.82589e-06
-1.33055e-07
6.95168e-06
-1.25791e-07
7.07058e-06
-1.18901e-07
7.18277e-06
-1.12182e-07
7.28843e-06
-1.05669e-07
7.38788e-06
-9.94427e-08
7.48133e-06
-9.34484e-08
7.56901e-06
-8.76898e-08
7.6512e-06
-8.21874e-08
7.72815e-06
-7.69473e-08
7.80012e-06
-7.19712e-08
7.86737e-06
-6.72467e-08
7.93012e-06
-6.2757e-08
7.98861e-06
-5.84897e-08
8.04305e-06
-5.44368e-08
8.09364e-06
-5.05928e-08
8.1406e-06
-4.69535e-08
8.18411e-06
-4.35147e-08
8.22438e-06
-4.02718e-08
8.2616e-06
-3.722e-08
8.29596e-06
-3.43541e-08
8.32763e-06
-3.16681e-08
8.35678e-06
-2.91562e-08
8.38359e-06
-2.68119e-08
8.40822e-06
-2.46288e-08
8.43082e-06
-2.26e-08
8.45154e-06
-2.0719e-08
8.47052e-06
-1.89789e-08
8.48789e-06
-1.7373e-08
8.50379e-06
-1.58947e-08
8.51833e-06
-1.45373e-08
8.53162e-06
-1.32945e-08
8.54378e-06
-1.21599e-08
8.55491e-06
-1.11274e-08
8.5651e-06
-1.0191e-08
8.57444e-06
-9.3449e-09
8.58303e-06
-8.5836e-09
8.59093e-06
-7.90174e-09
8.59822e-06
-7.29416e-09
8.60498e-06
-6.75586e-09
8.61126e-06
-6.28213e-09
8.61713e-06
-5.86849e-09
8.62264e-06
-5.51041e-09
8.62784e-06
-5.20359e-09
8.63279e-06
-4.94445e-09
8.63752e-06
-4.72951e-09
8.64207e-06
-4.55479e-09
8.64649e-06
-4.41632e-09
8.6508e-06
-4.31159e-09
8.65504e-06
-4.23952e-09
8.65924e-06
-4.19774e-09
8.66342e-06
-4.18123e-09
8.6676e-06
-4.18483e-09
8.67181e-06
-4.20682e-09
8.67606e-06
-4.24738e-09
8.68036e-06
-4.30546e-09
8.68474e-06
-4.3803e-09
8.68922e-06
-4.47232e-09
8.6938e-06
-4.57981e-09
8.69849e-06
-4.69733e-09
8.70331e-06
-4.81902e-09
8.70825e-06
-4.94203e-09
8.71332e-06
-5.06601e-09
8.71851e-06
-5.19102e-09
8.72383e-06
-5.31664e-09
8.72927e-06
-5.44225e-09
8.73484e-06
-5.5673e-09
8.74053e-06
-5.69134e-09
8.74634e-06
-5.81391e-09
8.75228e-06
-5.93453e-09
8.75833e-06
-6.05278e-09
8.7645e-06
-6.16824e-09
8.77078e-06
-6.28047e-09
8.77717e-06
-6.38892e-09
8.78366e-06
-6.49303e-09
8.79025e-06
-6.59247e-09
8.79694e-06
-6.68708e-09
8.80372e-06
-6.77672e-09
8.81058e-06
-6.86111e-09
8.81752e-06
-6.93985e-09
8.82453e-06
-7.01259e-09
8.83161e-06
-7.07918e-09
8.83875e-06
-7.13958e-09
8.84594e-06
-7.1938e-09
8.85318e-06
-7.24195e-09
8.86047e-06
-7.28418e-09
8.86779e-06
-7.32061e-09
8.87514e-06
-7.35132e-09
8.88252e-06
-7.37637e-09
8.88991e-06
-7.39595e-09
8.89732e-06
-7.41038e-09
8.90474e-06
-7.41987e-09
8.91217e-06
-7.42417e-09
8.91959e-06
-7.42277e-09
8.92701e-06
-7.41566e-09
8.93441e-06
-7.40347e-09
8.9418e-06
-7.38671e-09
8.94916e-06
-7.36511e-09
8.9565e-06
-7.33886e-09
8.96381e-06
-7.30841e-09
8.97108e-06
-7.27367e-09
8.97832e-06
-7.23481e-09
8.98551e-06
-7.1923e-09
8.99266e-06
-7.14622e-09
8.99975e-06
-7.09659e-09
9.0068e-06
-7.04392e-09
9.01378e-06
-6.98866e-09
9.02072e-06
-6.93078e-09
9.02759e-06
-6.87008e-09
9.03439e-06
-6.80655e-09
9.04113e-06
-6.74043e-09
9.0478e-06
-6.67202e-09
9.05441e-06
-6.60141e-09
9.06093e-06
-6.52861e-09
9.06739e-06
-6.45369e-09
9.07377e-06
-6.37682e-09
9.08006e-06
-6.29829e-09
9.08628e-06
-6.21834e-09
9.09242e-06
-6.13712e-09
9.09847e-06
-6.05471e-09
9.10445e-06
-5.9712e-09
9.11033e-06
-5.88668e-09
9.11613e-06
-5.80128e-09
9.12185e-06
-5.71515e-09
9.12748e-06
-5.62845e-09
9.13302e-06
-5.54132e-09
9.13847e-06
-5.45386e-09
9.14384e-06
-5.36613e-09
9.14912e-06
-5.27822e-09
9.15431e-06
-5.19019e-09
9.15941e-06
-5.10212e-09
9.16442e-06
-5.01408e-09
9.16935e-06
-4.92614e-09
9.17419e-06
-4.83838e-09
9.17894e-06
-4.75089e-09
9.1836e-06
-4.66375e-09
9.18818e-06
-4.57702e-09
9.19267e-06
-4.49076e-09
9.19707e-06
-4.40502e-09
9.20139e-06
-4.31983e-09
9.20563e-06
-4.23525e-09
9.20978e-06
-4.15132e-09
9.21385e-06
-4.06807e-09
9.21783e-06
-3.98555e-09
9.22174e-06
-3.90378e-09
9.22556e-06
-3.82281e-09
9.2293e-06
-3.74267e-09
9.23297e-06
-3.66337e-09
9.23655e-06
-3.58496e-09
9.24006e-06
-3.50744e-09
9.24349e-06
-3.43085e-09
9.24685e-06
-3.3552e-09
9.25013e-06
-3.28051e-09
9.25333e-06
-3.20679e-09
9.25647e-06
-3.13405e-09
9.25953e-06
-3.06231e-09
9.26252e-06
-2.99158e-09
9.26544e-06
-2.92186e-09
9.2683e-06
-2.85316e-09
9.27108e-06
-2.78548e-09
9.2738e-06
-2.71883e-09
9.27645e-06
-2.6532e-09
9.27904e-06
-2.58861e-09
9.28157e-06
-2.52503e-09
9.28403e-06
-2.46249e-09
9.28643e-06
-2.40096e-09
9.28877e-06
-2.34045e-09
9.29105e-06
-2.28094e-09
9.29327e-06
-2.22244e-09
9.29544e-06
-2.16494e-09
9.29755e-06
-2.10842e-09
9.2996e-06
-2.05289e-09
9.3016e-06
-1.99833e-09
9.30354e-06
-1.94473e-09
9.30544e-06
-1.89209e-09
9.30728e-06
-1.84039e-09
9.30907e-06
-1.78963e-09
9.31081e-06
-1.7398e-09
9.3125e-06
-1.69091e-09
9.31414e-06
-1.64293e-09
9.31574e-06
-1.59587e-09
9.31728e-06
-1.54971e-09
9.31879e-06
-1.50443e-09
9.32025e-06
-1.45998e-09
9.32167e-06
-1.41635e-09
9.32304e-06
-1.37352e-09
9.32437e-06
-1.3315e-09
9.32566e-06
-1.29026e-09
9.32691e-06
-1.2498e-09
9.32812e-06
-1.21011e-09
9.32929e-06
-1.17118e-09
9.33042e-06
-1.13301e-09
9.33152e-06
-1.09559e-09
9.33258e-06
-1.05894e-09
9.3336e-06
-1.02304e-09
9.33459e-06
-9.87906e-10
9.33554e-06
-9.53476e-10
9.33646e-06
-9.197e-10
9.33735e-06
-8.86539e-10
9.3382e-06
-8.53974e-10
9.33903e-06
-8.2201e-10
9.33982e-06
-7.90658e-10
9.34058e-06
-7.59934e-10
9.34131e-06
-7.29871e-10
9.34201e-06
-7.00474e-10
9.34268e-06
-6.71714e-10
9.34332e-06
-6.4351e-10
9.34394e-06
-6.15795e-10
9.34453e-06
-5.88539e-10
9.34509e-06
-5.61767e-10
9.34562e-06
-5.35542e-10
9.34613e-06
-5.09933e-10
9.34662e-06
-4.8493e-10
9.34708e-06
-4.60431e-10
9.34752e-06
-4.36329e-10
9.34793e-06
-4.12588e-10
9.34832e-06
-3.89303e-10
9.34868e-06
-3.66618e-10
9.34903e-06
-3.44552e-10
9.34935e-06
-3.22986e-10
9.34965e-06
-3.01727e-10
9.34993e-06
-2.80789e-10
9.35019e-06
-2.60405e-10
9.35044e-06
-2.40717e-10
9.35066e-06
-2.21681e-10
9.35086e-06
-2.02903e-10
9.35104e-06
-1.84351e-10
9.35121e-06
-1.66165e-10
9.35136e-06
-1.48492e-10
9.35149e-06
-1.31695e-10
9.35161e-06
-1.15291e-10
9.35171e-06
-9.92089e-11
9.35179e-06
-8.27993e-11
9.35185e-06
-6.68409e-11
9.35191e-06
-5.05932e-11
9.35194e-06
-3.46749e-11
9.35196e-06
-1.94142e-11
9.35196e-06
-4.60335e-12
9.35195e-06
9.36358e-12
9.35193e-06
2.39168e-11
9.35189e-06
3.906e-11
9.35184e-06
5.3887e-11
9.35177e-06
6.81254e-11
9.35169e-06
8.18824e-11
9.35159e-06
9.52653e-11
9.35148e-06
1.08324e-10
9.35136e-06
1.21079e-10
9.35123e-06
1.33545e-10
9.35108e-06
1.45729e-10
9.35093e-06
1.57638e-10
9.35076e-06
1.69273e-10
9.35058e-06
1.80639e-10
9.35038e-06
1.91735e-10
9.35018e-06
2.02567e-10
9.34997e-06
2.13134e-10
9.34975e-06
2.23438e-10
9.34951e-06
2.33483e-10
9.34927e-06
2.43265e-10
9.34902e-06
2.52791e-10
9.34875e-06
2.62055e-10
9.34848e-06
2.71063e-10
9.3482e-06
2.79813e-10
9.34791e-06
2.88305e-10
9.34762e-06
2.9654e-10
9.34731e-06
3.04518e-10
9.347e-06
3.12239e-10
9.34668e-06
3.19702e-10
9.34635e-06
3.26908e-10
9.34602e-06
3.33854e-10
9.34568e-06
3.40541e-10
9.34533e-06
3.4697e-10
9.34498e-06
3.53137e-10
9.34462e-06
3.59045e-10
9.34426e-06
3.64692e-10
9.34389e-06
3.70079e-10
9.34351e-06
3.75204e-10
9.34313e-06
3.80062e-10
9.34275e-06
3.84652e-10
9.34236e-06
3.88973e-10
9.34196e-06
3.93023e-10
9.34157e-06
3.96801e-10
9.34117e-06
4.00307e-10
9.34076e-06
4.0354e-10
9.34036e-06
4.06504e-10
9.33995e-06
4.09204e-10
9.33954e-06
4.11654e-10
9.33912e-06
4.13866e-10
9.33871e-06
4.15856e-10
9.33829e-06
4.17635e-10
9.33787e-06
4.19218e-10
9.33745e-06
4.20604e-10
9.33703e-06
4.2178e-10
9.3366e-06
4.22716e-10
9.33618e-06
4.23356e-10
9.33576e-06
4.23628e-10
9.33533e-06
4.23502e-10
9.33491e-06
4.2303e-10
9.33449e-06
4.22271e-10
9.33407e-06
4.21243e-10
9.33365e-06
4.1994e-10
9.33323e-06
4.18366e-10
9.33281e-06
4.16518e-10
9.3324e-06
4.14396e-10
9.33199e-06
4.12001e-10
9.33158e-06
4.09332e-10
9.33117e-06
4.06387e-10
9.33077e-06
4.0317e-10
9.33037e-06
3.99677e-10
9.32997e-06
3.95912e-10
9.32958e-06
3.91872e-10
9.32919e-06
3.87559e-10
9.32881e-06
3.82975e-10
9.32843e-06
3.78116e-10
9.32806e-06
3.72985e-10
9.32769e-06
3.67585e-10
9.32733e-06
3.61916e-10
9.32697e-06
3.55977e-10
9.32662e-06
3.49772e-10
9.32628e-06
3.43303e-10
9.32594e-06
3.3657e-10
9.32561e-06
3.29579e-10
9.32529e-06
3.22327e-10
9.32498e-06
3.14822e-10
9.32467e-06
3.07064e-10
9.32437e-06
2.99058e-10
9.32408e-06
2.90806e-10
9.3238e-06
2.82314e-10
9.32352e-06
2.73585e-10
9.32326e-06
2.64626e-10
9.323e-06
2.55438e-10
9.32276e-06
2.46029e-10
9.32252e-06
2.36403e-10
9.32229e-06
2.26565e-10
9.32208e-06
2.16521e-10
9.32187e-06
2.06276e-10
9.32168e-06
1.95837e-10
9.32149e-06
1.85206e-10
9.32132e-06
1.74389e-10
9.32115e-06
1.63395e-10
9.321e-06
1.5223e-10
9.32086e-06
1.40907e-10
9.32073e-06
1.29441e-10
9.32061e-06
1.17856e-10
9.32051e-06
1.06183e-10
9.32041e-06
9.44758e-11
9.32033e-06
8.2796e-11
9.32026e-06
7.12255e-11
9.3202e-06
5.98519e-11
9.32015e-06
4.87488e-11
9.32011e-06
3.78903e-11
9.32008e-06
2.69815e-11
9.32007e-06
1.54395e-11
9.32007e-06
2.75122e-12
9.32008e-06
-8.70547e-12
9.3201e-06
-2.11232e-11
9.32013e-06
-3.34847e-11
9.32018e-06
-4.54457e-11
9.32023e-06
-5.71051e-11
9.3203e-06
-6.86134e-11
9.32038e-06
-8.00341e-11
9.32047e-06
-9.14087e-11
9.32058e-06
-1.02804e-10
9.32069e-06
-1.14314e-10
9.32082e-06
-1.26085e-10
9.32095e-06
-1.38337e-10
9.32111e-06
-1.51427e-10
9.32127e-06
-1.65914e-10
9.32145e-06
-1.82643e-10
9.32166e-06
-2.0315e-10
9.32189e-06
-2.31815e-10
9.32217e-06
-2.82437e-10
9.32256e-06
-3.89799e-10
9.32319e-06
-6.27131e-10
-9.93629e-10
-3.2373e-08
1.32839e-09
-1.80213e-07
1.81471e-07
-4.68226e-07
3.8391e-07
-8.74963e-07
5.53906e-07
-1.37254e-06
6.81421e-07
-1.93295e-06
7.67107e-07
-2.53266e-06
8.18469e-07
-3.15519e-06
8.46325e-07
-3.78964e-06
8.60084e-07
-4.42775e-06
8.67447e-07
-5.06272e-06
8.66785e-07
-5.6903e-06
8.58935e-07
-6.30845e-06
8.47148e-07
-6.91622e-06
8.33583e-07
-7.5132e-06
8.19445e-07
-8.09928e-06
8.05239e-07
-8.67432e-06
7.90842e-07
-9.23829e-06
7.76382e-07
-9.79165e-06
7.62555e-07
-1.03352e-05
7.49915e-07
-1.08699e-05
7.38744e-07
-1.13966e-05
7.28937e-07
-1.19147e-05
7.18447e-07
-1.24223e-05
7.0505e-07
-1.29178e-05
6.8876e-07
-1.34006e-05
6.71808e-07
-1.38712e-05
6.55481e-07
-1.43301e-05
6.39979e-07
-1.47776e-05
6.24967e-07
-1.52135e-05
6.09626e-07
-1.56376e-05
5.93721e-07
-1.60512e-05
5.80079e-07
-1.64558e-05
5.68947e-07
-1.68495e-05
5.54836e-07
-1.72312e-05
5.38976e-07
-1.76006e-05
5.22612e-07
-1.79573e-05
5.05975e-07
-1.83011e-05
4.88936e-07
-1.86317e-05
4.71376e-07
-1.89484e-05
4.53182e-07
-1.92508e-05
4.34205e-07
-1.95383e-05
4.14354e-07
-1.98101e-05
3.9361e-07
-2.00657e-05
3.71935e-07
-2.03043e-05
3.49194e-07
-2.05252e-05
3.25361e-07
-2.07275e-05
3.00529e-07
-2.09107e-05
2.74651e-07
-2.1074e-05
2.4786e-07
-2.12168e-05
2.20252e-07
-2.13386e-05
1.91732e-07
-2.14382e-05
1.61765e-07
-2.15148e-05
1.30454e-07
-2.15677e-05
9.8285e-08
-2.15971e-05
6.59497e-08
-2.16034e-05
3.38017e-08
-2.15879e-05
2.33439e-09
-2.15449e-05
-3.46235e-08
-2.14736e-05
-7.1181e-08
-2.13743e-05
-1.10624e-07
-2.12452e-05
-1.51936e-07
-2.10857e-05
-1.94381e-07
-2.0897e-05
-2.34621e-07
-2.06851e-05
-2.66624e-07
-2.04359e-05
-3.19401e-07
-2.0156e-05
-3.62392e-07
-1.98452e-05
-4.05131e-07
-1.95034e-05
-4.48327e-07
-1.91307e-05
-4.91608e-07
-1.87269e-05
-5.35078e-07
-1.82921e-05
-5.78807e-07
-1.78261e-05
-6.22781e-07
-1.73291e-05
-6.67101e-07
-1.68008e-05
-7.12182e-07
-1.62405e-05
-7.59064e-07
-1.56464e-05
-8.07361e-07
-1.50298e-05
-8.32852e-07
-1.44097e-05
-8.33048e-07
-1.37417e-05
-9.14149e-07
-1.30549e-05
-9.41443e-07
-1.23459e-05
-9.71689e-07
-1.1616e-05
-1.00101e-06
-1.08669e-05
-1.02812e-06
-1.01e-05
-1.05392e-06
-9.31653e-06
-1.079e-06
-8.51858e-06
-1.10445e-06
-7.70723e-06
-1.13116e-06
-6.8447e-06
-1.14732e-06
-6.0151e-06
-1.15397e-06
-5.17481e-06
-1.16199e-06
-4.32779e-06
-1.16989e-06
-3.47637e-06
-1.17664e-06
-2.62242e-06
-1.18155e-06
-1.76884e-06
-1.18565e-06
-9.04674e-07
-1.19866e-06
-4.22403e-08
-1.19164e-06
8.22434e-07
-1.19084e-06
1.68544e-06
-1.18718e-06
2.54367e-06
-1.18093e-06
3.40128e-06
-1.18124e-06
4.25456e-06
-1.17749e-06
5.10015e-06
-1.16851e-06
5.93539e-06
-1.15502e-06
6.75803e-06
-1.13791e-06
7.5662e-06
-1.11795e-06
8.35839e-06
-1.09574e-06
9.13337e-06
-1.0717e-06
9.89011e-06
-1.0462e-06
1.06278e-05
-1.01949e-06
1.13457e-05
-9.91789e-07
1.20432e-05
-9.63275e-07
1.27199e-05
-9.34105e-07
1.33753e-05
-9.04418e-07
1.40093e-05
-8.74344e-07
1.46216e-05
-8.44005e-07
1.5212e-05
-8.13514e-07
1.57806e-05
-7.8298e-07
1.63274e-05
-7.52507e-07
1.68525e-05
-7.22195e-07
1.73559e-05
-6.92143e-07
1.78381e-05
-6.62452e-07
1.82993e-05
-6.33204e-07
1.87397e-05
-6.0446e-07
1.91599e-05
-5.76173e-07
1.95602e-05
-5.48389e-07
1.99408e-05
-5.21122e-07
2.03022e-05
-4.94487e-07
2.0645e-05
-4.68562e-07
2.09696e-05
-4.43538e-07
2.12767e-05
-4.19202e-07
2.15666e-05
-3.95638e-07
2.18403e-05
-3.73066e-07
2.20981e-05
-3.51279e-07
2.23407e-05
-3.30326e-07
2.25688e-05
-3.10268e-07
2.2783e-05
-2.91106e-07
2.29838e-05
-2.72846e-07
2.3172e-05
-2.5545e-07
2.33482e-05
-2.38872e-07
2.35127e-05
-2.23077e-07
2.36664e-05
-2.08041e-07
2.38095e-05
-1.93749e-07
2.39427e-05
-1.80187e-07
2.40666e-05
-1.6734e-07
2.41815e-05
-1.55194e-07
2.4288e-05
-1.43733e-07
2.43866e-05
-1.32939e-07
2.44777e-05
-1.22793e-07
2.45618e-05
-1.13275e-07
2.46394e-05
-1.04363e-07
2.47108e-05
-9.6036e-08
2.47765e-05
-8.8271e-08
2.48368e-05
-8.10453e-08
2.48921e-05
-7.43357e-08
2.49429e-05
-6.81191e-08
2.49894e-05
-6.23726e-08
2.50319e-05
-5.70733e-08
2.50708e-05
-5.21987e-08
2.51064e-05
-4.77266e-08
2.51389e-05
-4.36356e-08
2.51686e-05
-3.99044e-08
2.51958e-05
-3.65126e-08
2.52206e-05
-3.34403e-08
2.52434e-05
-3.06684e-08
2.52643e-05
-2.81782e-08
2.52835e-05
-2.59519e-08
2.53012e-05
-2.39724e-08
2.53175e-05
-2.22233e-08
2.53327e-05
-2.06884e-08
2.53468e-05
-1.93522e-08
2.53601e-05
-1.82013e-08
2.53726e-05
-1.72223e-08
2.53844e-05
-1.64011e-08
2.53957e-05
-1.57236e-08
2.54066e-05
-1.51802e-08
2.54171e-05
-1.47647e-08
2.54274e-05
-1.44686e-08
2.54375e-05
-1.42799e-08
2.54475e-05
-1.41849e-08
2.54575e-05
-1.417e-08
2.54674e-05
-1.42231e-08
2.54775e-05
-1.43396e-08
2.54876e-05
-1.45214e-08
2.54979e-05
-1.47698e-08
2.55084e-05
-1.50788e-08
2.55192e-05
-1.54321e-08
2.55301e-05
-1.58119e-08
2.55414e-05
-1.62078e-08
2.5553e-05
-1.66164e-08
2.55648e-05
-1.70358e-08
2.5577e-05
-1.74638e-08
2.55894e-05
-1.7898e-08
2.56022e-05
-1.83359e-08
2.56153e-05
-1.87752e-08
2.56287e-05
-1.92139e-08
2.56424e-05
-1.96496e-08
2.56564e-05
-2.00805e-08
2.56707e-05
-2.05047e-08
2.56854e-05
-2.09202e-08
2.57003e-05
-2.13251e-08
2.57155e-05
-2.17171e-08
2.5731e-05
-2.20948e-08
2.57468e-05
-2.24573e-08
2.57628e-05
-2.28037e-08
2.57791e-05
-2.3133e-08
2.57956e-05
-2.34437e-08
2.58123e-05
-2.37346e-08
2.58293e-05
-2.40049e-08
2.58464e-05
-2.42542e-08
2.58637e-05
-2.44824e-08
2.58811e-05
-2.46897e-08
2.58987e-05
-2.48765e-08
2.59164e-05
-2.50429e-08
2.59343e-05
-2.51892e-08
2.59522e-05
-2.53155e-08
2.59702e-05
-2.54222e-08
2.59883e-05
-2.551e-08
2.60065e-05
-2.55793e-08
2.60247e-05
-2.56303e-08
2.60429e-05
-2.56626e-08
2.60612e-05
-2.56765e-08
2.60795e-05
-2.56715e-08
2.60977e-05
-2.56466e-08
2.6116e-05
-2.56028e-08
2.61342e-05
-2.55425e-08
2.61523e-05
-2.54664e-08
2.61704e-05
-2.53743e-08
2.61885e-05
-2.52668e-08
2.62064e-05
-2.51454e-08
2.62243e-05
-2.50104e-08
2.6242e-05
-2.48622e-08
2.62597e-05
-2.47024e-08
2.62772e-05
-2.45321e-08
2.62947e-05
-2.43514e-08
2.6312e-05
-2.41597e-08
2.63291e-05
-2.39572e-08
2.63461e-05
-2.37447e-08
2.6363e-05
-2.35231e-08
2.63796e-05
-2.32926e-08
2.63962e-05
-2.30535e-08
2.64125e-05
-2.28061e-08
2.64287e-05
-2.25511e-08
2.64447e-05
-2.22894e-08
2.64605e-05
-2.20217e-08
2.64761e-05
-2.17485e-08
2.64915e-05
-2.14703e-08
2.65067e-05
-2.11873e-08
2.65218e-05
-2.09e-08
2.65366e-05
-2.06088e-08
2.65512e-05
-2.03143e-08
2.65655e-05
-2.00171e-08
2.65797e-05
-1.97175e-08
2.65937e-05
-1.94161e-08
2.66074e-05
-1.91129e-08
2.6621e-05
-1.88085e-08
2.66343e-05
-1.85029e-08
2.66474e-05
-1.81966e-08
2.66602e-05
-1.78898e-08
2.66729e-05
-1.75828e-08
2.66853e-05
-1.72759e-08
2.66976e-05
-1.69694e-08
2.67096e-05
-1.66636e-08
2.67213e-05
-1.63588e-08
2.67329e-05
-1.60551e-08
2.67443e-05
-1.57528e-08
2.67554e-05
-1.5452e-08
2.67663e-05
-1.51529e-08
2.6777e-05
-1.48557e-08
2.67875e-05
-1.45606e-08
2.67978e-05
-1.42677e-08
2.68079e-05
-1.39771e-08
2.68177e-05
-1.3689e-08
2.68274e-05
-1.34035e-08
2.68368e-05
-1.31207e-08
2.68461e-05
-1.28408e-08
2.68552e-05
-1.25637e-08
2.6864e-05
-1.22897e-08
2.68727e-05
-1.20188e-08
2.68811e-05
-1.17511e-08
2.68894e-05
-1.14866e-08
2.68975e-05
-1.12254e-08
2.69054e-05
-1.09675e-08
2.69131e-05
-1.07131e-08
2.69207e-05
-1.04621e-08
2.6928e-05
-1.02145e-08
2.69352e-05
-9.97043e-09
2.69422e-05
-9.72987e-09
2.69491e-05
-9.49284e-09
2.69558e-05
-9.25934e-09
2.69623e-05
-9.02938e-09
2.69686e-05
-8.80297e-09
2.69748e-05
-8.58009e-09
2.69808e-05
-8.36075e-09
2.69867e-05
-8.14492e-09
2.69924e-05
-7.9326e-09
2.69979e-05
-7.72376e-09
2.70033e-05
-7.51839e-09
2.70086e-05
-7.31646e-09
2.70137e-05
-7.11796e-09
2.70187e-05
-6.92287e-09
2.70235e-05
-6.73114e-09
2.70282e-05
-6.54277e-09
2.70328e-05
-6.35773e-09
2.70372e-05
-6.17599e-09
2.70416e-05
-5.99754e-09
2.70457e-05
-5.82237e-09
2.70498e-05
-5.65044e-09
2.70537e-05
-5.4817e-09
2.70575e-05
-5.31606e-09
2.70612e-05
-5.15342e-09
2.70648e-05
-4.99373e-09
2.70683e-05
-4.83692e-09
2.70716e-05
-4.68299e-09
2.70749e-05
-4.5319e-09
2.7078e-05
-4.38362e-09
2.7081e-05
-4.23813e-09
2.70839e-05
-4.09539e-09
2.70868e-05
-3.95537e-09
2.70895e-05
-3.81809e-09
2.70921e-05
-3.68353e-09
2.70946e-05
-3.5517e-09
2.70971e-05
-3.42255e-09
2.70994e-05
-3.29594e-09
2.71017e-05
-3.1717e-09
2.71038e-05
-3.04972e-09
2.71059e-05
-2.92996e-09
2.71079e-05
-2.81241e-09
2.71098e-05
-2.6971e-09
2.71116e-05
-2.5841e-09
2.71134e-05
-2.47345e-09
2.7115e-05
-2.36517e-09
2.71166e-05
-2.25915e-09
2.71181e-05
-2.15515e-09
2.71196e-05
-2.05298e-09
2.71209e-05
-1.95257e-09
2.71222e-05
-1.85401e-09
2.71235e-05
-1.75744e-09
2.71246e-05
-1.66304e-09
2.71257e-05
-1.57076e-09
2.71267e-05
-1.48032e-09
2.71277e-05
-1.39143e-09
2.71286e-05
-1.304e-09
2.71294e-05
-1.21828e-09
2.71302e-05
-1.13465e-09
2.71309e-05
-1.05315e-09
2.71315e-05
-9.73499e-10
2.71321e-05
-8.95171e-10
2.71326e-05
-8.18135e-10
2.71331e-05
-7.42983e-10
2.71336e-05
-6.70012e-10
2.71339e-05
-5.99402e-10
2.71343e-05
-5.3014e-10
2.71345e-05
-4.61945e-10
2.71348e-05
-3.95026e-10
2.71349e-05
-3.29199e-10
2.71351e-05
-2.65703e-10
2.71352e-05
-2.03075e-10
2.71352e-05
-1.43668e-10
2.71352e-05
-8.57656e-11
2.71352e-05
-2.8629e-11
2.71351e-05
2.99312e-11
2.7135e-05
8.98718e-11
2.71348e-05
1.48951e-10
2.71346e-05
2.06185e-10
2.71343e-05
2.61815e-10
2.71341e-05
3.16784e-10
2.71337e-05
3.71211e-10
2.71333e-05
4.24543e-10
2.71329e-05
4.76506e-10
2.71325e-05
5.2716e-10
2.7132e-05
5.76615e-10
2.71315e-05
6.24933e-10
2.71309e-05
6.72152e-10
2.71304e-05
7.18303e-10
2.71297e-05
7.63408e-10
2.71291e-05
8.07481e-10
2.71284e-05
8.50535e-10
2.71277e-05
8.92578e-10
2.7127e-05
9.33618e-10
2.71262e-05
9.73663e-10
2.71254e-05
1.01271e-09
2.71246e-05
1.05078e-09
2.71237e-05
1.08786e-09
2.71228e-05
1.12396e-09
2.71219e-05
1.15909e-09
2.7121e-05
1.19323e-09
2.712e-05
1.22641e-09
2.71191e-05
1.2586e-09
2.71181e-05
1.28982e-09
2.7117e-05
1.32007e-09
2.7116e-05
1.34934e-09
2.71149e-05
1.37764e-09
2.71138e-05
1.40495e-09
2.71127e-05
1.43129e-09
2.71116e-05
1.45664e-09
2.71105e-05
1.48101e-09
2.71093e-05
1.50439e-09
2.71081e-05
1.52677e-09
2.71069e-05
1.54817e-09
2.71057e-05
1.56857e-09
2.71045e-05
1.58797e-09
2.71033e-05
1.60637e-09
2.7102e-05
1.62376e-09
2.71008e-05
1.64012e-09
2.70995e-05
1.65546e-09
2.70982e-05
1.66978e-09
2.7097e-05
1.68306e-09
2.70957e-05
1.69531e-09
2.70944e-05
1.70653e-09
2.70931e-05
1.71673e-09
2.70917e-05
1.72593e-09
2.70904e-05
1.73416e-09
2.70891e-05
1.74148e-09
2.70878e-05
1.74791e-09
2.70864e-05
1.7535e-09
2.70851e-05
1.75828e-09
2.70837e-05
1.76222e-09
2.70824e-05
1.76528e-09
2.70811e-05
1.76728e-09
2.70797e-05
1.76795e-09
2.70784e-05
1.7672e-09
2.7077e-05
1.76514e-09
2.70757e-05
1.76192e-09
2.70743e-05
1.7576e-09
2.7073e-05
1.7522e-09
2.70717e-05
1.74573e-09
2.70704e-05
1.73818e-09
2.70691e-05
1.72956e-09
2.70678e-05
1.71986e-09
2.70665e-05
1.70908e-09
2.70652e-05
1.69722e-09
2.70639e-05
1.68427e-09
2.70626e-05
1.67025e-09
2.70614e-05
1.65514e-09
2.70601e-05
1.63894e-09
2.70589e-05
1.62166e-09
2.70577e-05
1.60329e-09
2.70565e-05
1.58384e-09
2.70553e-05
1.56331e-09
2.70541e-05
1.54169e-09
2.7053e-05
1.519e-09
2.70518e-05
1.49523e-09
2.70507e-05
1.47039e-09
2.70496e-05
1.44448e-09
2.70486e-05
1.4175e-09
2.70475e-05
1.38947e-09
2.70465e-05
1.3604e-09
2.70455e-05
1.33028e-09
2.70445e-05
1.29914e-09
2.70435e-05
1.26697e-09
2.70426e-05
1.23379e-09
2.70417e-05
1.19963e-09
2.70408e-05
1.16447e-09
2.70399e-05
1.12836e-09
2.70391e-05
1.09129e-09
2.70383e-05
1.05329e-09
2.70375e-05
1.01437e-09
2.70368e-05
9.74558e-10
2.70361e-05
9.33866e-10
2.70354e-05
8.92315e-10
2.70348e-05
8.49926e-10
2.70342e-05
8.06717e-10
2.70336e-05
7.62714e-10
2.7033e-05
7.17936e-10
2.70325e-05
6.72412e-10
2.70321e-05
6.26177e-10
2.70316e-05
5.79274e-10
2.70312e-05
5.31759e-10
2.70309e-05
4.83708e-10
2.70305e-05
4.35226e-10
2.70302e-05
3.86445e-10
2.703e-05
3.37533e-10
2.70298e-05
2.88684e-10
2.70296e-05
2.40086e-10
2.70294e-05
1.91904e-10
2.70293e-05
1.44203e-10
2.70293e-05
9.69217e-11
2.70292e-05
4.96376e-11
2.70292e-05
1.51398e-12
2.70293e-05
-4.62956e-11
2.70293e-05
-9.72578e-11
2.70295e-05
-1.49355e-10
2.70296e-05
-2.00518e-10
2.70298e-05
-2.5067e-10
2.703e-05
-3.00196e-10
2.70303e-05
-3.49374e-10
2.70306e-05
-3.98394e-10
2.7031e-05
-4.47493e-10
2.70313e-05
-4.97018e-10
2.70318e-05
-5.47478e-10
2.70322e-05
-5.99639e-10
2.70327e-05
-6.54661e-10
2.70333e-05
-7.14327e-10
2.70339e-05
-7.81423e-10
2.70345e-05
-8.60728e-10
2.70353e-05
-9.62739e-10
2.70361e-05
-1.11562e-09
2.70371e-05
-1.38112e-09
2.70383e-05
-1.81946e-09
-2.38517e-09
-1.04143e-07
1.05472e-07
-4.12344e-07
4.89672e-07
-9.1629e-07
8.87856e-07
-1.58391e-06
1.22152e-06
-2.37373e-06
1.47124e-06
-3.24865e-06
1.64202e-06
-4.1796e-06
1.74943e-06
-5.14666e-06
1.81338e-06
-6.13293e-06
1.84636e-06
-7.11914e-06
1.85366e-06
-8.09292e-06
1.84056e-06
-9.0501e-06
1.81612e-06
-9.98908e-06
1.78613e-06
-1.09089e-05
1.75343e-06
-1.18092e-05
1.71967e-06
-1.26896e-05
1.68571e-06
-1.355e-05
1.65126e-06
-1.43903e-05
1.61664e-06
-1.52111e-05
1.58337e-06
-1.60136e-05
1.55245e-06
-1.6799e-05
1.52413e-06
-1.75686e-05
1.49849e-06
-1.83218e-05
1.47162e-06
-1.90561e-05
1.43941e-06
-1.97693e-05
1.40193e-06
-2.04613e-05
1.36386e-06
-2.1133e-05
1.32714e-06
-2.17848e-05
1.29178e-06
-2.24171e-05
1.2573e-06
-2.30299e-05
1.22242e-06
-2.3622e-05
1.18578e-06
-2.41952e-05
1.15333e-06
-2.47532e-05
1.12691e-06
-2.52914e-05
1.09304e-06
-2.58088e-05
1.05637e-06
-2.63051e-05
1.01896e-06
-2.67801e-05
9.80899e-07
-2.7233e-05
9.41899e-07
-2.76634e-05
9.01755e-07
-2.80705e-05
8.60284e-07
-2.84535e-05
8.17213e-07
-2.88116e-05
7.72395e-07
-2.91438e-05
7.25805e-07
-2.94492e-05
6.77394e-07
-2.97269e-05
6.26919e-07
-2.9976e-05
5.74382e-07
-3.01955e-05
5.20023e-07
-3.03845e-05
4.63657e-07
-3.0542e-05
4.0537e-07
-3.06669e-05
3.45183e-07
-3.07588e-05
2.8361e-07
-3.08175e-05
2.20538e-07
-3.08428e-05
1.55666e-07
-3.08335e-05
8.90474e-08
-3.07885e-05
2.09638e-08
-3.07067e-05
-4.80436e-08
-3.05848e-05
-1.19518e-07
-3.04243e-05
-1.95136e-07
-3.02219e-05
-2.7356e-07
-2.99778e-05
-3.54785e-07
-2.96911e-05
-4.38619e-07
-2.93608e-05
-5.2465e-07
-2.89853e-05
-6.1013e-07
-2.85775e-05
-6.7441e-07
-2.81175e-05
-7.79418e-07
-2.76155e-05
-8.64419e-07
-2.70692e-05
-9.51414e-07
-2.64788e-05
-1.03875e-06
-2.58446e-05
-1.12583e-06
-2.51669e-05
-1.21275e-06
-2.44464e-05
-1.2993e-06
-2.3684e-05
-1.38522e-06
-2.28807e-05
-1.47041e-06
-2.20377e-05
-1.55517e-06
-2.11567e-05
-1.64008e-06
-2.02388e-05
-1.72523e-06
-1.9266e-05
-1.80565e-06
-1.82268e-05
-1.87227e-06
-1.72088e-05
-1.93213e-06
-1.61557e-05
-1.99456e-06
-1.50726e-05
-2.05478e-06
-1.3961e-05
-2.11258e-06
-1.28221e-05
-2.16698e-06
-1.1659e-05
-2.21711e-06
-1.04752e-05
-2.26273e-06
-9.27577e-06
-2.30391e-06
-8.06327e-06
-2.34366e-06
-6.78531e-06
-2.42528e-06
-5.53182e-06
-2.40746e-06
-4.26325e-06
-2.43057e-06
-2.98473e-06
-2.4484e-06
-1.70006e-06
-2.46132e-06
-4.11707e-07
-2.4699e-06
8.77469e-07
-2.47483e-06
2.16416e-06
-2.48535e-06
3.45894e-06
-2.48642e-06
4.75309e-06
-2.48499e-06
6.04365e-06
-2.47774e-06
7.32818e-06
-2.46547e-06
8.60055e-06
-2.45361e-06
9.85966e-06
-2.43659e-06
1.11038e-05
-2.41266e-06
1.2331e-05
-2.38221e-06
1.35392e-05
-2.34609e-06
1.47264e-05
-2.30517e-06
1.58909e-05
-2.26023e-06
1.70311e-05
-2.21189e-06
1.81456e-05
-2.16072e-06
1.92333e-05
-2.10714e-06
2.0293e-05
-2.05156e-06
2.13241e-05
-1.99429e-06
2.23256e-05
-1.93565e-06
2.32971e-05
-1.87591e-06
2.42381e-05
-1.81533e-06
2.51482e-05
-1.75414e-06
2.60273e-05
-1.69257e-06
2.68751e-05
-1.63084e-06
2.76918e-05
-1.56916e-06
2.84773e-05
-1.50771e-06
2.92319e-05
-1.44669e-06
2.99557e-05
-1.38629e-06
3.06492e-05
-1.32668e-06
3.13127e-05
-1.268e-06
3.19468e-05
-1.2103e-06
3.25521e-05
-1.15368e-06
3.31291e-05
-1.09808e-06
3.36783e-05
-1.0437e-06
3.42005e-05
-9.90726e-07
3.4696e-05
-9.39063e-07
3.51657e-05
-8.88899e-07
3.56104e-05
-8.40329e-07
3.60308e-05
-7.93512e-07
3.64278e-05
-7.48256e-07
3.68022e-05
-7.04703e-07
3.71549e-05
-6.62947e-07
3.74867e-05
-6.22977e-07
3.77987e-05
-5.84806e-07
3.80916e-05
-5.48349e-07
3.83662e-05
-5.13524e-07
3.86234e-05
-4.80276e-07
3.8864e-05
-4.48571e-07
3.90886e-05
-4.18381e-07
3.92981e-05
-3.89679e-07
3.94932e-05
-3.62441e-07
3.96746e-05
-3.36638e-07
3.98431e-05
-3.12239e-07
3.99994e-05
-2.89211e-07
4.01441e-05
-2.67516e-07
4.0278e-05
-2.47117e-07
4.04016e-05
-2.2797e-07
4.05156e-05
-2.10035e-07
4.06206e-05
-1.93266e-07
4.07172e-05
-1.77619e-07
4.08059e-05
-1.63049e-07
4.08873e-05
-1.49509e-07
4.09618e-05
-1.36955e-07
4.10301e-05
-1.2534e-07
4.10925e-05
-1.1462e-07
4.11495e-05
-1.0475e-07
4.12016e-05
-9.56863e-08
4.12491e-05
-8.73868e-08
4.12924e-05
-7.98094e-08
4.13319e-05
-7.29137e-08
4.13678e-05
-6.66606e-08
4.14007e-05
-6.1012e-08
4.14307e-05
-5.59308e-08
4.14581e-05
-5.1382e-08
4.14832e-05
-4.73317e-08
4.15062e-05
-4.37465e-08
4.15275e-05
-4.05943e-08
4.15471e-05
-3.78471e-08
4.15654e-05
-3.54768e-08
4.15824e-05
-3.34533e-08
4.15985e-05
-3.17479e-08
4.16136e-05
-3.034e-08
4.16281e-05
-2.92156e-08
4.16419e-05
-2.83552e-08
4.16554e-05