/*--------------------------------*- C++ -*----------------------------------*\
| =========                 |                                                 |
| \\      /  F ield         | OpenFOAM: The Open Source CFD Toolbox           |
|  \\    /   O peration     | Version:  2312                                  |
|   \\  /    A nd           | Website:  www.openfoam.com                      |
|    \\/     M anipulation  |                                                 |
\*---------------------------------------------------------------------------*/
FoamFile
{
    version     2.0;
    format      ascii;
    arch        "LSB;label=32;scalar=64";
    class       volScalarField;
    location    "600";
    object      rhoHat;
}
// * * * * * * * * * * * * * * * * * * * * * * * * * * * * * * * * * * * * * //

dimensions      [1 -3 0 0 0 0 0];

internalField   uniform 999.951;

boundaryField
{
    inlet
    {
        type            calculated;
        value           uniform 999.951;
    }
    outlet
    {
        type            calculated;
        value           uniform 999.951;
    }
    walls
    {
        type            calculated;
        value           uniform 999.951;
    }
    symwall
    {
        type            empty;
    }
}


// ************************************************************************* //
