/*--------------------------------*- C++ -*----------------------------------*\
| =========                 |                                                 |
| \\      /  F ield         | OpenFOAM: The Open Source CFD Toolbox           |
|  \\    /   O peration     | Version:  2312                                  |
|   \\  /    A nd           | Website:  www.openfoam.com                      |
|    \\/     M anipulation  |                                                 |
\*---------------------------------------------------------------------------*/
FoamFile
{
    version     2.0;
    format      ascii;
    arch        "LSB;label=32;scalar=64";
    class       volVectorField;
    location    "600";
    object      U;
}
// * * * * * * * * * * * * * * * * * * * * * * * * * * * * * * * * * * * * * //

dimensions      [0 1 -1 0 0 0 0];

internalField   nonuniform List<vector> 
20400
(
(9.64118e-06 -9.82606e-06 0)
(9.90538e-06 3.64368e-06 0)
(-1.39003e-05 1.38608e-05 0)
(-6.35842e-05 1.74609e-05 0)
(-0.000131899 1.73369e-05 0)
(-0.000211444 1.55773e-05 0)
(-0.000297256 1.35306e-05 0)
(-0.000386205 1.20183e-05 0)
(-0.000476481 1.25095e-05 0)
(-0.000567661 1.40907e-05 0)
(-0.000659929 1.52564e-05 0)
(-0.000752688 1.58604e-05 0)
(-0.000844855 1.61219e-05 0)
(-0.000935842 1.62262e-05 0)
(-0.00102552 1.62786e-05 0)
(-0.00111386 1.6319e-05 0)
(-0.00120085 1.6334e-05 0)
(-0.00128648 1.63178e-05 0)
(-0.00137077 1.62977e-05 0)
(-0.00145382 1.63019e-05 0)
(-0.00153588 1.63669e-05 0)
(-0.00161717 1.65254e-05 0)
(-0.00169776 1.6681e-05 0)
(-0.00177735 1.66901e-05 0)
(-0.00185551 1.65295e-05 0)
(-0.00193197 1.63202e-05 0)
(-0.00200674 1.61414e-05 0)
(-0.00207994 1.60118e-05 0)
(-0.00215166 1.59095e-05 0)
(-0.00222185 1.57561e-05 0)
(-0.00229047 1.55233e-05 0)
(-0.00235772 1.54255e-05 0)
(-0.00242391 1.55108e-05 0)
(-0.002489 1.54311e-05 0)
(-0.0025527 1.52427e-05 0)
(-0.00261483 1.50398e-05 0)
(-0.00267534 1.48416e-05 0)
(-0.00273422 1.46395e-05 0)
(-0.00279143 1.44276e-05 0)
(-0.0028469 1.42017e-05 0)
(-0.00290057 1.39545e-05 0)
(-0.00295233 1.36818e-05 0)
(-0.00300208 1.33843e-05 0)
(-0.00304973 1.30607e-05 0)
(-0.00309514 1.27024e-05 0)
(-0.0031382 1.23074e-05 0)
(-0.00317876 1.1881e-05 0)
(-0.00321672 1.14216e-05 0)
(-0.00325196 1.09363e-05 0)
(-0.00328439 1.04334e-05 0)
(-0.00331389 9.90461e-06 0)
(-0.00334033 9.30573e-06 0)
(-0.00336356 8.6477e-06 0)
(-0.00338342 7.96434e-06 0)
(-0.00339983 7.2148e-06 0)
(-0.0034127 6.36232e-06 0)
(-0.00342183 5.37229e-06 0)
(-0.00342702 4.37621e-06 0)
(-0.00342856 3.78021e-06 0)
(-0.00342651 3.63128e-06 0)
(-0.00341991 3.23138e-06 0)
(-0.00340833 2.51523e-06 0)
(-0.00339218 1.89524e-06 0)
(-0.00337188 1.56159e-06 0)
(-0.00334697 -2.08679e-08 0)
(-0.00331663 -1.12241e-06 0)
(-0.00328117 -2.22846e-06 0)
(-0.00324092 -3.41422e-06 0)
(-0.00319586 -4.61949e-06 0)
(-0.00314586 -5.85192e-06 0)
(-0.00309082 -7.13644e-06 0)
(-0.00303068 -8.48633e-06 0)
(-0.00296531 -9.91898e-06 0)
(-0.00289446 -1.15064e-05 0)
(-0.00281776 -1.34257e-05 0)
(-0.00273552 -1.55044e-05 0)
(-0.00264988 -1.57781e-05 0)
(-0.00256287 -1.49234e-05 0)
(-0.00247144 -2.01132e-05 0)
(-0.0023723 -2.14989e-05 0)
(-0.00226816 -2.34469e-05 0)
(-0.00216104 -2.59632e-05 0)
(-0.00205109 -2.87544e-05 0)
(-0.00193795 -3.19836e-05 0)
(-0.00182126 -3.59299e-05 0)
(-0.00170037 -4.13309e-05 0)
(-0.00157666 -4.81063e-05 0)
(-0.00145412 -4.67037e-05 0)
(-0.00133158 -5.72063e-05 0)
(-0.00120414 -5.68872e-05 0)
(-0.00107452 -5.74597e-05 0)
(-0.00094456 -5.85269e-05 0)
(-0.000814025 -5.96218e-05 0)
(-0.000682231 -6.07743e-05 0)
(-0.000548822 -5.56236e-05 0)
(-0.000415847 -6.30304e-05 0)
(-0.000284747 -6.46164e-05 0)
(-0.000154684 -6.56815e-05 0)
(-2.54141e-05 -6.59657e-05 0)
(0.000103727 -5.94747e-05 0)
(0.000233448 -5.30777e-05 0)
(0.00036308 -4.75543e-05 0)
(0.000491711 -4.2771e-05 0)
(0.0006188 -3.86297e-05 0)
(0.000743881 -3.50482e-05 0)
(0.000866601 -3.19415e-05 0)
(0.000986698 -2.92332e-05 0)
(0.00110397 -2.68585e-05 0)
(0.00121825 -2.47628e-05 0)
(0.00132942 -2.29008e-05 0)
(0.00143737 -2.12349e-05 0)
(0.00154202 -1.97345e-05 0)
(0.0016433 -1.83746e-05 0)
(0.00174118 -1.71348e-05 0)
(0.0018356 -1.59986e-05 0)
(0.00192656 -1.49524e-05 0)
(0.00201405 -1.39851e-05 0)
(0.00209807 -1.30875e-05 0)
(0.00217864 -1.22523e-05 0)
(0.0022558 -1.14736e-05 0)
(0.00232957 -1.07463e-05 0)
(0.00240003 -1.0067e-05 0)
(0.00246722 -9.43995e-06 0)
(0.0025312 -8.91967e-06 0)
(0.00259202 -8.48894e-06 0)
(0.00264973 -8.1394e-06 0)
(0.00270441 -7.7947e-06 0)
(0.00275616 -7.42224e-06 0)
(0.00280509 -7.03862e-06 0)
(0.00285128 -6.63885e-06 0)
(0.00289483 -6.23888e-06 0)
(0.00293583 -5.85553e-06 0)
(0.00297439 -5.4831e-06 0)
(0.00301059 -5.12361e-06 0)
(0.00304454 -4.78073e-06 0)
(0.00307635 -4.45526e-06 0)
(0.00310611 -4.14777e-06 0)
(0.00313393 -3.85701e-06 0)
(0.00315991 -3.58133e-06 0)
(0.00318414 -3.31975e-06 0)
(0.00320671 -3.07188e-06 0)
(0.00322769 -2.83755e-06 0)
(0.00324718 -2.61661e-06 0)
(0.00326526 -2.4089e-06 0)
(0.003282 -2.21419e-06 0)
(0.00329748 -2.0322e-06 0)
(0.00331178 -1.86258e-06 0)
(0.00332497 -1.70494e-06 0)
(0.00333711 -1.55883e-06 0)
(0.00334829 -1.4238e-06 0)
(0.00335857 -1.29935e-06 0)
(0.003368 -1.18499e-06 0)
(0.00337665 -1.08022e-06 0)
(0.00338458 -9.84527e-07 0)
(0.00339183 -8.97415e-07 0)
(0.00339848 -8.18391e-07 0)
(0.00340455 -7.46976e-07 0)
(0.00341011 -6.82698e-07 0)
(0.00341519 -6.25103e-07 0)
(0.00341984 -5.73753e-07 0)
(0.00342409 -5.28227e-07 0)
(0.00342799 -4.8812e-07 0)
(0.00343157 -4.53047e-07 0)
(0.00343486 -4.22645e-07 0)
(0.00343789 -3.96561e-07 0)
(0.00344069 -3.74453e-07 0)
(0.00344329 -3.56013e-07 0)
(0.00344572 -3.40951e-07 0)
(0.00344799 -3.28951e-07 0)
(0.00345013 -3.1971e-07 0)
(0.00345215 -3.1303e-07 0)
(0.00345408 -3.08726e-07 0)
(0.00345594 -3.06516e-07 0)
(0.00345773 -3.06074e-07 0)
(0.00345947 -3.07286e-07 0)
(0.00346118 -3.10233e-07 0)
(0.00346286 -3.14735e-07 0)
(0.00346453 -3.20167e-07 0)
(0.00346621 -3.25967e-07 0)
(0.00346788 -3.3228e-07 0)
(0.00346957 -3.3963e-07 0)
(0.00347128 -3.48114e-07 0)
(0.00347302 -3.57635e-07 0)
(0.00347478 -3.68244e-07 0)
(0.00347659 -3.79729e-07 0)
(0.00347845 -3.91424e-07 0)
(0.00348035 -4.02722e-07 0)
(0.0034823 -4.13497e-07 0)
(0.0034843 -4.23915e-07 0)
(0.00348636 -4.3409e-07 0)
(0.00348846 -4.44015e-07 0)
(0.00349061 -4.53652e-07 0)
(0.00349281 -4.62989e-07 0)
(0.00349506 -4.72025e-07 0)
(0.00349736 -4.80754e-07 0)
(0.00349971 -4.89164e-07 0)
(0.00350211 -4.97244e-07 0)
(0.00350455 -5.04986e-07 0)
(0.00350704 -5.12374e-07 0)
(0.00350958 -5.1937e-07 0)
(0.00351216 -5.25932e-07 0)
(0.00351477 -5.32056e-07 0)
(0.00351743 -5.37751e-07 0)
(0.00352012 -5.43026e-07 0)
(0.00352285 -5.47862e-07 0)
(0.00352561 -5.52221e-07 0)
(0.0035284 -5.5608e-07 0)
(0.00353122 -5.59437e-07 0)
(0.00353407 -5.62302e-07 0)
(0.00353693 -5.64685e-07 0)
(0.00353982 -5.66605e-07 0)
(0.00354273 -5.68083e-07 0)
(0.00354565 -5.69135e-07 0)
(0.00354858 -5.69767e-07 0)
(0.00355153 -5.69989e-07 0)
(0.00355448 -5.69826e-07 0)
(0.00355745 -5.69328e-07 0)
(0.00356041 -5.68509e-07 0)
(0.00356338 -5.67307e-07 0)
(0.00356635 -5.65638e-07 0)
(0.00356932 -5.6348e-07 0)
(0.00357228 -5.60977e-07 0)
(0.00357524 -5.58273e-07 0)
(0.00357819 -5.55278e-07 0)
(0.00358113 -5.51977e-07 0)
(0.00358406 -5.48448e-07 0)
(0.00358698 -5.44644e-07 0)
(0.00358988 -5.40562e-07 0)
(0.00359277 -5.36271e-07 0)
(0.00359564 -5.3176e-07 0)
(0.00359849 -5.27006e-07 0)
(0.00360131 -5.22072e-07 0)
(0.00360412 -5.17016e-07 0)
(0.00360691 -5.11826e-07 0)
(0.00360967 -5.06463e-07 0)
(0.0036124 -5.00916e-07 0)
(0.00361511 -4.95216e-07 0)
(0.00361779 -4.89397e-07 0)
(0.00362045 -4.83463e-07 0)
(0.00362307 -4.77407e-07 0)
(0.00362567 -4.71226e-07 0)
(0.00362824 -4.64932e-07 0)
(0.00363077 -4.58554e-07 0)
(0.00363328 -4.52115e-07 0)
(0.00363575 -4.45625e-07 0)
(0.00363819 -4.39085e-07 0)
(0.00364059 -4.32499e-07 0)
(0.00364296 -4.25871e-07 0)
(0.0036453 -4.19209e-07 0)
(0.0036476 -4.12524e-07 0)
(0.00364987 -4.0583e-07 0)
(0.00365211 -3.99139e-07 0)
(0.00365431 -3.92456e-07 0)
(0.00365647 -3.85783e-07 0)
(0.0036586 -3.79124e-07 0)
(0.00366069 -3.72484e-07 0)
(0.00366275 -3.65867e-07 0)
(0.00366477 -3.59277e-07 0)
(0.00366676 -3.52717e-07 0)
(0.00366871 -3.46193e-07 0)
(0.00367063 -3.39711e-07 0)
(0.00367252 -3.33276e-07 0)
(0.00367436 -3.26894e-07 0)
(0.00367618 -3.20566e-07 0)
(0.00367796 -3.14295e-07 0)
(0.0036797 -3.08083e-07 0)
(0.00368141 -3.01932e-07 0)
(0.00368309 -2.95845e-07 0)
(0.00368473 -2.89824e-07 0)
(0.00368634 -2.83871e-07 0)
(0.00368792 -2.77987e-07 0)
(0.00368947 -2.72174e-07 0)
(0.00369098 -2.66435e-07 0)
(0.00369246 -2.6077e-07 0)
(0.00369391 -2.5518e-07 0)
(0.00369533 -2.49667e-07 0)
(0.00369672 -2.44231e-07 0)
(0.00369807 -2.38873e-07 0)
(0.0036994 -2.33594e-07 0)
(0.0037007 -2.28394e-07 0)
(0.00370197 -2.23274e-07 0)
(0.00370321 -2.18234e-07 0)
(0.00370442 -2.13273e-07 0)
(0.0037056 -2.08393e-07 0)
(0.00370675 -2.03593e-07 0)
(0.00370788 -1.98873e-07 0)
(0.00370898 -1.94232e-07 0)
(0.00371006 -1.8967e-07 0)
(0.0037111 -1.85188e-07 0)
(0.00371213 -1.80784e-07 0)
(0.00371312 -1.76457e-07 0)
(0.0037141 -1.72208e-07 0)
(0.00371505 -1.68035e-07 0)
(0.00371597 -1.63938e-07 0)
(0.00371687 -1.59916e-07 0)
(0.00371775 -1.55967e-07 0)
(0.0037186 -1.52091e-07 0)
(0.00371943 -1.48288e-07 0)
(0.00372024 -1.44557e-07 0)
(0.00372103 -1.40895e-07 0)
(0.0037218 -1.37303e-07 0)
(0.00372255 -1.3378e-07 0)
(0.00372327 -1.30324e-07 0)
(0.00372398 -1.26936e-07 0)
(0.00372466 -1.23614e-07 0)
(0.00372533 -1.20359e-07 0)
(0.00372598 -1.17172e-07 0)
(0.00372661 -1.1405e-07 0)
(0.00372722 -1.10991e-07 0)
(0.00372781 -1.07992e-07 0)
(0.00372839 -1.0505e-07 0)
(0.00372894 -1.02164e-07 0)
(0.00372949 -9.9333e-08 0)
(0.00373001 -9.65571e-08 0)
(0.00373052 -9.38358e-08 0)
(0.00373101 -9.11681e-08 0)
(0.00373149 -8.85528e-08 0)
(0.00373195 -8.59898e-08 0)
(0.00373239 -8.34788e-08 0)
(0.00373282 -8.10207e-08 0)
(0.00373324 -7.86185e-08 0)
(0.00373364 -7.62718e-08 0)
(0.00373403 -7.3976e-08 0)
(0.0037344 -7.17246e-08 0)
(0.00373477 -6.95136e-08 0)
(0.00373511 -6.73406e-08 0)
(0.00373545 -6.5207e-08 0)
(0.00373577 -6.31132e-08 0)
(0.00373608 -6.10617e-08 0)
(0.00373638 -5.90576e-08 0)
(0.00373667 -5.71031e-08 0)
(0.00373694 -5.51969e-08 0)
(0.0037372 -5.33287e-08 0)
(0.00373745 -5.14906e-08 0)
(0.0037377 -4.96777e-08 0)
(0.00373793 -4.78929e-08 0)
(0.00373814 -4.6144e-08 0)
(0.00373835 -4.44428e-08 0)
(0.00373855 -4.27892e-08 0)
(0.00373874 -4.11715e-08 0)
(0.00373892 -3.95748e-08 0)
(0.00373909 -3.79924e-08 0)
(0.00373925 -3.64364e-08 0)
(0.0037394 -3.49277e-08 0)
(0.00373954 -3.34692e-08 0)
(0.00373968 -3.20477e-08 0)
(0.0037398 -3.06358e-08 0)
(0.00373992 -2.92327e-08 0)
(0.00374003 -2.78744e-08 0)
(0.00374013 -2.65833e-08 0)
(0.00374022 -2.53501e-08 0)
(0.00374031 -2.41101e-08 0)
(0.00374038 -2.28617e-08 0)
(0.00374045 -2.16376e-08 0)
(0.00374052 -2.04689e-08 0)
(0.00374057 -1.93937e-08 0)
(0.00374062 -1.83552e-08 0)
(0.00374066 -1.7332e-08 0)
(0.0037407 -1.6189e-08 0)
(0.00374073 -1.50174e-08 0)
(0.00374075 -1.38933e-08 0)
(0.00374077 -1.29062e-08 0)
(0.00374078 -1.20179e-08 0)
(0.00374079 -1.12724e-08 0)
(0.00374078 -1.05352e-08 0)
(0.00374078 -9.60106e-09 0)
(0.00374077 -8.51938e-09 0)
(0.00374075 -7.45284e-09 0)
(0.00374072 -6.46843e-09 0)
(0.00374069 -5.54671e-09 0)
(0.00374066 -4.6609e-09 0)
(0.00374062 -3.79896e-09 0)
(0.00374057 -2.95807e-09 0)
(0.00374052 -2.13606e-09 0)
(0.00374046 -1.33253e-09 0)
(0.0037404 -5.46733e-10 0)
(0.00374034 2.21628e-10 0)
(0.00374027 9.72831e-10 0)
(0.00374019 1.70712e-09 0)
(0.00374011 2.42468e-09 0)
(0.00374003 3.1254e-09 0)
(0.00373994 3.8098e-09 0)
(0.00373985 4.47817e-09 0)
(0.00373976 5.13023e-09 0)
(0.00373966 5.76634e-09 0)
(0.00373955 6.38622e-09 0)
(0.00373945 6.99049e-09 0)
(0.00373934 7.57903e-09 0)
(0.00373922 8.15168e-09 0)
(0.00373911 8.70869e-09 0)
(0.00373899 9.25004e-09 0)
(0.00373886 9.77587e-09 0)
(0.00373874 1.02859e-08 0)
(0.00373861 1.07805e-08 0)
(0.00373848 1.12596e-08 0)
(0.00373834 1.17229e-08 0)
(0.0037382 1.21706e-08 0)
(0.00373806 1.26028e-08 0)
(0.00373792 1.30193e-08 0)
(0.00373778 1.34205e-08 0)
(0.00373763 1.38061e-08 0)
(0.00373748 1.41763e-08 0)
(0.00373733 1.45303e-08 0)
(0.00373718 1.48682e-08 0)
(0.00373702 1.519e-08 0)
(0.00373686 1.54952e-08 0)
(0.00373671 1.57839e-08 0)
(0.00373655 1.60558e-08 0)
(0.00373639 1.63109e-08 0)
(0.00373622 1.6549e-08 0)
(0.00373606 1.67708e-08 0)
(0.0037359 1.69776e-08 0)
(0.00373573 1.71708e-08 0)
(0.00373557 1.73524e-08 0)
(0.0037354 1.7523e-08 0)
(0.00373523 1.76853e-08 0)
(0.00373506 1.78403e-08 0)
(0.0037349 1.79896e-08 0)
(0.00373473 1.81345e-08 0)
(0.00373456 1.82694e-08 0)
(0.00373439 1.83789e-08 0)
(0.00373422 1.84541e-08 0)
(0.00373405 1.85016e-08 0)
(0.00373388 1.85322e-08 0)
(0.00373371 1.8549e-08 0)
(0.00373354 1.85513e-08 0)
(0.00373338 1.8539e-08 0)
(0.00373321 1.85118e-08 0)
(0.00373304 1.84698e-08 0)
(0.00373288 1.84135e-08 0)
(0.00373271 1.83421e-08 0)
(0.00373255 1.82561e-08 0)
(0.00373239 1.81555e-08 0)
(0.00373223 1.80404e-08 0)
(0.00373207 1.79108e-08 0)
(0.00373191 1.7767e-08 0)
(0.00373175 1.76087e-08 0)
(0.0037316 1.74364e-08 0)
(0.00373145 1.72498e-08 0)
(0.0037313 1.70489e-08 0)
(0.00373115 1.68343e-08 0)
(0.003731 1.66061e-08 0)
(0.00373086 1.63637e-08 0)
(0.00373072 1.6108e-08 0)
(0.00373058 1.58392e-08 0)
(0.00373044 1.55569e-08 0)
(0.00373031 1.52622e-08 0)
(0.00373018 1.49541e-08 0)
(0.00373005 1.46339e-08 0)
(0.00372993 1.43013e-08 0)
(0.00372981 1.39567e-08 0)
(0.00372969 1.36004e-08 0)
(0.00372957 1.32327e-08 0)
(0.00372946 1.2854e-08 0)
(0.00372936 1.24648e-08 0)
(0.00372925 1.20651e-08 0)
(0.00372915 1.16555e-08 0)
(0.00372905 1.12364e-08 0)
(0.00372896 1.08082e-08 0)
(0.00372887 1.0371e-08 0)
(0.00372879 9.92529e-09 0)
(0.00372871 9.47177e-09 0)
(0.00372863 9.01001e-09 0)
(0.00372856 8.54024e-09 0)
(0.00372849 8.06291e-09 0)
(0.00372843 7.57849e-09 0)
(0.00372837 7.08728e-09 0)
(0.00372832 6.59026e-09 0)
(0.00372827 6.08952e-09 0)
(0.00372822 5.5873e-09 0)
(0.00372818 5.08969e-09 0)
(0.00372815 4.60304e-09 0)
(0.00372812 4.13582e-09 0)
(0.00372809 3.69775e-09 0)
(0.00372807 3.29705e-09 0)
(0.00372805 2.92846e-09 0)
(0.00372804 2.544e-09 0)
(0.00372803 2.06269e-09 0)
(0.00372803 1.50751e-09 0)
(0.00372803 9.26079e-10 0)
(0.00372803 3.65543e-10 0)
(0.00372804 -1.27337e-10 0)
(0.00372806 -5.66653e-10 0)
(0.00372808 -9.77816e-10 0)
(0.00372811 -1.38183e-09 0)
(0.00372814 -1.7841e-09 0)
(0.00372817 -2.1842e-09 0)
(0.00372821 -2.58427e-09 0)
(0.00372825 -2.99029e-09 0)
(0.0037283 -3.41248e-09 0)
(0.00372835 -3.86585e-09 0)
(0.00372841 -4.37771e-09 0)
(0.00372847 -5.00715e-09 0)
(0.00372854 -5.89882e-09 0)
(0.00372862 -7.34086e-09 0)
(0.0037287 -9.65991e-09 0)
(0.00372879 -1.28717e-08 0)
(0.00372893 -1.94018e-08 0)
(0.00372924 -5.96886e-08 0)
(0.00372959 -1.56273e-07 0)
(-3.38163e-06 -1.0685e-05 0)
(-3.01376e-05 3.00304e-05 0)
(-0.000115942 7.62777e-05 0)
(-0.000257383 0.000116816 0)
(-0.000441885 0.000147199 0)
(-0.000656314 0.000166882 0)
(-0.000890198 0.000177643 0)
(-0.0011359 0.000182242 0)
(-0.00138824 0.000182848 0)
(-0.0016437 0.000184613 0)
(-0.0018989 0.000185849 0)
(-0.00215151 0.000185121 0)
(-0.00240076 0.000183112 0)
(-0.00264601 0.00018053 0)
(-0.00288701 0.000177792 0)
(-0.00312365 0.000175056 0)
(-0.00335588 0.000172288 0)
(-0.00358364 0.000169507 0)
(-0.00380702 0.000166871 0)
(-0.00402629 0.000164518 0)
(-0.00424189 0.000162541 0)
(-0.00445424 0.000160925 0)
(-0.00466332 0.000159144 0)
(-0.00486857 0.000156591 0)
(-0.00506923 0.000153247 0)
(-0.00526487 0.00014969 0)
(-0.00545555 0.000146288 0)
(-0.00564147 0.000143112 0)
(-0.00582276 0.000140067 0)
(-0.00599935 0.000136914 0)
(-0.00617123 0.000133612 0)
(-0.0063388 0.000130929 0)
(-0.00650252 0.000128941 0)
(-0.00666222 0.000126252 0)
(-0.00681736 0.000123089 0)
(-0.00696761 0.000119804 0)
(-0.00711287 0.000116481 0)
(-0.00725302 0.000113096 0)
(-0.00738793 0.000109617 0)
(-0.00751744 0.000106016 0)
(-0.00764132 0.000102256 0)
(-0.00775935 9.83164e-05 0)
(-0.00787128 9.41938e-05 0)
(-0.00797684 8.98754e-05 0)
(-0.00807574 8.53256e-05 0)
(-0.0081677 8.05403e-05 0)
(-0.0082524 7.55473e-05 0)
(-0.00832956 7.03402e-05 0)
(-0.00839891 6.49189e-05 0)
(-0.00846021 5.92957e-05 0)
(-0.0085132 5.34624e-05 0)
(-0.00855756 4.72617e-05 0)
(-0.00859294 4.07006e-05 0)
(-0.0086189 3.39887e-05 0)
(-0.00863517 2.72321e-05 0)
(-0.00864228 2.04155e-05 0)
(-0.00864042 1.30914e-05 0)
(-0.00862912 5.89112e-06 0)
(-0.00860662 -1.55682e-06 0)
(-0.00857248 -9.29342e-06 0)
(-0.00852668 -1.78344e-05 0)
(-0.00846899 -2.69566e-05 0)
(-0.00839954 -3.57001e-05 0)
(-0.00831904 -4.32831e-05 0)
(-0.00822704 -5.48178e-05 0)
(-0.00812158 -6.47947e-05 0)
(-0.00800327 -7.49236e-05 0)
(-0.00787264 -8.53278e-05 0)
(-0.00772973 -9.59189e-05 0)
(-0.00757445 -0.000106759 0)
(-0.00740672 -0.0001179 0)
(-0.00722656 -0.000129375 0)
(-0.00703395 -0.000141254 0)
(-0.0068288 -0.000153728 0)
(-0.00661088 -0.000167108 0)
(-0.00638018 -0.000180701 0)
(-0.00613848 -0.000188304 0)
(-0.00588931 -0.000191487 0)
(-0.00563212 -0.000214499 0)
(-0.00536204 -0.00022183 0)
(-0.00508219 -0.000228802 0)
(-0.00479414 -0.000235441 0)
(-0.0044983 -0.000241356 0)
(-0.00419507 -0.000246805 0)
(-0.00388514 -0.000252011 0)
(-0.00356896 -0.000257419 0)
(-0.00324498 -0.000261076 0)
(-0.00291152 -0.00022971 0)
(-0.00257462 -0.000261651 0)
(-0.00223745 -0.000264311 0)
(-0.00190036 -0.000266422 0)
(-0.00156131 -0.000268555 0)
(-0.00122034 -0.000270513 0)
(-0.000878369 -0.000273196 0)
(-0.000534747 -0.000278327 0)
(-0.000189691 -0.000263989 0)
(0.000156261 -0.000256632 0)
(0.000501798 -0.000250471 0)
(0.000846114 -0.000245394 0)
(0.00118955 -0.000248385 0)
(0.00153186 -0.000250965 0)
(0.00187183 -0.000251556 0)
(0.00220821 -0.000250352 0)
(0.00253997 -0.000247782 0)
(0.00286628 -0.000244184 0)
(0.00318648 -0.000239804 0)
(0.00350002 -0.000234824 0)
(0.00380646 -0.000229376 0)
(0.00410542 -0.000223563 0)
(0.00439659 -0.000217462 0)
(0.00467972 -0.000211133 0)
(0.0049546 -0.000204628 0)
(0.00522107 -0.000197988 0)
(0.00547898 -0.00019125 0)
(0.00572825 -0.000184447 0)
(0.0059688 -0.000177609 0)
(0.00620062 -0.000170764 0)
(0.00642368 -0.000163937 0)
(0.00663804 -0.000157153 0)
(0.00684372 -0.000150436 0)
(0.00704083 -0.000143809 0)
(0.00722946 -0.00013729 0)
(0.00740976 -0.000130879 0)
(0.00758187 -0.000124503 0)
(0.00774592 -0.000118182 0)
(0.00790205 -0.000112055 0)
(0.00805042 -0.000106131 0)
(0.00819121 -0.000100401 0)
(0.00832465 -9.49924e-05 0)
(0.00845092 -8.97313e-05 0)
(0.00857027 -8.46181e-05 0)
(0.00868293 -7.96896e-05 0)
(0.00878917 -7.49286e-05 0)
(0.0088892 -7.03487e-05 0)
(0.00898328 -6.59677e-05 0)
(0.00907167 -6.17922e-05 0)
(0.00915462 -5.78239e-05 0)
(0.00923238 -5.40532e-05 0)
(0.00930519 -5.04673e-05 0)
(0.00937328 -4.70572e-05 0)
(0.00943686 -4.38167e-05 0)
(0.00949616 -4.07419e-05 0)
(0.00955139 -3.78292e-05 0)
(0.00960276 -3.50755e-05 0)
(0.00965046 -3.24771e-05 0)
(0.0096947 -3.00303e-05 0)
(0.00973567 -2.77311e-05 0)
(0.00977357 -2.55748e-05 0)
(0.00980857 -2.35568e-05 0)
(0.00984087 -2.1672e-05 0)
(0.00987062 -1.99155e-05 0)
(0.009898 -1.8282e-05 0)
(0.00992316 -1.67662e-05 0)
(0.00994626 -1.53628e-05 0)
(0.00996745 -1.40665e-05 0)
(0.00998686 -1.28721e-05 0)
(0.0100046 -1.17744e-05 0)
(0.0100209 -1.07683e-05 0)
(0.0100358 -9.84875e-06 0)
(0.0100493 -9.01099e-06 0)
(0.0100618 -8.25027e-06 0)
(0.0100731 -7.56201e-06 0)
(0.0100835 -6.94179e-06 0)
(0.010093 -6.38539e-06 0)
(0.0101017 -5.88869e-06 0)
(0.0101097 -5.44772e-06 0)
(0.0101171 -5.05874e-06 0)
(0.0101239 -4.71815e-06 0)
(0.0101302 -4.42237e-06 0)
(0.010136 -4.16802e-06 0)
(0.0101415 -3.95218e-06 0)
(0.0101466 -3.77201e-06 0)
(0.0101515 -3.6244e-06 0)
(0.0101561 -3.50625e-06 0)
(0.0101605 -3.41552e-06 0)
(0.0101648 -3.35111e-06 0)
(0.0101689 -3.31125e-06 0)
(0.010173 -3.29271e-06 0)
(0.010177 -3.29194e-06 0)
(0.010181 -3.30628e-06 0)
(0.010185 -3.33411e-06 0)
(0.010189 -3.37498e-06 0)
(0.010193 -3.42961e-06 0)
(0.0101971 -3.49857e-06 0)
(0.0102012 -3.58026e-06 0)
(0.0102055 -3.67034e-06 0)
(0.0102098 -3.7644e-06 0)
(0.0102143 -3.86016e-06 0)
(0.0102188 -3.95713e-06 0)
(0.0102235 -4.05521e-06 0)
(0.0102283 -4.15403e-06 0)
(0.0102332 -4.2531e-06 0)
(0.0102383 -4.352e-06 0)
(0.0102435 -4.45032e-06 0)
(0.0102488 -4.54767e-06 0)
(0.0102542 -4.64365e-06 0)
(0.0102597 -4.7379e-06 0)
(0.0102654 -4.83008e-06 0)
(0.0102712 -4.91981e-06 0)
(0.0102771 -5.00666e-06 0)
(0.0102831 -5.0902e-06 0)
(0.0102893 -5.17014e-06 0)
(0.0102955 -5.24632e-06 0)
(0.0103019 -5.31862e-06 0)
(0.0103084 -5.38683e-06 0)
(0.0103149 -5.45061e-06 0)
(0.0103216 -5.50972e-06 0)
(0.0103283 -5.56403e-06 0)
(0.0103351 -5.61347e-06 0)
(0.010342 -5.65806e-06 0)
(0.0103489 -5.69786e-06 0)
(0.0103559 -5.73299e-06 0)
(0.010363 -5.76354e-06 0)
(0.0103701 -5.78955e-06 0)
(0.0103773 -5.81108e-06 0)
(0.0103845 -5.82826e-06 0)
(0.0103917 -5.8413e-06 0)
(0.010399 -5.85035e-06 0)
(0.0104062 -5.85532e-06 0)
(0.0104135 -5.85603e-06 0)
(0.0104208 -5.85251e-06 0)
(0.0104281 -5.84483e-06 0)
(0.0104354 -5.83296e-06 0)
(0.0104427 -5.81704e-06 0)
(0.01045 -5.79752e-06 0)
(0.0104573 -5.7747e-06 0)
(0.0104646 -5.74847e-06 0)
(0.0104718 -5.71896e-06 0)
(0.010479 -5.68656e-06 0)
(0.0104861 -5.65129e-06 0)
(0.0104933 -5.61319e-06 0)
(0.0105004 -5.57265e-06 0)
(0.0105074 -5.52998e-06 0)
(0.0105144 -5.48516e-06 0)
(0.0105213 -5.43805e-06 0)
(0.0105282 -5.38867e-06 0)
(0.0105351 -5.33722e-06 0)
(0.0105418 -5.2839e-06 0)
(0.0105485 -5.22877e-06 0)
(0.0105552 -5.17188e-06 0)
(0.0105618 -5.11327e-06 0)
(0.0105683 -5.0531e-06 0)
(0.0105747 -4.99157e-06 0)
(0.0105811 -4.92887e-06 0)
(0.0105873 -4.86512e-06 0)
(0.0105935 -4.80039e-06 0)
(0.0105997 -4.73474e-06 0)
(0.0106057 -4.66827e-06 0)
(0.0106117 -4.60106e-06 0)
(0.0106176 -4.53324e-06 0)
(0.0106234 -4.46494e-06 0)
(0.0106291 -4.39627e-06 0)
(0.0106347 -4.32729e-06 0)
(0.0106402 -4.25807e-06 0)
(0.0106457 -4.18867e-06 0)
(0.0106511 -4.11915e-06 0)
(0.0106564 -4.04957e-06 0)
(0.0106615 -3.97999e-06 0)
(0.0106667 -3.91046e-06 0)
(0.0106717 -3.84106e-06 0)
(0.0106766 -3.77184e-06 0)
(0.0106814 -3.70287e-06 0)
(0.0106862 -3.63421e-06 0)
(0.0106909 -3.5659e-06 0)
(0.0106955 -3.49797e-06 0)
(0.0106999 -3.43047e-06 0)
(0.0107044 -3.36343e-06 0)
(0.0107087 -3.29688e-06 0)
(0.0107129 -3.23086e-06 0)
(0.0107171 -3.1654e-06 0)
(0.0107211 -3.10052e-06 0)
(0.0107251 -3.03626e-06 0)
(0.010729 -2.97263e-06 0)
(0.0107329 -2.90967e-06 0)
(0.0107366 -2.8474e-06 0)
(0.0107403 -2.78582e-06 0)
(0.0107439 -2.72497e-06 0)
(0.0107474 -2.66485e-06 0)
(0.0107508 -2.60548e-06 0)
(0.0107541 -2.54687e-06 0)
(0.0107574 -2.48904e-06 0)
(0.0107606 -2.43198e-06 0)
(0.0107637 -2.37572e-06 0)
(0.0107668 -2.32025e-06 0)
(0.0107698 -2.26558e-06 0)
(0.0107727 -2.21172e-06 0)
(0.0107755 -2.15867e-06 0)
(0.0107783 -2.10642e-06 0)
(0.010781 -2.05499e-06 0)
(0.0107836 -2.00436e-06 0)
(0.0107862 -1.95454e-06 0)
(0.0107887 -1.90553e-06 0)
(0.0107911 -1.85732e-06 0)
(0.0107935 -1.80991e-06 0)
(0.0107958 -1.76329e-06 0)
(0.0107981 -1.71746e-06 0)
(0.0108003 -1.67241e-06 0)
(0.0108024 -1.62813e-06 0)
(0.0108045 -1.58463e-06 0)
(0.0108065 -1.54189e-06 0)
(0.0108085 -1.49991e-06 0)
(0.0108104 -1.45867e-06 0)
(0.0108122 -1.41819e-06 0)
(0.010814 -1.37844e-06 0)
(0.0108158 -1.33943e-06 0)
(0.0108175 -1.30115e-06 0)
(0.0108191 -1.26359e-06 0)
(0.0108207 -1.22675e-06 0)
(0.0108223 -1.1906e-06 0)
(0.0108238 -1.15511e-06 0)
(0.0108252 -1.12028e-06 0)
(0.0108266 -1.08609e-06 0)
(0.010828 -1.05253e-06 0)
(0.0108293 -1.0196e-06 0)
(0.0108306 -9.87287e-07 0)
(0.0108318 -9.55592e-07 0)
(0.010833 -9.24504e-07 0)
(0.0108342 -8.94018e-07 0)
(0.0108353 -8.64133e-07 0)
(0.0108363 -8.34852e-07 0)
(0.0108374 -8.06178e-07 0)
(0.0108384 -7.781e-07 0)
(0.0108393 -7.50582e-07 0)
(0.0108402 -7.23583e-07 0)
(0.0108411 -6.97077e-07 0)
(0.010842 -6.71051e-07 0)
(0.0108428 -6.45507e-07 0)
(0.0108435 -6.20454e-07 0)
(0.0108443 -5.95906e-07 0)
(0.010845 -5.7188e-07 0)
(0.0108457 -5.4838e-07 0)
(0.0108463 -5.25379e-07 0)
(0.010847 -5.0282e-07 0)
(0.0108475 -4.80654e-07 0)
(0.0108481 -4.58864e-07 0)
(0.0108486 -4.37469e-07 0)
(0.0108491 -4.16516e-07 0)
(0.0108496 -3.96045e-07 0)
(0.0108501 -3.76043e-07 0)
(0.0108505 -3.56436e-07 0)
(0.0108509 -3.37158e-07 0)
(0.0108513 -3.18184e-07 0)
(0.0108516 -2.99585e-07 0)
(0.0108519 -2.81462e-07 0)
(0.0108522 -2.63819e-07 0)
(0.0108525 -2.46559e-07 0)
(0.0108527 -2.29554e-07 0)
(0.010853 -2.12812e-07 0)
(0.0108532 -1.96514e-07 0)
(0.0108533 -1.80784e-07 0)
(0.0108535 -1.65528e-07 0)
(0.0108536 -1.5047e-07 0)
(0.0108538 -1.35629e-07 0)
(0.0108539 -1.21098e-07 0)
(0.0108539 -1.06973e-07 0)
(0.010854 -9.31824e-08 0)
(0.0108541 -7.97122e-08 0)
(0.0108541 -6.69412e-08 0)
(0.0108541 -5.4272e-08 0)
(0.0108541 -4.21651e-08 0)
(0.0108541 -2.95023e-08 0)
(0.010854 -1.65801e-08 0)
(0.010854 -3.94771e-09 0)
(0.0108539 8.0366e-09 0)
(0.0108538 1.97156e-08 0)
(0.0108537 3.15816e-08 0)
(0.0108536 4.35419e-08 0)
(0.0108534 5.5239e-08 0)
(0.0108533 6.65569e-08 0)
(0.0108531 7.75416e-08 0)
(0.0108529 8.8245e-08 0)
(0.0108527 9.86928e-08 0)
(0.0108525 1.08899e-07 0)
(0.0108523 1.18874e-07 0)
(0.010852 1.28622e-07 0)
(0.0108518 1.38149e-07 0)
(0.0108515 1.47456e-07 0)
(0.0108512 1.56546e-07 0)
(0.0108509 1.6542e-07 0)
(0.0108506 1.74081e-07 0)
(0.0108503 1.8253e-07 0)
(0.01085 1.90767e-07 0)
(0.0108497 1.98794e-07 0)
(0.0108493 2.06611e-07 0)
(0.010849 2.14219e-07 0)
(0.0108486 2.21619e-07 0)
(0.0108482 2.28811e-07 0)
(0.0108478 2.35796e-07 0)
(0.0108474 2.42572e-07 0)
(0.010847 2.49141e-07 0)
(0.0108466 2.55503e-07 0)
(0.0108462 2.61657e-07 0)
(0.0108458 2.67603e-07 0)
(0.0108453 2.73341e-07 0)
(0.0108449 2.78871e-07 0)
(0.0108444 2.84191e-07 0)
(0.010844 2.89301e-07 0)
(0.0108435 2.94201e-07 0)
(0.010843 2.98891e-07 0)
(0.0108425 3.03371e-07 0)
(0.0108421 3.0764e-07 0)
(0.0108416 3.11696e-07 0)
(0.0108411 3.15538e-07 0)
(0.0108406 3.19164e-07 0)
(0.0108401 3.22572e-07 0)
(0.0108396 3.25761e-07 0)
(0.010839 3.28731e-07 0)
(0.0108385 3.31483e-07 0)
(0.010838 3.34015e-07 0)
(0.0108375 3.3633e-07 0)
(0.010837 3.38434e-07 0)
(0.0108364 3.40335e-07 0)
(0.0108359 3.42044e-07 0)
(0.0108354 3.43571e-07 0)
(0.0108348 3.44928e-07 0)
(0.0108343 3.46121e-07 0)
(0.0108338 3.47153e-07 0)
(0.0108332 3.48015e-07 0)
(0.0108327 3.48675e-07 0)
(0.0108322 3.49066e-07 0)
(0.0108316 3.49146e-07 0)
(0.0108311 3.48927e-07 0)
(0.0108305 3.4845e-07 0)
(0.01083 3.47742e-07 0)
(0.0108295 3.46811e-07 0)
(0.0108289 3.45658e-07 0)
(0.0108284 3.44283e-07 0)
(0.0108279 3.42685e-07 0)
(0.0108274 3.40865e-07 0)
(0.0108268 3.38821e-07 0)
(0.0108263 3.36555e-07 0)
(0.0108258 3.34065e-07 0)
(0.0108253 3.31352e-07 0)
(0.0108248 3.28415e-07 0)
(0.0108243 3.25255e-07 0)
(0.0108238 3.21872e-07 0)
(0.0108233 3.18266e-07 0)
(0.0108228 3.14437e-07 0)
(0.0108224 3.10386e-07 0)
(0.0108219 3.06113e-07 0)
(0.0108214 3.0162e-07 0)
(0.010821 2.96906e-07 0)
(0.0108205 2.91973e-07 0)
(0.0108201 2.86823e-07 0)
(0.0108196 2.81456e-07 0)
(0.0108192 2.75874e-07 0)
(0.0108188 2.70079e-07 0)
(0.0108184 2.64073e-07 0)
(0.010818 2.57858e-07 0)
(0.0108176 2.51437e-07 0)
(0.0108172 2.44812e-07 0)
(0.0108168 2.37986e-07 0)
(0.0108165 2.30963e-07 0)
(0.0108161 2.23746e-07 0)
(0.0108158 2.16338e-07 0)
(0.0108155 2.08744e-07 0)
(0.0108152 2.00968e-07 0)
(0.0108149 1.93012e-07 0)
(0.0108146 1.84883e-07 0)
(0.0108143 1.76583e-07 0)
(0.010814 1.68117e-07 0)
(0.0108138 1.59489e-07 0)
(0.0108135 1.50705e-07 0)
(0.0108133 1.41767e-07 0)
(0.0108131 1.32682e-07 0)
(0.0108129 1.23458e-07 0)
(0.0108127 1.14103e-07 0)
(0.0108126 1.04631e-07 0)
(0.0108124 9.50612e-08 0)
(0.0108123 8.54191e-08 0)
(0.0108121 7.57416e-08 0)
(0.010812 6.60739e-08 0)
(0.0108119 5.64704e-08 0)
(0.0108119 4.6981e-08 0)
(0.0108118 3.76358e-08 0)
(0.0108118 2.84098e-08 0)
(0.0108117 1.9209e-08 0)
(0.0108117 9.92042e-09 0)
(0.0108117 3.81062e-10 0)
(0.0108117 -9.10896e-09 0)
(0.0108117 -1.94897e-08 0)
(0.0108118 -2.99863e-08 0)
(0.0108118 -4.00679e-08 0)
(0.0108119 -4.98144e-08 0)
(0.010812 -5.93994e-08 0)
(0.0108121 -6.89149e-08 0)
(0.0108122 -7.84076e-08 0)
(0.0108123 -8.7929e-08 0)
(0.0108125 -9.75584e-08 0)
(0.0108126 -1.07415e-07 0)
(0.0108128 -1.17684e-07 0)
(0.010813 -1.28655e-07 0)
(0.0108132 -1.40773e-07 0)
(0.0108134 -1.54722e-07 0)
(0.0108137 -1.71742e-07 0)
(0.0108139 -1.95204e-07 0)
(0.0108142 -2.35389e-07 0)
(0.0108146 -3.15566e-07 0)
(0.0108152 -4.61213e-07 0)
(0.0108158 -6.51748e-07 0)
(-1.53662e-05 1.38207e-05 0)
(-8.35121e-05 0.000117908 0)
(-0.000244934 0.000230829 0)
(-0.000484621 0.000327454 0)
(-0.000781302 0.000400798 0)
(-0.00111778 0.000451147 0)
(-0.00148134 0.000482382 0)
(-0.00186272 0.00049998 0)
(-0.0022552 0.000509365 0)
(-0.00265134 0.000512512 0)
(-0.00304403 0.000510411 0)
(-0.00343038 0.000504741 0)
(-0.00380973 0.000497196 0)
(-0.00418156 0.000488759 0)
(-0.00454564 0.00048 0)
(-0.00490182 0.00047119 0)
(-0.00525001 0.000462251 0)
(-0.00559009 0.000453285 0)
(-0.00592218 0.000444731 0)
(-0.00624667 0.000436893 0)
(-0.00656417 0.000429872 0)
(-0.00687526 0.00042362 0)
(-0.00717999 0.000416942 0)
(-0.00747761 0.000408592 0)
(-0.00776713 0.000398605 0)
(-0.00804815 0.000388296 0)
(-0.00832086 0.000378347 0)
(-0.00858559 0.00036883 0)
(-0.00884248 0.000359592 0)
(-0.00909137 0.000350276 0)
(-0.00933211 0.000340684 0)
(-0.00956528 0.000332349 0)
(-0.00979166 0.00032556 0)
(-0.0100109 0.000317098 0)
(-0.0102221 0.000307779 0)
(-0.0104249 0.000298219 0)
(-0.0106192 0.000288497 0)
(-0.0108049 0.000278533 0)
(-0.0109816 0.000268261 0)
(-0.0111492 0.000257615 0)
(-0.0113073 0.000246509 0)
(-0.0114556 0.000234896 0)
(-0.0115937 0.000222765 0)
(-0.0117213 0.000210092 0)
(-0.011838 0.000196786 0)
(-0.0119435 0.000182828 0)
(-0.0120373 0.000168299 0)
(-0.012119 0.000153197 0)
(-0.0121884 0.000137482 0)
(-0.0122451 0.000121142 0)
(-0.0122885 0.000104296 0)
(-0.0123184 8.68356e-05 0)
(-0.0123352 6.88059e-05 0)
(-0.012339 4.99661e-05 0)
(-0.0123278 3.0769e-05 0)
(-0.0123027 1.1023e-05 0)
(-0.0122623 -9.7403e-06 0)
(-0.0122059 -3.13965e-05 0)
(-0.0121333 -5.44534e-05 0)
(-0.0120441 -7.89208e-05 0)
(-0.0119379 -0.000104626 0)
(-0.0118145 -0.000131281 0)
(-0.0116738 -0.000157548 0)
(-0.0115164 -0.000179783 0)