/*--------------------------------*- C++ -*----------------------------------*\
| =========                 |                                                 |
| \\      /  F ield         | OpenFOAM: The Open Source CFD Toolbox           |
|  \\    /   O peration     | Version:  2312                                  |
|   \\  /    A nd           | Website:  www.openfoam.com                      |
|    \\/     M anipulation  |                                                 |
\*---------------------------------------------------------------------------*/
FoamFile
{
    version     2.0;
    format      ascii;
    arch        "LSB;label=32;scalar=64";
    class       volScalarField;
    location    "0.002";
    object      alphat;
}
// * * * * * * * * * * * * * * * * * * * * * * * * * * * * * * * * * * * * * //

dimensions      [1 -1 -1 0 0 0 0];

internalField   nonuniform List<scalar> 
48128
(
6.40082e-09
9.3256e-09
3.6197e-08
3.43357e-07
1.48959e-06
3.58175e-06
5.72022e-06
7.48767e-06
8.87466e-06
9.96802e-06
1.08964e-05
1.17347e-05
1.2505e-05
1.32923e-05
1.41087e-05
1.49695e-05
1.58986e-05
1.69161e-05
1.80462e-05
1.93256e-05
2.0868e-05
2.26483e-05
2.47061e-05
2.70764e-05
2.99039e-05
3.31765e-05
3.69771e-05
4.13063e-05
4.63331e-05
5.20988e-05
5.8681e-05
6.59957e-05
7.42118e-05
8.28022e-05
9.19134e-05
0.00010116
0.000110695
0.000119261
0.000127872
0.000135532
0.000143141
0.000150436
0.000159855
0.000169204
0.000178366
0.000186286
0.000193438
0.000200037
0.000206067
0.000211869
0.000216953
0.000221691
0.000225614
0.000218684
0.000208541
0.000199172
0.000190662
0.000182587
0.000175606
0.000168697
0.000162505
0.000156458
0.000151087
0.00014574
0.000140943
0.000136569
0.000132103
0.000128318
0.000124446
0.000120996
0.000117755
0.000114613
0.000111761
0.00010874
0.000105692
0.000105259
0.000103426
0.000100662
9.80304e-05
9.78385e-05
9.64222e-05
9.42942e-05
9.22938e-05
9.21512e-05
9.11363e-05
8.97061e-05
8.84866e-05
8.73386e-05
8.62097e-05
8.59779e-05
8.52875e-05
8.43796e-05
8.33736e-05
8.24615e-05
8.2353e-05
8.1833e-05
8.10257e-05
8.02882e-05
7.9993e-05
7.94988e-05
7.88279e-05
7.82116e-05
7.81166e-05
7.77502e-05
7.72352e-05
7.67677e-05
7.64636e-05
7.60933e-05
7.57107e-05
7.53209e-05
7.48962e-05
7.44936e-05
7.40739e-05
7.36708e-05
7.34853e-05
7.32608e-05
7.30122e-05
7.27765e-05
7.25292e-05
7.22156e-05
7.1838e-05
7.14498e-05
7.11367e-05
7.08918e-05
7.0694e-05
7.05331e-05
7.0621e-05
7.06027e-05
7.06475e-05
7.06983e-05
7.0733e-05
7.07346e-05
7.06726e-05
7.05719e-05
7.04254e-05
7.02296e-05
6.99793e-05
6.972e-05
6.94919e-05
6.93099e-05
6.91528e-05
6.9046e-05
6.89273e-05
6.88455e-05
6.87399e-05
6.86306e-05
6.85174e-05
6.83914e-05
6.82782e-05
6.81594e-05
6.80081e-05
6.78842e-05
6.77545e-05
6.76275e-05
6.75112e-05
6.73996e-05
6.72948e-05
6.72075e-05
6.71171e-05
6.70378e-05
6.69602e-05
6.68975e-05
6.68314e-05
6.67701e-05
6.6708e-05
6.66455e-05
6.65799e-05
6.65124e-05
6.64372e-05
6.63661e-05
6.62721e-05
6.61935e-05
6.61074e-05
6.60236e-05
6.59415e-05
6.58614e-05
6.57814e-05
6.57046e-05
6.56344e-05
6.55655e-05
6.55052e-05
6.54473e-05
6.53965e-05
6.53461e-05
6.53003e-05
6.52561e-05
6.52142e-05
6.51745e-05
6.51382e-05
6.51023e-05
6.5068e-05
6.50335e-05
6.49883e-05
6.49172e-05
6.48502e-05
6.47802e-05
6.47097e-05
6.46381e-05
6.45671e-05
6.45071e-05
6.44524e-05
6.44102e-05
6.43751e-05
6.43465e-05
6.43222e-05
6.43012e-05
6.42825e-05
6.42667e-05
6.425e-05
6.42213e-05
6.41867e-05
6.41618e-05
6.40807e-05
6.40377e-05
6.39947e-05
6.39466e-05
6.39049e-05
6.3863e-05
6.38228e-05
6.37832e-05
6.37448e-05
6.37078e-05
6.36717e-05
6.36362e-05
6.36007e-05
6.35655e-05
6.35297e-05
6.3494e-05
6.34577e-05
6.34214e-05
6.33847e-05
6.33483e-05
6.33122e-05
6.32772e-05
6.32429e-05
6.32105e-05
6.31792e-05
6.31516e-05
6.31217e-05
6.30394e-05
4.99641e-08
1.68673e-07
5.43365e-07
1.80867e-06
4.61934e-06
9.12733e-06
1.50851e-05
2.14478e-05
2.82216e-05
3.52293e-05
4.2353e-05
4.93675e-05
5.63345e-05
6.36193e-05
7.1373e-05
7.96966e-05
8.89999e-05
9.9442e-05
0.00011142
0.000125009
0.000141249
0.000159589
0.000182026
0.00020694
0.000235752
0.000268313
0.000305079
0.000346109
0.000384799
0.000428336
0.00047622
0.000526822
0.000580616
0.000636433
0.000696291
0.000755632
0.000819379
0.000876628
0.000931605
0.000982495
0.00103279
0.00107603
0.00111647
0.00115376
0.00118783
0.00121652
0.00124057
0.00126158
0.00128006
0.00129751
0.00131077
0.00132212
0.00132834
0.00133436
0.00133796
0.00133716
0.00133655
0.00133009
0.0013247
0.00131469
0.00130649
0.00129405
0.00128326
0.00126905
0.00125495
0.00124213
0.00122539
0.0012109
0.00119373
0.00117762
0.00116139
0.00114456
0.00112861
0.00111147
0.00109531
0.00108785
0.00107413
0.0010553
0.0010386
0.00103252
0.00102069
0.00100485
0.000990554
0.000984782
0.000975021
0.000962706
0.000951466
0.00094134
0.000932001
0.000926212
0.000918178
0.000908737
0.000898784
0.000890439
0.000885336
0.000878326
0.000869732
0.000861502
0.000855641
0.000848964
0.000841306
0.000834248
0.000829686
0.000823864
0.000817231
0.000810782
0.000805558
0.000799947
0.000794366
0.00078879
0.000782926
0.000776896
0.000771096
0.000765119
0.00076029
0.000755613
0.000750782
0.000746386
0.000742038
0.000737238
0.000732041
0.000726648
0.000721107
0.000716264
0.000711581
0.000707293
0.000705195
0.000703009
0.000701462
0.000699343
0.00069646
0.00069329
0.000690666
0.000688431
0.000685762
0.000683019
0.000679814
0.000676331
0.000672764
0.000668976
0.00066521
0.000661418
0.000657811
0.000654204
0.000650744
0.00064722
0.000643959
0.000640613
0.000637442
0.000634444
0.00063131
0.000628335
0.000625411
0.000622478
0.000619641
0.000616832
0.000614131
0.000611451
0.000608858
0.000606438
0.000604002
0.00060183
0.000599675
0.000597678
0.000595771
0.000593976
0.000592237
0.000590638
0.000589074
0.000587492
0.000586008
0.000584494
0.000583037
0.00058157
0.000580133
0.000578709
0.000577287
0.000575857
0.00057445
0.000573013
0.000571622
0.000570235
0.000568979
0.000567684
0.000566498
0.000565367
0.000564262
0.000563225
0.000562237
0.000561349
0.000560495
0.000559684
0.000559008
0.000558249
0.000557463
0.000556696
0.000555866
0.000554981
0.000554024
0.000553113
0.000551995
0.000551043
0.000550128
0.000549241
0.000548401
0.000547634
0.000546965
0.000546349
0.000545819
0.000545484
0.000545079
0.000544814
0.00054442
0.000543968
0.000543559
0.000543097
0.000542571
0.000542036
0.000541448
0.000540844
0.000540215
0.000539583
0.000538951
0.000538339
0.000537736
0.000537165
0.000536607
0.000536076
0.000535554
0.000535044
0.00053454
0.000534043
0.000533552
0.000533073
0.000532603
0.00053216
0.000531729
0.000531333
0.000531012
0.000530433
1.40976e-07
1.23391e-06
2.95102e-06
7.27669e-06
1.56703e-05
3.02693e-05
5.12097e-05
7.4986e-05
0.000100192
0.000124934
0.000148146
0.000169864
0.000190339
0.000210618
0.000230436
0.000250838
0.000272601
0.000296072
0.000322043
0.000351038
0.00038401
0.000420473
0.000461515
0.000505947
0.000555067
0.000608591
0.000665158
0.000725871
0.000788904
0.000857326
0.000931038
0.00100718
0.00108657
0.00116529
0.0012516
0.00133143
0.00141858
0.00149588
0.00157271
0.00163992
0.00170573
0.00176555
0.00181929
0.00186955
0.00191431
0.00195346
0.00198853
0.00201999
0.00204835
0.00207461
0.00209585
0.00211521
0.00212764
0.00213823
0.00214312
0.00214342
0.00214112
0.00213443
0.00212823
0.00211598
0.00210513
0.00208978
0.0020759
0.00205872
0.00204165
0.00202472
0.00200358
0.00198508
0.0019628
0.00194171
0.00192004
0.00189774
0.00187572
0.00185165
0.00182753
0.00182045
0.00180361
0.00177768
0.00175146
0.00174396
0.00172844
0.00170601
0.00168333
0.0016756
0.00166231
0.00164439
0.00162707
0.00161126
0.0015964
0.00158842
0.00157649
0.00156159
0.0015463
0.0015317
0.00152396
0.00151309
0.00149935
0.0014855
0.00147586
0.00146506
0.00145255
0.00144017
0.00143237
0.00142246
0.00141123
0.00139987
0.00139053
0.0013806
0.00137067
0.00136056
0.00134998
0.00133911
0.00132839
0.00131786
0.00130892
0.0013001
0.00129102
0.0012826
0.0012743
0.0012651
0.00125524
0.00124492
0.00123506
0.00122583
0.0012174
0.00120947
0.00120444
0.00119926
0.00119508
0.00119192
0.00118916
0.00118669
0.00118373
0.00118042
0.00117652
0.00117211
0.00116662
0.00116081
0.00115487
0.00114919
0.00114362
0.00113852
0.00113351
0.0011289
0.00112426
0.00111971
0.00111527
0.00111061
0.00110629
0.00110201
0.00109733
0.00109298
0.00108852
0.0010841
0.00107978
0.00107556
0.00107147
0.00106762
0.00106384
0.00106035
0.00105693
0.00105378
0.00105078
0.00104794
0.00104534
0.00104285
0.00104051
0.0010382
0.00103583
0.00103351
0.00103091
0.00102848
0.00102597
0.00102343
0.00102093
0.0010184
0.00101589
0.00101335
0.0010109
0.00100844
0.00100608
0.00100382
0.00100169
0.00099962
0.000997684
0.000995869
0.000994168
0.000992611
0.000991192
0.000989894
0.00098866
0.000987597
0.000986422
0.000985094
0.000983642
0.000982074
0.000980376
0.000978565
0.000976652
0.000974754
0.000972841
0.000971015
0.000969363
0.000967899
0.000966614
0.000965484
0.000964589
0.00096383
0.000963321
0.000962721
0.000962169
0.000961698
0.000960797
0.000959997
0.000959154
0.000958187
0.000957174
0.00095611
0.00095499
0.000953853
0.000952679
0.000951535
0.000950395
0.000949335
0.000948284
0.000947318
0.000946364
0.000945477
0.000944597
0.000943757
0.000942911
0.000942093
0.000941263
0.000940473
0.000939673
0.000938958
0.000938216
0.000937628
0.000937004
0.000936007
4.18605e-07
3.95354e-06
9.1235e-06
2.05643e-05
4.18358e-05
7.78419e-05
0.00012262
0.000170252
0.000215072
0.000254956
0.00029008
0.00032188
0.000350416
0.000377916
0.000404698
0.000431984
0.000460438
0.000490835
0.000523999
0.000560259
0.000600332
0.000644292
0.000692556
0.000744695
0.000800917
0.00086089
0.000923826
0.000990553
0.00106064
0.00113467
0.00121324
0.00129246
0.00137627
0.00145084
0.00153893
0.00161878
0.00170304
0.00177422
0.00183197
0.0018827
0.00194135
0.00200013
0.00205225
0.00211167
0.00215513
0.00220308
0.00223353
0.00227772
0.0023139
0.00233896
0.00237641
0.00240589
0.00243077
0.00244753
0.00245695
0.00246488
0.00246738
0.0024681
0.0024693
0.00246415
0.00245861
0.00244979
0.00244116
0.0024301
0.00242024
0.00240769
0.00239245
0.00237936
0.00236228
0.00234602
0.00232864
0.00231075
0.00229228
0.00227141
0.00224746
0.00224565
0.00223587
0.00221432
0.00218911
0.00218462
0.0021741
0.00215484
0.00213265
0.00212731
0.00211778
0.00210278
0.00208655
0.00207176
0.00205575
0.00205029
0.00204063
0.00202734
0.00201303
0.00199723
0.00199107
0.00198171
0.00196894
0.00195486
0.00194582
0.00193575
0.00192356
0.00191022
0.00190319
0.00189372
0.00188266
0.00187082
0.0018611
0.00185103
0.00184047
0.00182972
0.00181796
0.00180609
0.001794
0.00178235
0.00177268
0.00176309
0.00175318
0.00174391
0.00173467
0.00172409
0.00171256
0.00170033
0.00168889
0.0016779
0.00166833
0.00165914
0.00165364
0.00164793
0.00164357
0.00164028
0.00163747
0.00163479
0.0016314
0.00162744
0.00162266
0.00161723
0.0016103
0.00160286
0.00159523
0.00158809
0.00158107
0.00157465
0.00156843
0.00156272
0.00155697
0.00155126
0.00154573
0.00153985
0.00153438
0.0015289
0.00152279
0.00151714
0.00151129
0.00150553
0.00149978
0.00149423
0.0014888
0.00148373
0.00147871
0.00147411
0.00146957
0.00146541
0.00146144
0.00145767
0.00145417
0.00145076
0.00144758
0.00144436
0.0014411
0.00143785
0.00143421
0.00143075
0.00142717
0.00142355
0.00142
0.00141638
0.00141283
0.00140922
0.00140577
0.0014023
0.00139901
0.00139583
0.00139286
0.00138995
0.00138723
0.00138469
0.00138232
0.00138013
0.00137813
0.00137626
0.0013745
0.00137294
0.00137124
0.00136931
0.00136716
0.00136489
0.00136245
0.00135987
0.00135716
0.00135449
0.00135183
0.00134929
0.00134703
0.001345
0.00134323
0.00134166
0.00134037
0.00133929
0.00133853
0.00133763
0.00133677
0.00133603
0.00133468
0.00133347
0.00133224
0.00133086
0.00132945
0.00132799
0.00132648
0.00132496
0.00132339
0.00132187
0.00132034
0.00131894
0.00131752
0.00131624
0.00131495
0.00131377
0.00131259
0.00131148
0.00131036
0.00130929
0.00130818
0.00130713
0.00130605
0.0013051
0.00130411
0.00130333
0.00130251
0.00130119
9.68281e-07
8.96943e-06
2.08388e-05
4.4406e-05
8.6554e-05
0.00014723
0.00021241
0.000274357
0.000329071
0.000376498
0.000418686
0.000454936
0.000487896
0.000519385
0.000549688
0.000580169
0.000611349
0.000644335
0.000679657
0.000717824
0.000759416
0.00080459
0.0008535
0.000905624
0.000961125
0.0010202
0.00108153
0.00114574
0.00121185
0.00127833
0.00134909
0.00140797
0.00144411
0.00147558
0.00150901
0.00154606
0.00158825
0.00161907
0.00166562
0.00169831
0.00174838
0.00178939
0.00182238
0.0018654
0.00189376
0.0019309
0.0019541
0.00199162
0.00202379
0.00204972
0.00208296
0.0021111
0.00214007
0.0021703
0.00220173
0.00223897
0.00227373
0.00230356
0.00234954
0.00238037
0.00240309
0.00242516
0.00245056
0.00247181
0.00248798
0.00248508
0.00248048
0.00247754
0.00247047
0.00246391
0.00245544
0.00244614
0.0024362
0.00242248
0.00240494
0.00240787
0.0024073
0.00239537
0.00237727
0.00237632
0.00237308
0.00236192
0.00234564
0.00234347
0.00234013
0.00233237
0.00232165
0.00231073
0.00229802
0.00229602
0.00229158
0.00228415
0.00227394
0.00226134
0.002258
0.00225302
0.00224505
0.00223432
0.00222813
0.0022217
0.00221306
0.00220225
0.00219766
0.0021917
0.00218411
0.00217493
0.0021674
0.00215994
0.00215159
0.00214305
0.00213308
0.00212313
0.00211296
0.00210269
0.00209487
0.00208729
0.00207936
0.00207184
0.00206412
0.00205489
0.00204449
0.00203333
0.00202291
0.00201285
0.00200446
0.0019963
0.00199214
0.00198822
0.00198578
0.00198414
0.00198304
0.00198208
0.00198009
0.00197731
0.00197361
0.00196904
0.00196275
0.00195562
0.00194824
0.00194143
0.00193471
0.00192864
0.00192282
0.00191755
0.00191227
0.00190693
0.00190184
0.00189628
0.00189113
0.0018859
0.00187988
0.00187432
0.00186854
0.00186284
0.00185715
0.00185161
0.00184621
0.00184117
0.00183621
0.00183168
0.00182725
0.00182325
0.00181945
0.00181585
0.0018125
0.00180924
0.00180619
0.00180306
0.00179984
0.00179657
0.00179286
0.00178928
0.00178554
0.00178173
0.00177793
0.00177405
0.00177023
0.00176632
0.00176261
0.00175885
0.00175534
0.00175192
0.00174878
0.00174569
0.00174286
0.00174021
0.0017378
0.00173554
0.00173355
0.00173169
0.00172994
0.0017284
0.00172669
0.00172469
0.00172236
0.00171989
0.00171721
0.00171434
0.00171132
0.00170836
0.00170538
0.0017026
0.00170018
0.00169801
0.00169615
0.00169454
0.00169326
0.00169223
0.00169158
0.00169071
0.00168992
0.00168926
0.00168778
0.00168646
0.00168514
0.00168366
0.00168214
0.00168057
0.00167895
0.00167734
0.00167567
0.00167408
0.00167246
0.00167099
0.00166951
0.00166819
0.00166684
0.00166565
0.00166444
0.00166336
0.00166222
0.00166118
0.00166006
0.00165903
0.00165793
0.00165699
0.00165597
0.00165522
0.00165444
0.00165309
1.82997e-06
1.65995e-05
3.90139e-05
7.88928e-05
0.00014526
0.000220955
0.000297475
0.000366669
0.000426658
0.000479181
0.000524215
0.000562902
0.000598393
0.000631678
0.000663195
0.000694399
0.000725569
0.000758004
0.000792162
0.000828528
0.00086769
0.000909864
0.000954724
0.00100253
0.00105278
0.00110481
0.00115746
0.0012116
0.00123398
0.00125236
0.00126998
0.00128381
0.00129276
0.00130389
0.00131867
0.00132932
0.00136692
0.00137441
0.0014112
0.00141948
0.00145169
0.00146301
0.00147638
0.00149104
0.00150247
0.00152304
0.00154316
0.00156445
0.00159303
0.00161257
0.00163724
0.00166236
0.00168246
0.00171973
0.00174352
0.00178901
0.00182544
0.00185273
0.00190618
0.00193348
0.0019739
0.00199641
0.00204137
0.00206642
0.00211631
0.00214414
0.00217366
0.00221499
0.00223849
0.00227583
0.00229917
0.00232901
0.00235349
0.00235221
0.00234702
0.00235691
0.00236758
0.00236871
0.00236254
0.00236702
0.00237252
0.00237203
0.00236567
0.00236829
0.00237241
0.00237357
0.00237127
0.00236677
0.00236048
0.00236263
0.0023645
0.00236453
0.00236077
0.0023542
0.00235435
0.0023546
0.00235305
0.00234788
0.00234585
0.00234421
0.00234083
0.00233491
0.00233352
0.00233211
0.00232964
0.00232499
0.00232115
0.00231767
0.00231312
0.00230832
0.00230191
0.00229562
0.00228912
0.00228201
0.0022775
0.00227347
0.00226911
0.00226479
0.00226001
0.00225378
0.00224637
0.00223825
0.00223056
0.00222333
0.00221756
0.00221202
0.00221044
0.00220968
0.00221026
0.0022112
0.00221279
0.0022146
0.00221516
0.00221479
0.00221338
0.00221104
0.00220693
0.00220169
0.00219621
0.00219118
0.00218626
0.00218194
0.00217785
0.0021743
0.00217082
0.00216711
0.00216366
0.00215977
0.00215611
0.00215238
0.00214785
0.00214358
0.00213915
0.00213473
0.00213035
0.00212609
0.00212191
0.0021181
0.00211436
0.00211099
0.00210778
0.00210498
0.0021024
0.0021
0.00209781
0.0020957
0.00209371
0.00209168
0.00208948
0.00208719
0.00208441
0.00208171
0.00207876
0.00207573
0.00207264
0.00206943
0.00206625
0.00206293
0.00205985
0.00205664
0.00205375
0.00205092
0.00204841
0.00204595
0.00204376
0.00204175
0.00203999
0.00203839
0.00203707
0.00203588
0.00203481
0.00203391
0.00203284
0.00203146
0.00202955
0.00202751
0.00202526
0.00202276
0.00202007
0.00201743
0.0020148
0.00201237
0.00201038
0.00200862
0.00200722
0.00200607
0.00200534
0.00200481
0.00200475
0.0020044
0.00200415
0.00200402
0.0020029
0.00200193
0.00200098
0.00199984
0.00199864
0.00199741
0.0019961
0.00199482
0.00199347
0.00199221
0.0019909
0.00198978
0.00198861
0.00198765
0.00198664
0.00198582
0.00198495
0.00198426
0.00198349
0.00198286
0.0019821
0.00198145
0.00198068
0.0019801
0.00197939
0.00197898
0.00197856
0.00197766
2.9507e-06
2.66789e-05
6.2989e-05
0.000121941
0.000203358
0.000288701
0.000370907
0.000443469
0.000506332
0.000561998
0.000607671
0.000648132
0.000684811
0.000718526
0.000749776
0.000779834
0.000809125
0.000838795
0.000869414
0.000901393
0.000935391
0.000971292
0.00100934
0.00104893
0.00108974
0.00110365
0.001103
0.00111288
0.00111395
0.00111632
0.00111252
0.00110785
0.00110273
0.00109495
0.0011165
0.00110525
0.00113682
0.00111573
0.00112836
0.00110925
0.00110728
0.00109434
0.00109466
0.00109262
0.00110308
0.00110957
0.00112853
0.0011363
0.00116292
0.00117393
0.00119666
0.00122271
0.00123552
0.0012789
0.00129319
0.00134065
0.00136871
0.00139894
0.00144401
0.00146584
0.00151293
0.00153754
0.00158117
0.00160779
0.00165095
0.0016777
0.00171803
0.00175685
0.0017893
0.00182992
0.00186249
0.00189907
0.00193536
0.00197184
0.00200898
0.00200487
0.00203236
0.00208176
0.00212407
0.00212135
0.00214232
0.00218548
0.00222139
0.00221598
0.00223045
0.00225653
0.00226464
0.00226964
0.00227272
0.0022801
0.00228944
0.00229782
0.00230191
0.0023036
0.00230836
0.00231481
0.00232024
0.00232238
0.00232554
0.00232963
0.00233238
0.00233319
0.00233593
0.00233991
0.00234327
0.00234432
0.00234534
0.00234657
0.00234675
0.00234658
0.00234486
0.00234337
0.00234148
0.00233894
0.00233847
0.00233883
0.00233891
0.00233856
0.00233758
0.00233549
0.00233233
0.00232852
0.00232473
0.00232155
0.0023192
0.00231746
0.00231906
0.00232184
0.00232583
0.0023298
0.00233445
0.00233936
0.00234303
0.00234584
0.00234731
0.00234803
0.00234706
0.00234475
0.0023423
0.00234005
0.00233794
0.00233628
0.00233478
0.00233379
0.00233295
0.00233173
0.00233074
0.00232942
0.00232807
0.0023267
0.00232463
0.00232258
0.00232041
0.0023182
0.00231604
0.00231396
0.00231191
0.00231017
0.0023085
0.00230715
0.00230598
0.00230515
0.00230454
0.00230409
0.00230379
0.00230359
0.00230339
0.00230321
0.00230272
0.00230224
0.00230122
0.00230016
0.00229884
0.00229738
0.00229582
0.0022941
0.00229237
0.00229045
0.00228876
0.0022869
0.00228537
0.0022839
0.00228272
0.00228161
0.00228075
0.00228008
0.00227961
0.00227935
0.00227931
0.00227941
0.00227964
0.00227995
0.00228011
0.00227996
0.0022791
0.00227815
0.00227694
0.00227546
0.00227374
0.00227208
0.00227042
0.00226895
0.00226799
0.00226721
0.00226684
0.00226668
0.00226702
0.00226751
0.00226849
0.00226918
0.00226993
0.00227081
0.00227056
0.00227044
0.00227033
0.00227003
0.00226964
0.00226924
0.00226871
0.00226824
0.00226767
0.0022672
0.00226665
0.0022663
0.00226589
0.00226572
0.00226545
0.00226542
0.00226531
0.00226542
0.00226543
0.00226562
0.00226563
0.00226578
0.00226574
0.00226591
0.00226589
0.00226619
0.00226647
0.00226655
4.22318e-06
3.85942e-05
9.05092e-05
0.000165664
0.000255795
0.000346598
0.000431137
0.00050523
0.000570025
0.000626395
0.000672861
0.000714359
0.000751395
0.000784588
0.00081447
0.000842146
0.000868068
0.000893231
0.000918455
0.00094397
0.000970282
0.000997614
0.00102594
0.00101401
0.00100583
0.000993839
0.000983187
0.00098445
0.000971477
0.000961725
0.000942932
0.000925364
0.000931765
0.000912603
0.000940072
0.000899447
0.000900035
0.0008591
0.000852394
0.000826794
0.000817708
0.000798308
0.000801613
0.000790999
0.000802584
0.000797729
0.000816958
0.000814854
0.000842246
0.00084614
0.00087091
0.000897841
0.000904095
0.000944949
0.000957295
0.000994044
0.00100802
0.00105254
0.00108689
0.00110755
0.00115043
0.00117581
0.00121131
0.001235
0.00126804
0.00128905
0.00132658
0.00135254
0.00138137
0.0014152
0.00144369
0.00147648
0.00150789
0.00154248
0.00157578
0.0015918
0.00161309
0.00164786
0.00169205
0.00171366
0.00173882
0.00177169
0.00181363
0.00183316
0.00185303
0.00187986
0.00191506
0.00194952
0.0019754
0.00198408
0.00200072
0.00202486
0.00205917
0.00208778
0.00209353
0.00210849
0.00213256
0.00216152
0.00217554
0.0021918
0.0022071
0.00221593
0.00222467
0.0022347
0.00224453
0.00225222
0.00225929
0.00226595
0.00227176
0.00227698
0.00228084
0.00228494
0.00228852
0.00229162
0.00229592
0.00230128
0.00230644
0.00231096
0.00231442
0.00231731
0.00231929
0.00232069
0.00232172
0.00232349
0.00232523
0.00232786
0.00233305
0.00233933
0.00234675
0.00235405
0.00236187
0.00236997
0.00237689
0.0023832
0.002388
0.00239217
0.00239492
0.00239618
0.00239737
0.0023985
0.00239983
0.00240134
0.00240295
0.00240499
0.00240722
0.00240903
0.00241101
0.00241273
0.00241427
0.0024158
0.00241681
0.00241755
0.00241826
0.0024189
0.00241953
0.00242025
0.00242091
0.00242182
0.00242275
0.00242394
0.0024253
0.00242695
0.00242879
0.00243077
0.00243285
0.00243504
0.0024371
0.00243924
0.00244098
0.00244283
0.00244413
0.00244528
0.00244614
0.00244683
0.0024474
0.00244776
0.00244809
0.00244816
0.00244845
0.00244854
0.00244894
0.00244941
0.00245013
0.00245093
0.00245195
0.00245315
0.00245452
0.00245609
0.00245785
0.00245971
0.00246172
0.00246371
0.00246558
0.00246713
0.00246788
0.00246853
0.00246889
0.002469
0.00246881
0.00246867
0.00246853
0.00246857
0.00246916
0.00246986
0.002471
0.00247232
0.00247417
0.00247612
0.00247856
0.00248073
0.0024829
0.00248521
0.0024863
0.00248749
0.00248868
0.00248967
0.00249055
0.00249143
0.00249215
0.00249294
0.00249359
0.00249435
0.00249499
0.00249585
0.00249661
0.00249762
0.00249852
0.00249968
0.00250073
0.00250204
0.00250322
0.00250462
0.00250581
0.00250715
0.00250825
0.00250956
0.00251062
0.00251199
0.00251332
0.00251492
5.53955e-06
5.1545e-05
0.000118488
0.000204445
0.000300148
0.000393769
0.000478909
0.000553406
0.000619158
0.000675553
0.000722868
0.000764963
0.000801863
0.000833888
0.000861532
0.000885744
0.000906921
0.000926139
0.000944135
0.00096082
0.000977684
0.000955277
0.000932612
0.000905558
0.000892211
0.000876701
0.000859094
0.000853788
0.000826111
0.000807959
0.000798926
0.000783077
0.000803301
0.000760445
0.000761061
0.000710838
0.000698048
0.000655843
0.000641798
0.00061302
0.000602223
0.000580823
0.000592127
0.000580143
0.000600433
0.000595052
0.000622223
0.000621801
0.000654074
0.000656899
0.000687067
0.000707858
0.000718662
0.000726337
0.000733684
0.000743209
0.000755849
0.000769152
0.000787213
0.000802059
0.00081931
0.000835255
0.000854244
0.000872718
0.000895022
0.000917054
0.000941282
0.000968123
0.000995071
0.00102521
0.0010554
0.00108714
0.00111978
0.00115331
0.00118532
0.00121686
0.00125115
0.00128929
0.0013263
0.0013513
0.00137111
0.00139585
0.0014291
0.00145206
0.00146977
0.00149189
0.00152326
0.00155697
0.00158755
0.00160564
0.00162351
0.00164677
0.00168044
0.00171284
0.00173247
0.00175123
0.00177724
0.00180771
0.00183218
0.00185428
0.00188057
0.00190781
0.0019247
0.00194241
0.0019633
0.00198902
0.00200905
0.00202421
0.00204058
0.0020594
0.00208225
0.00210359
0.00212683
0.00214881
0.00216194
0.00217318
0.00218446
0.0021946
0.00220359
0.0022123
0.00222039
0.0022279
0.00223459
0.00224172
0.00224804
0.00225567
0.00226476
0.00227476
0.00228563
0.00229658
0.00230772
0.00231916
0.00232938
0.0023394
0.00234769
0.00235561
0.0023623
0.00236763
0.00237284
0.00237779
0.00238287
0.00238799
0.00239307
0.00239847
0.00240404
0.00240925
0.0024145
0.00241958
0.00242437
0.00242917
0.00243358
0.00243757
0.00244155
0.00244546
0.00244926
0.00245313
0.00245685
0.00246074
0.00246459
0.00246863
0.00247279
0.0024772
0.00248177
0.00248646
0.0024912
0.00249607
0.00250069
0.00250546
0.00250975
0.00251425
0.00251816
0.00252187
0.00252527
0.00252847
0.00253157
0.0025344
0.00253718
0.00253966
0.00254231
0.00254476
0.00254747
0.00255026
0.00255327
0.00255636
0.00255965
0.00256309
0.00256668
0.00257044
0.00257434
0.00257831
0.00258247
0.00258644
0.00259042
0.00259396
0.00259672
0.00259938
0.00260172
0.00260383
0.00260563
0.00260743
0.00260924
0.00261122
0.00261374
0.00261632
0.00261936
0.00262252
0.00262622
0.00262999
0.0026342
0.0026382
0.00264213
0.00264619
0.00264901
0.0026519
0.00265476
0.00265743
0.00265997
0.00266251
0.00266489
0.00266732
0.00266959
0.00267196
0.00267417
0.00267658
0.00267888
0.00268143
0.00268386
0.00268655
0.00268912
0.00269196
0.00269468
0.00269763
0.00270038
0.00270326
0.00270588
0.00270868
0.0027112
0.00271396
0.00271664
0.00272026
6.81814e-06
6.38874e-05
0.000144161
0.000237142
0.000336151
0.000430409
0.000515082
0.000589338
0.000655896
0.000712869
0.000761083
0.000803408
0.000839687
0.000869873
0.000894289
0.000913724
0.000928584
0.000939988
0.000948554
0.00092327
0.000891867
0.000850224
0.000822551
0.000797767
0.000781711
0.00076202
0.000739906
0.000731222
0.000706565
0.000692813
0.000709141
0.000676934
0.000679536
0.000630116
0.000606064
0.000557705
0.000530946
0.000491539
0.000469935
0.000446766
0.000442826
0.000428359
0.000444722
0.00045125
0.000483134
0.000502661
0.000508855
0.000511634
0.000513083
0.000514418
0.000515718
0.000516672
0.000517832
0.000520647
0.000522724
0.000525746
0.000528871
0.000533988
0.000541474
0.000549597
0.000557541
0.00056521
0.000575301
0.000584261
0.000595962
0.000607316
0.000620289
0.000634997
0.000650659
0.000668457
0.000687084
0.000707254
0.000728586
0.000750854
0.000774066
0.000797891
0.000823288
0.000851502
0.000881625
0.000911192
0.000942101
0.000974855
0.00100788
0.00104125
0.00107381
0.00110864
0.00114375
0.00117989
0.00121415
0.00124699
0.00128036
0.00131582
0.00134761
0.00137598
0.00139902
0.00141623
0.00143608
0.00146129
0.00148786
0.00150928
0.00153182
0.00155961
0.00158049
0.00160079
0.00162129
0.00164778
0.0016733
0.00169099
0.00171265
0.00173609
0.00176343
0.0017889
0.00181565
0.00184449
0.00186309
0.00188037
0.00189767
0.00191204
0.00193151
0.00195064
0.0019754
0.00200129
0.00202596
0.00205001
0.0020737
0.00209039
0.0021027
0.00211213
0.00211763
0.00212916
0.00213783
0.00214684
0.00215661
0.0021727
0.00218468
0.00220355
0.00222112
0.00224783
0.00226658
0.00228365
0.00229567
0.00230497
0.00231396
0.00232311
0.00233226
0.00234121
0.00235004
0.00235876
0.00236708
0.00237549
0.00238362
0.00239121
0.00239868
0.00240604
0.00241321
0.00242045
0.00242747
0.00243462
0.00244166
0.00244881
0.00245594
0.0024633
0.00247079
0.00247838
0.00248596
0.00249368
0.00250108
0.00250866
0.00251576
0.00252303
0.00252973
0.0025362
0.00254235
0.00254827
0.00255413
0.00255968
0.00256515
0.0025703
0.00257557
0.00258061
0.0025859
0.00259123
0.00259679
0.00260238
0.00260819
0.00261411
0.00262018
0.00262633
0.00263262
0.00263893
0.00264544
0.00265164
0.00265793
0.00266372
0.00266875
0.00267369
0.0026783
0.0026827
0.00268679
0.00269087
0.00269493
0.00269915
0.00270388
0.00270863
0.0027138
0.00271907
0.00272486
0.00273066
0.00273689
0.00274296
0.00274888
0.00275493
0.00275979
0.00276467
0.00276948
0.00277411
0.00277862
0.00278313
0.00278746
0.00279184
0.00279605
0.00280032
0.00280441
0.00280866
0.00281279
0.00281716
0.0028214
0.00282591
0.00283029
0.00283495
0.00283949
0.00284429
0.00284889
0.00285362
0.00285808
0.00286265
0.00286695
0.00287138
0.00287569
0.00288175
7.97291e-06
7.48683e-05
0.000165883
0.000263527
0.000363599
0.000457182
0.00054224
0.000617151
0.000684078
0.000741234
0.000789798
0.00083181
0.000866823
0.00089429
0.000914229
0.000927214
0.000933658
0.000921812
0.000875314
0.000822006
0.000783139
0.000747846
0.000719882
0.000696302
0.000683651
0.000666132
0.000646486
0.000638398
0.000640961
0.000622236
0.000635375
0.000593064
0.000566807
0.000521607
0.000474367
0.000427165
0.000380947
0.000344988
0.000320001
0.00029878
0.000299195
0.00029727
0.000305223
0.000324964
0.000356872
0.000374926
0.000383648
0.000391649
0.000396482
0.00040153
0.000405668
0.000407822
0.000409232
0.000409766
0.0004093
0.000408966
0.00040821
0.00040978
0.000412554
0.000416902
0.000421855
0.000426856
0.000431832
0.000436855
0.000441735
0.000447351
0.000453067
0.000460488
0.000466997
0.000474958
0.000482708
0.000491559
0.000500745
0.000510749
0.000521561
0.000532565
0.000544542
0.000558276
0.000573861
0.000590292
0.000607828
0.000626845
0.000647333
0.000668332
0.000690524
0.000714332
0.000739916
0.000766374
0.000793837
0.000821244
0.000850081
0.000880254
0.000912483
0.000944995
0.000977719
0.00100969
0.00104312
0.00107761
0.00111192
0.00114566
0.00117905
0.00121359
0.00124606
0.00127928
0.00131212
0.00134606
0.00137507
0.0013923
0.00141424
0.00143535
0.00145936
0.0014828
0.00150649
0.00153238
0.00155251
0.00156915
0.00158703
0.00160332
0.00162557
0.00164807
0.00167376
0.00170161
0.0017306
0.0017576
0.00178747
0.00180772
0.0018245
0.00183815
0.00184762
0.0018616
0.00187155
0.00188277
0.00189419
0.00191033
0.00192422
0.00194502
0.00196837
0.00199749
0.00201902
0.00204205
0.00206324
0.00208152
0.00209918
0.00211463
0.00213072
0.00214738
0.002163
0.00217975
0.00219369
0.00220939
0.00222586
0.00224129
0.00225703
0.00227298
0.00228795
0.00230348
0.00231801
0.00233262
0.00234643
0.00236033
0.00237348
0.00238621
0.00239881
0.00241137
0.00242336
0.00243413
0.00244451
0.00245504
0.00246502
0.00247515
0.0024847
0.00249413
0.00250316
0.00251198
0.00252074
0.00252918
0.00253754
0.00254554
0.00255361
0.00256141
0.00256944
0.00257747
0.00258574
0.00259399
0.00260251