/*--------------------------------*- C++ -*----------------------------------*\
| =========                 |                                                 |
| \\      /  F ield         | OpenFOAM: The Open Source CFD Toolbox           |
|  \\    /   O peration     | Version:  2312                                  |
|   \\  /    A nd           | Website:  www.openfoam.com                      |
|    \\/     M anipulation  |                                                 |
\*---------------------------------------------------------------------------*/
FoamFile
{
    version     2.0;
    format      ascii;
    arch        "LSB;label=32;scalar=64";
    class       volScalarField;
    location    "0.002";
    object      cSound;
}
// * * * * * * * * * * * * * * * * * * * * * * * * * * * * * * * * * * * * * //

dimensions      [0 1 -1 0 0 0 0];

internalField   nonuniform List<scalar> 
48128
(
301.21
301.243
301.341
301.432
301.434
301.431
301.43
301.293
300.935
300.33
299.624
298.953
298.288
297.724
297.316
296.96
296.668
296.45
296.314
296.263
296.363
296.617
297.024
297.562
298.252
299.093
300.067
301.147
302.303
303.593
305.003
306.533
308.15
309.815
311.469
313.107
314.673
316.199
317.71
318.771
319.914
321.785
322.399
322.903
323.338
323.693
323.966
324.168
324.332
324.441
324.535
324.574
324.597
324.572
324.507
324.454
324.352
324.314
324.266
324.218
324.129
324.079
324.011
323.994
323.981
323.936
323.934
323.936
323.946
323.956
323.966
323.972
323.933
323.864
323.977
324.521
324.579
324.512
324.585
325.139
325.228
325.218
325.318
325.852
326.003
326.11
326.19
326.304
326.478
326.896
327.079
327.2
327.29
327.435
327.838
328.006
328.136
328.26
328.562
328.73
328.863
329.01
329.357
329.556
329.723
329.884
330.105
330.288
330.45
330.603
330.738
330.885
331.024
331.22
331.456
331.663
331.86
332.049
332.224
332.362
332.483
332.604
332.754
332.927
333.11
333.313
333.653
333.92
334.229
334.526
334.804
335.05
335.249
335.412
335.568
335.706
335.799
335.902
336.021
336.15
336.289
336.44
336.591
336.757
336.917
337.079
337.238
337.392
337.551
337.699
337.833
337.974
338.107
338.238
338.37
338.502
338.635
338.773
338.907
339.05
339.188
339.333
339.48
339.626
339.77
339.912
340.051
340.184
340.315
340.437
340.555
340.673
340.785
340.894
340.999
341.1
341.201
341.3
341.4
341.5
341.602
341.705
341.812
341.919
342.028
342.138
342.251
342.364
342.481
342.595
342.711
342.823
342.92
343.016
343.105
343.182
343.253
343.32
343.384
343.452
343.52
343.595
343.674
343.76
343.852
343.949
344.048
344.153
344.254
344.347
344.439
344.517
344.589
344.665
344.734
344.794
344.856
344.913
344.97
345.027
345.083
345.14
345.197
345.255
345.312
345.37
345.428
345.485
345.542
345.598
345.653
345.709
345.763
345.819
345.873
345.929
345.984
346.042
346.091
346.13
301.133
301.156
301.181
301.156
301.074
300.952
300.666
300.101
299.201
298.071
296.97
295.944
294.979
294.198
293.645
293.21
292.893
292.702
292.646
292.749
292.98
293.372
293.919
294.643
295.547
296.624
297.866
299.263
300.833
302.518
304.258
306.055
307.872
309.716
311.451
313.226
314.712
315.936
317.909
318.709
319.524
320.337
320.877
321.271
321.566
321.779
321.906
321.949
321.903
321.775
321.632
321.428
321.208
320.965
320.707
320.459
320.185
319.969
319.761
319.542
319.293
319.067
318.842
318.644
318.461
318.259
318.081
317.923
317.759
317.604
317.449
317.293
317.101
316.873
316.68
317.109
317.019
316.802
316.599
317.052
317.008
316.859
316.711
317.126
317.151
317.116
317.084
317.073
317.037
317.316
317.364
317.363
317.343
317.309
317.582
317.631
317.631
317.623
317.79
317.831
317.842
317.842
318.064
318.13
318.177
318.221
318.328
318.391
318.445
318.484
318.513
318.54
318.559
318.584
318.701
318.783
318.863
318.943
319.011
319.05
319.061
319.068
319.118
319.183
319.27
319.378
319.612
319.775
319.996
320.209
320.414
320.599
320.764
320.903
321.013
321.097
321.145
321.184
321.228
321.292
321.358
321.453
321.541
321.653
321.751
321.852
321.95
322.046
322.146
322.234
322.312
322.396
322.475
322.554
322.635
322.717
322.801
322.892
322.982
323.079
323.176
323.281
323.386
323.494
323.599
323.703
323.805
323.902
323.995
324.085
324.164
324.247
324.323
324.397
324.468
324.536
324.604
324.672
324.741
324.813
324.887
324.964
325.044
325.126
325.212
325.3
325.39
325.483
325.579
325.674
325.771
325.862
325.944
326.015
326.083
326.141
326.194
326.243
326.29
326.341
326.399
326.463
326.532
326.609
326.694
326.784
326.877
326.977
327.072
327.16
327.245
327.322
327.377
327.442
327.502
327.554
327.608
327.659
327.711
327.763
327.816
327.87
327.925
327.981
328.038
328.094
328.151
328.207
328.263
328.319
328.374
328.429
328.484
328.54
328.597
328.654
328.712
328.773
328.828
328.86
301.042
301.01
300.962
300.871
300.753
300.516
300.055
299.313
298.332
297.242
296.137
295.153
294.277
293.587
293.132
292.788
292.571
292.485
292.525
292.695
293.01
293.489
294.136
294.961
295.967
297.138
298.441
299.856
301.377
302.99
304.65
306.363
308.056
309.925
311.334
313.147
314.454
315.503
316.639
317.43
318.047
318.543
318.868
319.09
319.207
319.254
319.217
319.106
318.92
318.662
318.409
318.117
317.821
317.517
317.224
316.942
316.655
316.427
316.217
315.983
315.723
315.485
315.25
315.044
314.858
314.647
314.461
314.301
314.13
313.967
313.802
313.634
313.428
313.175
312.967
313.352
313.228
312.992
312.771
313.139
313.064
312.892
312.724
313.056
313.049
312.979
312.913
312.85
312.785
313.023
313.025
312.983
312.917
312.852
313.079
313.083
313.04
313.003
313.118
313.119
313.085
313.051
313.22
313.242
313.244
313.248
313.307
313.327
313.338
313.336
313.325
313.314
313.293
313.282
313.352
313.387
313.42
313.453
313.474
313.471
313.437
313.405
313.401
313.417
313.446
313.497
313.686
313.805
313.981
314.147
314.306
314.45
314.575
314.679
314.76
314.817
314.842
314.856
314.876
314.906
314.94
314.992
315.043
315.113
315.176
315.241
315.308
315.372
315.441
315.507
315.557
315.617
315.673
315.728
315.785
315.843
315.902
315.969
316.034
316.107
316.179
316.261
316.342
316.425
316.506
316.586
316.664
316.739
316.81
316.878
316.939
317.002
317.059
317.114
317.166
317.217
317.266
317.316
317.368
317.422
317.48
317.539
317.604
317.67
317.74
317.812
317.887
317.965
318.046
318.126
318.209
318.287
318.357
318.415
318.472
318.52
318.563
318.602
318.64
318.682
318.73
318.785
318.845
318.913
318.988
319.069
319.154
319.245
319.333
319.414
319.492
319.564
319.614
319.673
319.728
319.775
319.825
319.872
319.92
319.968
320.018
320.068
320.12
320.172
320.225
320.279
320.332
320.386
320.439
320.493
320.546
320.599
320.652
320.707
320.761
320.818
320.875
320.935
320.991
321.021
300.841
300.827
300.736
300.637
300.467
300.118
299.552
298.808
297.887
296.861
295.834
294.908
294.111
293.496
293.106
292.824
292.681
292.659
292.756
292.985
293.358
293.892
294.586
295.439
296.437
297.563
298.812
300.159
301.595
303.115
304.668
306.314
307.616
309.658
310.731
311.97
313.02
313.91
314.708
315.292
315.688
315.95
316.057
316.08
316.012
315.884
315.678
315.42
315.093
314.72
314.376
314.014
313.668
313.331
313.038
312.764
312.505
312.314
312.169
311.989
311.773
311.591
311.407
311.261
311.143
310.977
310.844
310.737
310.618
310.503
310.381
310.255
310.087
309.869
309.696
310.057
309.974
309.775
309.596
309.911
309.854
309.703
309.567
309.849
309.848
309.79
309.731
309.655
309.591
309.813
309.812
309.772
309.702
309.637
309.835
309.832
309.784
309.746
309.837
309.831
309.787
309.747
309.893
309.902
309.892
309.885
309.921
309.927
309.923
309.908
309.883
309.86
309.828
309.806
309.861
309.88
309.896
309.91
309.913
309.892
309.843
309.797
309.775
309.77
309.77
309.804
309.957
310.049
310.194
310.331
310.459
310.576
310.674
310.751
310.811
310.85
310.862
310.86
310.867
310.881
310.901
310.935
310.966
311.017
311.059
311.103
311.149
311.193
311.24
311.285
311.318
311.358
311.396
311.435
311.478
311.52
311.564
311.614
311.664
311.719
311.775
311.84
311.903
311.969
312.033
312.097
312.159
312.219
312.276
312.329
312.377
312.426
312.47
312.512
312.552
312.589
312.626
312.663
312.703
312.745
312.79
312.838
312.891
312.945
313.004
313.065
313.129
313.195
313.266
313.336
313.408
313.476
313.537
313.587
313.635
313.675
313.711
313.743
313.773
313.808
313.849
313.896
313.949
314.009
314.077
314.15
314.228
314.311
314.393
314.469
314.541
314.608
314.655
314.709
314.761
314.805
314.851
314.894
314.939
314.984
315.03
315.077
315.125
315.174
315.224
315.275
315.325
315.376
315.427
315.477
315.528
315.579
315.631
315.683
315.736
315.791
315.846
315.904
315.96
315.989
300.675
300.629
300.534
300.433
300.184
299.746
299.191
298.494
297.587
296.595
295.645
294.814
294.113
293.583
293.25
293.039
292.949
292.964
293.094
293.345
293.727
294.25
294.912
295.705
296.629
297.677
298.846
300.104
301.436
302.845
304.107
305.704
306.753
308.028
308.987
309.896
310.706
311.304
311.813
312.091
312.263
312.273
312.151
311.952
311.704
311.417
311.035
310.659
310.211
309.754
309.362
308.964
308.605
308.281
308.027
307.811
307.622
307.499
307.457
307.361
307.21
307.111
307.013
306.952
306.942
306.842
306.792
306.774
306.727
306.698
306.646
306.598
306.496
306.35
306.235
306.567
306.568
306.429
306.326
306.59
306.59
306.484
306.407
306.641
306.678
306.655
306.622
306.567
306.521
306.72
306.752
306.735
306.685
306.64
306.807
306.825
306.791
306.77
306.849
306.853
306.818
306.791
306.917
306.932
306.928
306.925
306.954
306.962
306.957
306.942
306.918
306.897
306.867
306.845
306.896
306.912
306.924
306.929
306.93
306.905
306.855
306.809
306.783
306.771
306.76
306.789
306.917
306.994
307.12
307.235
307.342
307.441
307.522
307.582
307.627
307.658
307.662
307.651
307.652
307.659
307.672
307.696
307.719
307.759
307.791
307.825
307.859
307.892
307.926
307.961
307.984
308.012
308.038
308.065
308.095
308.127
308.158
308.198
308.235
308.278
308.322
308.374
308.424
308.478
308.53
308.583
308.634
308.685
308.732
308.778
308.816
308.855
308.89
308.923
308.953
308.982
309.01
309.038
309.069
309.102
309.139
309.178
309.222
309.269
309.319
309.372
309.428
309.487
309.55
309.611
309.676
309.738
309.792
309.836
309.876
309.912
309.942
309.969
309.994
310.024
310.059
310.102
310.149
310.204
310.265
310.333
310.405
310.483
310.559
310.63
310.699
310.761
310.806
310.856
310.905
310.947
310.99
311.031
311.073
311.115
311.159
311.204
311.249
311.296
311.344
311.392
311.44
311.489
311.538
311.587
311.635
311.685
311.734
311.785
311.837
311.89
311.944
312.001
312.056
312.085
300.466
300.433
300.357
300.207
299.889
299.433
298.917
298.183
297.317
296.415
295.567
294.829
294.216
293.764
293.477
293.296
293.223
293.245
293.37
293.602
293.947
294.407
294.991
295.699
296.537
297.496
298.565
299.698
300.771
302.03
302.921
303.92
304.765
305.578
306.222
306.703
307.173
307.321
307.521
307.431
307.396
307.165
306.87
306.504
306.117
305.703
305.291
304.847
304.391
303.91
303.536
303.176
302.826
302.586
302.366
302.253
302.147
302.058
302.156
302.108
302.061
302.039
302.068
302.077
302.226
302.195
302.241
302.353
302.36
302.459
302.481
302.543
302.523
302.475
302.434
302.716
302.837
302.781
302.763
302.971
303.065
303.028
303.018
303.207
303.308
303.342
303.353
303.341
303.326
303.494
303.581
303.6
303.588
303.577
303.711
303.77
303.768
303.773
303.85
303.873
303.867
303.865
303.969
304.013
304.028
304.043
304.075
304.095
304.101
304.098
304.084
304.076
304.06
304.049
304.101
304.122
304.14
304.146
304.155
304.135
304.094
304.059
304.039
304.03
304.019
304.049
304.159
304.227
304.344
304.442
304.537
304.624
304.693
304.747
304.784
304.812
304.818
304.804
304.805
304.81
304.822
304.841
304.862
304.898
304.926
304.954
304.985
305.013
305.041
305.071
305.09
305.112
305.134
305.154
305.177
305.201
305.226
305.256
305.287
305.322
305.358
305.403
305.445
305.491
305.536
305.581
305.625
305.668
305.707
305.748
305.781
305.812
305.84
305.867
305.892
305.914
305.937
305.959
305.985
306.012
306.043
306.077
306.116
306.156
306.202
306.25
306.301
306.355
306.412
306.469
306.528
306.585
306.635
306.676
306.71
306.745
306.77
306.795
306.817
306.844
306.875
306.915
306.959
307.01
307.068
307.132
307.201
307.274
307.346
307.415
307.48
307.54
307.583
307.632
307.679
307.719
307.76
307.8
307.841
307.882
307.924
307.967
308.012
308.057
308.103
308.15
308.197
308.245
308.292
308.34
308.388
308.437
308.485
308.535
308.586
308.639
308.692
308.749
308.803
308.832
300.226
300.235
300.154
299.96
299.602
299.177
298.635
297.929
297.123
296.311
295.557
294.895
294.35
293.952
293.683
293.508
293.426
293.427
293.516
293.691
293.952
294.323
294.816
295.435
296.175
297.02
297.849
298.791
299.452
300.177
300.768
301.257
301.585
301.748
301.85
301.625
301.779
301.366
301.385
301.052
301.002
300.659
300.403
300.014
299.669
299.234
298.886
298.501
298.17
297.768
297.406
297.038
296.614
296.479
296.205
296.217
296.226
296.032
296.381
296.31
296.483
296.429
296.712
296.699
297.086
297.188
297.281
297.56
297.627
297.875
297.98
298.125
298.2
298.239
298.268
298.49
298.697
298.774
298.823
298.999
299.158
299.24
299.288
299.462
299.617
299.727
299.798
299.839
299.869
300.026
300.151
300.234
300.275
300.301
300.426
300.513
300.573
300.61
300.693
300.752
300.792
300.819
300.918
300.984
301.041
301.079
301.127
301.162
301.19
301.207
301.212
301.229
301.234
301.24
301.295
301.334
301.365
301.384
301.398
301.399
301.373
301.357
301.35
301.352
301.351
301.373
301.48
301.546
301.652
301.74
301.83
301.911
301.977
302.029
302.069
302.099
302.118
302.106
302.113
302.123
302.138
302.158
302.18
302.215
302.243
302.272
302.304
302.332
302.36
302.389
302.41
302.431
302.451
302.469
302.49
302.511
302.534
302.56
302.588
302.619
302.652
302.692
302.731
302.774
302.815
302.857
302.898
302.937
302.974
303.009
303.038
303.066
303.09
303.113
303.135
303.154
303.174
303.194
303.217
303.242
303.271
303.302
303.338
303.376
303.419
303.465
303.513
303.565
303.62
303.674
303.731
303.784
303.834
303.873
303.904
303.938
303.962
303.987
304.008
304.034
304.065
304.103
304.146
304.196
304.252
304.314
304.381
304.452
304.522
304.589
304.652
304.711
304.754
304.802
304.849
304.889
304.93
304.97
305.01
305.051
305.093
305.136
305.18
305.226
305.272
305.318
305.366
305.413
305.46
305.508
305.556
305.604
305.653
305.703
305.754
305.807
305.861
305.917
305.971
306.002
299.994
300.003
299.924
299.698
299.33
298.913
298.388
297.718
296.986
296.253
295.568
294.967
294.475
294.103
293.833
293.642
293.527
293.478
293.491
293.568
293.735
294.008
294.405
294.926
295.442
296.105
296.54
296.987
297.295
297.451
297.403
297.098
296.747
296.023
295.893
295.045
295.168
294.444
294.522
293.87
293.673
293.087
292.799
292.268
291.99
291.51
291.259
290.881
290.743
290.427
290.379
290.335
289.919
290.111
289.555
289.819
289.863
289.735
290.228
290.117
290.545
290.504
290.981
290.985
291.514
291.696
291.927
292.257
292.414
292.766
292.967
293.197
293.379
293.529
293.665
293.861
294.148
294.329
294.49
294.671
294.906
295.08
295.225
295.395
295.596
295.765
295.901
296.005
296.093
296.236
296.408
296.55
296.652
296.736
296.852
296.983
297.101
297.194
297.293
297.396
297.482
297.555
297.656
297.753
297.853
297.928
297.998
298.059
298.115
298.161
298.198
298.248
298.286
298.316
298.384
298.446
298.497
298.535
298.557
298.585
298.59
298.595
298.603
298.61
298.629
298.644
298.756
298.822
298.923
299.009
299.099
299.181
299.251
299.31
299.358
299.396
299.433
299.436
299.455
299.473
299.491
299.519
299.545
299.584
299.618
299.653
299.688
299.722
299.756
299.785
299.812
299.834
299.857
299.877
299.898
299.919
299.942
299.97
299.998
300.031
300.065
300.105
300.145
300.188
300.23
300.273
300.314
300.353
300.391
300.425
300.452
300.479
300.502
300.525
300.547
300.567
300.587
300.607
300.631
300.656
300.685
300.717
300.753
300.791
300.835
300.88
300.929
300.98
301.036
301.09
301.147
301.2
301.25
301.29
301.322
301.357
301.382
301.408
301.431
301.458
301.49
301.529
301.573
301.623
301.679
301.741
301.808
301.879
301.948
302.015
302.079
302.138
302.183
302.231
302.279
302.32
302.362
302.404
302.445
302.487
302.53
302.575
302.62
302.666
302.713
302.761
302.809
302.857
302.906
302.955
303.003
303.053
303.103
303.154
303.206
303.26
303.314
303.371
303.427
303.459
299.762
299.744
299.663
299.415
299.081
298.692
298.174
297.555
296.887
296.216
295.586
295.03
294.566
294.2
293.91
293.681
293.504
293.366
293.27
293.249
293.317
293.486
293.695
294.04
294.229
294.447
294.525
294.413
294.046
293.398
292.523
291.261
290.708
289.343
289.217
287.973
287.903
286.633
286.544
285.302
285.05
283.951
283.859
282.846
282.966
282.173
282.47
281.909
282.359
282.02
282.455
282.875
282.435
283.362
282.946
283.48
283.385
283.644
284.103
283.932
284.569
284.532
285.14
285.155
285.76
285.937
286.314
286.641
286.822
287.248
287.5
287.818
288.086
288.327
288.558
288.795
289.143
289.381
289.65
289.901
290.197
290.446
290.677
290.897
291.147
291.374
291.586
291.768
291.926
292.093
292.31
292.508
292.681
292.831
292.975
293.148
293.322
293.47
293.609
293.752
293.886
294.004
294.125
294.256
294.397
294.514
294.615
294.71
294.802
294.888
294.967
295.055
295.134
295.199
295.286
295.371
295.446
295.508
295.553
295.605
295.634
295.656
295.685
295.712
295.75
295.775
295.892
295.965
296.069
296.162
296.257
296.347
296.429
296.502
296.568
296.626
296.68
296.706
296.739
296.77
296.8
296.838
296.875
296.921
296.966
297.011
297.055
297.098
297.139
297.177
297.21
297.236
297.261
297.283
297.308
297.333
297.361
297.394
297.429
297.467
297.507
297.553
297.598
297.646
297.692
297.74
297.785
297.829
297.87
297.906
297.936
297.965
297.992
298.017
298.043
298.066
298.09
298.114
298.141
298.169
298.202
298.236
298.276
298.317
298.363
298.412
298.463
298.517
298.575
298.632
298.691
298.746
298.799
298.843
298.878
298.915
298.944
298.973
298.999
299.03
299.065
299.108
299.154
299.206
299.264
299.328
299.396
299.468
299.539
299.608
299.673
299.734
299.783
299.834
299.883
299.927
299.972
300.016
300.06
300.104
300.15
300.196
300.244
300.292
300.341
300.391
300.441
300.492
300.542
300.593
300.644
300.696
300.748
300.801
300.855
300.911
300.967
301.026
301.084
301.118
299.52
299.471
299.383
299.136
298.849
298.49
297.995
297.425
296.81
296.19
295.602
295.073
294.619
294.237
293.906
293.61
293.336
293.085
292.888
292.754
292.677
292.642
292.604
292.574
292.465
292.172
291.626
290.765
289.508
287.876
286.629
284.775
284.185
282.322
281.8
279.843
279.407
277.444
277.081
275.433
275.282
273.589
274.247
272.541
273.61
272.354
273.554
272.725
273.997
273.656
274.866
275.474
275.284
276.6
276.387
277.413
277.329
278.072
278.383
278.228
279.065
279.027
279.75
279.747
280.393
280.504
281
281.291
281.434
281.885
282.107
282.464
282.751
283.009
283.274
283.534
283.883
284.124
284.475
284.779
285.102
285.391
285.686
285.969
286.257
286.53
286.822
287.082
287.315
287.533
287.793
288.043
288.286
288.504
288.704
288.916
289.145
289.351
289.544
289.732
289.923
290.094
290.256
290.427
290.614
290.782
290.927
291.066
291.202
291.336
291.465
291.594
291.716
291.821
291.929
292.037
292.136
292.221
292.293
292.357
292.398
292.44
292.49
292.561
292.628
292.681
292.811
292.899
293.014
293.122
293.231
293.336
293.437
293.532
293.623
293.712
293.787
293.838
293.883
293.929
293.983
294.036
294.09
294.151
294.213
294.273
294.332
294.387
294.438
294.486
294.526
294.557
294.592
294.625
294.66
294.696
294.733
294.775
294.818
294.866
294.917
294.973
295.029
295.087
295.143
295.2
295.253
295.305
295.349
295.393
295.431
295.467
295.5
295.533
295.565
295.596
295.627
295.658
295.691
295.726
295.764
295.805
295.85
295.897
295.949
296.002
296.06
296.119
296.181
296.243
296.307
296.367
296.425
296.474
296.514
296.556
296.591
296.626
296.658
296.694
296.734
296.781
296.831
296.888
296.95
297.017
297.089
297.163
297.238
297.309
297.378
297.442
297.496
297.551
297.604
297.652
297.701
297.749
297.796
297.845
297.894
297.943
297.994
298.046
298.099
298.152
298.205
298.258
298.312
298.366
298.421
298.475
298.531
298.587
298.644
298.702
298.762
298.823
298.884
298.922
299.28
299.195
299.093
298.887
298.651
298.306
297.845
297.319
296.748
296.168
295.609
295.094
294.629
294.209
293.814
293.418
293.029
292.671
292.351
291.982
291.704
291.401
291.102
290.676
290.026
289.072
287.706
285.919
283.98
281.6
280.439
278.029
276.976
274.239
273.023
270.358
269.352
266.893
266.337
264.126
264.391
261.793
263.173
261.364
263.402
262.151
264.411
263.694
265.927
265.886
267.904
268.795
269.037
270.416
270.353
271.69
271.816
273.041
273.347
273.284
274.284
274.264
275.097
275.056
275.752
275.789
276.402
276.662
276.744
277.212
277.361
277.734
277.99
278.21
278.465
278.679
278.962
279.157
279.521
279.793
280.098
280.354
280.67
280.944
281.239
281.507
281.835
282.119
282.395
282.664
282.934
283.214
283.519
283.794
284.048
284.296
284.57
284.827
285.074
285.314
285.557
285.786
286
286.216
286.452
286.669
286.867
287.05
287.237
287.417
287.59
287.755
287.914
288.055
288.191
288.329
288.456
288.569
288.647
288.722
288.806
288.889
288.976
289.087
289.205
289.302
289.458
289.575
289.707
289.839
289.969
290.094
290.218
290.345
290.462
290.592
290.681
290.756
290.823
290.89
290.96
291.035
291.116
291.202
291.286
291.365
291.441
291.511
291.575
291.638
291.695
291.744
291.797
291.848
291.9
291.952
292.005
292.061
292.118
292.179
292.242
292.311
292.381
292.455
292.525
292.596
292.659
292.723
292.78
292.837
292.889
292.937
292.982
293.026
293.07
293.111
293.153
293.194
293.237
293.282
293.331
293.38
293.434
293.49
293.55
293.613
293.678
293.745
293.815
293.885
293.955
294.022
294.088
294.145
294.193
294.242
294.284
294.326
294.366
294.41
294.457
294.51
294.566
294.629
294.696
294.769
294.845
294.924
295.003
295.079
295.153
295.223
295.283
295.343
295.401
295.455
295.509
295.562
295.614
295.667
295.721
295.775
295.831
295.887
295.944
296.001
296.059
296.117
296.175
296.234
296.292
296.351
296.41
296.47
296.531
296.594
296.658
296.722
296.786
296.829
299.053
298.938
298.825
298.672
298.478
298.147
297.721
297.236
296.701
296.148
295.605
295.089
294.598
294.115
293.63
293.113
292.606
292.012
291.503
290.984
290.454
289.896
289.144
288.164
286.826
285.069
282.792
280.135
278.114
275.243
273.741
270.504
268.631
265.353
263.225
259.95
257.874
255.298
254.352
252.926
253.582
251.634
253.69
252.257
255.14
253.966
257.335
256.608
259.722
259.603
261.968
262.553
263.262
264.593
264.86
266.621
266.998
268.458
269.031
269.179
270.165
270.318
271.139
271.099
271.888
271.869
272.622
272.883
272.924
273.427
273.521
273.931
274.166
274.351
274.597
274.745
274.97
275.116
275.433
275.627
275.889
276.088
276.355
276.552
276.792
276.991
277.28
277.49
277.74
277.972
278.203
278.445
278.742
278.999
279.257
279.515
279.792
280.065
280.342
280.616
280.892
281.157
281.416
281.671
281.949
282.204
282.452
282.673
282.9
283.082
283.25
283.413
283.58
283.752
283.936
284.119
284.279
284.4
284.523
284.659
284.805
284.951
285.098
285.25
285.432
285.593
285.793
285.956
286.118
286.286
286.447
286.604
286.755
286.923
287.067
287.238
287.353
287.455
287.548
287.642
287.734
287.826
287.921
288.02
288.124
288.224
288.324
288.417
288.505
288.597
288.681
288.756
288.832
288.907
288.982
289.057
289.131
289.208
289.285
289.365
289.445
289.53
289.616
289.705
289.792
289.878
289.96
290.041
290.118
290.192
290.262
290.327
290.389
290.45
290.51
290.567
290.624
290.68
290.738
290.797
290.859
290.922
290.988
291.057
291.129
291.204
291.281
291.359
291.44
291.52
291.6
291.676
291.752
291.819
291.878
291.936
291.989
292.041
292.091
292.144
292.2
292.261
292.326
292.396
292.471
292.551
292.634
292.719
292.804
292.887
292.967
293.045
293.113
293.179
293.244
293.304
293.364
293.424
293.483
293.542
293.602
293.662
293.724
293.786
293.848
293.911
293.974
294.038
294.101
294.165
294.229
294.293
294.357
294.423
294.488
294.556
294.624
294.694
294.762
294.809
298.852
298.709
298.605
298.5
298.326
298.018
297.627
297.174
296.665
296.129
295.585
295.056
294.527
293.944
293.322
292.571
291.898
291.24
290.522
289.77
288.95
287.94
286.612
284.968
282.822
280.276
277.176
274.064
271.994
268.385
266.113
262.19
259.352
255.575
252.248
248.964
246.742
244.666
243.085
241.562
241.955
240.82
242.732
242.006
245.359
244.801
249.22
249.033
252.958
254.048
256.425
257.656
259.064
260.105
260.912
262.656
262.681
264.445
265.163
265.747
266.589
267.062
267.761
267.81
268.721
268.672
269.568
269.848
269.862
270.428
270.492
270.97
271.207
271.387
271.631
271.73
271.951
272.073
272.345
272.494
272.738
272.874
273.106
273.233
273.436
273.579
273.795
273.931
274.138
274.289
274.443
274.597
274.815
274.968
275.171
275.354
275.555
275.744
275.97
276.183
276.413
276.631
276.86
277.087
277.348
277.583
277.831
278.013
278.216
278.402
278.616
278.826
279.041
279.239
279.425
279.608
279.788
279.962
280.145
280.345
280.559
280.773
280.986
281.19
281.402
281.64
281.879
282.09
282.297
282.51
282.711
282.91
283.095
283.305
283.474
283.652
283.805
283.943
284.068
284.193
284.311
284.428
284.546
284.667
284.791
284.914
285.037
285.155
285.268
285.386
285.496
285.599
285.703
285.804
285.904
286.003
286.102
286.202
286.301
286.402
286.503
286.607
286.713
286.82
286.927
287.032
287.134
287.235
287.332
287.428
287.519
287.605
287.686
287.767
287.847
287.923
288
288.075
288.151
288.229
288.308
288.389
288.472
288.557
288.645
288.735
288.827
288.92
289.015
289.109
289.201
289.288
289.377
289.457
289.529
289.6
289.665
289.73
289.793
289.858
289.926
289.998
290.074
290.155
290.24
290.329
290.421
290.514
290.608
290.699
290.787
290.874
290.952
291.027
291.099
291.168
291.237
291.305
291.372
291.44
291.507
291.575
291.644
291.714
291.783
291.853
291.923
291.994
292.064
292.134
292.205
292.275
292.346
292.417
292.489
292.562
292.637
292.712
292.785
292.838
298.693
298.524
298.447
298.371
298.209
297.926
297.564
297.136
296.643
296.11
295.545
294.963
294.345
293.528
292.782
291.999
291.177
290.298
289.364
288.302
287.021
285.471
283.468
281.073
277.976
274.96
271.15
267.972
265.301
260.936
257.669
253.419
249.583
245.574
242.174
239.084
236.117
233.352
230.991
229.348
228.112
227.202
226.94
227.382
229.588
231.413
235.813
237.889
244.07
246.778
249.492
252.073
254.148
255.396
257.615
258.902
259.771
261.264
262.164
262.96
263.716
264.324
264.93
265.035
266.087
266.046
267.078
267.394
267.403
268.056
268.107
268.658
268.912
269.101
269.341
269.407
269.67
269.798
270.029
270.165
270.388
270.488
270.71
270.805
271.001
271.112
271.288
271.388
271.575
271.684
271.799
271.899
272.044
272.138
272.302
272.416
272.542
272.649
272.808
272.924
273.072
273.197
273.336
273.469
273.621
273.75
273.903
274.018
274.18
274.318
274.513
274.703
274.896
275.078
275.244
275.407
275.562
275.733
275.931
276.153
276.397
276.649
276.908
277.146
277.388
277.628
277.884
278.124
278.375
278.622
278.856
279.093
279.309
279.552
279.718
279.928
280.112
280.296
280.456
280.614
280.763
280.909
281.055
281.2
281.349
281.498
281.647
281.791
281.931
282.072
282.208
282.337
282.466
282.592
282.717
282.841
282.963
283.085
283.206
283.328
283.451
283.575
283.701
283.828
283.954
284.079
284.2
284.322
284.438
284.554
284.665
284.773
284.874
284.976
285.076
285.174
285.272
285.368
285.465
285.563
285.662
285.762
285.863
285.967
286.073
286.18
286.289
286.398
286.508
286.618
286.723
286.824
286.928
287.022
287.111
287.195
287.276
287.357
287.435
287.516
287.599
287.685
287.775
287.868
287.966
288.067
288.169
288.273
288.376
288.478
288.577
288.674
288.763
288.849
288.932
289.012
289.092
289.17
289.248
289.325
289.403
289.481
289.559
289.637
289.716
289.795
289.874
289.953
290.032
290.111
290.189
290.268
290.346
290.425
290.505
290.585
290.668
290.749
290.829
290.89
298.584
298.397
298.343
298.282
298.14
297.88
297.535
297.109
296.608
296.061
295.43
294.733
293.994
293.153
292.293
291.333
290.295
289.194
287.965
286.443
284.621
282.459
279.675
276.496
272.37
269.425
265.137
261.599
257.838
253.204
248.975
244.349
240.192
236.493
232.99
229.589
226.436
223.575
221.017
218.519
216.165
213.975
212.022
210.3
208.842
207.751
206.95
206.532
211.09
221.883
230.873
238.046
245.061
249.447
252.461
254.956
256.693
258.185
259.456
260.517
261.409
262.213
262.738
263.157
264.071
264.01
265.171
265.478
265.471
266.206
266.234
266.855
267.12
267.305
267.543
267.585
267.912
268.061
268.259
268.373
268.579
268.65
268.883
268.965
269.165
269.262
269.421
269.504
269.68
269.763
269.887
269.962
270.074
270.146
270.29
270.37
270.475
270.549
270.671
270.744
270.859
270.935
271.032
271.101
271.187
271.239
271.334
271.375
271.504
271.577
271.721
271.845
271.97
272.083
272.182
272.27
272.346
272.455
272.597
272.768
272.963
273.176
273.4
273.603
273.804
273.975
274.182
274.369
274.595
274.825
275.044
275.281
275.492
275.742
275.925
276.167
276.375
276.608
276.807
277.002
277.185
277.363
277.537
277.711
277.885
278.06
278.235
278.406
278.571
278.735
278.895
279.05
279.203
279.353
279.501
279.648
279.792
279.936
280.079
280.222
280.365
280.51
280.655
280.799
280.944
281.086
281.224
281.363
281.496
281.63
281.759
281.885
282.005
282.127
282.247
282.364
282.482
282.599
282.715
282.831
282.948
283.065
283.184
283.304
283.426
283.549
283.674
283.799
283.924
284.049
284.169
284.284
284.401
284.511
284.615
284.714
284.811
284.908
285.003
285.1
285.199
285.3
285.405
285.513
285.624
285.738
285.853
285.968
286.083
286.197
286.307
286.416
286.518
286.617
286.712
286.804
286.896
286.987
287.077
287.167
287.256
287.345
287.435
287.524
287.614
287.703
287.793
287.882
287.972
288.061
288.149
288.238
288.327
288.415
288.505
288.594
288.686
288.776
288.864
288.933
298.536
298.318
298.289
298.239
298.116
297.861
297.515
297.074
296.539
295.945
295.274
294.519
293.695
292.74
291.68
290.512
289.259
287.864
286.217
284.149
281.704
278.867
275.119
271.416
266.737
263.823
258.887
254.693
250.083
245.306
240.833
236.68
232.671
228.75
225.385
222.453
219.652
216.968
214.442
212.115
210.019
208.13
206.432
204.899
203.528
202.294
201.194
200.232
199.515
199.238
199.487
199.693
208.305
224.577
236.811
245.303
251.066
253.993
256.629
258.135
259.242
260.098
260.576
261.614
262.208
262.307
263.538
263.887
263.902
264.695
264.684
265.385
265.655
265.821
266.074
266.111
266.5
266.671
266.848
266.934
267.13
267.185
267.429
267.508
267.713
267.799
267.956