/*--------------------------------*- C++ -*----------------------------------*\
| =========                 |                                                 |
| \\      /  F ield         | OpenFOAM: The Open Source CFD Toolbox           |
|  \\    /   O peration     | Version:  2312                                  |
|   \\  /    A nd           | Website:  www.openfoam.com                      |
|    \\/     M anipulation  |                                                 |
\*---------------------------------------------------------------------------*/
FoamFile
{
    version     2.0;
    format      ascii;
    arch        "LSB;label=32;scalar=64";
    class       volScalarField;
    location    "0.002";
    object      k;
}
// * * * * * * * * * * * * * * * * * * * * * * * * * * * * * * * * * * * * * //

dimensions      [0 2 -2 0 0 0 0];

internalField   nonuniform List<scalar> 
48128
(
0.361696
0.529409
2.0613
19.8572
87.7915
218.71
367.47
508.447
635.847
747.228
844.188
930.187
1007.69
1078.54
1145.56
1210.46
1273.71
1336.07
1398.29
1460.92
1527.21
1597.89
1674
1752.32
1840.23
1934.09
2036.82
2146.19
2264.68
2398.39
2543.08
2698.08
2865.98
3021.03
3166.76
3291.37
3395.74
3448.08
3482.76
3471.68
3460.79
3482.84
3544.11
3603.64
3653.23
3659.92
3645.5
3620.24
3585.86
3550.47
3506.42
3459.56
3405.22
3348.38
3286.53
3218.3
3153.68
3082.5
3016.34
2947.47
2886.62
2823.13
2766.57
2707.94
2651.2
2601.1
2549.01
2501.96
2454.17
2409.71
2368.5
2327.47
2291.73
2254.78
2229.02
2200.04
2167.29
2131.44
2108.94
2085.8
2059.87
2031.3
2013.68
1995.51
1975.56
1954.16
1938.03
1921.51
1910.27
1898.1
1884.54
1871.22
1857.4
1849.65
1840.96
1831.02
1819.65
1812.61
1805.08
1797.04
1788.01
1783.22
1777.73
1771.21
1764.1
1758.87
1753.91
1748.73
1744.15
1739.72
1735.71
1732.22
1728.7
1726.36
1724.14
1721.64
1718.94
1716.32
1713.6
1710.84
1707.95
1705.96
1704.55
1703.91
1703.03
1703.1
1702.52
1701.37
1699.8
1697.7
1694.99
1691.7
1688.16
1684.72
1681.41
1678.03
1675.29
1673
1671.84
1670.9
1670.53
1670.1
1669.65
1668.98
1668.08
1667.02
1665.84
1664.59
1663.36
1662.07
1660.82
1659.83
1658.85
1658.02
1657.25
1656.53
1655.91
1655.23
1654.5
1653.69
1652.82
1651.82
1650.7
1649.46
1648.14
1646.75
1645.35
1643.91
1642.6
1641.27
1640.05
1639.04
1638.12
1637.38
1636.76
1636.3
1635.89
1635.61
1635.35
1635.12
1634.85
1634.55
1634.16
1633.69
1633.11
1632.42
1631.63
1630.75
1629.78
1628.74
1627.64
1626.48
1625.26
1624.15
1623.25
1622.57
1622.1
1621.78
1621.65
1621.64
1621.61
1621.5
1621.28
1620.88
1620.27
1619.46
1618.46
1617.27
1615.9
1614.41
1613.11
1611.64
1610.47
1609.82
1609.16
1608.74
1608.38
1608.1
1607.82
1607.52
1607.18
1606.78
1606.32
1605.8
1605.21
1604.59
1603.92
1603.23
1602.52
1601.79
1601.05
1600.29
1599.52
1598.73
1597.93
1597.1
1596.25
1595.38
1594.25
1593.34
1.00989
2.45929
11.2371
45.5406
129.217
264.112
420.969
576.901
730.356
879.745
1026.79
1172.72
1318.96
1470.52
1631.3
1802.29
1988.55
2191.18
2415.2
2661.4
2936.29
3233.66
3569.71
3923.73
4312.54
4725.72
5164.36
5621.54
6075.32
6557.23
7055.17
7552.05
8042.46
8511.69
8967.53
9364.88
9726.55
9964.12
10161.8
10240.7
10303.8
10331.1
10328.2
10274
10167.9
10004.7
9802.07
9577.33
9339.78
9102.66
8855.01
8606.05
8346.8
8100.21
7850.85
7597.29
7350.3
7102.07
6861.77
6620.81
6396.27
6174.94
5966.51
5763.85
5569.15
5387.38
5209.25
5042.37
4879.36
4725.65
4579.6
4439.6
4307.85
4178.65
4064.61
3965.67
3861.58
3752.71
3655.13
3578.45
3497.07
3411.85
3333.54
3272.93
3209.42
3144.06
3082.06
3023.41
2971.17
2926.31
2880.16
2833.5
2786.19
2744.26
2709.25
2672.73
2635.22
2597.86
2567.01
2535.78
2503.96
2473.64
2449.14
2423.79
2398.05
2372.28
2350.04
2327.65
2306.24
2285.16
2264.39
2243.98
2224.42
2205.7
2188.85
2173.41
2157.9
2143.62
2129.57
2115.3
2100.81
2086.23
2071.87
2058.96
2046.73
2036.15
2028.75
2021.91
2015.94
2011.04
2006.18
2001.23
1995.89
1989.97
1983.54
1976.4
1968.5
1960.28
1951.88
1943.88
1935.99
1928.94
1922.11
1915.87
1909.86
1904.09
1898.75
1893.32
1888.43
1883.56
1878.58
1873.83
1869.17
1864.47
1860.12
1855.76
1851.84
1847.99
1844.56
1841.15
1838.17
1835.28
1832.74
1830.29
1828.23
1826.19
1824.38
1822.54
1820.7
1818.82
1816.83
1814.91
1812.96
1811
1809.04
1807.07
1805.07
1803.09
1801.09
1799.21
1797.32
1795.66
1794.02
1792.49
1791.07
1789.74
1788.51
1787.41
1786.43
1785.6
1784.78
1784.1
1783.26
1782.25
1781.1
1779.78
1778.31
1776.72
1775.05
1773.32
1771.69
1770.2
1768.84
1767.7
1766.75
1766
1765.45
1765.03
1764.86
1764.57
1764.25
1763.74
1762.95
1762.09
1761.13
1760.04
1758.88
1757.65
1756.38
1755.1
1753.8
1752.56
1751.36
1750.26
1749.21
1748.25
1747.34
1746.49
1745.65
1744.84
1744.03
1743.21
1742.39
1741.57
1740.74
1739.97
1739.16
1738.51
1737.68
1736.55
2.84331
12.1866
40.9669
118.133
267.094
495.419
774.218
1060.84
1344.54
1618.32
1882.31
2138.87
2390.67
2642.06
2899.42
3164.59
3445.72
3744.73
4068.33
4418.74
4801.08
5213.6
5657.98
6130.68
6636.99
7175.14
7737.93
8333.05
8962.44
9619.15
10299.7
10974.7
11639.3
12257.4
12854.3
13353.1
13792.7
14064
14245.8
14296.3
14282.8
14189.2
14025
13792.9
13518.3
13202.6
12863.9
12508.3
12144
11781.4
11412.9
11049.8
10680.4
10326.4
9967.75
9615.22
9262.64
8927.54
8596.54
8273.31
7966.55
7673.11
7392.99
7127.95
6872.78
6630.71
6398.33
6179.27
5966.33
5765.68
5573.35
5391.47
5216.43
5048.96
4888.2
4758.41
4623.63
4485.52
4348.59
4244.48
4136.73
4026.92
3917.04
3833.14
3747.49
3660.73
3576.26
3497.66
3423.11
3359.73
3295.18
3229.98
3166.06
3104.33
3053.55
3001.76
2949.38
2896.61
2851.78
2807.05
2762.22
2717.72
2680.5
2642.66
2605.06
2567.31
2533.69
2500.38
2468.32
2436.85
2406.05
2375.77
2346.47
2317.93
2291.48
2266.42
2241.54
2218.16
2195.6
2172.87
2150.42
2127.66
2106.24
2085.14
2066.03
2047.27
2032.12
2017.47
2004.23
1992.36
1981.58
1971.54
1961.43
1951.24
1940.98
1930.25
1918.86
1907.16
1895.18
1883.61
1871.9
1861.1
1850.46
1840.45
1830.76
1821.28
1812.29
1803.19
1794.72
1786.41
1777.97
1769.88
1761.95
1754.13
1746.59
1739.26
1732.15
1725.44
1718.94
1712.75
1706.94
1701.35
1696.26
1691.3
1686.8
1682.41
1678.27
1674.24
1670.26
1666.36
1662.37
1658.52
1654.72
1650.93
1647.22
1643.5
1639.83
1636.14
1632.56
1629.02
1625.61
1622.34
1619.19
1616.19
1613.35
1610.67
1608.07
1605.72
1603.43
1601.4
1599.39
1597.6
1595.74
1593.7
1591.58
1589.36
1587.04
1584.6
1582.1
1579.57
1577.05
1574.72
1572.54
1570.55
1568.83
1567.25
1566.02
1564.86
1564.05
1563.23
1562.4
1561.51
1560.29
1559.01
1557.66
1556.18
1554.66
1553.07
1551.43
1549.78
1548.1
1546.48
1544.9
1543.43
1542.01
1540.7
1539.45
1538.29
1537.18
1536.1
1535.05
1534.01
1532.96
1531.95
1530.92
1529.97
1529
1528.19
1527.35
1525.96
8.39614
35.8303
103.014
252.129
512.308
882.145
1292.54
1689.23
2056.73
2397.14
2718.82
3028.41
3330.8
3631.4
3935.86
4248.4
4576.63
4924.97
5300.37
5704.17
6142.62
6618.79
7136.62
7696.14
8297.7
8941.94
9620.97
10337
11095.4
11877.3
12684.7
13471.5
14236.5
14922.9
15556.7
16055
16441.4
16649
16721.2
16667.9
16512.5
16258.6
15926.5
15531.6
15100.6
14654.8
14209.4
13754.6
13303.6
12849.5
12409.3
11976
11551
11145.9
10738
10350.3
9956.26
9595.6
9235.65
8891.06
8558.62
8249.19
7949.18
7670.7
7402.8
7144.29
6901.62
6669.86
6446.8
6234.71
6030.75
5838.61
5650.97
5473.03
5292.67
5156.35
5015.61
4870.19
4719.44
4606.48
4491.29
4373.43
4251.6
4158.65
4065.66
3971.78
3878.21
3791.34
3704.08
3632.87
3561.1
3488.47
3417.39
3345.13
3286.85
3228.35
3169.26
3109.23
3057.33
3006.33
2955.13
2903.19
2859.63
2815.71
2772.25
2728.39
2688.61
2649.62
2611.75
2574.7
2538.32
2502.69
2468.07
2434.22
2402.84
2372.66
2342.94
2314.65
2287.39
2259.97
2232.94
2205.57
2179.96
2154.25
2130.99
2107.42
2087.88
2068.62
2051.32
2035.08
2020.53
2006.4
1992.67
1978.96
1965.57
1951.87
1937.68
1923.33
1908.76
1894.76
1880.62
1867.28
1854.15
1841.58
1829.37
1817.32
1805.83
1794.21
1783.28
1772.58
1761.73
1751.33
1741.12
1731.12
1721.36
1711.95
1702.66
1693.89
1685.27
1677.08
1669.22
1661.67
1654.62
1647.77
1641.36
1635.12
1629.2
1623.4
1617.75
1612.23
1606.63
1601.25
1595.98
1590.76
1585.69
1580.61
1575.65
1570.67
1565.88
1561.08
1556.5
1552.01
1547.71
1543.56
1539.54
1535.78
1532.13
1528.72
1525.39
1522.33
1519.3
1516.54
1513.74
1510.82
1507.9
1504.93
1501.89
1498.78
1495.6
1492.46
1489.28
1486.26
1483.45
1480.78
1478.39
1476.12
1474.2
1472.35
1470.89
1469.42
1468.06
1466.68
1465.06
1463.4
1461.69
1459.9
1458.06
1456.17
1454.24
1452.3
1450.33
1448.4
1446.5
1444.71
1442.98
1441.36
1439.8
1438.35
1436.95
1435.63
1434.33
1433.07
1431.81
1430.59
1429.34
1428.19
1427.02
1426.01
1425.04
1423.47
19.4133
78.2509
202.995
447.948
838.768
1321.55
1784.29
2207.83
2601.49
2972.28
3326.82
3669.79
4005.81
4339.5
4675.59
5021.7
5383.26
5766.63
6179.95
6627.43
7117.99
7656.8
8246.56
8887.36
9578.56
10321.8
11104
11917.8
12768.1
13631.4
14510.1
15342
16119.1
16770.1
17305.9
17671.5
17842.2
17860.6
17750.2
17526.3
17167.1
16724.1
16207.3
15656.1
15077.8
14500.7
13929.6
13374.8
12851.3
12319.2
11846.8
11373.6
10953
10544
10156.6
9801.34
9436.65
9124.24
8808.82
8516.22
8221.91
7960.2
7695.85
7458.22
7225.69
6995.06
6783.88
6575.18
6378.33
6185.88
6001.38
5825.76
5653.36
5487.03
5313.74
5187.46
5058.59
4924.45
4780.97
4672.83
4564.91
4453.72
4335.91
4243.86
4155.18
4065.34
3974.48
3887.7
3798.7
3726.97
3656.69
3585.64
3514.28
3440.42
3380.38
3322.1
3262.91
3202.09
3148.26
3096.44
3044.17
2990.2
2944.35
2899.61
2854.88
2809.46
2767.39
2726.47
2686.56
2647.5
2609.11
2571.51
2535.08
2498.73
2465.44
2433.31
2401.86
2371.58
2342.38
2313.01
2284.07
2254.76
2227.12
2199.32
2173.89
2147.91
2126.05
2104.56
2085.13
2066.56
2049.78
2033.36
2017.47
2001.65
1986.31
1970.77
1954.83
1938.8
1922.57
1907.06
1891.41
1876.57
1861.98
1847.99
1834.37
1820.89
1807.96
1794.92
1782.51
1770.37
1758.05
1746.24
1734.63
1723.3
1712.18
1701.48
1690.84
1680.79
1670.84
1661.4
1652.21
1643.42
1635.08
1626.98
1619.3
1611.82
1604.66
1597.66
1590.83
1584.18
1577.47
1570.99
1564.65
1558.41
1552.34
1546.28
1540.4
1534.47
1528.8
1523.1
1517.69
1512.32
1507.22
1502.22
1497.4
1492.86
1488.43
1484.25
1480.16
1476.32
1472.55
1469
1465.53
1461.89
1458.37
1454.79
1451.2
1447.56
1443.86
1440.25
1436.58
1433.07
1429.8
1426.62
1423.72
1420.91
1418.46
1416.08
1414.09
1412.09
1410.27
1408.46
1406.46
1404.45
1402.45
1400.37
1398.28
1396.15
1393.99
1391.82
1389.63
1387.47
1385.34
1383.31
1381.34
1379.48
1377.69
1376.01
1374.4
1372.88
1371.39
1369.97
1368.53
1367.14
1365.73
1364.41
1363.08
1361.88
1360.77
1359.03
36.7936
139.156
337.667
686.171
1184.59
1682.45
2148.15
2580.09
2986.44
3374.92
3749.95
4115.23
4474.68
4832.58
5192.83
5564.73
5951.44
6362.61
6808.16
7294.24
7830.69
8425.25
9077.2
9788.75
10555
11375.7
12235.1
13111.7
14006.5
14889.4
15752.5
16525.6
17188.9
17682.1
17997.9
18122.3
17986.8
17689.3
17161.9
16526.6
15768.5
14997.8
14148.6
13389.7
12605.4
11947.3
11283.8
10702.8
10183.6
9659.19
9248.24
8829.02
8503.98
8179.17
7907.13
7672.98
7431.24
7250.27
7064.38
6900.46
6727.78
6579.81
6423.47
6289.53
6156.93
6021.1
5895.61
5767.35
5644.62
5520.41
5397.84
5279.06
5159.14
5036.99
4904.42
4811.55
4717.87
4616.8
4504.81
4417.3
4332.99
4243.77
4147.25
4068.47
3995.69
3921.1
3844.97
3769.33
3690.92
3627.32
3567.11
3505.61
3442.6
3376.58
3321.24
3269.42
3216.28
3161.11
3111.19
3063.78
3015.66
2965.5
2921.74
2880.45
2838.59
2795.95
2755.52
2716.43
2678.18
2640.67
2603.7
2567.48
2532.26
2496.53
2464.16
2432.85
2402.43
2372.59
2343.93
2315.09
2286.6
2257.77
2230.1
2202.47
2176.78
2150.49
2128.28
2106.51
2086.54
2067.34
2049.7
2032.64
2016
1999.41
1983.2
1967.01
1950.43
1933.76
1916.88
1900.77
1884.53
1869.15
1853.97
1839.47
1825.35
1811.38
1797.83
1784.34
1771.22
1758.49
1745.58
1733.13
1720.9
1708.97
1697.22
1685.93
1674.61
1663.95
1653.33
1643.27
1633.35
1623.93
1614.88
1606.1
1597.72
1589.51
1581.62
1573.91
1566.33
1558.99
1551.61
1544.48
1537.45
1530.55
1523.83
1517.13
1510.64
1504.11
1497.87
1491.59
1485.63
1479.7
1474.07
1468.56
1463.24
1458.18
1453.24
1448.53
1443.94
1439.57
1435.33
1431.2
1427.29
1423.2
1419.22
1415.17
1411.22
1407.22
1403.17
1399.22
1395.23
1391.41
1387.82
1384.28
1381.03
1377.86
1375.04
1372.28
1369.91
1367.52
1365.35
1363.21
1360.92
1358.62
1356.38
1354.09
1351.8
1349.5
1347.18
1344.86
1342.52
1340.22
1337.94
1335.76
1333.63
1331.62
1329.67
1327.84
1326.09
1324.44
1322.83
1321.29
1319.75
1318.26
1316.74
1315.31
1313.86
1312.54
1311.31
1309.44
59.7914
214.514
495.142
937.398
1458.03
1947.43
2405.14
2833.63
3242.63
3638.16
4023.42
4402.38
4778.18
5154.1
5532.47
5922.04
6327.02
6759.15
7229.93
7746.69
8318.81
8956.36
9658.31
10424.6
11242.4
12107.7
13002.1
13884.6
14758.7
15585.2
16337.3
16956.8
17366
17510.6
17275.2
16814.7
16062.9
15104.7
13983.3
12869.8
11709.4
10742.6
9758.67
9029.06
8290.65
7729.02
7183.06
6734.03
6347.9
5977.9
5706.41
5429.4
5233.38
5049.41
4910.87
4805.11
4702.84
4639.91
4576.41
4532.55
4482.91
4447.61
4406.63
4379.34
4351.65
4321.98
4299.5
4275.92
4252.46
4226.23
4196.52
4164.09
4126.36
4082.93
4030.4
3988.91
3952.1
3909.78
3858.61
3809.58
3764.44
3716.01
3662.05
3611.08
3566.07
3520.07
3471.22
3419.93
3365.47
3318.98
3277.1
3233.67
3187.69
3138.7
3095.09
3055.69
3015.09
2972.39
2932.15
2894.27
2855.71
2815.54
2778.75
2744.99
2710.6
2675.39
2641.07
2607.77
2575.06
2542.91
2511
2479.8
2448.97
2417.46
2388.89
2361.25
2334.55
2307.61
2282.02
2256.31
2230.69
2204.8
2179.29
2154.19
2130.24
2105.96
2085.06
2064.6
2045.8
2027.49
2010.51
1994.2
1978.25
1962.37
1946.57
1931.05
1915.06
1898.97
1882.7
1867.05
1851.33
1836.4
1821.58
1807.49
1793.76
1780.12
1766.83
1753.76
1740.7
1728.21
1715.55
1703.25
1691.16
1679.36
1667.69
1656.48
1645.22
1634.56
1623.93
1613.81
1603.85
1594.33
1585.16
1576.2
1567.64
1559.22
1551.09
1543.14
1535.31
1527.73
1520.09
1512.71
1505.37
1498.23
1491.21
1484.26
1477.5
1470.7
1464.21
1457.68
1451.46
1445.33
1439.43
1433.73
1428.17
1422.86
1417.67
1412.71
1407.88
1403.23
1398.75
1394.33
1390.17
1385.88
1381.61
1377.35
1373.19
1369
1364.78
1360.64
1356.54
1352.55
1348.79
1345.07
1341.64
1338.27
1335.24
1332.26
1329.67
1327.05
1324.66
1322.31
1319.84
1317.36
1314.97
1312.55
1310.15
1307.76
1305.36
1302.98
1300.59
1298.23
1295.88
1293.63
1291.44
1289.36
1287.34
1285.45
1283.63
1281.92
1280.27
1278.7
1277.13
1275.6
1274.05
1272.56
1271.06
1269.67
1268.37
1266.44
86.5782
297.347
658.443
1153.81
1658.58
2131.18
2573.36
2990.98
3393.42
3786.51
4174.14
4559.79
4945.39
5332.35
5721.44
6120.99
6536.85
6981.43
7468.92
8006.72
8601.52
9270.08
10003.6
10800.2
11635.4
12496.7
13382.1
14222.8
15001
15690
16161.3
16330.2
16083.7
15549.2
14580
13323.8
11954.6
10565.3
9307.8
8222.8
7196.17
6400.53
5645.59
5096.31
4573.36
4187.75
3836.7
3558.54
3328.37
3121.42
2970.1
2822.91
2721.02
2637.89
2578.92
2537.08
2509.15
2495.98
2491.14
2495.45
2502.95
2516.39
2531.76
2551.85
2573.78
2597.1
2624.54
2653.94
2686.31
2718.43
2747.58
2777.65
2799.44
2821.41
2832.73
2843.18
2854.63
2868.61
2874.18
2876.07
2878.37
2878.84
2874.56
2867.61
2860.17
2852.58
2842.19
2828.2
2810.57
2792.05
2775.4
2758.16
2738.44
2715.78
2692.39
2671.54
2650.41
2627.62
2604.29
2581.89
2558.82
2534.37
2510.18
2488.17
2465.72
2442.25
2418.44
2394.85
2371.52
2348.38
2324.97
2301.97
2278.78
2255.03
2232.89
2211.74
2191.12
2170.24
2150.08
2130.1
2109.85
2089.33
2068.64
2048.23
2028.15
2007.89
1990.03
1972.44
1956.46
1940.61
1925.89
1911.64
1897.85
1884.07
1870.34
1856.77
1842.82
1828.67
1814.34
1800.4
1786.43
1772.95
1759.56
1746.81
1734.37
1721.96
1709.86
1697.93
1685.99
1674.53
1662.91
1651.54
1640.39
1629.48
1618.66
1608.22
1597.75
1587.74
1577.79
1568.2
1558.85
1549.77
1541.06
1532.47
1524.24
1516.14
1508.27
1500.6
1492.99
1485.63
1478.2
1470.98
1463.79
1456.8
1449.9
1443.09
1436.42
1429.76
1423.34
1416.94
1410.77
1404.77
1398.92
1393.3
1387.79
1382.55
1377.39
1372.46
1367.64
1362.99
1358.5
1354.06
1349.87
1345.6
1341.29
1337.06
1332.86
1328.7
1324.51
1320.38
1316.33
1312.35
1308.61
1304.88
1301.44
1298.04
1294.98
1291.95
1289.29
1286.61
1284.13
1281.72
1279.2
1276.65
1274.22
1271.78
1269.37
1267
1264.63
1262.28
1259.93
1257.61
1255.3
1253.08
1250.91
1248.85
1246.86
1244.99
1243.2
1241.51
1239.9
1238.36
1236.83
1235.34
1233.84
1232.38
1230.91
1229.52
1228.2
1226.3
115.302
382.03
808.782
1312.9
1797.01
2247.53
2668.53
3068.49
3457.03
3840.6
4223.84
4609.3
4997.46
5387.78
5780.18
6182.55
6601.46
7050.21
7545.98
8097.36
8704.35
9386.38
10126
10925.5
11755.5
12573.6
13401.9
14114.6
14617.8
14918.8
14768.2
14311.3
13350.5
12018.3
10553.5
8993.46
7696.3
6438.6
5436.69
4586.86
3881.26
3349.12
2893.28
2566.17
2277.06
2072.05
1892.1
1755.84
1641.06
1544.9
1469.32
1400.5
1353.01
1309.44
1280.18
1253.27
1239.2
1228.7
1225.61
1228.8
1234.85
1246.03
1260.42
1279.57
1302.1
1328.89
1359.66
1393.38
1431.26
1471.19
1512.97
1556.29
1597.99
1640.92
1679.56
1714.82
1750.38
1789.1
1826.22
1860.34
1891.75
1924.36
1952.75
1977.69
1999.82
2022.86
2043.17
2061.83
2075.17
2085.58
2095.19
2104.9
2113.62
2118.47
2120.68
2123.06
2126.01
2126.34
2125.49
2124.05
2121.63
2117.26
2111.6
2105.63
2099.08
2091.35
2082.39
2072.71
2062.6
2052.16
2041.28
2030.15
2018.67
2006.55
1994.28
1982.53
1970.67
1958.68
1946.57
1934.62
1922.19
1909.12
1895.54
1881.52
1867.22
1852.58
1839.5
1826.3
1814.64
1802.86
1791.97
1781.27
1771.16
1760.89
1750.73
1740.5
1730.1
1719.22
1708.09
1697.05
1685.93
1675.02
1664.19
1653.75
1643.56
1633.35
1623.38
1613.42
1603.57
1594
1584.3
1574.71
1565.27
1556.02
1546.83
1537.87
1528.93
1520.24
1511.65
1503.24
1495.07
1487.05
1479.36
1471.72
1464.39
1457.14
1450.06
1443.16
1436.28
1429.64
1422.92
1416.31
1409.74
1403.33
1397.02
1390.76
1384.61
1378.49
1372.51
1366.61
1360.87
1355.31
1349.86
1344.64
1339.51
1334.62
1329.79
1325.18
1320.64
1316.28
1312.02
1307.84
1303.86
1299.84
1295.75
1291.76
1287.79
1283.86
1279.92
1276.02
1272.2
1268.44
1264.91
1261.38
1258.11
1254.87
1251.93
1249.02
1246.46
1243.87
1241.48
1239.15
1236.72
1234.26
1231.92
1229.58
1227.29
1225.05
1222.82
1220.62
1218.41
1216.24
1214.07
1211.98
1209.94
1208
1206.14
1204.37
1202.69
1201.11
1199.62
1198.2
1196.81
1195.45
1194.07
1192.72
1191.35
1190.05
1188.77
1187.01
144.531
457.34
928.659
1421.86
1882.9
2306.9
2701.22
3078.9
3451.05
3822.29
4195.43
4573.33
4955.96
5341.52
5729.8
6128.33
6543.84
6990.73
7488.48
8045.22
8649.82
9323.86
10053.7
10825.7
11617.6
12324.5
12979.7
13412.2
13425.5
13190.4
12459
11299.3
9835.46
8208.31
6818.58
5442.98
4443.33
3528.67
2878.84
2354.54
1970.25
1686.62
1471.53
1321.1
1194.46
1111.84
1031.12
972.777
914.979
870.227
828.317
792.401
764.216
736.683
714.82
692.581
674.734
659.881
647.85
641.584
635.072
632.515
631.879
633.919
637.978
645.12
655.083
667.659
683.609
702.072
723.403
747.216
772.907
800.758
829.418
858.981
890.002
923.987
959.362
995.719
1031.68
1069.22
1105.8
1142.36
1176.58
1211.99
1246.17
1280.7
1312.26
1340.99
1368.65
1396.79
1424.97
1450.62
1473.38
1494.07
1514.82
1534.46
1552.16
1568.16
1583.3
1596.98
1607.92
1618.64
1627.85
1636.9
1643.6
1649.4
1654.52
1659.24
1663.34
1666.89
1670.07
1671.67
1672.21
1672.17
1671.64
1670.6
1669.14
1667.34
1665.02
1661.74
1657.49
1652.17
1646.04
1639.18
1632.37
1625.24
1618.89
1612.41
1606.48
1600.52
1595.16
1589.69
1584.39
1579.04
1573.61
1567.66
1561.35
1554.75
1547.85
1540.78
1533.59
1526.51
1519.54
1512.48
1505.54
1498.51
1491.53
1484.72
1477.79
1470.8
1463.86
1456.98
1450.13
1443.37
1436.61
1429.93
1423.33
1416.75
1410.34
1404
1397.9
1391.79
1385.92
1380.06
1374.35
1368.74
1363.13
1357.67
1352.18
1346.69
1341.24
1335.89
1330.61
1325.37
1320.17
1314.99
1309.89
1304.86
1299.93
1295.16
1290.47
1285.98
1281.55
1277.33
1273.14
1269.14
1265.17
1261.38
1257.62
1253.98
1250.47
1246.94
1243.35
1239.83
1236.35
1232.9
1229.44
1226.01
1222.64
1219.32
1216.2
1213.07
1210.16
1207.26
1204.64
1202.02
1199.72
1197.4
1195.24
1193.15
1190.97
1188.77
1186.66
1184.58
1182.54
1180.55
1178.59
1176.65
1174.72
1172.8
1170.89
1169.04
1167.23
1165.52
1163.88
1162.32
1160.85
1159.47
1158.19
1156.98
1155.8
1154.65
1153.49
1152.34
1151.17
1150.02
1148.88
1147.35
172.374
519.293
1012.92
1488.32
1923.58
2318.22
2689.95
3048.1
3399.97
3751.08
4106.3
4468.74
4837.88
5211.28
5589.24
5979.2
6389.16
6830.35
7317.85
7863.33
8454.78
9103.01
9810.45
10542
11254.2
11779.1
12138.4
12101.7
11690.2
10898.1
9613.41
8059.1
6537.16
5069.24
3969.93
3006.12
2352.19
1818.07
1475.11
1211.75
1046.95
920.261
836.541
778.376
732.648
702.403
670.602
644.946
617.02
593.819
569.427
548.039
526.879
504.982
485.43
465.479
448.35
433.568
420.786
411.486
402.494
395.854
388.886
384.16
379.347
376.515
374.729
374.45
375.339
377.18
380.303
384.703
390.266
397.192
405.107
414.196
424.608
436.955
451.104
467.122
484.525
503.777
524.462
546.68
569.977
594.968
621.263
649.166
677.756
706.43
735.366
765.251
795.827
826.881
857.345
886.258
915.069
944.163
972.329
999.25
1024.64
1050.39
1073.7
1096.81
1118.51
1140.62
1160.82
1179.48
1197.25
1214.39
1230.95
1246.68
1261.52
1275.24
1287.19
1298.28
1308.56
1317.91
1327.25
1335.64
1344.2
1351.09
1357.67
1361.98
1365.95
1367.42
1368.93
1369.06
1369.28
1369.17
1369.08
1368.95
1369.09
1369.26
1369.62
1370.06
1370.73
1370.64
1370.25
1369.42
1368.08
1366.27
1364.07
1361.63
1359.03
1356.28
1353.42
1350.41
1347.28
1344.12
1340.85
1337.44
1333.93
1330.33
1326.67
1322.94
1319.13
1315.27
1311.37
1307.4
1303.44
1299.45
1295.56
1291.63
1287.81
1283.93
1280.14
1276.33
1272.51
1268.73
1264.93
1261.06
1257.19
1253.37
1249.56
1245.76
1241.95
1238.13
1234.3
1230.52
1226.77
1223.14
1219.56
1216.13
1212.73
1209.49
1206.25
1203.16
1200.06
1197.13
1194.17
1191.35
1188.6
1185.83
1183.01
1180.22
1177.48
1174.75
1172.02
1169.3
1166.62
1163.96
1161.46
1158.93
1156.58
1154.23
1152.09
1149.94
1148.08
1146.2
1144.46
1142.78
1141.02
1139.23
1137.53
1135.84
1134.2
1132.62
1131.05
1129.51
1127.97
1126.44
1124.9
1123.4
1121.94
1120.56
1119.24
1117.99
1116.83
1115.75
1114.77
1113.86
1113
1112.15
1111.3
1110.44
1109.55
1108.66
1107.73
1106.55
198.292
567.062
1065.15
1518.21
1925.43
2301.41
2649.44
2981.07
3307.01
3633.39
3965.76
4307.27
4657.51
5014.1
5378.6
5759.55
6158.3
6584.28
7054.42
7581.36
8160.55
8802.97
9498.2
10170.4
10739.2
10989.3
10908.2
10517.9
9620.01
8283.53
6746.94
5174.71
3924.34
2873.89
2143.1
1582.03
1225.28
967.58
808.787
699.233
632.932
578.183
548.061
522.58
506.464
495.717
484.714
472.906
460.376
446.213
431.671
416.39
399.597
382.273
368.053
353.946
342.602
331.67
321.885
313.474
306.125
300.254
294.296
289.165
284.16
279.453
275.855
272.183
269.278
266.603
264.134
262.419
260.68
259.684
258.792
258.299
258.411
259.051
260.38
262.502
265.252
268.8
273.142
278.419
284.539
291.727
300.015
309.631
320.363
332.19
345.074
359.273
374.886
392.064
410.374
429.675
450.063
471.755
494.431
517.904
541.97
566.752
591.611
616.712
641.912
667.691
693.396
718.577
743.419
768.097
792.339
815.918
838.527
860.447
881.049
900.678
920.03
938.399
956.979
974.116
991.425
1006.55
1021.75
1034.09
1046.29
1055.4
1064.05
1070.99
1077.69
1083.66
1089.4
1094.93
1100.69
1106.56
1112.8
1119.26
1126.09
1132.69
1138.66
1144.11
1148.79
1152.87
1156.31
1159.27
1161.85
1164.14
1166.09
1167.84
1169.22
1170.47
1171.7
1172.52
1173.25
1173.67
1174.01
1174.01
1173.88
1173.57
1173.09
1172.42
1171.61
1170.66
1169.63
1168.51
1167.35
1166.08
1164.76
1163.36
1161.92
1160.4
1158.85
1157.2
1155.48
1153.73
1151.95
1150.13
1148.25
1146.3
1144.26
1142.19
1140.08
1138.03
1135.97
1134
1132.03
1130.14
1128.24
1126.41
1124.55
1122.78
1120.97
1119.23
1117.53
1115.83
1114.07
1112.33
1110.59
1108.84
1107.07
1105.28
1103.5
1101.73
1100.04
1098.33
1096.73
1095.11
1093.64
1092.17
1090.93
1089.68
1088.54
1087.45
1086.28
1085.08
1083.93
1082.8
1081.7
1080.65
1079.61
1078.59
1077.57
1076.55
1075.51
1074.48
1073.47
1072.54
1071.64
1070.82
1070.07
1069.39
1068.8
1068.3
1067.84
1067.39
1066.94
1066.47
1065.95
1065.4
1064.79
1064.07
220.648
597.374
1087.88
1517.18
1908.9
2261.68
2582.36
2884.91
3182.09
3480.9
3787.22
4104.28
4432.27
4769.85
5119.27
5482.65
5866.76
6277.42
6736.87
7270.42
7871.14
8533.85
9212.35
9769.53
10088.5
9970.81
9526.67
8642
7265.21
5677.26
4222.24
3005.66
2157.31
1527.86
1127.28
855.969
691.821
576.325
506.56
452.471
417.47
388.515
371.163
354.041
345.515
337.933
335.498
334.061
331.422
327.656
320.402
310.523
300.95
296.428
292.172
286.664
280.965
274.681
268.215
261.721
256.136
251.674
247.149
243.195
239.179
235.067
231.733
228.341
225.159
222.112
219.045
216.336
213.578
211.12
208.606
206.283
203.911
201.883
199.879
198.447
196.975
195.897
194.787
194.218
193.604
193.574
193.807
194.44
195.457
196.894
198.754
201.149
204.18
207.98
212.46
217.659
223.638
230.566
238.427
247.294
257.139
268.065
279.98
292.907
306.86
322.048
338.383
355.813
374.211
393.658
414.015
435.096
456.725
478.7
500.739
522.775
544.969
567.332
590.065
612.177
634.587
655.289
676.147
694.433
712.416
727.881
742.332
755.297
767.821
779.531
791.058
802.282
813.793
825.339
837.209
848.972
860.949
872.778
883.832
894.393
904.191
913.285
921.699
929.575
936.892
943.912
950.468
956.798
962.765
968.554
974.415
979.777
984.935
989.672
994.188
998.329
1002.2
1005.7
1008.99
1011.89
1014.64
1017.03
1019.37
1021.39
1023.45
1025.15
1026.87
1028.29
1029.74
1030.94
1032.17
1033.19
1034.11
1034.94
1035.71
1036.37
1036.9
1037.29
1037.5
1037.62
1037.62
1037.6
1037.53
1037.45
1037.34
1037.22
1037.06
1036.89
1036.65
1036.41
1036.1
1035.78
1035.45
1035.13
1034.75
1034.36
1033.96
1033.53
1033.06
1032.55
1031.99
1031.4
1030.8
1030.17
1029.55
1028.91
1028.33
1027.74
1027.32
1026.9
1026.55
1026.24
1025.88
1025.47
1025.07
1024.68
1024.31
1023.98
1023.66
1023.34
1023
1022.64
1022.25
1021.84
1021.43
1021.07
1020.74
1020.46
1020.22
1020.05
1019.96
1019.95
1019.98
1020.04
1020.09
1020.09
1020.03
1019.91
1019.67
1019.57
240.591
614.913
1086.11
1502.98
1874.66
2202.63
2495.39
2768.37
3035.46
3305.15
3583.76
3874.59
4178.81
4497.48
4824.36
5167.51
5542.4
5960.15
6443.52
7020.49
7673.55
8350.61
8954.82
9282.7
9238.23
8786.39
7864.71
6426.38
4852.45
3425.96
2393.02
1643.3
1163.9
847.273
655.161
529.756
448.131
391.052
351.289
316.383
288.031
264.059
243.22
223.055
208
195.089
186.744
182.342
183.862
188.615
196.437
207.014
219.787
235.997
240.639
239.273
236.968
234.067
230.555
226.702
223.172
219.897
216.514
213.6
210.539
207.329
204.473
201.536
198.628
195.848
193.032
190.494
187.917
185.497
183.032
180.652
178.233
175.976
173.692
171.692
169.674
167.819
165.928
164.231
162.502
160.953
159.38
158.083
156.795
155.731
154.64
153.791
152.934
152.509
152.125
152.083
152.213
152.594
153.268
154.287
155.653
157.431
159.631
162.302
165.489
169.314
173.809
179.083
185.129
192.075
199.943
208.744
218.469
229.107
240.596
252.953
266.292
280.705
296.195
312.621
329.887
347.686
365.936
383.862
401.96
419.033
435.616
451.361
466.874
481.828
496.897
511.936
527.372
543.043
559.155
575.035
591.123
607.042
622.251
637.001
651.143
664.604
677.392
689.68
701.322
712.677
723.472
733.989
744.145
753.774
763.283
772.301
781.059
789.39
797.464
805.11
812.519
819.412
826.135
832.319
838.422
843.987
849.605
854.825
860.104
864.852
869.645
874.003
878.407
882.462
886.556
890.41
894.134
897.718
901.219
904.592
907.78
910.804
913.561
916.188
918.6
920.975
923.162
925.364
927.388
929.436
931.282
933.145
934.781
936.442
937.903
939.333
940.685
942.083
943.331
944.601
945.838
947.053
948.204
949.253
950.232
951.105
951.934
952.646
953.321
953.914
954.506
955.07
955.686
956.321
956.989
957.672
958.355
958.926
959.505
960.076
960.654
961.25
961.845
962.424
962.961
963.453
963.875
964.256
964.621
964.997
965.391
965.814
966.266
966.763
967.314
967.924
968.585
969.283
969.968
970.569
971.067
971.512
971.781
972.389
257.061
615.723
1074.89
1475.29
1826.23
2129.82
2395.36
2639.42
2876.62
3116.74
3367.62
3632.5
3913.66
4208.93
4514.53
4848.8
5239.75
5702.61
6250.52
6894.71
7598.26
8215.69
8622.15
8559.4
8175.53
7196.86
5727.95
4139.11
2879.25
1938.51
1329.07
933.035
689.784
539.45
444.511
379.403
331.421
292.839
260.809
232.626
208.781
187.855
170.417
154.811
142.48
131.686
123.292
116.785
114.203
115.351
118.552
124.482
133.042
144.4
157.836
171.93
190.361
199.518
199.563
198.458
196.685
194.38
191.797
189.6
187.301
184.936
182.552
180.013
177.531
175.107
172.632
170.423
168.182
166.026
163.823
161.708
159.578
157.571
155.534
153.637
151.719
149.948
148.151
146.475
144.782
143.185
141.561
140.075
138.589
137.222
135.835
134.49
133.125
131.915
130.71
129.639
128.544
127.584
126.616
125.847
125.064
124.486
123.897
123.546
123.184
123.135
123.25
123.582
124.143
124.993
126.159
127.676
129.554
131.826
134.497
137.622
141.301
145.629
150.671
156.454
163
170.276
178.226
186.734
195.715
205.043
214.707
224.683
235.023
245.761
257.058
268.971
281.692
295.182
309.571
324.575
340.291
356.421
372.741
389.104
405.248
421.107
436.531
451.722
466.413
480.946
495.009
508.829
522.379
535.36
548.074
560.333
572.342
583.921
595.259
606.109
616.747
626.792
636.667
645.906
655.051
663.556
672.036
679.818
687.672
694.915
702.222
709.024
715.884
722.383
728.895
735.229
741.431
747.496
753.525
759.526
765.27
770.848
776.06
781.154
785.919
790.672
795.123
799.606
803.801
808.031
811.968
815.945
819.594
823.278
826.677
830.041
833.249
836.523
839.599
842.705
845.748
848.755
851.704
854.513
857.236
859.787
862.256
864.55
866.753
868.821
870.831
872.75
874.69
876.595
878.518
880.41
882.328
884.1
885.867
887.599
889.325
891.054
892.764
894.435
896.041
897.567
898.999
900.354
901.667
902.958
904.254
905.555
906.871
908.207
909.574
910.982
912.435
913.926
915.396
916.749
917.957
919.1
920.009
921.538
270.52
610.515
1054.34
1436.98
1767.7
2048.42
2288.25
2504.66
2713.49
2925.62
3150.15
3390.88
3650.16
3923.74
4222.86
4576.24
5024.56
5572.41
6190.65
6879.99
7578.7
7973.42
7964.22
7530.95
6581.46
5135.71
3629.82
2446.55
1646.03
1121.36
798.349
600.864
478.467
399.521
344.427
302.756
268.115
238.213
211.856
188.872
169.173
152.228
137.798
125.479
115.311
106.999
100.281
94.5967
90.7268
88.7873
87.5639
87.53
89.0644
93.4587
100.659
110.525
122.983
136.591
149.596
166.284
171.247
170.592
169.256
167.652
165.912
164.143
162.26
160.163
158.24
156.268
154.216
152.383
150.519
148.676
146.795
144.989
143.247
141.586
139.888
138.235
136.557
135.026
133.483
132.05
130.603
129.228
127.83
126.519
125.198
123.974
122.74
121.504
120.248
119.066
117.875