/*--------------------------------*- C++ -*----------------------------------*\
| =========                 |                                                 |
| \\      /  F ield         | OpenFOAM: The Open Source CFD Toolbox           |
|  \\    /   O peration     | Version:  2312                                  |
|   \\  /    A nd           | Website:  www.openfoam.com                      |
|    \\/     M anipulation  |                                                 |
\*---------------------------------------------------------------------------*/
FoamFile
{
    version     2.0;
    format      ascii;
    arch        "LSB;label=32;scalar=64";
    class       volScalarField;
    location    "0.002";
    object      nut;
}
// * * * * * * * * * * * * * * * * * * * * * * * * * * * * * * * * * * * * * //

dimensions      [0 2 -1 0 0 0 0];

internalField   nonuniform List<scalar> 
48128
(
1.76982e-07
2.58445e-07
1.00462e-06
9.59345e-06
4.18517e-05
0.000101708
0.000165402
0.000221269
0.000268124
0.000306907
0.000339996
0.000369319
0.000395781
0.000421031
0.000445811
0.000470668
0.000496008
0.000522216
0.000549698
0.000578951
0.000611929
0.000648198
0.000688183
0.000731285
0.000780183
0.000833366
0.000891617
0.000953707
0.00102076
0.00109344
0.00117023
0.00124941
0.00133157
0.00140741
0.00147834
0.00154019
0.00159407
0.00162954
0.00165827
0.00167179
0.00168351
0.00170128
0.00173058
0.00175778
0.00178093
0.00179119
0.00179474
0.0017945
0.00179104
0.00178673
0.00177935
0.00177068
0.00175927
0.00166737
0.00155704
0.00146029
0.00137291
0.00129511
0.00122668
0.00116345
0.00110677
0.00105462
0.00100793
0.000963983
0.000924661
0.000888976
0.000854825
0.000825116
0.000796383
0.000770694
0.000746928
0.000724498
0.000704244
0.000683826
0.000664269
0.000655631
0.000641706
0.000624613
0.000609111
0.000603064
0.000592547
0.000579631
0.000568008
0.000563527
0.000555829
0.00054684
0.000539106
0.000531577
0.000524562
0.000521069
0.000515889
0.000510155
0.000504002
0.000498621
0.000496336
0.000492488
0.000487705
0.000483403
0.000480851
0.00047755
0.000473646
0.000470184
0.000468696
0.000466197
0.000463236
0.000460526
0.000458496
0.000456231
0.000454039
0.000451819
0.000449642
0.000447649
0.000445625
0.000443783
0.000442805
0.000441623
0.000440356
0.000439132
0.000437838
0.00043641
0.000434806
0.000433313
0.000432163
0.000431304
0.000430566
0.000429974
0.000430226
0.000429953
0.000429817
0.000429589
0.000429211
0.000428642
0.00042782
0.000426856
0.000425836
0.000424677
0.000423507
0.000422383
0.000421514
0.000420852
0.00042031
0.000419958
0.000419538
0.000419243
0.00041885
0.000418427
0.000417972
0.000417485
0.000417056
0.000416576
0.000416039
0.000415614
0.000415173
0.000414764
0.0004144
0.000414067
0.000413755
0.000413509
0.000413234
0.000412997
0.000412742
0.000412529
0.000412288
0.000412047
0.000411788
0.000411514
0.00041123
0.000410916
0.000410612
0.000410291
0.000409946
0.000409662
0.00040938
0.00040913
0.000408902
0.000408703
0.000408514
0.000408354
0.000408219
0.000408095
0.000407997
0.000407895
0.000407809
0.000407709
0.000407615
0.000407509
0.000407396
0.000407276
0.000407153
0.000407016
0.000406875
0.000406718
0.000406506
0.000406241
0.000406016
0.000405807
0.000405627
0.000405467
0.000405338
0.000405266
0.000405213
0.000405201
0.000405185
0.000405168
0.00040514
0.000405093
0.000405024
0.000404937
0.000404816
0.000404631
0.000404454
0.000404263
0.000403958
0.000403825
0.000403695
0.000403576
0.000403489
0.000403412
0.000403345
0.000403281
0.000403218
0.000403155
0.000403089
0.000403017
0.00040294
0.000402856
0.000402767
0.000402675
0.000402578
0.000402479
0.000402378
0.000402277
0.000402176
0.000402077
0.000401979
0.000401885
0.00040179
0.000401704
0.000401589
0.00040134
1.38001e-06
4.6714e-06
1.50631e-05
5.04172e-05
0.000129433
0.000258591
0.00043454
0.000629747
0.000844308
0.00106851
0.00129462
0.00151878
0.0017399
0.00196394
0.00219635
0.0024393
0.00270284
0.00298903
0.00330522
0.00365102
0.00405115
0.00447611
0.00497654
0.00549473
0.00605901
0.00665428
0.00728218
0.00793009
0.00843907
0.00897931
0.00951396
0.0100152
0.010481
0.0109008
0.0112984
0.0116207
0.0119163
0.0120737
0.0122143
0.0122292
0.0122345
0.0121771
0.012087
0.0119711
0.0118301
0.0116539
0.0114532
0.0112461
0.0110372
0.0108367
0.0106272
0.0104204
0.0102032
0.0100076
0.00981302
0.00961471
0.00942645
0.00922645
0.00903649
0.00884227
0.00866723
0.00848468
0.00831758
0.00814457
0.00797712
0.00782586
0.00766474
0.00751738
0.00736608
0.00722388
0.00708624
0.00695145
0.00682486
0.00670178
0.00658986
0.0064774
0.00636296
0.00624665
0.00614755
0.00605697
0.00596329
0.00586762
0.00578352
0.00570786
0.00563056
0.00555197
0.0054802
0.00541286
0.0053517
0.00529153
0.00523066
0.00517032
0.00510991
0.0050592
0.00500894
0.00495798
0.0049065
0.004858
0.00481312
0.00476822
0.00472302
0.00468208
0.00464353
0.00460414
0.00456495
0.00452692
0.00449267
0.00445765
0.00442465
0.00439175
0.00435991
0.0043273
0.00429681
0.00426475
0.00423586
0.0042084
0.0041808
0.00415552
0.00413051
0.00410581
0.00408051
0.00405569
0.00402931
0.00400562
0.00398149
0.00395899
0.00394216
0.00392625
0.00391199
0.00389361
0.00387081
0.00384674
0.00382756
0.00381164
0.00379486
0.00377871
0.00376305
0.00374636
0.00372954
0.00371101
0.00369224
0.00367262
0.00365395
0.00363461
0.0036163
0.00359759
0.00358028
0.00356297
0.0035464
0.00353062
0.00351539
0.00350052
0.00348617
0.00347191
0.00345804
0.00344435
0.00343111
0.0034177
0.00340471
0.0033924
0.0033799
0.00336845
0.00335703
0.00334628
0.00333597
0.00332619
0.00331678
0.00330806
0.00329992
0.00329149
0.00328438
0.00327694
0.00327015
0.00326347
0.00325708
0.00325087
0.00324477
0.00323871
0.00323267
0.00322652
0.00322044
0.00321423
0.00320855
0.00320255
0.00319699
0.00319161
0.00318622
0.00318107
0.00317599
0.0031714
0.00316689
0.00316248
0.003159
0.0031557
0.00315246
0.00314961
0.00314666
0.00314361
0.00314038
0.00313732
0.00313309
0.0031295
0.00312576
0.00312189
0.00311802
0.00311427
0.00311083
0.00310742
0.00310428
0.00310234
0.0031003
0.00309859
0.00309765
0.00309603
0.00309469
0.00309335
0.00309164
0.00308995
0.00308799
0.00308594
0.00308371
0.00308142
0.00307907
0.00307676
0.00307447
0.00307229
0.00307018
0.0030682
0.00306627
0.00306439
0.00306256
0.00306075
0.00305897
0.00305723
0.00305552
0.00305392
0.00305235
0.00305087
0.00304975
0.0030484
3.88836e-06
3.41286e-05
8.17723e-05
0.000202582
0.000439625
0.000859211
0.00147704
0.00220069
0.00298874
0.00377777
0.00452722
0.00522262
0.00587134
0.00649297
0.00708244
0.00766981
0.00827397
0.00889948
0.00956238
0.0102657
0.0110234
0.0118127
0.0126489
0.013479
0.0143277
0.0151734
0.0159748
0.0167455
0.0174267
0.0181044
0.0187392
0.0192901
0.0197574
0.0201134
0.0204354
0.0206135
0.0207498
0.0207006
0.0206141
0.0204043
0.0201697
0.0198982
0.0195815
0.019254
0.0188985
0.0185254
0.0181496
0.017778
0.0174152
0.0170661
0.01672
0.0163891
0.0160536
0.0157412
0.015423
0.0151142
0.0148052
0.0145124
0.0142229
0.0139391
0.0136759
0.0134157
0.0131714
0.0129327
0.0126982
0.0124818
0.0122615
0.0120552
0.0118472
0.0116488
0.0114559
0.0112684
0.0110871
0.0109112
0.0107467
0.0105948
0.0104357
0.0102732
0.0101184
0.00998906
0.0098534
0.00971564
0.00958266
0.00947154
0.00935641
0.00923858
0.00912687
0.00902168
0.00892591
0.00883411
0.0087391
0.00864224
0.0085482
0.00846179
0.0083822
0.00830001
0.00821642
0.00813529
0.00806175
0.00798745
0.00791271
0.00784159
0.0077762
0.00770833
0.00764084
0.00757401
0.00751341
0.0074513
0.00739245
0.00733301
0.00727547
0.00721679
0.00716024
0.00710401
0.00705033
0.00699861
0.00694639
0.00689779
0.00684979
0.00680179
0.00675309
0.00670419
0.00665626
0.00660997
0.00656562
0.00652288
0.00648557
0.00645003
0.00641667
0.00638734
0.00635983
0.00633454
0.00630956
0.00628489
0.00625999
0.00623377
0.00620689
0.0061794
0.00615169
0.00612419
0.00609679
0.00607043
0.00604453
0.0060196
0.00599506
0.00597102
0.00594757
0.00592376
0.00590142
0.00587927
0.00585701
0.00583577
0.00581447
0.00579351
0.00577283
0.00575276
0.00573316
0.00571433
0.00569579
0.00567836
0.00566111
0.00564468
0.00562889
0.0056136
0.00559956
0.00558586
0.00557315
0.00556044
0.00554811
0.00553573
0.00552328
0.00551136
0.00549963
0.00548806
0.00547686
0.00546572
0.00545483
0.00544397
0.00543337
0.0054229
0.00541262
0.00540264
0.00539302
0.0053836
0.00537461
0.00536606
0.00535786
0.00535022
0.00534299
0.0053363
0.00532976
0.00532397
0.00531787
0.00531195
0.0053059
0.00529963
0.00529311
0.00528635
0.00527942
0.00527243
0.00526535
0.00525827
0.00525151
0.0052453
0.00523961
0.00523428
0.00522985
0.00522567
0.00522252
0.00521907
0.00521637
0.00521338
0.00521052
0.00520768
0.00520464
0.00520147
0.00519803
0.00519444
0.0051906
0.00518668
0.00518252
0.00517842
0.00517426
0.00517041
0.00516657
0.00516308
0.00515965
0.00515654
0.00515348
0.00515061
0.00514774
0.00514499
0.00514218
0.00513955
0.00513684
0.0051345
0.00513198
0.00513012
0.00512799
0.00512579
1.15031e-05
0.000109208
0.000252528
0.000573101
0.00117709
0.00221888
0.0035511
0.00501485
0.00643834
0.00772557
0.0088676
0.00989883
0.0108098
0.0116519
0.0124428
0.0132146
0.0139878
0.0147747
0.0155909
0.0164341
0.0173082
0.0181971
0.0190983
0.0199771
0.0208291
0.0216296
0.0223635
0.0230339
0.0236152
0.024152
0.0246107
0.0249431
0.0251581
0.0252159
0.0252417
0.0250955
0.0248995
0.0245177
0.0239165
0.0233004
0.02279
0.0223411
0.0218524
0.0214795
0.0209828
0.0205779
0.0200532
0.0196893
0.0192976
0.0188546
0.0185647
0.01824
0.0179377
0.0176144
0.0172852
0.0169847
0.0166731
0.0164002
0.0161229
0.0158611
0.0156093
0.0153733
0.0151431
0.0149301
0.0147208
0.0145212
0.0143287
0.0141427
0.0139595
0.0137806
0.0136068
0.0134387
0.0132712
0.0131112
0.0129462
0.0128196
0.0126836
0.0125388
0.0123878
0.0122736
0.0121524
0.0120251
0.0118932
0.0117921
0.0116863
0.0115767
0.011467
0.0113654
0.011263
0.0111776
0.0110869
0.0109928
0.010901
0.0108081
0.0107317
0.010651
0.010568
0.0104843
0.0104108
0.0103359
0.0102596
0.0101833
0.0101172
0.0100474
0.00997732
0.00990636
0.00984174
0.00977616
0.00971242
0.00964847
0.00958494
0.00952144
0.00945813
0.009397
0.00933798
0.00928101
0.00922315
0.00916897
0.00911499
0.00906036
0.00900438
0.00894749
0.00889279
0.0088382
0.00878773
0.00873762
0.0086941
0.00865199
0.0086129
0.00857776
0.00854493
0.00851325
0.00848202
0.00845081
0.00841961
0.00838657
0.00835259
0.00831786
0.00828273
0.00824848
0.0082142
0.00818122
0.00814901
0.00811783
0.00808719
0.00805688
0.00802743
0.00799714
0.00796877
0.00794015
0.00791114
0.0078836
0.00785565
0.00782852
0.00780121
0.00777499
0.00774901
0.00772431
0.00769964
0.00767663
0.0076536
0.0076318
0.00761068
0.00759013
0.00757099
0.00755202
0.00753451
0.00751664
0.0074995
0.00748201
0.00746438
0.00744731
0.00743045
0.00741377
0.00739764
0.0073815
0.00736595
0.00735032
0.0073353
0.0073203
0.00730588
0.00729167
0.00727813
0.00726478
0.00725201
0.00723991
0.00722837
0.00721747
0.00720712
0.00719736
0.00718782
0.0071793
0.00717031
0.00716143
0.0071524
0.00714313
0.00713361
0.00712386
0.00711392
0.00710408
0.00709418
0.00708434
0.00707508
0.00706646
0.00705856
0.00705114
0.00704465
0.00703863
0.00703391
0.0070287
0.00702436
0.00701975
0.00701522
0.00701079
0.00700624
0.00700162
0.00699688
0.006992
0.00698695
0.00698185
0.00697647
0.00697121
0.0069658
0.00696085
0.00695583
0.00695132
0.00694679
0.0069428
0.00693882
0.00693523
0.00693155
0.00692814
0.00692454
0.00692123
0.00691771
0.00691475
0.0069115
0.00690921
0.00690659
0.00690387
2.65531e-05
0.000247416
0.000577496
0.00124126
0.00244742
0.00422138
0.00618784
0.00812363
0.0098897
0.0114506
0.0128419
0.014031
0.0150859
0.0160485
0.0169385
0.0177912
0.0186257
0.0194581
0.0202991
0.0211474
0.0220006
0.0228452
0.0236688
0.0244332
0.0251397
0.0257774
0.0263315
0.0267954
0.0271274
0.0273489
0.0274613
0.0272739
0.0264465
0.0255849
0.024664
0.0238277
0.0230348
0.0221652
0.0214964
0.0207431
0.020208
0.0196472
0.0190442
0.0185917
0.0180395
0.0176225
0.0171255
0.0167803
0.0164308
0.0160731
0.0158225
0.0155537
0.015344
0.0151731
0.015052
0.014989
0.0149334
0.0148803
0.0149119
0.0148973
0.0148403
0.0148101
0.0147984
0.0147926
0.0147424
0.014612
0.0144911
0.0143691
0.0142517
0.0141332
0.0140168
0.0139023
0.0137868
0.0136712
0.0135445
0.0134632
0.0133745
0.0132747
0.0131604
0.0130835
0.0130003
0.0129093
0.012807
0.0127348
0.0126614
0.0125836
0.0125023
0.0124233
0.0123395
0.0122779
0.0122132
0.0121452
0.0120739
0.0119977
0.0119408
0.0118816
0.011819
0.0117527
0.0116956
0.0116386
0.0115786
0.0115153
0.0114634
0.0114104
0.011355
0.0112976
0.0112446
0.0111918
0.0111392
0.0110869
0.0110337
0.0109811
0.0109282
0.0108758
0.0108266
0.0107795
0.0107312
0.0106859
0.01064
0.0105933
0.0105446
0.0104946
0.0104463
0.0103974
0.0103528
0.0103077
0.0102695
0.0102332
0.0102
0.0101697
0.0101421
0.0101149
0.0100883
0.0100606
0.0100335
0.0100037
0.00997298
0.00994062
0.00990777
0.0098759
0.00984378
0.0098129
0.00978289
0.00975374
0.00972529
0.00969675
0.00966939
0.00964058
0.00961384
0.00958638
0.00955828
0.00953168
0.0095045
0.00947818
0.00945157
0.00942591
0.00940044
0.0093762
0.00935203
0.00932937
0.00930689
0.00928554
0.00926498
0.00924483
0.00922604
0.0092073
0.00918999
0.0091722
0.00915511
0.0091374
0.00911948
0.00910197
0.00908458
0.00906729
0.00905038
0.00903342
0.00901706
0.00900055
0.00898482
0.00896895
0.00895394
0.00893897
0.00892497
0.00891101
0.00889788
0.00888539
0.00887366
0.00886245
0.00885197
0.0088421
0.00883236
0.0088238
0.00881466
0.00880546
0.00879608
0.00878642
0.00877638
0.00876609
0.00875559
0.00874525
0.00873476
0.00872455
0.00871503
0.00870612
0.00869807
0.00869054
0.00868408
0.00867807
0.00867371
0.00866841
0.00866448
0.00865993
0.00865534
0.00865091
0.00864642
0.00864189
0.00863728
0.00863259
0.00862776
0.00862295
0.00861783
0.00861291
0.00860774
0.00860316
0.00859842
0.00859437
0.00859017
0.00858674
0.00858321
0.00858032
0.00857723
0.00857458
0.00857155
0.00856892
0.00856587
0.00856355
0.00856076
0.00855912
0.00855718
0.0085555
5.01076e-05
0.000457946
0.0010838
0.00221524
0.00413216
0.00637605
0.00872293
0.0109261
0.0128923
0.0146395
0.0161417
0.0174203
0.0185564
0.0195739
0.0204969
0.0213591
0.0221781
0.0229724
0.0237513
0.0245122
0.0252502
0.0259535
0.026597
0.0271697
0.0276617
0.0280321
0.0282937
0.0284444
0.0276872
0.026838
0.0258241
0.0247755
0.0235537
0.0224226
0.0213318
0.0202304
0.0195226
0.0185029
0.0178638
0.0169842
0.0163923
0.0156826
0.0150403
0.0144696
0.0139178
0.0134976
0.0131174
0.0127785
0.0125236
0.012248
0.0120432
0.0118564
0.0116759
0.0116404
0.0115428
0.0115953
0.0116124
0.0115921
0.0117141
0.0117189
0.0118089
0.011818
0.0119526
0.0120016
0.0121697
0.0122457
0.0123448
0.0124919
0.0125656
0.0127064
0.0127828
0.0128974
0.0129821
0.0129434
0.0128888
0.0128757
0.012854
0.0128195
0.0127676
0.0127424
0.0127137
0.0126754
0.0126241
0.0125939
0.012566
0.0125333
0.0124968
0.012455
0.0124074
0.0123795
0.0123512
0.0123189
0.0122813
0.0122368
0.0122073
0.0121785
0.0121457
0.0121081
0.0120767
0.0120464
0.0120124
0.0119739
0.0119442
0.0119162
0.0118847
0.0118509
0.0118186
0.0117874
0.0117551
0.0117235
0.01169
0.0116574
0.0116239
0.0115892
0.0115585
0.0115298
0.0115
0.0114715
0.0114424
0.0114124
0.0113798
0.0113461
0.0113122
0.0112785
0.0112474
0.0112153
0.0111907
0.0111672
0.0111469
0.0111279
0.0111121
0.0110962
0.011081
0.0110637
0.0110476
0.0110285
0.0110084
0.0109861
0.0109632
0.0109409
0.0109183
0.0108967
0.0108756
0.0108552
0.0108357
0.0108155
0.0107964
0.0107759
0.0107568
0.010737
0.0107165
0.010697
0.010677
0.0106574
0.0106377
0.0106187
0.0105996
0.0105816
0.0105637
0.0105469
0.0105304
0.0105148
0.0105
0.0104855
0.0104721
0.0104586
0.0104463
0.0104336
0.0104213
0.0104084
0.0103951
0.010382
0.0103688
0.0103557
0.0103426
0.0103294
0.0103167
0.0103036
0.0102915
0.0102789
0.0102674
0.0102557
0.0102451
0.0102345
0.0102248
0.0102156
0.0102072
0.0101992
0.010192
0.0101854
0.0101788
0.0101732
0.0101672
0.010161
0.0101543
0.0101474
0.0101402
0.0101325
0.0101245
0.0101167
0.0101087
0.010101
0.0100941
0.0100876
0.0100821
0.010077
0.0100732
0.0100696
0.010068
0.0100651
0.0100638
0.0100617
0.0100594
0.0100572
0.010055
0.0100528
0.0100504
0.010048
0.0100454
0.010043
0.0100401
0.0100375
0.0100346
0.0100323
0.0100298
0.0100281
0.0100261
0.0100251
0.0100238
0.0100235
0.0100228
0.0100227
0.0100221
0.0100219
0.0100211
0.0100211
0.0100204
0.010021
0.0100213
0.0100228
8.08028e-05
0.000737436
0.00175628
0.00344199
0.00581959
0.00838433
0.0109548
0.0133037
0.0153891
0.0172558
0.0187934
0.0201334
0.0213059
0.0223355
0.0232449
0.0240635
0.0248106
0.0255055
0.0261576
0.0267638
0.027317
0.0278012
0.0282143
0.0285188
0.0287245
0.0280766
0.0269991
0.0261421
0.0249445
0.0238196
0.0224782
0.0211804
0.0198507
0.0185454
0.0177363
0.0164851
0.01585
0.0146551
0.0139008
0.0129227
0.012168
0.0114132
0.0108424
0.0103086
0.009925
0.00954285
0.00930084
0.0089954
0.0088549
0.00864411
0.00852943
0.00844711
0.00830614
0.00838344
0.00828899
0.0084077
0.00842014
0.00846067
0.00857328
0.00858491
0.0087459
0.00879941
0.00895256
0.00903665
0.00918957
0.00928505
0.0094586
0.00960883
0.00974831
0.00992
0.0100595
0.0102204
0.0103783
0.0105501
0.0107275
0.0106671
0.0107527
0.010974
0.0111771
0.0111321
0.0111979
0.01139
0.0115584
0.011501
0.0115378
0.011637
0.0116558
0.0116665
0.0116699
0.0116832
0.0116985
0.0117099
0.0117145
0.011712
0.0117163
0.0117235
0.0117274
0.0117264
0.0117271
0.0117295
0.0117281
0.0117232
0.0117216
0.0117234
0.0117214
0.0117173
0.0117118
0.0117068
0.0117005
0.0116945
0.0116863
0.0116792
0.0116698
0.011659
0.0116514
0.011646
0.0116392
0.0116322
0.0116251
0.0116173
0.0116063
0.0115945
0.0115806
0.0115672
0.011554
0.0115401
0.0115325
0.0115252
0.0115211
0.011517
0.011516
0.0115149
0.0115148
0.0115125
0.0115108
0.0115071
0.0115022
0.0114948
0.0114869
0.011479
0.0114705
0.0114626
0.0114547
0.0114475
0.0114411
0.0114334
0.0114269
0.011419
0.0114117
0.011404
0.0113956
0.0113876
0.0113792
0.0113708
0.0113624
0.0113542
0.0113458
0.0113382
0.0113305
0.0113237
0.0113171
0.0113112
0.011306
0.0113008
0.0112965
0.0112921
0.0112883
0.0112844
0.0112805
0.0112763
0.0112714
0.0112666
0.0112614
0.0112562
0.0112509
0.0112453
0.01124
0.0112342
0.0112292
0.0112237
0.0112192
0.0112145
0.0112107
0.011207
0.0112039
0.0112014
0.0111994
0.011198
0.011197
0.0111966
0.0111962
0.0111966
0.0111966
0.0111964
0.0111955
0.0111942
0.0111927
0.0111907
0.0111882
0.0111859
0.0111835
0.0111811
0.0111796
0.0111783
0.0111781
0.011178
0.0111794
0.0111807
0.0111841
0.0111861
0.0111898
0.0111925
0.0111948
0.0111973
0.0111996
0.011202
0.0112042
0.0112065
0.0112083
0.0112105
0.011212
0.011214
0.0112153
0.0112174
0.0112191
0.0112218
0.0112241
0.0112274
0.0112304
0.0112345
0.0112381
0.0112426
0.0112463
0.0112506
0.0112539
0.0112581
0.0112613
0.0112658
0.0112699
0.0112772
0.000115823
0.00107053
0.00253519
0.00470134
0.00736316
0.0101366
0.0128271
0.015256
0.0174245
0.019328
0.0208978
0.0222716
0.023453
0.0244648
0.0253256
0.0260605
0.0266909
0.0272366
0.0277076
0.0281005
0.0284065
0.028619
0.0287435
0.0276233
0.0265396
0.0252843
0.0240114
0.0230223
0.0216085
0.0203248
0.018812
0.0174093
0.0164538
0.0151185
0.0145444
0.0131187
0.0122725
0.0110514
0.0102847
0.00942482
0.00877964
0.00811426
0.007723
0.00724538
0.00700063
0.00664248
0.00650904
0.0062313
0.0061922
0.00601624
0.00599609
0.00599003
0.00588602
0.00599567
0.00594136
0.00603331
0.0059956
0.00614497
0.00622651
0.00626065
0.00641824
0.00649644
0.0066214
0.00670445
0.00682008
0.00689583
0.0070595
0.00715349
0.00728061
0.00742419
0.00754881
0.00769553
0.00783376
0.00799702
0.00815559
0.00821756
0.00829153
0.00843758
0.00864693
0.00873906
0.00884081
0.00898186
0.00917895
0.00925979
0.00933663
0.00944525
0.00960255
0.00976353
0.00988504
0.00991441
0.00997648
0.0100717
0.0102274
0.0103604
0.0103768
0.0104344
0.0105335
0.0106665
0.0107252
0.0107931
0.0108555
0.0108917
0.0109246
0.0109609
0.0109929
0.0110227
0.0110491
0.0110744
0.0110985
0.0111219
0.011143
0.011165
0.0111835
0.0112013
0.0112203
0.0112415
0.0112611
0.01128
0.0112983
0.011316
0.0113307
0.0113439
0.0113539
0.0113634
0.0113713
0.0113779
0.0113888
0.0113995
0.0114133
0.0114263
0.0114418
0.0114573
0.011474
0.011489
0.0115044
0.0115181
0.0115308
0.0115413
0.0115509
0.01156
0.0115681
0.0115762
0.011584
0.0115923
0.0116012
0.0116087
0.011617
0.0116242
0.0116314
0.0116384
0.0116447
0.0116508
0.0116566
0.0116623
0.0116676
0.0116731
0.0116779
0.0116834
0.0116885
0.0116941
0.0116998
0.011706
0.0117127
0.0117193
0.0117265
0.0117335
0.0117408
0.011748
0.011755
0.0117619
0.0117679
0.0117739
0.0117793
0.0117847
0.0117899
0.0117946
0.0117996
0.0118037
0.0118086
0.0118128
0.0118179
0.0118229
0.0118285
0.0118342
0.0118405
0.0118471
0.011854
0.0118616
0.0118692
0.0118774
0.0118855
0.0118942
0.0119025
0.0119106
0.0119178
0.0119247
0.0119313
0.0119374
0.011943
0.0119487
0.0119541
0.0119596
0.0119659
0.0119721
0.0119794
0.0119866
0.0119954
0.0120037
0.0120142
0.0120232
0.0120339
0.0120434
0.0120525
0.0120617
0.0120707
0.0120798
0.0120886
0.0120976
0.012106
0.0121148
0.0121228
0.0121312
0.0121388
0.0121472
0.0121551
0.012164
0.0121723
0.0121819
0.012191
0.0122013
0.0122111
0.0122219
0.0122317
0.0122422
0.0122516
0.0122617
0.0122706
0.0122807
0.0122903
0.0123057
0.000152401
0.00143651
0.0033357
0.00583424
0.00869149
0.0116007
0.0143451
0.016812
0.0190269
0.0209403
0.0225387
0.0239286
0.0251022
0.0260744
0.0268576
0.0274739
0.0279461
0.0282945
0.0285288
0.0286463
0.028667
0.0274372
0.0261397
0.0246639
0.0234913
0.0222053
0.0208534
0.019788
0.0181543
0.0168135
0.015648
0.0144135
0.0138439
0.0123883
0.0115667
0.0102155
0.00937071
0.00830236
0.00759794
0.00684593
0.00631209
0.0057507
0.00553425
0.00514289
0.00505202
0.00477698
0.00477101
0.00457743
0.00462967
0.004498
0.00455641
0.00455325
0.00452269
0.00445637
0.0044123
0.00437099
0.00435797
0.00434714
0.00436144
0.00438284
0.00441679
0.0044574
0.00450958
0.00457395
0.0046486
0.00473495
0.00483302
0.00494105
0.00506033
0.00518921
0.00532539
0.00546898
0.00561673
0.00577346
0.00592426
0.00607119
0.00622454
0.006392
0.00655959
0.0066731
0.00675703
0.00686075
0.00701114
0.00711415
0.00718896
0.00728043
0.00741928
0.00757394
0.00771928
0.00780177
0.0078775
0.00797412
0.00812457
0.00827525
0.0083653
0.00844748
0.00855935
0.00869834
0.00881071
0.00891027
0.0090274
0.00915369
0.0092298
0.00930736
0.00939588
0.00951296
0.009604
0.0096734
0.00975121
0.00984225
0.00995553
0.0100609
0.0101744
0.0102837
0.0103473
0.0103992
0.0104499
0.0104984
0.0105461
0.0105922
0.0106351
0.0106761
0.0107124
0.0107473
0.0107778
0.0108078
0.0108389
0.0108697
0.0109026
0.0109351
0.0109686
0.0110024
0.0110368
0.0110706
0.0111041
0.0111368
0.0111681
0.0111977
0.0112263
0.0112537
0.0112799
0.0113058
0.0113309
0.0113562
0.0113816
0.0114059
0.0114305
0.011454
0.0114775
0.0115005
0.0115229
0.0115448
0.0115662
0.0115874
0.0116078
0.0116284
0.011648
0.0116679
0.0116872
0.0117067
0.0117261
0.0117457
0.0117657
0.0117854
0.0118055
0.0118254
0.0118452
0.0118651
0.0118843
0.0119037
0.0119223
0.0119405
0.0119582
0.0119757
0.0119932
0.0120098
0.0120267
0.0120426
0.012059
0.0120747
0.012091
0.0121072
0.012124
0.0121408
0.012158
0.0121756
0.0121932
0.0122112
0.0122292
0.0122475
0.0122658
0.0122842
0.0123027
0.0123205
0.0123376
0.0123544
0.0123708
0.0123869
0.0124024
0.0124177
0.012433
0.0124481
0.0124639
0.0124793
0.0124958
0.0125119
0.0125296
0.0125467
0.0125657
0.0125834
0.0126026
0.0126206
0.0126381
0.0126556
0.012673
0.0126904
0.0127075
0.0127249
0.0127416
0.0127587
0.0127749
0.0127914
0.0128069
0.0128232
0.0128388
0.0128555
0.0128715
0.0128888
0.0129055
0.0129235
0.0129411
0.0129597
0.0129774
0.0129957
0.0130127
0.0130303
0.0130466
0.0130636
0.0130801
0.0131057
0.000188479
0.00179054
0.00408064
0.00680517
0.00979459
0.0127659
0.0155204
0.0179996
0.0202501
0.0221854
0.0238103
0.0252033
0.0263528
0.0272612
0.0279332
0.0283889
0.0286524
0.0287467
0.0286832
0.0275428
0.026154
0.0244058
0.0230023
0.0216345
0.0204745
0.0191429
0.0177749
0.0167145
0.0152729
0.0141188
0.0135827
0.0122855
0.0115279
0.0101503
0.00910907
0.00792753
0.0070368
0.00612949
0.00548951
0.00488691
0.00453743
0.00414654
0.00402959
0.00387334
0.00391612
0.0038838
0.00374564
0.00362208
0.00349508
0.00339599
0.00330034
0.00321901
0.0031581
0.0030968
0.00305123
0.00300326
0.00296752
0.00293982
0.00292024
0.00291848
0.00291725
0.0029257
0.00294467
0.00296646
0.00299836
0.00303499
0.00307972
0.00313333
0.00319679
0.00326779
0.00334707
0.00343373
0.00352651
0.00362585
0.00372964
0.00383869
0.0039539
0.0040777
0.0042097
0.00434458
0.00448514
0.00463062
0.00477776
0.0049307
0.00508005
0.00523669
0.00539308
0.00555738
0.00571684
0.00587085
0.00602453
0.00618308
0.00632317
0.00645234
0.0065598
0.00663795
0.00672362
0.00683692
0.00695873
0.00705649
0.00715703
0.00728486
0.00738157
0.00747382
0.00756324
0.00768356
0.00780032
0.00788411
0.00798832
0.00810109
0.00823378
0.00835723
0.00848553
0.00862502
0.00871478
0.00879654
0.00887718
0.00894787
0.00904464
0.00913822
0.00925695
0.00938149
0.00950016
0.0096149
0.00972713
0.00980029
0.00984885
0.00988005
0.00989165
0.00992993
0.00995529
0.00998138
0.0100165
0.0100807
0.0101328
0.0102181
0.0102997
0.0104274
0.0105181
0.0106014
0.0106607
0.0107068
0.010751
0.0107949
0.0108379
0.0108805
0.0109223
0.0109632
0.0110039
0.0110441
0.0110835
0.0111222
0.01116
0.0111976
0.0112341
0.0112706
0.0113058
0.0113413
0.0113756
0.01141
0.0114439
0.0114779
0.0115119
0.0115458
0.0115796
0.0116132
0.0116464
0.0116798
0.0117122
0.0117449
0.0117766
0.0118079
0.0118388
0.0118694
0.0118999
0.0119295
0.0119592
0.0119878
0.0120166
0.0120447
0.0120734
0.0121017
0.0121306
0.0121594
0.0121886
0.0122179
0.0122473
0.0122767
0.0123061
0.0123355
0.0123649
0.0123942
0.0124237
0.0124523
0.0124803
0.0125081
0.0125355
0.0125627
0.0125892
0.0126155
0.0126416
0.0126675
0.0126939
0.0127197
0.0127465
0.0127726
0.0128002
0.0128271
0.0128557
0.0128831
0.0129118
0.0129394
0.0129666
0.0129936
0.0130205
0.0130475
0.0130741
0.013101
0.0131273
0.0131538
0.0131795
0.0132053
0.0132301
0.0132553
0.0132799
0.0133055
0.0133304
0.0133565
0.0133821
0.013409
0.0134355
0.0134631
0.0134899
0.0135172
0.0135432
0.0135695
0.0135945
0.0136198
0.0136442
0.0136817
0.000221715
0.00211122
0.00472227
0.00760398
0.0106616
0.0136395
0.0164225
0.0189346
0.0212023
0.0231435
0.0247759
0.0261541
0.0272576
0.0280711
0.0285898
0.0288306
0.0288215
0.0282
0.0264633
0.0244976
0.022913
0.0213819
0.0200379
0.0187431
0.0177428
0.0165354
0.0153173
0.0143284
0.0135862
0.012514
0.0119866
0.0106803
0.00955621
0.00838747
0.00714844
0.00610648
0.00509816
0.00435935
0.00374792
0.00331672
0.00307536
0.00288886
0.00278208
0.00280096
0.00289334
0.00289318
0.00280963
0.00274013
0.00266238
0.00259949
0.00253295
0.00247904
0.0024263
0.00236981
0.002323
0.00227375
0.00223507
0.00220444
0.00218114
0.00217008
0.00216065
0.00215901
0.00215619
0.00216157
0.00216459
0.00217636
0.00218742
0.00220804
0.00222789
0.00225348
0.00228077
0.00231319
0.00234794
0.0023872
0.00243008
0.00247685
0.00252816
0.00258586
0.00264969
0.00271973
0.00279483
0.00287649
0.00296361
0.00305614
0.00315481
0.00325956
0.00337101
0.00348783
0.00361062
0.00373539
0.00386678
0.00400171
0.00414322
0.00428879
0.00443762
0.00458332
0.00473306
0.00488729
0.00504168
0.00519496
0.0053451
0.00550169
0.00565034
0.0058018
0.00594921
0.00610196
0.00623307
0.00631618
0.00642066
0.00652126
0.00663559
0.00674684
0.00685828
0.00698051
0.00707653
0.00715585
0.00724013
0.00731996
0.00742606
0.00753221
0.00765266
0.00778289
0.00791829
0.00804398
0.00818263
0.00827373
0.0083455
0.00840003
0.00843472
0.00848772
0.00852325
0.00856384
0.00860909
0.00867602
0.0087378
0.0088325
0.00893872
0.00907314
0.00917517
0.00928403
0.00938432
0.00947151
0.00955589
0.00962961
0.00970529
0.00978341
0.0098566
0.00993435
0.0100009
0.0100746
0.010152
0.0102268
0.0103027
0.0103797
0.0104521
0.0105268
0.0105967
0.0106665
0.0107322
0.0107978
0.0108594
0.0109185
0.0109765
0.0110339
0.0110883
0.0111367
0.0111839
0.0112312
0.0112774
0.0113237
0.0113691
0.0114141
0.0114587
0.0115028
0.011547
0.0115901
0.0116333
0.0116752
0.0117171
0.0117582
0.0117996
0.0118406
0.0118822
0.0119235
0.0119654
0.0120069
0.0120487
0.01209
0.0121315
0.0121725
0.0122136
0.0122544
0.0122954
0.0123353
0.0123748
0.0124142
0.0124532
0.012492
0.0125302
0.0125682
0.0126058
0.0126432
0.0126807
0.0127176
0.0127551
0.0127919
0.0128299
0.0128671
0.012906
0.0129437
0.0129826
0.0130205
0.0130579
0.0130952
0.0131323
0.0131695
0.0132064
0.0132436
0.0132803
0.013317
0.013353
0.0133889
0.0134237
0.0134587
0.0134931
0.0135283
0.0135629
0.0135987
0.013634
0.0136705
0.0137068
0.0137442
0.013781
0.0138181
0.0138542
0.0138901
0.0139248
0.0139591
0.0139923
0.014043
0.000251621
0.0023838
0.00524296
0.00822155
0.011293
0.0143146
0.0171092
0.0196177
0.0218708
0.023811
0.0254402
0.0267898
0.027824
0.0285064
0.0288193
0.0287517
0.0270988
0.0253626
0.0232295
0.0213544
0.0199634
0.0185302
0.0174772
0.0164801
0.0158112
0.014818
0.0138217
0.0131113
0.0127148
0.0115423
0.0106082
0.00941634
0.00805481
0.00689191
0.00551809
0.00464774
0.00369746
0.00319486
0.00261701
0.0023418
0.00211765
0.00200994
0.00197126
0.001982
0.00208362
0.00220851
0.00223527
0.00218887
0.00214522
0.00210197
0.00206174
0.00202248
0.00197973
0.00193553
0.00190723
0.00187996
0.00186437
0.00185052
0.0018406
0.0018342
0.00183097
0.00183144
0.00183097
0.00183271
0.00183341
0.00183497
0.0018389
0.00184259
0.00184841
0.00185429
0.00186101
0.00186964
0.00187854
0.00188899
0.0019008
0.00191195
0.00192792
0.00194343
0.00196294
0.00198343
0.00200704
0.0020326
0.00206171
0.00209446
0.00213042
0.00217045
0.0022148
0.00226422
0.00231806
0.00237636
0.00243938
0.00250817
0.00258329
0.00266525
0.0027526
0.00284504
0.00294441
0.00304919
0.00316072
0.00327605
0.00339884
0.0035242
0.00365575
0.00378907
0.00392872
0.00407089
0.00421857
0.00436585
0.00451718
0.0046701
0.00482417
0.00497864
0.00513166
0.005285
0.00543465
0.00558187
0.00573057
0.00587603
0.00602572
0.00615074
0.00626555
0.00638338
0.0065107
0.00662133
0.00674454
0.0068454
0.00691031
0.00696707
0.00701796
0.00707319
0.0071207
0.00716998
0.00722844
0.00730177
0.0073766
0.0074792
0.00758815