/*--------------------------------*- C++ -*----------------------------------*\
| =========                 |                                                 |
| \\      /  F ield         | OpenFOAM: The Open Source CFD Toolbox           |
|  \\    /   O peration     | Version:  2312                                  |
|   \\  /    A nd           | Website:  www.openfoam.com                      |
|    \\/     M anipulation  |                                                 |
\*---------------------------------------------------------------------------*/
FoamFile
{
    version     2.0;
    format      ascii;
    arch        "LSB;label=32;scalar=64";
    class       volScalarField;
    location    "0.002";
    object      omega;
}
// * * * * * * * * * * * * * * * * * * * * * * * * * * * * * * * * * * * * * //

dimensions      [0 0 -1 0 0 0 0];

internalField   nonuniform List<scalar> 
48128
(
2.04369e+06
2.04844e+06
2.05182e+06
2.06987e+06
2.09768e+06
2.15037e+06
2.22167e+06
2.29787e+06
2.37147e+06
2.4347e+06
2.48294e+06
2.51865e+06
2.54608e+06
2.56167e+06
2.56962e+06
2.5718e+06
2.56792e+06
2.55846e+06
2.54375e+06
2.5234e+06
2.49574e+06
2.46513e+06
2.4325e+06
2.39622e+06
2.35872e+06
2.32082e+06
2.28441e+06
2.25037e+06
2.21862e+06
2.19344e+06
2.17314e+06
2.15948e+06
2.15233e+06
2.14651e+06
2.14211e+06
2.13698e+06
2.13023e+06
2.11598e+06
2.10024e+06
2.07662e+06
2.05569e+06
2.04718e+06
2.04793e+06
2.05011e+06
2.05131e+06
2.04329e+06
2.03121e+06
2.0174e+06
2.00212e+06
1.98714e+06
1.97062e+06
1.9538e+06
1.93559e+06
1.91703e+06
1.89736e+06
1.87635e+06
1.85621e+06
1.8346e+06
1.81415e+06
1.79315e+06
1.77425e+06
1.75475e+06
1.73705e+06
1.71884e+06
1.70107e+06
1.68514e+06
1.66874e+06
1.65368e+06
1.63846e+06
1.62417e+06
1.61082e+06
1.59753e+06
1.58585e+06
1.57385e+06
1.56554e+06
1.55499e+06
1.54386e+06
1.53219e+06
1.52499e+06
1.51626e+06
1.50725e+06
1.49776e+06
1.49201e+06
1.48501e+06
1.47789e+06
1.47055e+06
1.46496e+06
1.45915e+06
1.45524e+06
1.45049e+06
1.44553e+06
1.44084e+06
1.436e+06
1.43333e+06
1.42983e+06
1.42614e+06
1.42216e+06
1.41971e+06
1.41683e+06
1.41388e+06
1.41072e+06
1.40908e+06
1.40685e+06
1.40444e+06
1.40194e+06
1.40009e+06
1.39826e+06
1.39638e+06
1.39477e+06
1.39321e+06
1.39189e+06
1.39076e+06
1.38965e+06
1.38899e+06
1.38824e+06
1.38739e+06
1.38649e+06
1.38561e+06
1.38469e+06
1.38384e+06
1.38302e+06
1.38259e+06
1.38233e+06
1.38231e+06
1.38214e+06
1.3823e+06
1.38199e+06
1.38152e+06
1.38081e+06
1.37986e+06
1.37868e+06
1.37729e+06
1.37585e+06
1.37447e+06
1.37322e+06
1.37199e+06
1.37111e+06
1.37042e+06
1.37018e+06
1.36999e+06
1.37e+06
1.36994e+06
1.36989e+06
1.36971e+06
1.36947e+06
1.36917e+06
1.36882e+06
1.36846e+06
1.36811e+06
1.36772e+06
1.3674e+06
1.36716e+06
1.36693e+06
1.36676e+06
1.3666e+06
1.36647e+06
1.36636e+06
1.36622e+06
1.36605e+06
1.36585e+06
1.36561e+06
1.36531e+06
1.36495e+06
1.36455e+06
1.36411e+06
1.36364e+06
1.36317e+06
1.36268e+06
1.36226e+06
1.36181e+06
1.36145e+06
1.36116e+06
1.36091e+06
1.36074e+06
1.36062e+06
1.36056e+06
1.36053e+06
1.36055e+06
1.36057e+06
1.36059e+06
1.3606e+06
1.36059e+06
1.36053e+06
1.36044e+06
1.3603e+06
1.36011e+06
1.35988e+06
1.3596e+06
1.35929e+06
1.35894e+06
1.35856e+06
1.35816e+06
1.35773e+06
1.35739e+06
1.35713e+06
1.35697e+06
1.3569e+06
1.35689e+06
1.35697e+06
1.35709e+06
1.35719e+06
1.35725e+06
1.35725e+06
1.35716e+06
1.35699e+06
1.35672e+06
1.35637e+06
1.35593e+06
1.35542e+06
1.35487e+06
1.3544e+06
1.35385e+06
1.35349e+06
1.35331e+06
1.35312e+06
1.35304e+06
1.35298e+06
1.35295e+06
1.35292e+06
1.35288e+06
1.35283e+06
1.35275e+06
1.35264e+06
1.35251e+06
1.35235e+06
1.35218e+06
1.35199e+06
1.35178e+06
1.35157e+06
1.35136e+06
1.35113e+06
1.35091e+06
1.35067e+06
1.35043e+06
1.35018e+06
1.34992e+06
1.34965e+06
1.34936e+06
1.34897e+06
1.34874e+06
731798
526457
746002
903274
998335
1.02135e+06
968770
916083
865035
823341
793120
772147
758071
748757
742732
738857
735726
733076
730723
728948
724804
722426
717309
714091
711757
710177
709177
708886
719904
730260
741559
754057
767335
780831
793697
805879
816240
825273
831960
837404
842196
848397
854491
858229
859495
858487
855835
851615
846208
839986
833242
825882
818054
809403
800044
790173
779753
769751
759340
748768
737982
727775
717338
707692
698141
688408
679638
670761
662409
654170
646267
638658
631199
623514
616798
612232
606884
600755
594567
590798
586434
581471
576386
573407
570000
566297
562399
558562
555182
553017
550631
548031
545252
542431
540883
539077
537089
534759
533336
531809
530161
528322
527429
526436
525317
524039
523085
522171
521225
520330
519367
518564
517692
517194
516743
516445
516145
515850
515571
515197
514841
514395
514200
514018
514062
514311
514629
514973
515323
515679
515996
516340
516437
516377
516297
516178
515915
515634
515297
515207
515105
515186
515300
515494
515685
515900
516129
516369
516631
516835
517016
517201
517401
517615
517852
518100
518370
518674
519005
519318
519694
520035
520439
520794
521163
521511
521824
522155
522409
522720
522922
523149
523340
523525
523706
523875
524031
524195
524362
524546
524744
524961
525165
525387
525604
525823
526031
526251
526438
526639
526825
526984
527177
527173
527193
527216
527235
527242
527260
527280
527360
527474
527603
527745
527903
528067
528247
528399
528554
528692
528721
528757
528621
528525
528443
528343
528273
528198
528148
528105
528077
528062
528063
528066
528077
528086
528099
528106
528116
528117
528118
528112
528104
528088
528069
528039
528017
527987
527933
527726
731236
357080
500988
583139
607550
576598
524169
482048
449867
428381
415777
409539
407176
406911
409381
412603
416453
420781
425452
430440
435534
441354
447309
454831
463226
472876
484385
497630
514295
531314
549635
568930
589113
609412
629024
647786
664715
679399
691071
700652
708131
713090
716238
716366
715312
712673
708771
703587
697325
690342
682591
674215
665295
656012
646293
636170
625635
615165
604415
593534
582525
571952
561290
551158
541239
531232
521824
512581
503606
494959
486505
478460
470496
462731
454858
449127
443060
436623
429769
424913
419828
414478
408763
404701
400527
396244
391839
387695
383502
380313
377062
373744
370378
366864
364290
361657
358962
356055
353742
351432
349086
346578
344705
342832
340939
338963
337222
335563
333898
332313
330707
329200
327708
326284
325017
323839
322691
321576
320535
319456
318435
317363
316430
315454
314675
313860
313329
312785
312348
311923
311578
311236
310866
310465
310060
309643
309149
308632
308075
307569
307031
306584
306138
305743
305378
305020
304711
304399
304116
303849
303563
303280
303029
302775
302553
302335
302129
301949
301790
301627
301520
301408
301350
301286
301238
301190
301136
301098
301051
301020
300974
300928
300878
300822
300761
300693
300619
300542
300469
300396
300336
300288
300239
300207
300180
300158
300134
300122
300100
300096
300087
300077
300071
300023
299964
299900
299831
299754
299673
299590
299514
299474
299445
299421
299416
299421
299439
299456
299483
299522
299518
299519
299449
299367
299282
299182
299087
298987
298893
298800
298717
298639
298574
298511
298460
298407
298364
298319
298279
298237
298198
298156
298115
298071
298028
297978
297935
297886
297846
297702
729902
328093
407932
439939
435231
397564
363982
336845
319450
310287
306602
305937
308128
311658
316316
321492
327186
333338
339965
347095
354896
363728
373679
385248
398371
413412
430208
448774
469840
491774
515415
540091
565880
591804
616308
639754
660310
678182
691981
703314
710949
714456
715462
713823
710517
705504
699537
692298
684043
675059
665253
654859
643951
632775
621224
609388
597146
585089
572827
560558
548302
536593
524938
513774
502881
491989
481664
471612
461822
452425
443217
434464
425806
417433
408819
402222
395441
388411
380975
375318
369580
363691
357483
352663
347900
343085
338207
333586
328871
325015
321199
317341
313493
309503
306274
303102
299892
296561
293669
290864
288035
285094
282649
280243
277856
275418
273184
271028
268908
266850
264824
262848
260947
259042
257319
255647
254029
252443
250948
249434
247984
246502
245138
243743
242497
241189
240150
239092
238168
237251
236460
235680
234928
234173
233451
232737
231986
231228
230451
229710
228948
228239
227530
226856
226206
225561
224958
224357
223783
223243
222689
222148
221639
221130
220653
220187
219726
219294
218877
218466
218097
217730
217408
217093
216796
216515
216231
215974
215715
215481
215240
215010
214789
214568
214351
214131
213911
213687
213471
213253
213048
212847
212653
212472
212291
212127
211961
211809
211651
211512
211372
211237
211112
210966
210824
210682
210537
210389
210235
210085
209931
209795
209672
209551
209447
209344
209265
209182
209114
209060
208996
208936
208840
208735
208627
208509
208388
208263
208137
208010
207888
207768
207658
207548
207449
207350
207261
207171
207089
207006
206928
206848
206773
206695
206621
206542
206471
206392
206330
206184
731115
316273
351509
360881
342715
313062
288355
271778
263051
259574
259059
261549
265533
270400
276034
282258
289023
296361
304445
313393
323536
335161
348415
363741
381013
400419
421700
444769
470672
498425
528385
559734
592231
625217
654685
683440
704144
722560
734120
743338
746842
746315
743486
738269
731568
723309
714123
703832
692644
680690
668326
655559
642750
629667
616508
603228
589425
576479
563260
550334
537292
525207
512976
501462
490131
478721
468140
457590
447549
437686
428156
419050
410055
401357
392316
385307
378226
370964
363286
357154
351138
345001
338557
333249
328177
323066
317900
312935
307848
303552
299405
295231
291064
286757
283096
279600
276073
272456
269183
266049
262913
259672
256848
254119
251420
248677
246109
243613
241180
238795
236467
234177
231976
229752
227721
225736
223819
221936
220148
218346
216611
214850
213198
211526
209981
208380
207025
205660
204425
203208
202105
201025
199981
198960
197968
197003
196013
195038
194046
193102
192143
191235
190330
189465
188618
187783
186977
186184
185410
184675
183929
183204
182507
181818
181153
180511
179868
179261
178661
178082
177526
176987
176479
175988
175515
175059
174610
174185
173764
173373
172978
172599
172232
171872
171522
171173
170831
170487
170154
169820
169500
169182
168876
168580
168287
168013
167736
167476
167212
166964
166722
166481
166260
166021
165798
165573
165353
165132
164907
164690
164467
164257
164061
163864
163682
163501
163341
163179
163032
162901
162765
162640
162497
162348
162200
162045
161889
161730
161570
161409
161250
161092
160942
160791
160651
160510
160380
160249
160127
160003
159888
159771
159660
159547
159439
159328
159224
159115
159021
158849
734292
303869
311559
309750
286677
263871
246265
236141
231646
230535
232314
236232
241139
246889
253347
260532
268348
276968
286644
297576
310123
324629
341287
360281
381573
405810
432431
460960
493057
527546
564336
602713
638529
674715
700894
727438
740767
754629
759892
763095
760299
754796
745706
734672
721646
707799
692840
677940
662737
646971
632610
617681
604629
590892
578541
566230
553403
542462
531106
520429
509339
499245
488713
479072
469389
459574
450361
440962
432031
423021
414280
405823
397404
389155
380516
373692
367034
360137
352832
346661
340813
334805
328519
323051
317976
312855
307676
302635
297478
293010
288807
284573
280312
275935
272070
268459
264809
261075
257619
254332
251046
247664
244616
241725
238844
235927
233151
230453
227830
225246
222730
220245
217850
215419
213191
211005
208907
206824
204847
202858
200936
198991
197141
195280
193536
191747
190184
188634
187186
185780
184457
183184
181933
180717
179515
178357
177176
176019
174847
173730
172603
171534
170471
169455
168457
167480
166520
165587
164660
163778
162888
162021
161179
160355
159546
158770
157988
157250
156511
155806
155108
154442
153798
153173
152569
151981
151405
150850
150301
149782
149264
148764
148276
147799
147335
146875
146427
145978
145545
145111
144694
144281
143880
143491
143107
142741
142374
142024
141674
141337
141012
140683
140382
140065
139764
139462
139171
138882
138591
138308
138023
137749
137488
137226
136978
136733
136504
136279
136066
135868
135669
135484
135288
135089
134896
134698
134502
134304
134108
133910
133716
133521
133333
133145
132967
132788
132621
132452
132293
132133
131982
131829
131684
131537
131397
131253
131118
130979
130852
130645
739967
290891
281926
272342
250538
232270
219551
212996
210710
210837
214086
218661
224265
230758
238008
246100
255013
265007
276399
289446
304528
322157
342319
365534
391388
421023
453760
488271
526236
566059
605072
645047
675021
706280
722268
739632
743120
742004
734625
723711
708519
691861
672231
654624
635580
618887
601124
585717
570416
554987
542152
528574
518022
506834
497810
489174
480450
473281
465847
458972
451579
444602
437215
430391
423504
416508
410031
403491
397302
391051
384874
378791
372638
366399
359847
354211
349051
343630
337829
332399
327366
322194
316795
311739
307108
302491
297811
293141
288388
284081
280129
276149
272115
267991
264169
260647
257099
253478
250031
246751
243492
240168
237063
234147
231252
228328
225506
222757
220081
217444
214868
212326
209856
207348
205030
202753
200576
198381
196302
194220
192195
190160
188184
186232
184372
182491
180800
179139
177570
176043
174584
173185
171800
170456
169108
167814
166494
165203
163899
162649
161399
160208
159024
157894
156782
155694
154620
153582
152536
151544
150544
149571
148619
147690
146773
145892
145007
144164
143323
142517
141720
140951
140205
139477
138772
138081
137406
136750
136103
135482
134863
134265
133676
133103
132542
131990
131450
130913
130393
129875
129373
128881
128398
127932
127470
127026
126585
126158
125738
125327
124931
124531
124159
123779
123409
123041
122686
122334
121983
121639
121299
120967
120647
120329
120024
119723
119437
119157
118889
118634
118381
118142
117898
117650
117411
117170
116934
116697
116463
116229
115999
115769
115546
115324
115110
114897
114695
114492
114300
114106
113922
113737
113560
113381
113209
113036
112870
112702
112545
112301
747505
277757
259721
245421
225254
210245
200619
196052
194750
195908
199741
204735
210864
217960
225915
234876
244909
256326
269562
284932
302801
323913
348029
376076
406908
441890
480063
518649
558092
598541
631232
665377
683044
701819
699535
694430
682709
666158
645672
622980
597061
573108
547315
526287
504053
486971
469141
455025
441381
428713
418523
407863
400502
393049
387723
382932
379124
376191
373098
370964
368583
366565
364298
362104
359719
357149
354533
351838
349070
346095
342914
339551
335942
332086
327959
323791
320040
316323
312393
308405
304698
300989
297124
293231
289567
286060
282473
278802
275046
271420
268040
264727
261326
257825
254412
251221
248088
244893
241732
238703
235716
232689
229773
227005
224301
221566
218881
216252
213679
211148
208648
206178
203762
201319
199004
196747
194574
192398
190301
188238
186207
184181
182197
180248
178357
176473
174735
173028
171420
169837
168320
166849
165405
163990
162576
161205
159817
158446
157073
155744
154427
153154
151895
150687
149500
148334
147185
146069
144951
143880
142804
141754
140725
139721
138732
137772
136818
135897
134987
134102
133237
132391
131572
130765
129983
129215
128465
127732
127009
126310
125613
124936
124267
123617
122978
122351
121735
121128
120534
119949
119376
118818
118267
117735
117208
116699
116196
115706
115226
114755
114298
113842
113410
112975
112545
112125
111711
111305
110902
110505
110115
109731
109361
108994
108640
108291
107956
107629
107314
107010
106710
106425
106136
105844
105564
105282
105006
104732
104463
104194
103930
103667
103412
103158
102912
102668
102434
102200
101977
101753
101539
101323
101117
100908
100709
100507
100313
100118
99932.2
99653.5
756571
265944
242463
225034
206755
193741
186023
182517
181692
183407
187404
192627
199085
206631
215215
225033
236221
249172
264504
282667
303637
328859
357393
390189
425546
463924
504515
543329
578076
613254
635084
655430
653442
647797
633729
613645
588297
558008
525620
494694
463630
439547
414682
396267
377238
363282
349032
338191
327777
318851
311397
304136
298879
293836
290140
286725
284352
282645
281010
280366
279582
279542
279498
279751
280106
280656
281326
282000
282839
283510
284105
284566
284505
284218
283505
282452
281207
279897
278316
276515
274606
272637
270470
268150
265766
263440
261030
258493
255828
253126
250530
248053
245508
242866
240179
237611
235133
232615
230065
227600
225166
222685
220208
217818
215495
213146
210777
208447
206144
203880
201615
199365
197152
194920
192735
190643
188583
186570
184577
182646
180740
178823
176948
175070
173247
171412
169713
168018
166441
164869
163373
161898
160478
159059
157666
156284
154915
153533
152151
150799
149463
148155
146872
145625
144405
143202
142022
140862
139715
138603
137491
136400
135332
134286
133258
132252
131262
130292
129342
128409
127499
126603
125735
124876
124043
123221
122418
121631
120855
120100
119350
118614
117889
117181
116485
115802
115128
114468
113817
113180
112552
111942
111338
110754
110175
109615
109060
108522
107991
107473
106966
106465
105982
105502
105025
104558
104099
103647
103200
102758
102325
101899
101486
101078
100683
100294
99917.9
99550.1
99195.4
98850.2
98509.8
98184.5
97856.3
97526.8
97208.4
96890.7
96579.7
96271.7
95970
95669.6
95375.4
95082.4
94797.7
94514.4
94240.5
93967.8
93705.7
93443.3
93192.1
92940
92698.7
92455.9
92222.8
91988
91762
91534.3
91315.2
91096
90883.9
90572.1
766825
255421
227577
208938
192239
180709
174043
171054
170422
172288
176202
181458
188062
195939
205125
215870
228388
243184
261076
282556
307287
336723
369512
405825
444215
484097
523190
558124
584039
610299
613248
610331
597944
577570
550893
515553
478839
439353
407159
377345
352295
333187
316186
304201
292410
283971
275284
268569
261791
256252
250979
246163
241986
237885
234273
230609
227373
224463
221848
219835
217696
216193
214584
213696
212776
212561
212709
213083
213842
214846
216130
217610
219170
220847
222386
223769
225095
226595
227893
229186
230022
230902
231448
231683
231608
231441
231069
230451
229542
228416
227179
225905
224545
223045
221423
219757
218092
216384
214613
212817
211022
209182
207310
205449
203629
201787
199902
198020
196136
194287
192423
190574
188741
186883
185008
183217
181419
179673
177929
176232
174552
172856
171160
169447
167756
166048
164446
162830
161341
159843
158431
157024
155690
154346
153039
151731
150440
149128
147806
146496
145193
143907
142647
141410
140205
139009
137841
136685
135546
134435
133332
132240
131170
130116
129083
128065
127068
126083
125121
124168
123240
122322
121430
120545
119686
118835
118006
117189
116385
115597
114818
114050
113291
112550
111817
111100
110389
109695
109006
108334
107669
107023
106381
105760
105143
104546
103953
103378
102808
102256
101709
101175
100652
100137
99625
99122.3
98628.1
98139.7
97658.7
97182.3
96715.7
96255.8
95810
95368.9
94940.7
94519.6
94110.6
93709.7
93322.2
92943.2
92569.5
92210.5
91849.3
91488.5
91138
90789.9
90448.7
90111.3
89781
89453.2
89132
88813
88502.3
88193.8
87894.6
87597.2
87309.9
87022.7
86746.3
86469.6
86203.6
85936.7
85679.3
85421.2
85171.3
84921.2
84678.7
84437.9
84202.8
83860.5
777456
245968
214498
195729
180422
169964
163797
160981
160358
162079
165738
170862
177488
185646
195498
207391
221680
238897
259900
285167
314018
347139
383572
422837
463358
502509
535336
563407
577241
581754
573690
557388
532697
497262
456310
410449
374851
338471
314384
292013
277704
265820
257471
251773
246537
242779
238679
235371
231755
228436
224808
221069
217154
213090
208966
204719
200597
196679
192921
189618
186284
183350
180358
177723
175251
173002
171311
169585
168473
167377
166743
166309
166216
166384
166705
167227
167951
168978
170248
171753
173365
175136
176967
178879
180670
182530
184296
186123
187712
189118
190175
191231
192079
192800
193200
193366
193336
193187
192858
192350
191696
190922
190024
189046
188010
186927
185758
184532
183262
181968
180648
179309
177954
176566
175146
173745
172330
170937
169548
168168
166795
165405
163995
162563
161110
159629
158200
156751
155398
154035
152751
151464
150254
149033
147856
146676
145513
144327
143130
141931
140729
139534
138352
137185
136045
134911
133802
132702
131615
130548
129495
128444
127414
126392
125393
124400
123429
122464
121522
120584
119670
118760
117876
116995
116140
115289
114462
113641
112838
112042
111260
110483
109715
108962
108215
107484
106759
106048
105342
104652
103967
103301
102637
101994
101353
100733
100115
99517.2
98921.1
98346.6
97773.3
97217.9
96670.5
96133.1
95597.9
95070.5
94552.8
94040.3
93536
93036.1
92546.1
92062.6
91593
91128.3
90676.2
90230.7
89797.2
89370.7
88957.6
88552.8
88153.5
87768.1
87381.4
86996.3
86620.6
86248.4
85882.7
85521.5
85167.4
84816.8
84473
84132.3
83799.6
83469.9
83149.1
82830.8
82521.8
82213.4
81915.1
81617.1
81329.4
81041.8
80763.1
80484.7
80214
79944.3
79681.6
79421.9
79167
78797.2
788061
237882
203159
184663
170498
160773
154855
151958
151207
152593
155885
160781
167392
175894
186632
200151
216852
237105
261761
291124
324249
361661
401879
443841
485654
518060
540740
558036
555473
546586
527625
497760
457103
407891
364340
322694
294276
268228
251933
238303
230743
224089
220957
218955
217767
217382
216848
216050
214605
212283
209372
205881
201844
197503
192978
188274
183763
179231
174881
170905
167193
163944
160732
157780
154990
152293
150011
147718
145681
143776
141930
140358
138767
137472
136149
135097
134036
133295
132648
132348
132161
132244
132483
132931
133560
134408
135459
136750
138203
139789
141460
143241
145120
147102
149086
151026
152853
154715
156430
158088
159457
160817
161831
162761
163390
164016
164367
164590
164576
164471
164244
163884
163403
162809
162117
161358
160548
159700
158816
157899
156949
155959
154925
153847
152725
151556
150378
149181
148033
146874
145765
144648
143596
142532
141520
140501
139514
138509
137493
136466
135428
134389
133351
132315
131295
130280
129277
128283
127294
126314
125356
124390
123444
122498
121573
120648
119741
118836
117952
117068
116204
115341
114500
113658
112842
112023
111228
110432
109657
108882
108123
107365
106613
105874
105139
104419
103702
102999
102297
101612
100927
100261
99593.8
98947.3
98300.2
97674.8
97048.3
96444.2
95839
95257.8
94675.1
94112
93555
93010.5
92466.8
91929.5
91401.2
90877.4
90360.9
89848.2
89344.7
88847.1
88362.8
87883.3
87416
86954.5
86505.1
86061.5
85631.6
85209.8
84793.7
84390.7
83986.7
83584.3
83190.6
82800.7
82416.5
82037.3
81664.2
81295.8
80933.7
80575.9
80225.2
79878.9
79540.2
79205.3
78878.2
78552.8
78236.3
77921.1
77615.3
77310.6
77014
76718.6
76430.4
76144.2
75864.6
75588.6
75317.1
74923.6
798049
230935
193320
175305
162014
152798
146956
143847
142839
143797
146681
151340
158014
167087
179138
194917
214802
238733
267819
302327
340739
383320
427558
470873
507434
527933
540653
539333
528625
506473
472506
424111
373441
325675
289939
260560
240088
222623
211105
200922
195157
190261
188963
189225
191005
193394
196483
198011
196960
194813
191932
187877
183271
179103
175029
170706
166575
162392
158414
154637
151223
148301
145438
142846
140382
137909
135782
133656
131653
129759
127868
126153
124418
122834
121225
119737
118226
116869
115503
114348
113176
112170
111150
110337
109515
108887
108293
107926
107644
107538
107586
107760
108100
108640
109352
110235
111280
112515
113914
115474
117153
118954
120818
122730
124655
126631
128574
130535
132360
134117
135749
137228
138530
139654
140558
141276
141843
142259
142558
142713
142686
142557
142304
141920
141418
140799
140101
139348
138564
137760
136948
136124
135334
134531
133759
132975
132210
131426
130623
129806
128973
128130
127277
126417
125558
124701
123843
122993
122140
121292
120468
119635
118812
117985
117170
116354
115548
114741
113948
113153
112371
111588
110822
110052
109303
108547
107812
107072
106353
105628
104923
104213
103508
102812
102121
101439
100761
100092
99424
98767.4
98109.9
97468
96823.1
96196.8
95567.7
94959.4
94348.1
93759
93166.6
92597.8
92026
91472.7
90922.9
90388.4
89852.5
89323.3
88800.7
88282.1
87768.6
87257.4
86754
86255.1
85768.3
85285.4
84814.3
84347.3
83892.7
83442.3
83005.9
82576.9
82154.2
81742.8
81332.2
80921.4
80518.4
80119.1
79724.5
79335
78950.4
78571.1
78197.4
77828.9
77466.5
77109.7
76758.9
76413
76073.3
75736.2
75406.1
75078.3
74758.1
74440
74129
73820
73517.5
73217.9
72924.6
72635.1
72350.1
71936.9
807212
225403
184745
167304
154706
145831
139960
136591
135237
135763
138273
142794
149750
159849
173865
192660
216613
245707
280662
321819
366691
414386
461664
497768
523299
531461
529252
517406
492766
452372
399776
345256
301750
266542
240807
220569
204904
192129
181784
172471
165034
158522
152718
146735
142409
138392
135909
135472
136651
139041
142212
146793
151471
154852
153565
151112
148507
145707
142862
140000
137394
135000
132575
130445
128361
126253
124368
122467
120640
118920
117191
115619
114029
112549
111050
109635
108204
106861
105504
104264
103011
101848
100668
99584.9
98487.5
97478.5
96455.4
95551.1
94641.1
93834.7
93017.8
92304.4
91587.6
91026.8
90484.4
90076.5
89693.6
89460.4
89299.9
89330.2
89450.5
89697.4
90076.9
90598.6
91267.3
92107.1
93115.3
94304.1
95650.7
97163.5
98821.7
100600
102465
104388
106334
108259
110200
112086
113981
115734
117409
118865
120188
121249
122146
122794
123262
123549
123730
123777
123750
123672
123560
123405
123216
122972
122687
122344
121939
121486
120990
120453
119885
119286
118666
118030
117379
116718
116046
115366
114694
114016
113338
112658
111978
111296
110615
109931
109251
108568
107890
107209
106540
105870
105211
104546
103894
103237
102597
101951
101321
100686
100055
99426.6
98804
98185.7
97571.4
96961.2
96351.8
95748.6
95144.6
94551.2
93954.5
93372.1
92786.7
92218.6
91647.4
91094.7
90537.9
90001.5
89461.1
88937.6
88413.4
87907.4
87397
86895
86397.2
85903.3
85412.5
84922
84437.6
83955.5
83483.4
83013.8
82554.4
82097.3
81651.5
81208.6
80778.8
80354.9
79938
79528.9
79124.3
78716.7
78316.4
77919
77525.2
77136.5
76751.2
76371.3
75995.9
75626.1
75261.4
74902.5
74548.2
74199.2
73854.9
73513.8
73177.5
72843.7
72515.6
72189.8
71869.7
71552.1
71240.4
70932
70629.8
70330.9
70036.3
69609.4
815089
220649
177311
160389
148391
139768
133819
130168
128482
128629
130896
135525
143179
154941
171851
194868
224705
260803
303493
352357
403691
454413
496000
519035
529915
526299
512944
483958
438560
380969
327666
284868
252475
228017
209289
194217
181487
170194
160025
150505
141779
133428
125718
118395
111997
105750
100197
95522.8
92124.1
91439.2
92812.9
96423
102187
109248
117382
123891
131268
130720
129273
127463
125439
123348
121225
119398
117594
115817
114136
112418
110785
109246
107695
106297
104885
103562
102220
100962
99696.7
98502.5
97293.2
96154.6
95003.6
93931
92845.4
91829
90802.5
89833.8
88852.5
87939.1
87018.9
86158.8
85288.7
84450.8
83603.4
82820.5
82034.2
81314.1
80586.4
79912.3
79247.9
78653.7
78077.4
77558.6
77077.1
76646.3
76275.8
75958.2
75744
75587.6
75594.8
75682.6
75876.7
76192
76631.3
77200.8
77896.2
78725.4
79704.8
80846.5
82154.4
83611.7
85199.2
86878.3
88615.9
90341.4
92080.3
93679.1
95240.5
96638.9
98001.6
99219.9
100444
101571
102721
103778
104856
105777
106659
107412
108026
108497
108849
109061
109192
109184
109123
109001
108818
108581
108291
107956
107582
107177
106748
106299
105832
105349
104850
104338
103814
103279
102736
102185
101629
101068
100513
99951.3
99396.3
98836.3
98286.5
97731.7
97188
96639.7
96095.2
95547.5
95008.6
94473.5
93942.3
93409.4
92877.1
92345.8
91813.8
91287.4
90758.3
90237.8
89715
89203.9
88690.4
88190.4
87686.7
87198.7
86707
86230
85749.7
85288.2
84821
84363.3
83907
83454.2
83003
82550.6
82102.5
81654.6
81214.5
80776
80345
79915.6
79494.9
79076.5
78668.9
78265.5
77868.5
77476.1
77089.8
76699.5
76315.5
75933.6
75554.2
75179.2
74806.4
74438
74073.1
73713.5
73357.9
73007.6
72660.8
72318.6
71980.2
71645
71313.3
70983.4
70657.4
70332.9
70012.4
69694.6
69381.5
69071.8
68767.6
68466.4
68168.4
67736.7
821800
217803
170982
154418
142960
134554
128517
124596
122628
122612
124834
129933
138956
153461
174776
204122
242163
287193
338461
394487
451275
494802
523760
530299
527796
512188
479781
428006
368522
315632
275291
244797
221521
203496
188838
176513
165399
155225
145712
136833
128497
120573
113010
105719
98710.6
92004.1
85615.4
79479.7
73778.7
69428.8
66633.6
64460.2
64362.1
66544.3
72075.8
80285.5
89860.4
100556
107679
113939
113287
112071
110514
108890
107222
105711
104235
102716
101355
100040
98708.6
97509.7
96296.6
95146.8
93981.2
92887.5
91808.8
90783.1
89740.8
88737.6
87721.2
86777.7
85825.6
84933.8
84033.6
83180.9
82317.6
81502.1
80679.7
79906
79126.2
78360.9
77585.6
76846.5
76100.4
75400.1
74692
74013.8
73330
72688.1
72041
71428.7
70810.6
70227.4
69637
69091
68539
68054.5
67565.3
67145.9
66723.3
66379.9
66032.7
65774.9
65512.4
65356.5
65202.1
65207.8
65278.4
65436.3
65693.5
66051.7
66505.3
67045.1
67661.8
68344.8
69095.4
69910.6
70796.6
71754.3
72803.3
73948.9
75207.7
76567.4
78048.7
79604.3
81240.1
82904.1
84582.7
86195.8
87724.7
89134.6
90424.6
91595.4
92629.6
93560.5
94363.7
95065.4
95658.5
96145.6
96538
96838.2
97041.8
97174.3
97220.3
97195.7
97124.5
97002.3
96831.6
96615.8
96359.7
96067.2
95742.4
95389.1
95017.2
94628.7
94227.9
93816.5
93398.7
92973.9
92545.3
92110.7
91670.7
91224.5
90778.3
90329.2
89882.4
89432.7
88982
88529.8
88074.9
87622.3
87166.4
86714.8
86260.8
85814.2
85367.6
84933
84494.5
84065.9
83633.7
83213
82788.8
82381
81968
81564.2
81159.3
80757.7
80356.8
79954.9
79555.6
79155.1
78760.2
78366.3
77977.2
77589.8
77208.4
76828.7
76456.9
76088.1
75724
75362.9
75007.5
74648.3
74293.6
73940.5
73589.1
73240.7
72893.4
72548.8
72206.8
71868.9
71534.5
71204.1
70876.9
70552.8
70232.2
69913.9
69599
69284.2
68972.2
68659.9
68350.4
68042.5
67738.5
67437.1
67140.3
66846
66553.3
66129.2
827036
215009
165608
149314
138314
130140
124054
119912
117750
117857
120405
126615
138070
157120
185293
223595
271993
326437
385882
448441
500345
527926
537903
532113
514038
478116
421818
360198
309035
270269
241240
219288
202015
187916
175647
164770
154741
145464
136742
128571
120771
113302
106079
99099
92346.5
85875.5
79651.9
73671.3
67997.3
62627.2
57621.8
53022.9
48793.4
46790.6
46862.2
48092.6
52523.1
60395.4
70428.2
81777.9
89584.9
97588.7
98335.3
97853.2
96988.1
95983.4
94896.1
93728.9