/*--------------------------------*- C++ -*----------------------------------*\
| =========                 |                                                 |
| \\      /  F ield         | OpenFOAM: The Open Source CFD Toolbox           |
|  \\    /   O peration     | Version:  2312                                  |
|   \\  /    A nd           | Website:  www.openfoam.com                      |
|    \\/     M anipulation  |                                                 |
\*---------------------------------------------------------------------------*/
FoamFile
{
    version     2.0;
    format      ascii;
    arch        "LSB;label=32;scalar=64";
    class       volScalarField;
    location    "0.002";
    object      p;
}
// * * * * * * * * * * * * * * * * * * * * * * * * * * * * * * * * * * * * * //

dimensions      [1 -1 -2 0 0 0 0];

internalField   nonuniform List<scalar> 
48128
(
2343.78
2338.91
2337.01
2322.85
2309.98
2285.54
2244.48
2194.21
2141.08
2092.53
2055.11
2028.37
2008.04
1998.88
1998.23
2003.36
2015.03
2033.42
2058.91
2092.75
2139.43
2195.79
2262.33
2341.7
2435.41
2543.78
2667.25
2805.63
2962.95
3136.83
3332
3545.18
3780.12
4033.64
4308.3
4599.3
4911.49
5226.68
5559.74
5884.21
6215.63
6540
6857.92
7169.09
7479.09
7783.5
8080
8367.18
8644.79
8915.62
9172.78
9421.19
9651.55
9869.11
10074.2
10255.8
10435.8
10591.7
10751.8
10886.9
11018.4
11129.5
11240.6
11335.9
11428
11514.6
11583
11656.4
11713.2
11768.8
11818.8
11859.9
11894.6
11913.5
11928.9
12077
12128.5
12122.4
12111.4
12250.6
12294.2
12290.1
12283.1
12402.2
12447.1
12461.2
12474.3
12495.6
12512.4
12594.5
12633
12648.4
12657.1
12665
12737.8
12769.3
12777.5
12783.5
12827.7
12849.7
12856.7
12861.6
12913.9
12937.9
12947.4
12957.4
12980.6
12996.3
13006.1
13014.8
13014.7
13013.9
13010.3
13008.6
13023
13034.3
13042.8
13051.8
13059.7
13056.6
13045.8
13029.4
13018.6
13013.2
13013.4
13017.4
13052.7
13078.4
13115.2
13154.9
13194.8
13232.1
13261.7
13285.6
13302.1
13312.2
13308.9
13303
13296.1
13292.4
13290.4
13292.9
13295.3
13301.9
13306.6
13311.7
13316.7
13319.9
13324.1
13328
13326.1
13326.6
13325.7
13324.1
13323.3
13322.4
13322.2
13323.6
13325.1
13328.2
13331.8
13337.6
13343.8
13350.9
13358.1
13365.6
13372.7
13379.8
13384.9
13390.6
13392.2
13394.8
13395.4
13395.2
13394.2
13392.4
13390.3
13387.6
13385.6
13383.5
13382.3
13381.9
13382.7
13384
13386.3
13389.4
13393.3
13397.9
13403.7
13409.7
13416.4
13423.1
13428.5
13430
13430.6
13429
13425.9
13421.6
13416.1
13411.3
13407
13404.5
13403.9
13405.2
13408.2
13413
13419.1
13426.9
13435.3
13442.6
13448.4
13455.7
13454.5
13455.8
13456.4
13455
13453.9
13452.2
13450.4
13448.6
13447
13445.7
13444.7
13444.1
13443.7
13443.5
13443.4
13443.4
13443.3
13443.3
13443.2
13443.2
13443.2
13443.3
13443.6
13444.2
13444.9
13446.4
13447.7
13441.5
2345.11
2339.12
2337.24
2323.99
2310.75
2283.48
2241.6
2190.9
2137.36
2092.37
2060.82
2033.47
2012.36
2002.68
2001.48
2006.34
2017.72
2035.94
2062.15
2095.99
2137.75
2191.85
2257.01
2335.4
2427.61
2534.11
2655
2791.99
2947.56
3118.28
3309.8
3519.44
3750.57
4000.31
4269.97
4556.87
4864.53
5176.6
5506.05
5829
6156.11
6476.85
6793.21
7105.52
7416.12
7720.34
8017.21
8305.42
8584.05
8855.01
9113.78
9363.15
9594.33
9811.33
10016.8
10201.5
10382.7
10542.3
10706.3
10843.9
10976.9
11090.5
11203.2
11300.4
11396.4
11483.4
11553.8
11629.4
11687.9
11745.7
11797.3
11840.1
11877.4
11894.5
11906.1
12063.1
12118.3
12110.9
12095.9
12239.8
12286.2
12281.3
12271.1
12393.7
12441.3
12455.3
12468.6
12488.5
12503.1
12588.8
12628.7
12644.6
12652.4
12657.8
12733.5
12766.4
12774.2
12779
12823.8
12846.9
12853.8
12857.3
12911.2
12935.6
12945.5
12954.8
12978.2
12994.2
13004.2
13012.8
13012.8
13012.1
13008.1
13006.4
13022
13033
13041.7
13050.8
13058.8
13055.7
13044.9
13028.6
13018
13012.4
13012.6
13016.6
13052.5
13078
13114.9
13154.6
13194.4
13231.7
13261.4
13285.2
13301.3
13311.7
13308.4
13302.4
13295.6
13292
13289.9
13292.5
13294.8
13301.5
13306.3
13311.4
13316.5
13319.6
13323.8
13327.7
13325.8
13326.3
13325.4
13323.9
13323.1
13322.2
13322
13323.4
13324.9
13328.1
13331.7
13337.5
13343.7
13350.8
13358
13365.6
13372.6
13379.7
13384.9
13390.5
13392.2
13394.8
13395.4
13395.1
13394.1
13392.4
13390.2
13387.6
13385.5
13383.4
13382.3
13381.9
13382.7
13384
13386.3
13389.4
13393.3
13397.9
13403.7
13409.7
13416.4
13423.2
13428.5
13430.1
13430.6
13429
13425.9
13421.6
13416.1
13411.3
13407
13404.5
13403.9
13405.2
13408.3
13413
13419.1
13426.9
13435.3
13442.7
13448.5
13455.7
13454.6
13455.8
13456.4
13455.1
13453.9
13452.2
13450.4
13448.6
13447
13445.7
13444.7
13444.1
13443.7
13443.6
13443.4
13443.4
13443.4
13443.4
13443.3
13443.2
13443.2
13443.4
13443.6
13444.2
13445
13446.5
13447.8
13441.6
2346.95
2339.91
2334.87
2322.56
2302.96
2272.53
2229.63
2180.44
2131.16
2087.08
2049.82
2023.85
2005.29
1997.09
1996.95
2002.57
2014.41
2032.87
2058.47
2092.53
2136.31
2190
2254.75
2332.63
2423.96
2529.47
2648.99
2783.94
2936.98
3105.19
3293.75
3500.4
3727.85
3974.95
4240.41
4524.12
4828.63
5137.95
5463.68
5784.53
6110.35
6430.9
6747.62
7061.81
7372.29
7676.84
7974.56
8264.34
8544.98
8817.34
9077.52
9329.2
9562.36
9781.84
9988.11
10175.4
10357.9
10518.6
10687.4
10826.2
10959.9
11074.4
11188.1
11285.6
11385.2
11471.2
11541.7
11619
11677.5
11736.6
11788.7
11832.9
11871.3
11888.6
11897.6
12050.9
12112
12108.4
12095.1
12228
12280.2
12279.2
12270.9
12384.1
12436.5
12453.8
12468.2
12486
12498.4
12584.2
12625.7
12643.1
12651.7
12655
12729
12763.7
12773
12778.1
12820.4
12845.1
12852.9
12856.1
12908
12933.4
12944.8
12954.2
12976.4
12992.8
13003
13011.5
13011.5
13010.8
13006.8
13004.9
13020.9
13031.6
13040.6
13049.6
13057.7
13054.7
13043.6
13028.1
13017.6
13012.1
13012.3
13016.5
13052.7
13078.1
13114.9
13154.2
13193.8
13231.2
13261
13284.5
13300.2
13310.9
13308
13301.8
13295.1
13291.6
13289.6
13292.1
13294.5
13301.3
13306.1
13311.1
13316.2
13319.4
13323.6
13327.5
13325.6
13326.2
13325.2
13323.7
13322.9
13322
13321.8
13323.3
13324.8
13328
13331.6
13337.5
13343.6
13350.8
13358
13365.6
13372.6
13379.7
13384.8
13390.5
13392.1
13394.7
13395.3
13395.1
13394.1
13392.4
13390.2
13387.6
13385.5
13383.4
13382.3
13381.9
13382.7
13384
13386.4
13389.4
13393.3
13397.9
13403.7
13409.7
13416.4
13423.2
13428.5
13430.2
13430.5
13429
13425.9
13421.6
13416.1
13411.3
13407
13404.5
13403.9
13405.3
13408.3
13413.1
13419.2
13427
13435.4
13442.8
13448.5
13455.7
13454.7
13455.8
13456.4
13455.1
13454
13452.2
13450.4
13448.6
13447
13445.7
13444.8
13444.2
13443.7
13443.6
13443.5
13443.5
13443.4
13443.4
13443.3
13443.3
13443.3
13443.4
13443.7
13444.3
13445
13446.5
13447.8
13441.8
2352.52
2340.12
2333.97
2316.54
2291.94
2257.02
2213.18
2165.17
2117.32
2077.36
2044.94
2020.02
2002.91
1995.61
1995.88
2002.15
2014.1
2032.42
2057.52
2090.29
2132.1
2184.38
2247.8
2324.1
2413.54
2517.26
2634.62
2767.49
2918.06
3083.21
3268.51
3472.74
3697.56
3940.79
4204.76
4484.23
4786.84
5093.42
5418.88
5737.44
6063.84
6383.59
6700.88
7015.66
7326.37
7630.55
7928.08
8220.92
8503.36
8776.56
9036.59
9290.13
9523.29
9744.08
9949.19
10140.2
10323
10484.9
10660.6
10801.5
10935.9
11051.1
11166.4
11263.7
11369
11453.1
11523.7
11603.5
11662.4
11723.8
11776.3
11822.4
11863
11881.8
11893
12028.8
12098.3
12104.6
12098.6
12211
12268.9
12276.9
12274.5
12371.2
12427.2
12451.4
12468.7
12484.8
12495.8
12575.9
12618.9
12640.8
12651.5
12654.9
12721.9
12757.7
12771.2
12777.9
12816.1
12841.7
12852
12855.3
12903.7
12929.5
12943.5
12953.6
12973.9
12990.8
13001.2
13009.6
13009.5
13008.9
13005.6
13003.4
13019.1
13029.8
13039.2
13048
13056.1
13052.9
13042
13027.4
13017.6
13012.2
13012.4
13017.7
13052.4
13078.4
13115.3
13154.2
13193
13230.5
13260
13283.3
13298.4
13309.5
13307.3
13301
13294.5
13291.2
13289.3
13291.6
13294.1
13300.9
13305.8
13310.6
13315.7
13319.2
13323.1
13327.2
13325.4
13325.8
13324.9
13323.4
13322.7
13321.8
13321.6
13323
13324.7
13327.8
13331.5
13337.3
13343.4
13350.7
13357.8
13365.5
13372.5
13379.6
13384.7
13390.3
13392.1
13394.6
13395.2
13394.9
13394
13392.3
13390.1
13387.5
13385.4
13383.3
13382.2
13381.9
13382.7
13384
13386.3
13389.3
13393.3
13397.9
13403.7
13409.7
13416.5
13423.1
13428.4
13430.4
13430.4
13428.9
13425.9
13421.5
13416.1
13411.3
13407
13404.5
13404
13405.3
13408.4
13413.1
13419.2
13427
13435.3
13442.8
13448.5
13455.8
13454.8
13455.7
13456.4
13455.1
13453.9
13452.2
13450.4
13448.6
13447
13445.8
13444.8
13444.2
13443.8
13443.6
13443.5
13443.5
13443.4
13443.4
13443.3
13443.3
13443.3
13443.5
13443.7
13444.3
13445.1
13446.5
13447.8
13442
2354.79
2340.3
2328
2306.46
2276.28
2238.31
2194.85
2149.36
2104.78
2066.02
2035.49
2012.93
1998.28
1992.46
1993.37
2000.2
2012.02
2030.08
2054.47
2086.37
2127.19
2178.13
2240.19
2315.03
2402.81
2505.02
2620.18
2750.69
2899.35
3062.09
3245.22
3446.05
3670.12
3908.69
4172.36
4450.92
4754.51
5056.33
5381.09
5696.09
6025.92
6343.75
6660.03
6974.28
7285.49
7590.12
7884.88
8181.78
8466.34
8739.8
8999.32
9254.74
9487.84
9709.79
9913.34
10109.2
10291.7
10455.6
10638.8
10782.2
10916.1
11031.8
11149
11245.6
11357
11437.5
11507.8
11590.4
11649
11713.3
11765.9
11814.2
11856.9
11878.5
11893.8
12006.3
12083.1
12102.6
12107.4
12194.6
12256
12275.8
12282.3
12359.5
12416.4
12449.8
12470.5
12486.3
12498.2
12566.3
12611.1
12639.2
12652.8
12659
12714.4
12750.9
12770.3
12779.3
12812.7
12838.6
12852
12857.3
12899.1
12925.2
12942.8
12953.7
12972.2
12989.2
12999.7
13007.9
13007.8
13007.3
13005.1
13002.5
13017.3
13028.2
13038
13046.6
13054
13050.8
13040.5
13027.2
13018.2
13013.3
13014
13020.2
13052.2
13079.3
13116.5
13154.6
13192.3
13229.8
13258.4
13281.5
13296.3
13307.6
13306.4
13300.2
13294.1
13290.9
13289.3
13291.3
13293.9
13300.6
13305.5
13310.2
13315.3
13318.9
13322.7
13326.8
13325.3
13325.5
13324.6
13323.2
13322.4
13321.6
13321.5
13322.9
13324.6
13327.7
13331.3
13337.2
13343.3
13350.6
13357.7
13365.4
13372.3
13379.5
13384.6
13390.2
13392.1
13394.4
13395
13394.8
13393.8
13392.1
13390
13387.4
13385.4
13383.3
13382.2
13381.9
13382.7
13384
13386.3
13389.3
13393.3
13398
13403.8
13409.7
13416.5
13423
13428.3
13430.6
13430.2
13428.8
13425.8
13421.5
13416
13411.2
13407
13404.5
13404.1
13405.4
13408.5
13413.2
13419.3
13427.1
13435.3
13442.8
13448.5
13455.7
13454.9
13455.7
13456.4
13455.1
13453.9
13452.3
13450.4
13448.7
13447.1
13445.8
13444.8
13444.2
13443.8
13443.7
13443.5
13443.6
13443.5
13443.5
13443.4
13443.4
13443.3
13443.5
13443.7
13444.4
13445.1
13446.6
13447.9
13442.2
2355.07
2336.94
2319.63
2292.61
2258.2
2219.34
2176.51
2131.31
2089.6
2054.22
2026.49
2006.28
1993.87
1989.25
1990.55
1997.61
2009.2
2026.74
2050.36
2081.21
2120.84
2170.45
2231.18
2304.52
2390.5
2491.54
2604.75
2732.76
2879.86
3040.54
3223.32
3418.77
3641.35
3878.57
4140.5
4415.01
4718.93
5011.08
5336.28
5642.17
5977.29
6287
6602.72
6914.77
7225.75
7532.28
7831.83
8126.77
8418.39
8685.96
8946.7
9205.27
9438.66
9661.91
9863.98
10068.1
10250.7
10416.1
10611.8
10756
10893.8
11007.8
11131.2
11222.5
11345.8
11421.3
11489.1
11578.3
11633
11703.7
11754.8
11806.3
11851
11876.2
11897
11981.6
12065.8
12099.5
12115.7
12179.4
12242.8
12274.3
12290.3
12348.8
12406
12447.3
12472.4
12489.5
12502.9
12556.4
12602.4
12637.2
12654.7
12664.4
12707.1
12743.4
12769.2
12781.2
12809.8
12835
12852.3
12860.9
12893.9
12920.1
12941.9
12954.2
12970.9
12987.5
12998.1
13005.9
13005.8
13005.8
13004.9
13002.4
13015.6
13026.7
13037
13045
13051.4
13047.9
13038.8
13027.2
13019.5
13015.4
13016.5
13023.8
13052.5
13081.4
13118.7
13155.2
13191.6
13228.8
13256.4
13279.5
13293.7
13305
13305
13299.3
13293.8
13290.9
13289.6
13291.3
13293.9
13300.3
13305.4
13309.9
13314.9
13318.8
13322.2
13326.3
13325.3
13325.1
13324.3
13322.9
13322.2
13321.5
13321.5
13322.8
13324.5
13327.6
13331.4
13337.2
13343.2
13350.5
13357.6
13365.3
13372.2
13379.3
13384.4
13389.9
13392.1
13394.3
13394.8
13394.6
13393.7
13392
13389.9
13387.3
13385.3
13383.2
13382.2
13381.9
13382.7
13384
13386.4
13389.4
13393.4
13398
13403.9
13409.7
13416.6
13422.9
13428.1
13430.8
13429.9
13428.7
13425.6
13421.4
13416
13411.2
13407
13404.5
13404.3
13405.6
13408.6
13413.3
13419.5
13427.2
13435.2
13442.8
13448.5
13455.6
13455
13455.7
13456.3
13455.2
13453.9
13452.3
13450.5
13448.7
13447.1
13445.8
13444.9
13444.3
13443.8
13443.7
13443.6
13443.6
13443.5
13443.5
13443.4
13443.4
13443.4
13443.5
13443.8
13444.4
13445.2
13446.6
13448
13442.4
2351.08
2329.37
2307.97
2276.88
2240.42
2201.44
2156.82
2113.43
2074.75
2042.52
2017.51
1999.65
1989.17
1985.51
1987.17
1994.14
2005.62
2022.53
2045.34
2075
2113.41
2161.75
2220.96
2293.03
2377.05
2477.04
2588.74
2714.66
2860.34
3016.34
3198.02
3390.73
3608.99
3839.88
4096.87
4356.96
4665.7
4938.94
5266.39
5557.03
5889.13
6190.98
6507.86
6814.38
7129.02
7436.52
7742.41
8039.65
8340.03
8601.02
8863.89
9122.49
9347.73
9578.02
9777.31
9993.75
10188.5
10350.1
10568.1
10708.2
10861.4
10966.9
11106.4
11187.3
11325.9
11398.9
11466
11563.4
11613.7
11691.2
11742.5
11796.1
11844.6
11874.5
11900.5
11961.1
12045.2
12095.5
12121
12168.7
12229.9
12272.5
12296.4
12342
12395.8
12443
12473.5
12492.9
12508.7
12548.2
12593.6
12634.4
12655.4
12669.6
12701.7
12736.7
12767.5
12783.4
12807.1
12832
12852.1
12864.3
12889.7
12915.3
12940.9
12954.5
12970.5
12985.8
12996.2
13003.3
13003.4
13004.4
13004.9
13003.4
13014
13025.4
13036.1
13043.7
13047.4
13044.5
13036.9
13027.6
13021.3
13018.8
13020.3
13028.2
13055
13084.7
13121
13155.8
13191.1
13227.2
13253.8
13277
13290.7
13301.7
13303.5
13298
13293.8
13291.1
13290.2
13291.7
13294.3
13300.1
13305.2
13309.8
13314.5
13318.6
13321.9
13325.6
13325.4
13324.8
13324.1
13322.7
13322
13321.5
13321.6
13322.8
13324.6
13327.7
13331.5
13337.2
13343.3
13350.5
13357.5
13365.4
13372.1
13379.2
13384.3
13389.7
13392.1
13394.1
13394.7
13394.4
13393.5
13391.9
13389.8
13387.3
13385.3
13383.3
13382.2
13382
13382.8
13384.1
13386.5
13389.5
13393.5
13398.2
13404
13409.8
13416.7
13422.7
13428
13430.8
13429.7
13428.6
13425.4
13421.3
13415.9
13411.3
13407.1
13404.6
13404.5
13405.8
13408.8
13413.5
13419.7
13427.3
13435.2
13442.8
13448.4
13455.5
13455.1
13455.7
13456.3
13455.2
13453.9
13452.3
13450.5
13448.8
13447.2
13445.9
13444.9
13444.3
13443.9
13443.8
13443.6
13443.6
13443.6
13443.6
13443.5
13443.5
13443.4
13443.6
13443.9
13444.5
13445.3
13446.6
13448.1
13442.6
2343.93
2317.64
2293.9
2260.71
2223.31
2182.2
2137.57
2096.67
2061
2031.7
2009.14
1993.35
1984.44
1981.39
1983.3
1990.27
2001.51
2017.59
2039.48
2067.92
2105.05
2152.28
2209.75
2280.69
2362.91
2461.66
2571.92
2693.98
2838.28
2990.38
3166.71
3351.22
3561.95
3778.19
4041.99
4262.99
4563.71
4813.9
5135.48
5410.95
5737.68
6036.63
6355.69
6661.26
6982.01
7289.55
7605.02
7903.22
8212.68
8473.47
8748.02
9024.9
9221.81
9474.81
9649.26
9884.98
10090
10270.5
10502.4
10635.6
10808
10910.3
11063.8
11140.8
11285.9
11361
11438.8
11535.4
11588.1
11670.3
11724.8
11781
11834
11870.4
11901.8
11948.2
12023.5
12084.8
12121.7
12162.1
12218
12268
12300.8
12339
12386.9
12435.9
12472.7
12496.5
12514.3
12544.1
12585.2
12628.8
12655.9
12674.2
12698.9
12730.3
12764.6
12784.6
12805.7
12829.1
12851.9
12866.7
12887.3
12911
12938.7
12954.4
12970.1
12984
12993.7
13000.3
13000.9
13003
13005.1
13004.6
13012.9
13024.1
13035.1
13042
13042.3
13040.7
13035.3
13028.5
13023.5
13023.1
13025.4
13033.9
13060.2
13088.9
13123.4
13156.8
13190.5
13225.1
13250.7
13273.8
13287
13297.7
13301.5
13296.8
13293.9
13291.4
13291
13292.5
13294.8
13300
13305.2
13309.7
13314.2
13318.5
13321.7
13324.8
13325.6
13324.6
13323.8
13322.6
13322
13321.6
13321.7
13322.9
13324.8
13327.8
13331.8
13337.4
13343.4
13350.6
13357.6
13365.4
13372.1
13379.1
13384.1
13389.4
13392.1
13393.9
13394.5
13394.2
13393.4
13391.8
13389.8
13387.3
13385.4
13383.3
13382.4
13382.2
13382.9
13384.3
13386.6
13389.7
13393.7
13398.3
13404.2
13409.9
13416.9
13422.6
13427.9
13430.7
13429.5
13428.4
13425.2
13421.2
13415.9
13411.3
13407.2
13404.8
13404.7
13406.1
13409.1
13413.8
13419.9
13427.4
13435.1
13442.8
13448.3
13455.3
13455.1
13455.7
13456.2
13455.2
13453.9
13452.3
13450.5
13448.8
13447.2
13446
13445
13444.4
13444
13443.8
13443.7
13443.7
13443.6
13443.6
13443.5
13443.5
13443.5
13443.7
13443.9
13444.6
13445.3
13446.7
13448.2
13442.9
2332.98
2302.79
2278.38
2243.95
2206.43
2163.1
2120.12
2081.75
2048.74
2021.93
2001.57
1987.59
1979.83
1977.2
1979.27
1986.14
1996.86
2012.17
2033.09
2060.24
2095.87
2142.08
2198.19
2267.46
2348.58
2445.01
2552.59
2671.37
2810.34
2954.74
3120.6
3292.12
3502.63
3671.07
3931.8
4123.28
4412.54
4638.91
4951.26
5210
5536.49
5815.86
6159.02
6445.67
6796.56
7084.54
7433.64
7710.75
8045.73
8296.77
8592.9
8885.57
9053.88
9347.88
9508.82
9759.97
9948.99
10167.8
10406.1
10537.8
10729.7
10836
11001.1
11082
11230.2
11310.7
11404
11499
11555.1
11644
11700.8
11762.2
11818.5
11861.9
11899.8
11940.4
12003.2
12065
12116.7
12156.2
12206
12259.4
12301.8
12337
12378.8
12426.6
12468.7
12499.9
12519
12542.1
12578.4
12621.1
12655.6
12677.8
12697.4
12725.1
12760.5
12784.7
12804.6
12826.8
12851.6
12868.2
12885.7
12907.3
12935.6
12954.1
12969.5
12981.9
12990.5
12996.6
12998.4
13001.7
13005.7
13006.2
13013
13022.8
13033.5
13039
13037.1
13036.3
13033.7
13029.6
13026.9
13028.5
13031.6
13041.7
13067
13093.9
13126.1
13158
13189.9
13222.6
13246.8
13269.7
13282.4
13293.3
13298.6
13295.7
13293.9
13292
13292.2
13293.5
13295.6
13300.1
13305.3
13309.7
13314
13318.5
13321.3
13324.2
13325.5
13324.4
13323.6
13322.6
13322
13321.7
13322
13323.2
13325.2
13328.2
13332.1
13337.6
13343.7
13350.8
13357.7
13365.6
13372
13379
13383.9
13389.2
13391.9
13393.8
13394.3
13394
13393.2
13391.7
13389.8
13387.3
13385.5
13383.5
13382.5
13382.4
13383.1
13384.5
13386.9
13389.9
13394
13398.6
13404.4
13410.1
13417
13422.5
13427.7
13430.6
13429.3
13428.1
13425
13421
13415.9
13411.4
13407.4
13405
13405.1
13406.5
13409.5
13414.1
13420.2
13427.6
13435.1
13442.7
13448.2
13455
13455.1
13455.7
13456.2
13455.2
13453.9
13452.3
13450.6
13448.9
13447.3
13446.1
13445.1
13444.5
13444.1
13443.9
13443.8
13443.8
13443.7
13443.7
13443.6
13443.6
13443.6
13443.7
13444
13444.6
13445.5
13446.8
13448.3
13443.1
2318.06
2285.67
2261.76
2227.3
2189.39
2145.67
2105.05
2068.84
2038.15
2013.51
1995.04
1982.49
1975.53
1973.22
1975.36
1981.89
1991.88
2006.28
2026.34
2052.1
2086.47
2131.01
2186.87
2254.61
2332.67
2427.22
2528.69
2641.88
2769.67
2904.63
3063.78
3191.69
3401.25
3532.44
3770.79
3927.78
4197.54
4395.04
4704.66
4938.05
5286.5
5526.65
5925.75
6182.83
6599.6
6856.69
7258.23
7505.19
7871.96
8102.68
8433.11
8700.22
8875.53
9187.67
9347.48
9623.06
9790.78
10032.2
10264
10412.6
10631.3
10743.5
10921.2
11009.6
11162
11246.2
11359.7
11453.8
11515
11610.1
11669.3
11738.3
11798.2
11847.3
11895.9
11935.5
11986
12040.9
12105.8
12149.3
12195.4
12247.7
12298
12335.4
12372.1
12415
12462
12498.4
12522.9
12543.2
12573.1
12611.8
12651.8
12678.7
12697.3
12720.8
12754.9
12781.9
12803.6
12824.7
12850.2
12869
12884.8
12904.4
12931.8
12952.2
12968.9
12979
12985.9
12992.4
12995.8
13000.3
13006.1
13008.3
13013.8
13022
13031.3
13033.9
13032.1
13032.1
13032
13031.2
13031.5
13035.2
13039.7
13051.2
13074.8
13099.9
13129
13159.3
13189
13219.4
13242.1
13264.5
13277.4
13288.2
13294.8
13294.6
13294
13293
13293.5
13294.7
13296.6
13300.5
13305.4
13309.6
13313.9
13318.4
13320.7
13323.6
13325.4
13324.1
13323.6
13322.6
13322.1
13322
13322.4
13323.6
13325.7
13328.8
13332.6
13338
13344
13351
13357.9
13365.7
13372
13378.9
13383.7
13388.9
13391.7
13393.7
13394.1
13393.7
13393
13391.6
13389.7
13387.4
13385.6
13383.7
13382.8
13382.7
13383.4
13384.8
13387.2
13390.3
13394.3
13399
13404.6
13410.3
13417.2
13422.3
13427.4
13430.3
13429.1
13427.8
13424.7
13420.9
13415.9
13411.5
13407.6
13405.4
13405.5
13406.9
13409.9
13414.6
13420.6
13427.8
13435.1
13442.7
13448
13454.7
13455
13455.7
13456.1
13455.1
13453.9
13452.3
13450.7
13449
13447.4
13446.2
13445.2
13444.6
13444.2
13444
13443.9
13443.8
13443.8
13443.7
13443.6
13443.7
13443.7
13443.8
13444.1
13444.7
13445.6
13446.9
13448.4
13443.2
2300.64
2267.48
2244.58
2211.42
2172.7
2130.53
2092.2
2058.04
2029.42
2006.66
1989.73
1978.23
1971.82
1969.71
1971.79
1977.75
1986.84
1999.98
2019.29
2043.32
2077.38
2121.38
2174.56
2242.04
2315.04
2404.52
2495.43
2601.67
2717.46
2816.61
2977.8
3066.8
3247.54
3346.52
3544.26
3670.63
3895.42
4066.34
4304.23
4529.4
4844.6
5027.32
5434.37
5658.05
6108.06
6365.58
6841.2
7086.96
7543.93
7794.2
8201.79
8490.01
8719.01
9031.62
9198.87
9483.03
9638.57
9898.69
10094.8
10248.5
10491.9
10622.8
10826.1
10921.5
11084
11167.1
11302.8
11402
11467
11569.1
11629.6
11708.4
11772.3
11828.7
11887.7
11927.6
11972.6
12017.4
12086.9
12136.3
12187.6
12234.4
12290.5
12329.1
12366
12404.9
12453.3
12491.7
12523.8
12547.3
12570.5
12602.7
12645.1
12675.7
12697.5
12718.1
12748
12776.9
12802.3
12823
12848
12868.6
12884.5
12902.1
12926.8
12948.8
12967.5
12973.8
12980.7
12987.4
12992.8
12998.7
13006.1
13010.7
13015.1
13021.2
13027.8
13028.2
13027.2
13028.2
13030.7
13033.3
13036.5
13043
13050.6
13061.8
13083.9
13106.7
13132
13160.7
13187.7
13215.3
13237
13258.3
13270.9
13282.5
13290.3
13294
13294
13294.2
13294.9
13296.1
13297.9
13301
13305.5
13309.6
13313.9
13318.3
13320.2
13323.1
13325.3
13324
13323.5
13322.8
13322.4
13322.4
13322.9
13324.2
13326.3
13329.4
13333.2
13338.5
13344.5
13351.4
13358.2
13365.9
13371.9
13378.8
13383.4
13388.6
13391.3
13393.7
13393.9
13393.5
13392.9
13391.4
13389.7
13387.5
13385.8
13383.9
13383.1
13383.1
13383.8
13385.2
13387.6
13390.7
13394.8
13399.4
13404.9
13410.6
13417.4
13422.1
13427.1
13429.9
13428.8
13427.4
13424.4
13420.7
13415.9
13411.7
13407.9
13405.9
13406.1
13407.5
13410.4
13415.1
13421
13428
13435.1
13442.6
13447.7
13454.3
13454.9
13455.8
13456.1
13455.1
13453.9
13452.4
13450.7
13449.1
13447.6
13446.3
13445.3
13444.7
13444.3
13444.1
13443.9
13443.9
13443.8
13443.8
13443.7
13443.7
13443.7
13443.9
13444.2
13444.9
13445.7
13447
13448.5
13443.4
2281.87
2249.48
2228.11
2196.45
2157.63
2118.06
2081.65
2049.48
2022.7
2001.52
1985.76
1975.04
1968.99
1966.96
1968.75
1973.84
1981.57
1993.17
2012.41
2036.15
2068.16
2113.14
2162.08
2226.53
2293.61
2374.27
2448.09
2536.71
2648.81
2709.8
2851.06
2902.7
3045.46
3111
3241.74
3326.89
3474.3
3595.15
3804.39
3973.9
4296.48
4491
4873.21
5106.74
5572.33
5824.59
6323.38
6594.66
7067.52
7335.72
7777.65
8056.92
8375.84
8721.05
8973.89
9312.39
9505.76
9778.27
9950.57
10098.8
10331.8
10490.5
10712.2
10816.5
10997.8
11076.1
11233.2
11343.2
11411
11522.5
11582.5
11672.3
11742.6
11806.1
11873.1
11914.8
11961.3
11999.3
12063.2
12118
12178
12222.9
12277.9
12318
12359.1
12394.3
12442.7
12480
12521.1
12548.1
12570.3
12595.9
12635.2
12667.9
12697.1
12717.7
12742
12770.6
12799.7
12821.5
12845
12866.4
12884.7
12900.9
12921.6
12943.4
12963.5
12967.7
12974.6
12981.2
12988.7
12996.4
13005.9
13012.9
13016.7
13020.5
13023.7
13022.9
13022.7
13024.8
13029.6
13035.4
13042
13051.1
13062.9
13074.3
13093.8
13113.7
13135.7
13162.2
13186.3
13210.6
13230.6
13251.3
13262.9
13276
13285.7
13293.1
13293.9
13295.2
13296.4
13297.5
13299
13301.7
13305.8
13309.7
13313.9
13318.2
13319.8
13322.6
13324.9
13323.8
13323.5
13323
13322.7
13322.9
13323.5
13324.9
13327
13330.1
13334
13339.1
13345
13351.7
13358.5
13366
13371.9
13378.7
13383.1
13388.2
13391
13393.5
13393.5
13393.2
13392.7
13391.3
13389.7
13387.6
13386
13384.2
13383.5
13383.5
13384.3
13385.7
13388
13391.2
13395.2
13399.9
13405.3
13411
13417.6
13421.8
13426.7
13429.5
13428.5
13427
13424
13420.4
13415.9
13411.9
13408.3
13406.4
13406.7
13408.1
13411.1
13415.7
13421.5
13428.2
13435.2
13442.5
13447.5
13453.9
13454.8
13455.8
13456
13455.1
13453.9
13452.4
13450.8
13449.2
13447.7
13446.4
13445.5
13444.8
13444.4
13444.2
13444.1
13444
13443.9
13443.9
13443.8
13443.8
13443.9
13444
13444.4
13445
13445.9
13447.2
13448.6
13443.5
2262.79
2232.79
2213.09
2182.58
2144.91
2108.25
2073.61
2043.3
2018.12
1998.24
1983.34
1973.16
1967.28
1965.05
1966.07
1969.55
1976.38
1987.71
2006.43
2029.99
2059.95
2103.44
2147.79
2205.85
2264.88
2333.49
2387.05
2449.55
2557.9
2582.82
2689.29
2717.78
2805.27
2855.99
2927.1
2980.52
3059.32
3155.08
3250.4
3363.08
3517.08
3655.63
3897.41
4100.7
4501.19
4792.87
5355.18
5716.08
6264.32
6660.23
7164.89
7581.49
8019.02
8357.5
8651.8
9026.03
9214.35
9553.61
9763.94
9956.26
10166.4
10366.5
10582.2
10703.4
10908.7
10978.8
11154.2
11276.9
11345.4
11469
11529.3
11631.9
11709.9
11780.1
11852.9
11896.3
11948.2
11985.2
12043.5
12098.2
12164.1
12208.2
12262.9
12303.2
12349.8
12385.2
12431.1
12467.5
12514.9
12543.6
12568.9
12592.2
12625.3
12656.9
12693.3
12715.1
12737.5
12763.5
12794.4
12817.9
12841.5
12863.2
12883.8
12899
12917.2
12936.2
12956.7
12960.9
12969.3
12976
12985.8
12995.1
13005.6
13014.6
13017.9
13019.9
13020.1
13018.2
13018.4
13021.6
13028.5
13037.4
13047.8
13059.7
13075.2
13088
13105
13121.2
13140.1
13163.9
13184.9
13205.4
13223.3
13243
13253.8
13269
13280.7
13291.6
13293.4
13296.3
13297.8
13298.9
13300.3
13302.6
13306.1
13309.7
13313.7
13317.9
13319.4
13322
13324.4
13323.6
13323.4
13323.1
13323.1
13323.4
13324.2
13325.7
13327.9
13331
13334.8
13339.8
13345.6
13352.1
13358.8
13366.2
13371.8
13378.4
13382.8
13387.8
13390.5
13393.3
13393.1
13392.9
13392.4
13391.2
13389.7
13387.8
13386.2
13384.6
13384
13384.1
13384.8
13386.2
13388.6
13391.7
13395.8
13400.4
13405.8
13411.4
13417.7
13421.5
13426.3
13428.9
13428.1
13426.6
13423.6
13420.2
13415.9
13412.1
13408.8
13407.1
13407.3
13408.8
13411.8
13416.4
13422.1
13428.5
13435.2
13442.3
13447.1
13453.4
13454.6
13455.9
13455.9
13455
13453.9
13452.5
13450.9
13449.4
13447.9
13446.6
13445.7
13445
13444.6
13444.3
13444.2
13444.1
13444
13444
13443.9
13443.9
13444
13444.2
13444.5
13445.1
13446.1
13447.4
13448.6
13443.5
2245.25
2218.05
2200.23
2169.78
2135.18
2100.94
2068.2
2039.62
2015.89
1996.92
1982.57
1972.61
1966.61
1963.74
1963.26
1966.12
1972.55
1983.12
2001.85
2024.02
2050.86
2091.34
2129.21
2177.57
2223.63
2285.43
2319.55
2360.86
2445.03
2446.73
2508.76
2521
2556.1
2573.47
2593.21
2620.1
2648.75
2661.53
2676.51
2689.08
2714.48
2736.31
2784.72
2854.14
3001.83
3173.67
3480.4
3837.73
4473.08
5079.88
5760.19
6513.11
7155.42
7628.03
8165.17
8610.14
8925.63
9283.32
9520.45
9749.69
9966.68
10199.4
10403.4
10551.3
10793.8
10876.7
11074.6
11207
11272
11409.8
11471.8
11587.7
11674.4
11750.1
11826.7
11870.5
11930.8
11972.3
12029.5
12080.4
12145.3
12190
12246.9
12286.7
12338.5
12375.2
12420.2
12455.5
12504.1
12535.8
12566.9
12589.2
12618.1
12646.1
12685.3
12710
12734.5
12757
12787.8
12811.7
12837.6
12858.6
12880.6
12896.7
12912.9
12928.4
12947.5
12954.1
12964.6
12969.8
12981.7
12993.1
13004.8
13015.2
13019.2
13019.2
13016
13012.8
13014.3
13019.1
13028
13040
13054.3
13069.2
13087.3
13102
13117.1
13129.4
13145.7
13165.4
13182.9
13199.8
13215
13233.2
13244.8
13262.6
13274.9
13289.1
13292.8
13297
13299.2
13300.3
13301.7
13303.5
13306.4
13309.8
13313.6
13317.5
13319
13321.2
13323.5
13323.1
13323.2
13323.2
13323.4
13323.9
13324.9
13326.5
13328.7
13331.8
13335.6
13340.5
13346.2
13352.6
13359.1
13366.3
13371.7
13378.1
13382.3
13387.2
13389.9
13392.8
13392.6
13392.6
13392.1
13390.9
13389.6
13388
13386.5
13385.1
13384.5
13384.6
13385.4
13386.8
13389.2
13392.4
13396.4
13401
13406.2
13411.8
13417.8
13421.2
13425.7
13428.2
13427.5
13426
13423.1
13419.9
13416
13412.4
13409.4
13407.8
13408.1
13409.6
13412.6
13417.1
13422.6
13428.8
13435.1
13442.1
13446.8
13452.9
13454.4
13455.8
13455.7
13455
13453.9
13452.5
13451
13449.5
13448.1
13446.8
13445.8
13445.2
13444.7
13444.5
13444.3
13444.2
13444.1
13444.1
13444
13444
13444.1
13444.3
13444.7
13445.3
13446.3
13447.6
13448.7
13443.6
2230.12
2205.85
2190.26
2159.75
2128.69
2096.21
2065.5
2038.44
2015.89
1997.53
1983.41
1973.41
1966.97
1962.89
1961.37
1963.87
1969.98
1979.65
1997.65
2016.56
2039.7
2076.24
2106.29
2147.02
2172.76
2235.25
2245.28
2273.26
2313.86
2311.01
2331
2324.14
2316.7
2318.79
2314.18
2298.51
2269.26
2232.9
2196.35
2159.84
2131.78
2103.61
2084.86
2067.95
2064.34
2070.54
2087.94
2118.88
2303.92
2743.39
3265.31
3947.56
4836.26
5809.24
6799.15
7702.96
8253.63
8778.54
9160.47
9485.47
9751.14
10016.5
10199.4
10392.4
10639.2
10747
10982.3
11120
11190
11348.2
11410.8
11540.8
11636.5
11715.2
11793.8
11837.2
11909.2
11959.7
12018.7
12065.6
12126.4
12168.4
12229
12269.4
12324.8
12363.7
12409.4
12443.7
12491.6
12525.1
12562.7
12585.2
12612.8
12637.5
12674.5
12702.1
12731
12752.3
12781.1
12804.6
12832.6
12853.6
12876.7
12892.9
12909.1
12920.3
12937.6
12944.1
12958
12963.4
12977.1
12990.6
13003.6
13014.6
13019.1
13017.2
13010.9
13007.7
13010.2
13016.8
13027.8
13042.9
13061.2
13079.1
13099.5
13114.3
13129.6
13138.5
13151.8
13166.8
13180.4
13193.8
13206.5
13223.4
13236.1
13255.8
13268.4
13286.3
13291.9
13297.7
13300.5
13301.8
13303.1
13304.6
13306.9
13309.9
13313.3
13316.8
13318.5
13320.2
13322.5
13322.6
13322.9
13323.2
13323.7
13324.5
13325.7
13327.4
13329.7
13332.8
13336.6
13341.4
13346.9
13353
13359.3
13366.3
13371.5
13377.7
13381.7
13386.5
13389.1
13392.2
13391.9
13392.1
13391.7
13390.7
13389.5
13388.1
13386.8
13385.5
13385.1
13385.2
13386
13387.5
13389.8
13393
13397
13401.6
13406.7
13412.1
13417.9
13420.9
13425
13427.3
13426.9
13425.3
13422.5
13419.5
13416
13412.7
13410
13408.6
13409
13410.5
13413.5
13418
13423.3
13429.1
13435.1
13441.8
13446.4
13452.3
13454.1
13455.8
13455.6
13454.9
13453.9
13452.6
13451.2
13449.7
13448.2
13447
13446
13445.3
13444.9
13444.6
13444.4
13444.3
13444.2
13444.2
13444.1
13444.2
13444.2
13444.5
13444.8
13445.5
13446.5
13447.9
13448.7
13443.6
2217.52
2197.73
2183
2153.08
2125.48
2094.32
2065.48
2039.76
2017.92
2000.01
1986.07
1975.7
1968.31
1963.07
1960.7
1963.08
1968.52
1976.41
1993.28
2007.61
2027.49
2061.82
2080.75
2119.52
2122.49
2181.77
2165.77
2184.97
2189.96
2179.65
2168.41
2153.2
2130.1
2094.77
2059.02
2037.86
2014.84
1989.8
1965.97
1945.12
1928.06
1913.17
1901.07
1891.48
1884.62
1879.63
1876.51
1877.02
1884.76
1909.79
1954.26
2009.63
2316.93
2981.1
3843.48
4954.16
6223.69
7473.31
8313.13
8941.28
9389.68
9722.3
9931.74
10212.3
10441.9
10590
10857.9
10998.4
11090.9
11277.8
11341.3
11489.3
11593.3
11673.2
11753.3
11798.7
11884.9
11946.9
12009.6
12050.9
12107.4
12145.4
12209
12251.4
12309.7
12350.6
12398.2
12432.1
12478.9
12511.7
12555.4
12579.6
12608
12631.1
12665.3
12692.2
12725.8
12747.3
12775.1
12797.6
12826.4
12847.7
12871.4
12887.8
12904.6
12913.3
12927.5
12932.1
12950.3
12957.2
12973.3
12988.1
13001.7
13013
13018.2
13014.3
13006
13002.9
13007
13015
13027.8
13046.7
13068.9
13089.5
13112