/*--------------------------------*- C++ -*----------------------------------*\
| =========                 |                                                 |
| \\      /  F ield         | OpenFOAM: The Open Source CFD Toolbox           |
|  \\    /   O peration     | Version:  2312                                  |
|   \\  /    A nd           | Website:  www.openfoam.com                      |
|    \\/     M anipulation  |                                                 |
\*---------------------------------------------------------------------------*/
FoamFile
{
    version     2.0;
    format      ascii;
    arch        "LSB;label=32;scalar=64";
    class       surfaceScalarField;
    location    "0.002";
    object      phi;
}
// * * * * * * * * * * * * * * * * * * * * * * * * * * * * * * * * * * * * * //

dimensions      [1 0 -1 0 0 0 0];

oriented        oriented;

internalField   nonuniform List<scalar> 
95760
(
3.65276e-09
-3.66456e-09
1.73359e-09
1.90737e-09
-6.10371e-09
7.82569e-09
-1.91568e-08
1.30414e-08
-3.83496e-08
1.91809e-08
-6.09026e-08
2.25409e-08
-8.07535e-08
1.98384e-08
-9.76517e-08
1.68852e-08
-1.11523e-07
1.38583e-08
-1.22847e-07
1.13111e-08
-1.32315e-07
9.45513e-09
-1.40389e-07
8.06081e-09
-1.4753e-07
7.12834e-09
-1.54066e-07
6.5241e-09
-1.60151e-07
6.07351e-09
-1.66004e-07
5.84119e-09
-1.71676e-07
5.66072e-09
-1.77219e-07
5.5327e-09
-1.8256e-07
5.33127e-09
-1.88029e-07
5.45988e-09
-1.9313e-07
5.09181e-09
-1.98383e-07
5.24532e-09
-2.03082e-07
4.691e-09
-2.0728e-07
4.19184e-09
-2.10866e-07
3.5807e-09
-2.13744e-07
2.87256e-09
-2.15701e-07
1.95198e-09
-2.15886e-07
1.81456e-10
-2.14582e-07
-1.30807e-09
-2.11641e-07
-2.94398e-09
-2.06513e-07
-5.12913e-09
-1.98906e-07
-7.60743e-09
-1.88413e-07
-1.04917e-08
-1.7526e-07
-1.31508e-08
-1.58611e-07
-1.6645e-08
-1.38653e-07
-1.99512e-08
-1.13948e-07
-2.46966e-08
-8.69123e-08
-2.7023e-08
-5.68023e-08
-3.00923e-08
-2.54147e-08
-3.13642e-08
6.64038e-09
-3.20347e-08
3.80492e-08
-3.13864e-08
7.21784e-08
-3.4115e-08
1.09994e-07
-3.78249e-08
1.51773e-07
-4.17839e-08
1.94972e-07
-4.32279e-08
2.38696e-07
-4.37197e-08
2.83325e-07
-4.45794e-08
3.2841e-07
-4.50181e-08
3.74843e-07
-4.63592e-08
4.20818e-07
-4.60424e-08
4.67213e-07
-4.65294e-08
5.12436e-07
-4.54455e-08
5.57743e-07
-4.54527e-08
6.01982e-07
-4.43587e-08
6.44423e-07
-4.24075e-08
6.86678e-07
-4.21454e-08
7.25556e-07
-3.87508e-08
7.64023e-07
-3.83867e-08
8.0079e-07
-3.66235e-08
8.372e-07
-3.62268e-08
8.7136e-07
-3.38883e-08
9.0518e-07
-3.35064e-08
9.35901e-07
-3.04558e-08
9.65816e-07
-2.9669e-08
9.95121e-07
-2.91475e-08
1.02158e-06
-2.64213e-08
1.0472e-06
-2.56622e-08
1.07054e-06
-2.34693e-08
1.09297e-06
-2.25056e-08
1.11408e-06
-2.12032e-08
1.13411e-06
-2.01205e-08
1.15393e-06
-1.9751e-08
1.1742e-06
-2.01974e-08
1.19041e-06
-1.61634e-08
1.20391e-06
-1.342e-08
1.21753e-06
-1.354e-08
1.23242e-06
-1.48271e-08
1.24441e-06
-1.19701e-08
1.2558e-06
-1.13557e-08
1.26678e-06
-1.09156e-08
1.27852e-06
-1.16591e-08
1.28802e-06
-9.40205e-09
1.29678e-06
-8.67883e-09
1.3056e-06
-8.74822e-09
1.31396e-06
-8.32359e-09
1.32366e-06
-9.71706e-09
1.33359e-06
-9.95441e-09
1.34113e-06
-7.58606e-09
1.34747e-06
-6.37806e-09
1.35386e-06
-6.4248e-09
1.36056e-06
-6.73543e-09
1.36826e-06
-7.71317e-09
1.37464e-06
-6.37182e-09
1.37964e-06
-5.00552e-09
1.38501e-06
-5.37206e-09
1.39005e-06
-5.0465e-09
1.39587e-06
-5.82103e-09
1.4001e-06
-4.23926e-09
1.40433e-06
-4.25512e-09
1.4088e-06
-4.48824e-09
1.41324e-06
-4.45492e-09
1.4166e-06
-3.38256e-09
1.41952e-06
-2.94356e-09
1.42264e-06
-3.11643e-09
1.42624e-06
-3.55931e-09
1.42931e-06
-3.04601e-09
1.43201e-06
-2.68009e-09
1.43496e-06
-2.91647e-09
1.43754e-06
-2.55527e-09
1.44028e-06
-2.72495e-09
1.44243e-06
-2.13796e-09
1.44453e-06
-2.08991e-09
1.44502e-06
-4.85388e-10
1.44629e-06
-1.20152e-09
1.44715e-06
-7.21338e-10
1.44805e-06
-6.28675e-10
1.44908e-06
-6.76437e-10
1.4499e-06
-4.18308e-10
1.45097e-06
-6.19009e-10
1.45149e-06
-6.42471e-11
1.45192e-06
-9.33154e-11
1.45199e-06
1.72174e-10
1.45193e-06
1.86837e-10
1.45174e-06
2.8091e-10
1.45126e-06
5.09162e-10
1.45106e-06
9.8518e-11
1.45087e-06
5.26685e-11
1.45093e-06
-3.07166e-10
1.45113e-06
-4.70464e-10
1.45139e-06
-4.71437e-10
1.45187e-06
-6.16723e-10
1.45292e-06
-1.14677e-09
1.45435e-06
-1.45429e-09
1.45523e-06
-8.33178e-10
1.45567e-06
-3.99103e-10
1.45649e-06
-7.33654e-10
1.45685e-06
-3.21279e-10
1.457e-06
-1.28055e-10
1.45687e-06
1.58365e-10
1.45674e-06
1.71427e-10
1.45636e-06
4.12472e-10
1.45595e-06
4.36048e-10
1.45534e-06
6.25539e-10
1.45478e-06
5.52901e-10
1.45417e-06
5.92285e-10
1.45351e-06
6.13932e-10
1.45279e-06
6.74176e-10
1.45205e-06
6.75964e-10
1.45131e-06
6.62127e-10
1.45052e-06
7.11997e-10
1.44975e-06
6.90209e-10
1.44894e-06
7.4596e-10
1.44809e-06
7.89222e-10
1.44719e-06
8.41786e-10
1.44625e-06
8.72338e-10
1.44531e-06
9.04009e-10
1.44427e-06
9.85272e-10
1.4432e-06
1.01178e-09
1.44219e-06
9.65484e-10
1.44109e-06
1.06978e-09
1.44011e-06
9.6209e-10
1.43899e-06
1.09733e-09
1.43798e-06
1.00254e-09
1.43695e-06
1.01993e-09
1.43597e-06
9.88297e-10
1.43505e-06
9.28064e-10
1.43414e-06
9.37376e-10
1.43334e-06
8.25266e-10
1.43245e-06
9.18881e-10
1.43168e-06
7.8378e-10
1.43086e-06
8.24414e-10
1.43005e-06
8.11421e-10
1.42921e-06
8.34371e-10
1.42834e-06
8.53441e-10
1.42746e-06
8.57574e-10
1.42657e-06
8.61771e-10
1.42565e-06
8.91187e-10
1.42471e-06
8.98712e-10
1.42373e-06
9.44711e-10
1.42272e-06
9.71561e-10
1.4217e-06
9.83914e-10
1.42071e-06
9.62904e-10
1.41968e-06
9.95502e-10
1.41867e-06
9.82108e-10
1.41765e-06
9.90285e-10
1.41665e-06
9.73783e-10
1.41564e-06
9.78691e-10
1.4147e-06
9.07481e-10
1.41374e-06
9.17322e-10
1.41285e-06
8.57655e-10
1.41202e-06
7.78427e-10
1.41116e-06
8.1205e-10
1.41053e-06
5.70468e-10
1.40986e-06
6.07786e-10
1.40917e-06
6.24463e-10
1.40846e-06
6.49278e-10
1.40772e-06
6.7683e-10
1.40693e-06
7.28935e-10
1.40611e-06
7.55937e-10
1.40515e-06
9.01108e-10
1.40415e-06
9.38573e-10
1.40314e-06
9.54389e-10
1.40212e-06
9.71434e-10
1.40108e-06
9.82896e-10
1.40008e-06
9.58941e-10
1.39908e-06
9.60721e-10
1.39817e-06
8.89369e-10
1.39732e-06
8.37193e-10
1.39649e-06
8.25461e-10
1.39579e-06
6.94342e-10
1.39498e-06
7.93711e-10
1.3945e-06
4.46528e-10
1.39396e-06
5.17895e-10
1.39337e-06
5.41205e-10
1.3928e-06
5.2708e-10
1.39219e-06
5.62759e-10
1.39156e-06
5.72407e-10
1.39088e-06
6.14227e-10
1.39018e-06
6.39736e-10
1.38945e-06
6.70766e-10
1.3887e-06
7.00493e-10
1.38792e-06
7.31613e-10
1.38713e-06
7.45731e-10
1.38633e-06
7.69998e-10
1.38553e-06
7.68561e-10
1.38473e-06
7.82421e-10
1.38394e-06
7.77483e-10
1.38313e-06
7.91724e-10
1.38234e-06
7.85613e-10
1.38152e-06
7.99112e-10
1.38071e-06
7.92574e-10
1.37989e-06
8.0418e-10
1.37907e-06
7.94523e-10
1.37823e-06
8.10398e-10
1.37741e-06
7.89003e-10
1.37657e-06
8.16726e-10
1.37575e-06
7.81291e-10
1.37491e-06
8.1532e-10
4.70871e-10
5.86777e-10
-4.26303e-09
-7.91381e-09
1.03964e-08
-2.16386e-08
2.15389e-08
-4.08101e-08
3.22013e-08
-6.30398e-08
4.13987e-08
-8.32402e-08
4.27292e-08
-1.01428e-07
3.80137e-08
-1.17055e-07
3.24994e-08
-1.29979e-07
2.67695e-08
-1.4054e-07
2.18596e-08
-1.48862e-07
1.77645e-08
-1.55857e-07
1.50428e-08
-1.61754e-07
1.30134e-08
-1.66841e-07
1.15989e-08
-1.71243e-07
1.04636e-08
-1.75225e-07
9.81226e-09
-1.78852e-07
9.27648e-09
-1.82222e-07
8.89213e-09
-1.85489e-07
8.58857e-09
-1.88278e-07
8.23848e-09
-1.90872e-07
7.67696e-09
-1.92452e-07
6.81793e-09
-1.93316e-07
5.54691e-09
-1.9328e-07
4.14919e-09
-1.92321e-07
2.61609e-09
-1.90117e-07
6.62214e-10
-1.86693e-07
-1.47677e-09
-1.82163e-07
-4.35321e-09
-1.76163e-07
-7.31241e-09
-1.6844e-07
-1.06704e-08
-1.58318e-07
-1.52537e-08
-1.4564e-07
-2.02871e-08
-1.29736e-07
-2.63953e-08
-1.10938e-07
-3.19472e-08
-8.79915e-08
-3.95895e-08
-6.19786e-08
-4.59589e-08
-3.13882e-08
-5.52791e-08
2.06926e-09
-6.04702e-08
4.00266e-08
-6.80305e-08
7.96028e-08
-7.09165e-08
1.2399e-07
-7.63937e-08
1.71471e-07
-7.88452e-08
2.21342e-07
-8.39662e-08
2.71391e-07
-8.78762e-08
3.21903e-07
-9.23021e-08
3.72829e-07
-9.4185e-08
4.24347e-07
-9.52525e-08
4.76328e-07
-9.6522e-08
5.28924e-07
-9.75451e-08
5.82668e-07
-1.00012e-07
6.35628e-07
-9.90185e-08
6.88788e-07
-9.97884e-08
7.40569e-07
-9.74508e-08
7.91969e-07
-9.70194e-08
8.41565e-07
-9.40862e-08
8.89417e-07
-9.02252e-08
9.36541e-07
-8.913e-08
9.80361e-07
-8.24292e-08
1.023e-06
-8.09389e-08
1.06387e-06
-7.73501e-08
1.10389e-06
-7.60623e-08
1.14165e-06
-7.14096e-08
1.17854e-06
-7.00954e-08
1.21296e-06
-6.46166e-08
1.24618e-06
-6.26451e-08
1.27837e-06
-6.12116e-08
1.30805e-06
-5.60787e-08
1.33649e-06
-5.41713e-08
1.3629e-06
-5.00282e-08
1.38815e-06
-4.78473e-08
1.41204e-06
-4.52064e-08
1.43469e-06
-4.28591e-08
1.45675e-06
-4.17408e-08
1.47812e-06
-4.14886e-08
1.50124e-06
-3.92432e-08
1.51921e-06
-3.12951e-08
1.53516e-06
-2.93884e-08
1.55048e-06
-3.00796e-08
1.57019e-06
-3.16396e-08
1.58445e-06
-2.55638e-08
1.59717e-06
-2.35677e-08
1.60967e-06
-2.40658e-08
1.62627e-06
-2.59209e-08
1.63842e-06
-2.07423e-08
1.64907e-06
-1.93207e-08
1.65957e-06
-1.87929e-08
1.67104e-06
-2.11779e-08
1.68228e-06
-2.12047e-08
1.69551e-06
-2.0836e-08
1.70587e-06
-1.67559e-08
1.71502e-06
-1.55968e-08
1.72366e-06
-1.53861e-08
1.73238e-06
-1.64427e-08
1.74368e-06
-1.76723e-08
1.75224e-06
-1.35714e-08
1.75961e-06
-1.27588e-08
1.76639e-06
-1.18377e-08
1.77525e-06
-1.46841e-08
1.78246e-06
-1.14645e-08
1.78909e-06
-1.09045e-08
1.7953e-06
-1.07058e-08
1.80354e-06
-1.26991e-08
1.80966e-06
-9.50293e-09
1.81506e-06
-8.34881e-09
1.8201e-06
-8.13332e-09
1.82608e-06
-9.49108e-09
1.83137e-06
-8.31614e-09
1.83641e-06
-7.69502e-09
1.84123e-06
-7.72513e-09
1.84581e-06
-7.12299e-09
1.85009e-06
-6.99099e-09
1.85403e-06
-6.08272e-09
1.85773e-06
-5.78924e-09
1.8619e-06
-4.66196e-09
1.86525e-06
-4.51767e-09
1.86838e-06
-3.75132e-09
1.8714e-06
-3.44192e-09
1.87438e-06
-3.35489e-09
1.87692e-06
-2.57778e-09
1.87945e-06
-2.72747e-09
1.8812e-06
-1.3608e-09
1.88292e-06
-1.46305e-09
1.88404e-06
-7.38644e-10
1.88579e-06
-1.48759e-09
1.88705e-06
-9.91511e-10
1.88925e-06
-1.7799e-09
1.89136e-06
-2.25507e-09
1.8938e-06
-2.69086e-09
1.89619e-06
-3.02542e-09
1.89892e-06
-3.49717e-09
1.90158e-06
-3.35931e-09
1.90421e-06
-3.42704e-09
1.90657e-06
-3.67668e-09
1.9087e-06
-3.68174e-09
1.91063e-06
-2.81134e-09
1.91184e-06
-1.64248e-09
1.91316e-06
-2.0525e-09
1.91418e-06
-1.3611e-09
1.91516e-06
-1.12894e-09
1.9158e-06
-4.95931e-10
1.91674e-06
-7.63669e-10
1.9174e-06
-2.34087e-10
1.91809e-06
-2.32516e-10
1.91882e-06
-6.39023e-11
1.91946e-06
-9.33935e-11
1.92009e-06
-6.50752e-11
1.92053e-06
1.23509e-10
1.921e-06
1.58143e-10
1.92142e-06
1.95122e-10
1.92163e-06
3.87514e-10
1.92192e-06
3.4655e-10
1.92212e-06
4.10947e-10
1.92218e-06
5.94642e-10
1.9222e-06
6.99706e-10
1.92217e-06
8.15413e-10
1.92205e-06
9.07328e-10
1.92198e-06
9.26819e-10
1.92182e-06
1.09276e-09
1.92167e-06
1.10433e-09
1.92152e-06
1.06237e-09
1.92135e-06
1.19995e-09
1.92121e-06
1.07151e-09
1.92101e-06
1.26002e-09
1.92089e-06
1.09866e-09
1.92074e-06
1.15404e-09
1.92064e-06
1.09038e-09
1.92058e-06
1.00289e-09
1.92046e-06
1.07953e-09
1.92036e-06
9.31163e-10
1.92018e-06
1.11036e-09
1.91991e-06
1.04924e-09
1.91963e-06
1.09048e-09
1.91924e-06
1.19089e-09
1.91881e-06
1.26046e-09
1.91831e-06
1.3333e-09
1.91774e-06
1.39284e-09
1.91714e-06
1.43136e-09
1.91649e-06
1.49174e-09
1.91581e-06
1.52987e-09
1.91512e-06
1.57976e-09
1.9144e-06
1.64204e-09
1.91371e-06
1.62766e-09
1.913e-06
1.62246e-09
1.91229e-06
1.65027e-09
1.91159e-06
1.63645e-09
1.9109e-06
1.63374e-09
1.91024e-06
1.58762e-09
1.90958e-06
1.59169e-09
1.90903e-06
1.42217e-09
1.90842e-06
1.47958e-09
1.90792e-06
1.31081e-09
1.9074e-06
1.24592e-09
1.90677e-06
1.38232e-09
1.90632e-06
9.4172e-10
1.90572e-06
1.12232e-09
1.90501e-06
1.24721e-09
1.90422e-06
1.35061e-09
1.90335e-06
1.45648e-09
1.90243e-06
1.56008e-09
1.90145e-06
1.65093e-09
1.90044e-06
1.82518e-09
1.89934e-06
1.94583e-09
1.8983e-06
1.90393e-09
1.89731e-06
1.86445e-09
1.89638e-06
1.82268e-09
1.89552e-06
1.73835e-09
1.89468e-06
1.72424e-09
1.89401e-06
1.49102e-09
1.89332e-06
1.48341e-09
1.89254e-06
1.56456e-09
1.89193e-06
1.27058e-09
1.89108e-06
1.61373e-09
1.89054e-06
9.41452e-10
1.88988e-06
1.1321e-09
1.8891e-06
1.26036e-09
1.88836e-06
1.21463e-09
1.88753e-06
1.3218e-09
1.88668e-06
1.33733e-09
1.88579e-06
1.42391e-09
1.88487e-06
1.46965e-09
1.88393e-06
1.52099e-09
1.88297e-06
1.56533e-09
1.88201e-06
1.61349e-09
1.88105e-06
1.62977e-09
1.88009e-06
1.66973e-09
1.87914e-06
1.66255e-09
1.87818e-06
1.69572e-09
1.87723e-06
1.68324e-09
1.87625e-06
1.7246e-09
1.87529e-06
1.71012e-09
1.87429e-06
1.75412e-09
1.8733e-06
1.73684e-09
1.87228e-06
1.77806e-09
1.87126e-06
1.75467e-09
1.87021e-06
1.80121e-09
1.86918e-06
1.7514e-09
1.86812e-06
1.81342e-09
1.86712e-06
1.70158e-09
1.86594e-06
1.92855e-09
1.04318e-09
-5.70293e-09
1.42842e-09
-1.72851e-08
2.1967e-08
-3.44311e-08
3.86734e-08
-5.5744e-08
5.35025e-08
-7.54361e-08
6.10789e-08
-9.29367e-08
6.02176e-08
-1.08212e-07
5.32769e-08
-1.20691e-07
4.49654e-08
-1.30629e-07
3.66948e-08
-1.38661e-07
2.98782e-08
-1.45633e-07
2.47237e-08
-1.51115e-07
2.05129e-08
-1.55515e-07
1.74003e-08
-1.59127e-07
1.51998e-08
-1.62072e-07
1.33964e-08
-1.6453e-07
1.22582e-08
-1.66627e-07
1.13626e-08
-1.68423e-07
1.06778e-08
-1.69683e-07
9.83804e-09
-1.70374e-07
8.91993e-09
-1.70367e-07
7.66115e-09
-1.69648e-07
6.09007e-09
-1.68107e-07
3.99854e-09
-1.65618e-07
1.65322e-09
-1.61981e-07
-1.02699e-09
-1.57064e-07
-4.26135e-09
-1.50855e-07
-7.69019e-09
-1.43097e-07
-1.21165e-08
-1.33096e-07
-1.73182e-08
-1.20908e-07
-2.28623e-08
-1.05794e-07
-3.03706e-08
-8.77554e-08
-3.83274e-08
-6.55365e-08
-4.86146e-08
-4.05735e-08
-5.69089e-08
-1.06776e-08
-6.94826e-08
2.27908e-08
-7.94239e-08
6.1257e-08
-9.37361e-08
1.02815e-07
-1.02014e-07
1.48434e-07
-1.1363e-07
1.96601e-07
-1.19059e-07
2.49479e-07
-1.29241e-07
3.05032e-07
-1.34377e-07
3.62493e-07
-1.41401e-07
4.1977e-07
-1.45154e-07
4.77703e-07
-1.50232e-07
5.35593e-07
-1.52101e-07
5.93898e-07
-1.53592e-07
6.52439e-07
-1.55028e-07
7.11449e-07
-1.56482e-07
7.71008e-07
-1.59463e-07
8.29273e-07
-1.57263e-07
8.87047e-07
-1.57629e-07
9.4286e-07
-1.53488e-07
9.97405e-07
-1.51755e-07
1.04914e-06
-1.45967e-07
1.09899e-06
-1.40033e-07
1.14697e-06
-1.36938e-07
1.19172e-06
-1.27015e-07
1.23472e-06
-1.23848e-07
1.27575e-06
-1.18233e-07
1.31551e-06
-1.15663e-07
1.35284e-06
-1.08529e-07
1.38896e-06
-1.05934e-07
1.42273e-06
-9.81528e-08
1.45522e-06
-9.49134e-08
1.48619e-06
-9.20895e-08
1.51484e-06
-8.47558e-08
1.54197e-06
-8.13923e-08
1.56715e-06
-7.53777e-08
1.59122e-06
-7.20435e-08
1.61394e-06
-6.80821e-08
1.63549e-06
-6.45052e-08
1.65633e-06
-6.2491e-08
1.67653e-06
-6.16094e-08
1.69817e-06
-6.08241e-08
1.71706e-06
-5.00984e-08
1.73304e-06
-4.52585e-08
1.74781e-06
-4.47616e-08
1.7661e-06
-4.9881e-08
1.78145e-06
-4.08441e-08
1.79437e-06
-3.63857e-08
1.80676e-06
-3.63588e-08
1.82228e-06
-4.13501e-08
1.83571e-06
-3.40888e-08
1.84682e-06
-3.03631e-08
1.85764e-06
-2.95831e-08
1.86866e-06
-3.21992e-08
1.88017e-06
-3.27189e-08
1.893e-06
-3.36811e-08
1.90445e-06
-2.82185e-08
1.91388e-06
-2.50478e-08
1.92298e-06
-2.44957e-08
1.93201e-06
-2.54808e-08
1.94279e-06
-2.84474e-08
1.95245e-06
-2.32491e-08
1.96022e-06
-2.05407e-08
1.96767e-06
-1.9299e-08
1.97619e-06
-2.32159e-08
1.98428e-06
-1.95764e-08
1.99132e-06
-1.79625e-08
1.99818e-06
-1.75743e-08
2.00634e-06
-2.08534e-08
2.01354e-06
-1.67056e-08
2.01968e-06
-1.44838e-08
2.02539e-06
-1.38078e-08
2.0316e-06
-1.56525e-08
2.03752e-06
-1.42054e-08
2.04315e-06
-1.32969e-08
2.04849e-06
-1.30429e-08
2.05351e-06
-1.21382e-08
2.05801e-06
-1.1497e-08
2.06213e-06
-1.02121e-08
2.0661e-06
-9.77109e-09
2.07087e-06
-9.44045e-09
2.07479e-06
-8.40172e-09
2.07858e-06
-7.43764e-09
2.0823e-06
-6.96538e-09
2.086e-06
-6.76742e-09
2.08935e-06
-5.55989e-09
2.09188e-06
-4.84135e-09
2.09402e-06
-3.06325e-09
2.09591e-06
-2.99657e-09
2.09781e-06
-2.38743e-09
2.10006e-06
-3.58996e-09
2.10224e-06
-3.09202e-09
2.10602e-06
-5.55951e-09
2.109e-06
-5.3814e-09
2.11233e-06
-6.23105e-09
2.11588e-06
-6.85656e-09
2.11993e-06
-7.82069e-09
2.12385e-06
-7.50048e-09
2.1277e-06
-7.45862e-09
2.13097e-06
-7.10912e-09
2.13378e-06
-6.5921e-09
2.13622e-06
-5.32166e-09
2.1379e-06
-3.37437e-09
2.13932e-06
-3.50119e-09
2.14035e-06
-2.44387e-09
2.14147e-06
-2.29952e-09
2.14253e-06
-1.57719e-09
2.14382e-06
-2.05441e-09
2.14513e-06
-1.53801e-09
2.14645e-06
-1.53646e-09
2.1478e-06
-1.38762e-09
2.14901e-06
-1.3096e-09
2.1502e-06
-1.27841e-09
2.15112e-06
-8.34786e-10
2.15211e-06
-8.70144e-10
2.15302e-06
-7.71476e-10
2.15354e-06
-1.97467e-10
2.15419e-06
-3.97451e-10
2.15466e-06
-1.60708e-10
2.15503e-06
1.22844e-10
2.15535e-06
2.95554e-10
2.15559e-06
4.94963e-10
2.15579e-06
6.20513e-10
2.15605e-06
6.01228e-10
2.1563e-06
7.81562e-10
2.15656e-06
7.77013e-10
2.15682e-06
7.45404e-10
2.15709e-06
8.73417e-10
2.15742e-06
6.93655e-10
2.15774e-06
8.93739e-10
2.1581e-06
7.02926e-10
2.15845e-06
8.00711e-10
2.1588e-06
7.3975e-10
2.15914e-06
6.70501e-10
2.1594e-06
8.37656e-10
2.15963e-06
7.13592e-10
2.15968e-06
1.06818e-09
2.15981e-06
9.12069e-10
2.15983e-06
1.06285e-09
2.1597e-06
1.31922e-09
2.15948e-06
1.47095e-09
2.15917e-06
1.6244e-09
2.15877e-06
1.7645e-09
2.15832e-06
1.84964e-09
2.15783e-06
1.93861e-09
2.1573e-06
2.00693e-09
2.15678e-06
2.04453e-09
2.15624e-06
2.12548e-09
2.15573e-06
2.07206e-09
2.15521e-06
2.08431e-09
2.15472e-06
2.08433e-09
2.15421e-06
2.0782e-09
2.15373e-06
2.05874e-09
2.15329e-06
1.96926e-09
2.15287e-06
1.96773e-09
2.15255e-06
1.69086e-09
2.15218e-06
1.80412e-09
2.15193e-06
1.50963e-09
2.15161e-06
1.50575e-09
2.15113e-06
1.78526e-09
2.15073e-06
1.26119e-09
2.15015e-06
1.60185e-09
2.14944e-06
1.8625e-09
2.14861e-06
2.07767e-09
2.14769e-06
2.28313e-09
2.14671e-06
2.43936e-09
2.14567e-06
2.59501e-09
2.14467e-06
2.73074e-09
2.14358e-06
2.9233e-09
2.14258e-06
2.79434e-09
2.14169e-06
2.65799e-09
2.14088e-06
2.52998e-09
2.14015e-06
2.36606e-09
2.13947e-06
2.31333e-09
2.13899e-06
1.89096e-09
2.13843e-06
1.9736e-09
2.13775e-06
2.18453e-09
2.13718e-06
1.79906e-09
2.13638e-06
2.36865e-09
2.13568e-06
1.58243e-09
2.13496e-06
1.79571e-09
2.13407e-06
2.07426e-09
2.13322e-06
1.98868e-09
2.1323e-06
2.16006e-09
2.13133e-06
2.21054e-09
2.13033e-06
2.32319e-09
2.12931e-06
2.3872e-09
2.12827e-06
2.44943e-09
2.12724e-06
2.4975e-09
2.1262e-06
2.55178e-09
2.12518e-06
2.5694e-09
2.12415e-06
2.61929e-09
2.12313e-06
2.60562e-09
2.12211e-06
2.66164e-09
2.12109e-06
2.64124e-09
2.12005e-06
2.71631e-09
2.11901e-06
2.69346e-09
2.11793e-06
2.77567e-09
2.11687e-06
2.74551e-09
2.11575e-06
2.82498e-09
2.11465e-06
2.78608e-09
2.1135e-06
2.86968e-09
2.11238e-06
2.78711e-09
2.11122e-06
2.88604e-09
2.11014e-06
2.68311e-09
2.10883e-06
3.15666e-09
1.74457e-09
-1.01467e-08
1.15638e-08
-2.57171e-08
3.75259e-08
-4.50427e-08
5.79874e-08
-6.39901e-08
7.24381e-08
-8.08729e-08
7.79495e-08
-9.52053e-08
7.45376e-08
-1.06962e-07
6.50206e-08
-1.16594e-07
5.45845e-08
-1.2474e-07
4.4828e-08
-1.3133e-07
3.6456e-08
-1.3636e-07
2.97407e-08
-1.40228e-07
2.43677e-08
-1.43175e-07
2.03358e-08
-1.45427e-07
1.74391e-08
-1.47172e-07
1.51297e-08
-1.48482e-07
1.35573e-08
-1.49362e-07
1.2231e-08
-1.49729e-07
1.10343e-08
-1.49685e-07
9.78355e-09
-1.49023e-07
8.24777e-09
-1.47621e-07
6.25019e-09
-1.45338e-07
3.79837e-09
-1.42109e-07
7.61067e-10
-1.37685e-07
-2.77795e-09
-1.31841e-07
-6.87749e-09
-1.24269e-07
-1.18393e-08
-1.14954e-07
-1.70105e-08
-1.03597e-07
-2.34783e-08
-8.93834e-08
-3.1536e-08
-7.2429e-08
-3.98207e-08
-5.16039e-08
-5.11988e-08
-2.78072e-08
-6.21262e-08
6.28473e-10
-7.70519e-08
3.3668e-08
-8.99451e-08
7.20355e-08
-1.07848e-07
1.14082e-07
-1.21465e-07
1.62031e-07
-1.41675e-07
2.12496e-07
-1.52463e-07
2.684e-07
-1.69515e-07
3.26239e-07
-1.76872e-07
3.88821e-07
-1.9179e-07
4.52612e-07
-1.98147e-07
5.18334e-07
-2.07087e-07
5.83523e-07
-2.10335e-07
6.49511e-07
-2.16202e-07
7.15006e-07
-2.17603e-07
7.8121e-07
-2.19851e-07
8.46716e-07
-2.20508e-07
9.12599e-07
-2.22302e-07
9.77935e-07
-2.24658e-07
1.0411e-06
-2.20366e-07
1.1031e-06
-2.1966e-07
1.16231e-06
-2.12914e-07
1.21926e-06
-2.08909e-07
1.2725e-06
-1.99347e-07
1.32327e-06
-1.90727e-07
1.37122e-06
-1.84674e-07
1.41575e-06
-1.71373e-07
1.45805e-06
-1.66067e-07
1.49789e-06
-1.57951e-07
1.53609e-06
-1.5373e-07
1.57158e-06
-1.43864e-07
1.60567e-06
-1.39801e-07
1.63723e-06
-1.29522e-07
1.66738e-06
-1.24876e-07
1.69565e-06
-1.20309e-07
1.72164e-06
-1.10812e-07
1.74611e-06
-1.05977e-07
1.76854e-06
-9.8029e-08
1.79e-06
-9.36434e-08
1.81014e-06
-8.84297e-08
1.82922e-06
-8.36974e-08
1.8476e-06
-8.0756e-08
1.86519e-06
-7.91116e-08
1.88372e-06
-7.93027e-08
1.9018e-06
-6.80892e-08
1.91657e-06
-5.99106e-08
1.92995e-06
-5.80431e-08
1.94489e-06
-6.47443e-08
1.95975e-06
-5.56113e-08
1.97212e-06
-4.86356e-08
1.98342e-06
-4.75485e-08
1.99623e-06
-5.40712e-08
2.00936e-06
-4.71378e-08
2.02028e-06
-4.12274e-08
2.03056e-06
-3.98305e-08
2.04023e-06
-4.18848e-08
2.05062e-06
-4.31136e-08
2.06196e-06
-4.50289e-08
2.07289e-06
-3.91724e-08
2.08203e-06
-3.42087e-08
2.09056e-06
-3.30421e-08
2.09898e-06
-3.38996e-08
2.1083e-06
-3.77755e-08
2.11762e-06
-3.25779e-08
2.12527e-06
-2.8206e-08
2.13264e-06
-2.66888e-08
2.14003e-06
-3.06148e-08
2.14773e-06
-2.7309e-08
2.15458e-06
-2.48297e-08
2.16129e-06
-2.42916e-08
2.16845e-06
-2.80142e-08
2.17555e-06
-2.38026e-08
2.18161e-06
-2.05347e-08
2.18741e-06
-1.9563e-08
2.19303e-06
-2.12108e-08
2.1988e-06
-1.99356e-08
2.20427e-06
-1.87461e-08
2.20936e-06
-1.81075e-08
2.21407e-06
-1.68439e-08
2.21818e-06
-1.56203e-08
2.22203e-06
-1.40788e-08
2.22558e-06
-1.3336e-08
2.22995e-06
-1.38283e-08
2.23379e-06
-1.21889e-08
2.23753e-06
-1.10598e-08
2.24125e-06
-1.04825e-08
2.24495e-06
-1.01945e-08
2.24821e-06
-8.46081e-09
2.25057e-06
-6.7777e-09
2.25245e-06
-4.5234e-09
2.25414e-06
-4.35427e-09
2.25587e-06
-3.85612e-09
2.258e-06
-5.5531e-09
2.26076e-06
-5.7576e-09
2.26467e-06
-9.45745e-09
2.26822e-06
-9.03215e-09
2.27214e-06
-1.03418e-08
2.27648e-06
-1.14503e-08
2.2812e-06
-1.28052e-08
2.2859e-06
-1.23961e-08
2.29035e-06
-1.20817e-08
2.29413e-06
-1.10263e-08
2.2973e-06
-9.86209e-09
2.29999e-06
-8.07972e-09
2.30189e-06
-5.33817e-09
2.30322e-06
-4.86073e-09
2.30412e-06
-3.41426e-09
2.30512e-06
-3.35717e-09
2.30619e-06
-2.68649e-09
2.30748e-06
-3.34665e-09
2.30886e-06
-2.91747e-09
2.31048e-06
-3.14244e-09
2.31192e-06
-2.81478e-09
2.31329e-06
-2.67981e-09
2.31465e-06
-2.66234e-09
2.31587e-06
-2.09972e-09
2.31697e-06
-2.02146e-09
2.31808e-06
-1.93839e-09
2.31873e-06
-9.31883e-10
2.31951e-06
-1.27586e-09
2.32012e-06
-8.80405e-10
2.32058e-06
-4.5284e-10
2.321e-06
-2.16444e-10
2.32131e-06
8.39164e-11
2.3216e-06
2.33667e-10
2.32199e-06
1.3475e-10
2.32239e-06
3.12755e-10
2.32282e-06
2.61491e-10
2.32326e-06
2.37623e-10
2.32378e-06
2.86914e-10
2.32436e-06
5.53368e-11
2.32497e-06
2.35024e-10
2.32554e-06
9.20044e-11
2.32613e-06
1.93068e-10
2.32674e-06
1.29435e-10
2.32731e-06
1.07257e-10
2.32786e-06
3.1016e-10
2.32828e-06
3.03092e-10
2.32848e-06
8.81683e-10
2.3287e-06
6.89741e-10
2.3288e-06
9.51384e-10
2.32886e-06
1.26628e-09
2.32876e-06
1.56538e-09
2.32854e-06
1.82808e-09
2.32823e-06
2.05988e-09
2.32784e-06
2.20172e-09
2.32742e-06
2.3212e-09
2.32696e-06
2.41065e-09
2.32652e-06
2.43629e-09
2.32608e-06
2.50927e-09
2.32566e-06
2.42113e-09
2.32525e-06
2.4324e-09
2.32487e-06
2.39948e-09
2.32449e-06
2.3885e-09
2.32413e-06
2.35158e-09
2.32384e-06
2.20513e-09
2.32355e-06
2.20026e-09
2.32338e-06
1.80072e-09
2.32319e-06
1.9385e-09
2.32305e-06
1.59534e-09
2.3229e-06
1.58392e-09
2.32248e-06
2.13326e-09
2.32211e-06
1.53862e-09
2.32153e-06
2.08119e-09
2.32082e-06
2.47293e-09
2.31996e-06
2.83225e-09
2.31898e-06
3.1539e-09
2.31795e-06
3.37386e-09
2.31687e-06
3.57508e-09
2.31583e-06
3.66442e-09
2.31476e-06
3.87294e-09
2.3138e-06
3.64251e-09
2.31296e-06
3.38973e-09
2.31223e-06
3.15308e-09
2.31159e-06
2.89439e-09
2.31106e-06
2.74581e-09
2.31065e-06
2.21048e-09
2.3102e-06
2.34701e-09
2.30965e-06
2.67232e-09
2.30911e-06
2.28371e-09
2.30836e-06
3.05455e-09
2.30753e-06
2.35434e-09
2.30673e-06
2.5193e-09
2.3058e-06
2.92168e-09
2.30486e-06
2.84211e-09
2.30386e-06
3.06317e-09
2.30281e-06
3.16119e-09
2.30173e-06
3.29267e-09
2.30063e-06
3.37269e-09
2.29952e-06
3.43787e-09
2.29842e-06
3.48526e-09
2.29732e-06
3.5397e-09
2.29624e-06
3.55691e-09
2.29516e-06
3.61083e-09
2.2941e-06
3.59057e-09
2.29302e-06
3.67012e-09
2.29195e-06
3.64249e-09
2.29085e-06
3.75337e-09
2.28976e-06
3.72324e-09
2.28863e-06
3.84708e-09
2.2875e-06
3.80454e-09
2.28633e-06
3.92434e-09
2.28516e-06
3.87073e-09
2.28395e-06
3.99405e-09
2.28276e-06
3.87718e-09
2.28153e-06
4.01351e-09
2.2804e-06
3.71578e-09
2.27907e-06
4.38431e-09
2.62934e-09
-1.42173e-08
2.57697e-08
-3.2676e-08
5.59731e-08
-5.05679e-08
7.58676e-08
-6.71601e-08
8.90184e-08
-8.12459e-08
9.20231e-08
-9.2381e-08
8.56602e-08
-1.01615e-07
7.42423e-08
-1.09196e-07
6.21519e-08
-1.15346e-07
5.09646e-08
-1.20192e-07
4.12892e-08
-1.23799e-07
3.33354e-08
-1.26455e-07
2.7011e-08
-1.28405e-07
2.22726e-08
-1.29736e-07
1.87586e-08
-1.30599e-07
1.59811e-08
-1.30906e-07
1.38522e-08
-1.30849e-07
1.2163e-08
-1.30349e-07
1.05227e-08
-1.29248e-07
8.67281e-09
-1.27429e-07
6.41809e-09
-1.24733e-07
3.54523e-09
-1.20953e-07
9.91027e-12
-1.15929e-07
-4.27155e-09
-1.09354e-07
-9.36025e-09
-1.00994e-07
-1.52442e-08
-9.03796e-08
-2.24593e-08
-7.74952e-08
-2.99003e-08
-6.20525e-08
-3.89257e-08
-4.29467e-08
-5.06464e-08
-2.06329e-08
-6.21381e-08
6.56591e-09
-7.84011e-08
3.80753e-08
-9.36368e-08
7.58204e-08
-1.14796e-07
1.17938e-07
-1.3206e-07
1.67464e-07
-1.57372e-07
2.21297e-07
-1.75292e-07
2.81309e-07
-2.01678e-07
3.44094e-07
-2.15233e-07
4.12669e-07
-2.38068e-07
4.83157e-07
-2.47337e-07
5.57734e-07
-2.66321e-07
6.31647e-07
-2.72048e-07
7.08023e-07
-2.83411e-07
7.8308e-07
-2.85374e-07
8.5881e-07
-2.91887e-07
9.32744e-07
-2.91519e-07
1.0091e-06
-2.96275e-07
1.08262e-06
-2.9402e-07
1.15662e-06
-2.96277e-07
1.22753e-06
-2.95377e-07
1.29544e-06
-2.88142e-07
1.36157e-06
-2.85795e-07
1.4236e-06
-2.75125e-07
1.48192e-06
-2.67443e-07
1.53531e-06
-2.52867e-07
1.58545e-06
-2.4074e-07
1.63143e-06
-2.30421e-07
1.67381e-06
-2.13583e-07
1.71373e-06
-2.05917e-07
1.75041e-06
-1.94544e-07
1.78546e-06
-1.8869e-07
1.81744e-06
-1.75764e-07
1.84769e-06
-1.69904e-07
1.87516e-06
-1.56854e-07
1.90135e-06
-1.50916e-07
1.92548e-06
-1.44429e-07
1.94745e-06
-1.32894e-07
1.96805e-06
-1.26728e-07
1.98662e-06
-1.16881e-07
2.00436e-06
-1.11525e-07
2.02085e-06
-1.05187e-07
2.03634e-06
-9.92726e-08
2.05131e-06
-9.56179e-08
2.06521e-06
-9.29338e-08
2.07964e-06
-9.36898e-08
2.09492e-06
-8.3286e-08
2.10834e-06
-7.31959e-08
2.11997e-06
-6.95447e-08
2.13048e-06
-7.51554e-08
2.14286e-06
-6.78785e-08
2.15444e-06
-6.0088e-08
2.16465e-06
-5.76374e-08
2.1739e-06
-6.32322e-08
2.18476e-06
-5.7918e-08
2.19552e-06
-5.19377e-08
2.20442e-06
-4.87133e-08
2.21236e-06
-4.98405e-08
2.22052e-06
-5.12869e-08
2.2296e-06
-5.41248e-08
2.23907e-06
-4.8665e-08
2.24753e-06
-4.26878e-08
2.25491e-06
-4.04341e-08
2.26193e-06
-4.09189e-08
2.26912e-06
-4.49764e-08
2.27711e-06
-4.05792e-08
2.28435e-06
-3.5466e-08
2.29107e-06
-3.34378e-08
2.29674e-06
-3.62946e-08
2.3033e-06
-3.3901e-08
2.30949e-06
-3.10405e-08
2.31553e-06
-3.03427e-08
2.32112e-06
-3.36046e-08
2.32736e-06
-3.00448e-08
2.33299e-06
-2.61389e-08
2.33817e-06
-2.46942e-08
2.34285e-06
-2.58385e-08
2.34783e-06
-2.48668e-08
2.35265e-06
-2.35345e-08
2.35698e-06
-2.24121e-08
2.36082e-06
-2.06885e-08
2.36404e-06
-1.88635e-08
2.36712e-06
-1.71818e-08
2.36991e-06
-1.61321e-08
2.3734e-06
-1.73231e-08
2.37666e-06
-1.53869e-08
2.37996e-06
-1.42161e-08
2.38326e-06
-1.35816e-08
2.3865e-06
-1.31765e-08
2.38915e-06
-1.07471e-08
2.39091e-06
-8.13324e-09
2.39218e-06
-5.41242e-09
2.3933e-06
-5.15257e-09
2.39462e-06
-4.92104e-09
2.39635e-06
-7.1181e-09
2.39888e-06
-8.19771e-09
2.40233e-06
-1.2897e-08
2.40601e-06
-1.28023e-08
2.41044e-06
-1.49462e-08
2.41533e-06
-1.65841e-08
2.42024e-06
-1.79808e-08
2.42525e-06
-1.75831e-08
2.42992e-06
-1.68949e-08
2.43386e-06
-1.50956e-08
2.43713e-06
-1.32317e-08
2.4398e-06
-1.08172e-08
2.44167e-06
-7.26498e-09
2.44272e-06
-5.94845e-09
2.44333e-06
-4.11686e-09
2.44412e-06
-4.20399e-09
2.44498e-06
-3.5752e-09
2.44601e-06
-4.39008e-09
2.44727e-06
-4.17026e-09
2.44874e-06
-4.61042e-09
2.45009e-06
-4.16296e-09
2.45139e-06
-3.98361e-09
2.45266e-06
-3.9669e-09
2.45385e-06
-3.3348e-09
2.45491e-06
-3.13739e-09
2.45596e-06
-3.0465e-09
2.45661e-06
-1.67505e-09
2.45723e-06
-2.01054e-09
2.4578e-06
-1.5645e-09
2.45819e-06
-9.65042e-10
2.45856e-06
-7.02988e-10
2.45885e-06
-3.01449e-10
2.45909e-06
-1.14784e-10
2.45947e-06
-3.35698e-10
2.45985e-06
-1.43485e-10
2.46032e-06
-2.93332e-10
2.46079e-06
-3.1224e-10
2.46148e-06
-4.79359e-10
2.46207e-06
-6.04711e-10
2.46277e-06
-5.2273e-10
2.46347e-06
-6.4529e-10
2.46415e-06
-5.13957e-10
2.46488e-06
-6.00237e-10
2.46553e-06
-5.42002e-10
2.46615e-06
-2.9294e-10
2.46661e-06
-1.53918e-10
2.46691e-06
5.90929e-10
2.46712e-06
4.80404e-10
2.46722e-06
8.52313e-10
2.46731e-06
1.18292e-09
2.46723e-06
1.64384e-09
2.46703e-06
2.03034e-09
2.46671e-06
2.36388e-09
2.46631e-06
2.56739e-09
2.46588e-06
2.72364e-09
2.46542e-06
2.82179e-09
2.46496e-06
2.84054e-09
2.46453e-06
2.88081e-09
2.46413e-06
2.76427e-09
2.46375e-06
2.7472e-09
2.46338e-06
2.69355e-09
2.46306e-06
2.64259e-09
2.46276e-06
2.58355e-09
2.46252e-06
2.37331e-09
2.46232e-06
2.3397e-09
2.46222e-06
1.83796e-09
2.46208e-06
2.02264e-09
2.46198e-06
1.62242e-09
2.4619e-06
1.59052e-09
2.46155e-06
2.40585e-09
2.46115e-06
1.84136e-09
2.46051e-06
2.61081e-09
2.45978e-06
3.10289e-09
2.45885e-06
3.6542e-09
2.4578e-06
4.09693e-09
2.45667e-06
4.39681e-09
2.45551e-06
4.62361e-09
2.45439e-06
4.68314e-09
2.45332e-06
4.82436e-09
2.45236e-06
4.48266e-09
2.45152e-06
4.11066e-09
2.45081e-06
3.74769e-09
2.45022e-06
3.37849e-09
2.44978e-06
3.07719e-09
2.4494e-06
2.50025e-09
2.44901e-06
2.66175e-09
2.44855e-06
3.05828e-09
2.44802e-06
2.74856e-09
2.4473e-06
3.70863e-09
2.44634e-06
3.2354e-09
2.44546e-06
3.32314e-09
2.44449e-06
3.80454e-09
2.44345e-06
3.78205e-09
2.44237e-06
4.04175e-09
2.44122e-06
4.19543e-09
2.44005e-06
4.34443e-09
2.43886e-06
4.43815e-09
2.43767e-06
4.50066e-09
2.43649e-06
4.54452e-09
2.43532e-06
4.59435e-09
2.43417e-06
4.60811e-09
2.43302e-06
4.66186e-09
2.43189e-06
4.63501e-09
2.43075e-06
4.73529e-09
2.42962e-06
4.70135e-09
2.42845e-06
4.8476e-09
2.4273e-06
4.81144e-09