/*--------------------------------*- C++ -*----------------------------------*\
| =========                 |                                                 |
| \\      /  F ield         | OpenFOAM: The Open Source CFD Toolbox           |
|  \\    /   O peration     | Version:  2312                                  |
|   \\  /    A nd           | Website:  www.openfoam.com                      |
|    \\/     M anipulation  |                                                 |
\*---------------------------------------------------------------------------*/
FoamFile
{
    version     2.0;
    format      ascii;
    arch        "LSB;label=32;scalar=64";
    class       volScalarField;
    location    "0.002";
    object      rho;
}
// * * * * * * * * * * * * * * * * * * * * * * * * * * * * * * * * * * * * * //

dimensions      [1 -3 0 0 0 0 0];

internalField   nonuniform List<scalar> 
48128
(
0.0361666
0.0360835
0.0360305
0.0357908
0.035592
0.0352161
0.0345837
0.0338397
0.0330991
0.0324789
0.0320487
0.0317738
0.0315957
0.0315709
0.0316473
0.0318047
0.032053
0.032393
0.0328293
0.0333803
0.034102
0.0349404
0.0359004
0.0370257
0.0383294
0.0398102
0.041472
0.0433113
0.0453907
0.0476469
0.0501447
0.0528214
0.0557325
0.058833
0.0621734
0.0656801
0.0694419
0.0731871
0.0771117
0.0810699
0.0850253
0.0884251
0.0923705
0.0962603
0.100153
0.104001
0.10778
0.111472
0.115055
0.118579
0.121928
0.125201
0.128243
0.131155
0.133934
0.136392
0.138874
0.140981
0.143156
0.144997
0.146828
0.148355
0.149899
0.151185
0.152426
0.153625
0.154538
0.155515
0.156264
0.156996
0.157652
0.158196
0.158697
0.159017
0.159111
0.160547
0.161174
0.161159
0.16094
0.162236
0.162725
0.16268
0.162487
0.163526
0.163965
0.164044
0.164136
0.164301
0.164346
0.165003
0.165322
0.1654
0.165423
0.165379
0.165922
0.166162
0.166137
0.16609
0.166357
0.166472
0.166428
0.166343
0.166668
0.166775
0.16673
0.166696
0.166771
0.166787
0.16675
0.166706
0.166569
0.16641
0.166225
0.166006
0.165954
0.16589
0.165803
0.165728
0.165653
0.165477
0.165219
0.164892
0.164606
0.164366
0.164189
0.16404
0.164149
0.16421
0.164367
0.164572
0.164797
0.16502
0.165192
0.16533
0.165382
0.165372
0.165238
0.165064
0.164863
0.164689
0.164528
0.164412
0.164293
0.164214
0.164116
0.16402
0.163928
0.163818
0.163715
0.163618
0.163466
0.163335
0.163196
0.163051
0.162913
0.162775
0.162644
0.16253
0.162419
0.16232
0.162232
0.162164
0.162099
0.162045
0.161996
0.161952
0.161904
0.161863
0.161801
0.161754
0.161661
0.161581
0.161482
0.161375
0.161265
0.161147
0.161026
0.160901
0.160782
0.160663
0.160553
0.160452
0.160361
0.160276
0.160201
0.160134
0.160076
0.160026
0.159985
0.15995
0.159921
0.159898
0.15987
0.1598
0.159724
0.159633
0.15953
0.159416
0.159292
0.159172
0.159058
0.158959
0.158878
0.158814
0.158766
0.158732
0.158713
0.158708
0.158714
0.158716
0.1587
0.158713
0.158632
0.158578
0.158522
0.15845
0.158381
0.158307
0.158234
0.158161
0.15809
0.158023
0.157959
0.157899
0.157842
0.157787
0.157733
0.157681
0.157628
0.157577
0.157525
0.157474
0.157424
0.157376
0.157329
0.157285
0.157244
0.157209
0.15718
0.157072
0.0362056
0.0361076
0.0360725
0.0358741
0.0356892
0.0352964
0.0347151
0.0340578
0.0334257
0.0329706
0.0327146
0.0325047
0.0323781
0.0323936
0.0324962
0.0326719
0.0329282
0.033269
0.0337104
0.0342395
0.0348664
0.0356535
0.0365769
0.0376615
0.0389093
0.0403218
0.0418939
0.043645
0.0455973
0.0477025
0.0500549
0.0526021
0.0553968
0.058384
0.0616272
0.0650246
0.0687613
0.0726063
0.0762716
0.0803404
0.0844165
0.0883645
0.0923692
0.0963787
0.100407
0.104388
0.108316
0.11218
0.115977
0.119733
0.123341
0.126877
0.130188
0.133334
0.136345
0.139075
0.141787
0.144161
0.146595
0.148683
0.150739
0.152516
0.154283
0.155816
0.157319
0.158721
0.159874
0.16108
0.162058
0.163017
0.163894
0.16465
0.165368
0.165847
0.166211
0.167946
0.16881
0.168939
0.168945
0.170468
0.171162
0.171254
0.171272
0.172531
0.173166
0.173399
0.173619
0.173908
0.17415
0.175037
0.175538
0.17576
0.17589
0.176004
0.176751
0.177154
0.177261
0.177337
0.177773
0.178046
0.178129
0.178179
0.178676
0.17894
0.179023
0.179102
0.179305
0.179455
0.179532
0.179607
0.179574
0.179534
0.179458
0.179405
0.179489
0.179549
0.179579
0.179613
0.179648
0.17956
0.179399
0.179167
0.178966
0.178815
0.178722
0.178655
0.178885
0.179053
0.179311
0.179613
0.179927
0.180228
0.180446
0.180613
0.180708
0.180755
0.180655
0.18053
0.180388
0.180268
0.180164
0.180094
0.180027
0.179993
0.179948
0.179903
0.179863
0.179798
0.179744
0.179697
0.179585
0.179498
0.179398
0.17929
0.179189
0.179085
0.178989
0.178907
0.178828
0.178764
0.178704
0.178667
0.178633
0.17861
0.17859
0.178576
0.178558
0.178545
0.178512
0.178488
0.178423
0.178366
0.178291
0.178206
0.178115
0.178017
0.177913
0.177804
0.177701
0.177595
0.177498
0.17741
0.177333
0.17726
0.177197
0.177142
0.177095
0.177055
0.177027
0.177004
0.176986
0.176976
0.176957
0.176902
0.176834
0.176751
0.176653
0.176543
0.176419
0.176301
0.176182
0.17608
0.175998
0.175932
0.175881
0.175847
0.175826
0.175821
0.175828
0.17583
0.175815
0.175826
0.175752
0.175699
0.175643
0.175569
0.175496
0.175419
0.17534
0.175261
0.175183
0.175109
0.175037
0.17497
0.174904
0.174842
0.17478
0.17472
0.17466
0.1746
0.17454
0.174481
0.174422
0.174365
0.174308
0.174255
0.174203
0.174158
0.174116
0.174004
0.0362558
0.0361547
0.0360883
0.0359198
0.0356447
0.0352292
0.0346705
0.0340739
0.0335231
0.0330709
0.0327234
0.0325247
0.0324184
0.0324378
0.0325363
0.0327046
0.0329469
0.0332684
0.0336781
0.0341954
0.0348358
0.0355949
0.0364864
0.0375358
0.0387407
0.0401091
0.041638
0.0433473
0.0452699
0.0473544
0.0496839
0.0522123
0.0549957
0.0579359
0.0612469
0.0645902
0.0683658
0.0722624
0.0762928
0.0803714
0.0845689
0.0887289
0.0929089
0.0970996
0.101294
0.105448
0.109563
0.113623
0.117618
0.121564
0.12535
0.129062
0.132534
0.135836
0.138957
0.141814
0.144619
0.147076
0.149634
0.151802
0.15393
0.155772
0.157607
0.159187
0.160782
0.162214
0.163404
0.164666
0.165676
0.166688
0.167603
0.168413
0.16918
0.169701
0.170056
0.171825
0.172831
0.17304
0.173095
0.174587
0.175415
0.175594
0.175664
0.176909
0.177665
0.177991
0.178272
0.178598
0.17885
0.179805
0.180395
0.180693
0.180892
0.181014
0.181809
0.1823
0.182482
0.182599
0.183069
0.18342
0.183572
0.183658
0.1842
0.184535
0.184696
0.184825
0.185073
0.185284
0.185415
0.185539
0.185552
0.185555
0.185524
0.18551
0.185654
0.185765
0.185855
0.185944
0.186035
0.185995
0.185877
0.185693
0.185548
0.185452
0.18542
0.185419
0.185711
0.185932
0.186246
0.186607
0.186979
0.187336
0.18761
0.187819
0.187943
0.188026
0.187955
0.187852
0.187732
0.187648
0.187578
0.187551
0.187526
0.187537
0.187531
0.187524
0.187516
0.187485
0.187462
0.18744
0.187353
0.187289
0.18721
0.187124
0.187045
0.186963
0.18689
0.186831
0.186776
0.186735
0.1867
0.186685
0.186676
0.186678
0.186683
0.186694
0.1867
0.186711
0.186699
0.186698
0.186649
0.186611
0.186552
0.186484
0.186409
0.186326
0.186237
0.186142
0.186053
0.18596
0.185877
0.185802
0.185738
0.185679
0.185629
0.185587
0.185553
0.185527
0.185513
0.185502
0.185498
0.1855
0.185492
0.185449
0.185386
0.18531
0.185218
0.185112
0.184992
0.184878
0.184763
0.184664
0.184587
0.184527
0.184482
0.184454
0.184439
0.184441
0.184455
0.184462
0.184452
0.184467
0.184396
0.184343
0.184288
0.184215
0.184142
0.184064
0.183984
0.183904
0.183826
0.18375
0.183677
0.183609
0.183542
0.183479
0.183416
0.183355
0.183293
0.183232
0.18317
0.183109
0.183047
0.182987
0.182928
0.182872
0.182818
0.182769
0.182723
0.182607
0.0363905
0.0362021
0.0361286
0.0358825
0.0355416
0.0350817
0.0345302
0.0339497
0.0334049
0.0330016
0.0327123
0.032517
0.0324166
0.032434
0.0325247
0.0326899
0.032917
0.0332214
0.0336092
0.0340913
0.0346848
0.0354064
0.0362628
0.0372774
0.0384519
0.0398015
0.0413095
0.0430042
0.0449132
0.0469804
0.0492973
0.0518164
0.0547046
0.0575368
0.0609677
0.0645045
0.0683965
0.0723649
0.0765987
0.0808015
0.0851841
0.0895271
0.0939141
0.0983108
0.102709
0.10706
0.11138
0.115683
0.119906
0.124052
0.128007
0.131902
0.135511
0.138951
0.142142
0.145124
0.147986
0.150492
0.153154
0.155358
0.157509
0.159354
0.161206
0.162765
0.16441
0.165805
0.166969
0.16824
0.169224
0.17024
0.171138
0.171948
0.172725
0.173243
0.173599
0.175173
0.176281
0.176598
0.176715
0.177994
0.178903
0.179195
0.179317
0.180401
0.181219
0.181639
0.181962
0.182287
0.182522
0.183429
0.184058
0.184424
0.184665
0.184791
0.185531
0.186058
0.186312
0.186456
0.186904
0.187284
0.187488
0.187585
0.188113
0.188479
0.188694
0.188851
0.189103
0.189341
0.189497
0.189639
0.189668
0.189686
0.189678
0.189672
0.189835
0.189967
0.190084
0.190197
0.190309
0.19029
0.190191
0.190034
0.189917
0.189846
0.189848
0.189884
0.190203
0.190468
0.190827
0.191224
0.19163
0.192029
0.192336
0.192578
0.192725
0.192835
0.19279
0.192701
0.192597
0.192531
0.19248
0.192472
0.192469
0.192505
0.192523
0.192538
0.192555
0.192551
0.19255
0.192553
0.192487
0.192442
0.192383
0.192313
0.19225
0.192184
0.192128
0.192086
0.192049
0.192026
0.19201
0.192014
0.192025
0.192048
0.192071
0.192102
0.192126
0.192154
0.192159
0.192174
0.19214
0.192116
0.19207
0.192015
0.191953
0.191882
0.191805
0.191722
0.191644
0.191563
0.191492
0.191428
0.191375
0.191327
0.191289
0.191258
0.191236
0.191221
0.191218
0.191218
0.191226
0.191236
0.191238
0.191206
0.191147
0.191077
0.190991
0.19089
0.190775
0.190664
0.190554
0.190461
0.19039
0.190336
0.190297
0.190276
0.190268
0.190278
0.190297
0.19031
0.190304
0.190325
0.190256
0.190203
0.19015
0.190079
0.190006
0.18993
0.189851
0.189771
0.189693
0.189618
0.189547
0.189479
0.189413
0.189351
0.189288
0.189227
0.189166
0.189104
0.189042
0.188981
0.188919
0.188859
0.188799
0.188742
0.188686
0.188637
0.18859
0.188472
0.0364659
0.0362525
0.0360848
0.0357749
0.0353654
0.0348772
0.034327
0.0337727
0.0332741
0.0328802
0.032603
0.0324236
0.0323411
0.0323635
0.032452
0.03261
0.0328228
0.0331139
0.0334821
0.0339439
0.034518
0.0352193
0.0360602
0.0370653
0.0382314
0.0395774
0.0410736
0.0427589
0.0446724
0.0467417
0.049127
0.0516235
0.0546049
0.0576739
0.0611826
0.0648851
0.0689499
0.0730455
0.0774834
0.0818735
0.086519
0.0910762
0.0956921
0.100335
0.104979
0.10957
0.114105
0.118688
0.123171
0.127525
0.131645
0.13573
0.139472
0.143036
0.146275
0.149374
0.152258
0.154806
0.157562
0.159786
0.16193
0.16375
0.165596
0.167098
0.168764
0.170072
0.171172
0.172421
0.173346
0.174336
0.175178
0.175952
0.176705
0.177196
0.177559
0.178849
0.179991
0.180446
0.180639
0.181627
0.18254
0.182962
0.183153
0.184021
0.184824
0.185349
0.185698
0.186
0.186232
0.187005
0.187631
0.188071
0.188335
0.188482
0.1891
0.189622
0.189952
0.190112
0.19051
0.190891
0.191134
0.191246
0.191711
0.192079
0.192347
0.192513
0.192751
0.192993
0.193155
0.193295
0.193324
0.193345
0.193349
0.193337
0.193494
0.193636
0.193767
0.193886
0.193996
0.19398
0.19389
0.19375
0.193649
0.193591
0.193615
0.193671
0.193986
0.194291
0.194684
0.195104
0.195525
0.195955
0.196276
0.196541
0.196702
0.19683
0.196806
0.19673
0.196637
0.196582
0.196542
0.196541
0.196549
0.196596
0.196629
0.196656
0.196686
0.196698
0.196709
0.196727
0.196676
0.196641
0.196595
0.19654
0.196491
0.196439
0.196396
0.196366
0.196344
0.196334
0.196333
0.196354
0.196379
0.196418
0.196455
0.196501
0.196539
0.196579
0.196594
0.196618
0.196596
0.196582
0.196546
0.196501
0.196448
0.196387
0.19632
0.196245
0.196177
0.196104
0.196041
0.195987
0.195943
0.195903
0.195874
0.195851
0.195838
0.195831
0.195837
0.195845
0.195863
0.19588
0.195889
0.195866
0.195811
0.195745
0.195663
0.195565
0.195454
0.195347
0.195241
0.19515
0.195086
0.195036
0.195003
0.194987
0.194985
0.195
0.195024
0.195043
0.19504
0.195066
0.194999
0.194946
0.194895
0.194825
0.194753
0.194677
0.194599
0.19452
0.194443
0.194368
0.194297
0.19423
0.194164
0.194103
0.19404
0.19398
0.193918
0.193857
0.193795
0.193734
0.193671
0.193611
0.19355
0.193493
0.193437
0.193387
0.193339
0.19322
0.0365209
0.0362478
0.0359974
0.0356136
0.0351536
0.0346539
0.0341026
0.033559
0.0330942
0.0327321
0.0324758
0.032313
0.0322472
0.0322715
0.0323559
0.0325107
0.0327156
0.0329963
0.0333524
0.0338007
0.0343636
0.0350575
0.0358959
0.0368986
0.0380592
0.0394125
0.0409087
0.0425955
0.0445685
0.0466636
0.0491783
0.0518179
0.0548858
0.0581507
0.0618171
0.065709
0.0700172
0.0742806
0.0789983
0.0835755
0.0885599
0.0932883
0.0981617
0.103046
0.107953
0.112838
0.117642
0.122429
0.127202
0.13166
0.135947
0.140208
0.144096
0.147738
0.151048
0.154288
0.157198
0.159828
0.162725
0.164988
0.167154
0.168929
0.170789
0.172179
0.173901
0.175094
0.176079
0.177314
0.178144
0.179109
0.179864
0.180579
0.181287
0.18173
0.182097
0.183051
0.18419
0.184773
0.185043
0.18576
0.186612
0.187137
0.187393
0.188051
0.188796
0.189381
0.18975
0.190026
0.190248
0.19085
0.19144
0.191944
0.192225
0.192387
0.192865
0.193341
0.193735
0.19391
0.194246
0.194599
0.194869
0.195001
0.195369
0.195709
0.19602
0.196187
0.196398
0.196623
0.196775
0.196898
0.196913
0.196925
0.196932
0.196909
0.197041
0.197182
0.197314
0.197427
0.197512
0.197486
0.1974
0.197271
0.197181
0.197129
0.197161
0.197232
0.197525
0.197873
0.198285
0.198708
0.199133
0.199582
0.199906
0.200184
0.20035
0.200484
0.200476
0.200408
0.200325
0.200274
0.200238
0.200239
0.20025
0.200299
0.200339
0.200371
0.200405
0.200426
0.200441
0.200464
0.200424
0.200392
0.200352
0.200304
0.200263
0.200222
0.200188
0.200167
0.200154
0.200154
0.200162
0.200192
0.200228
0.200276
0.200324
0.20038
0.200426
0.200476
0.200501
0.20053
0.200519
0.200511
0.200482
0.200443
0.200398
0.200343
0.200282
0.200214
0.200151
0.200084
0.200027
0.199979
0.19994
0.199907
0.199882
0.199865
0.199858
0.199857
0.19987
0.199883
0.199907
0.199927
0.19994
0.199927
0.19987
0.199806
0.199727
0.199632
0.199523
0.199417
0.199313
0.199224
0.199164
0.199117
0.199087
0.199074
0.199076
0.199095
0.199121
0.199144
0.199144
0.199173
0.199108
0.199054
0.199003
0.198934
0.198862
0.198786
0.198707
0.198628
0.19855
0.198476
0.198404
0.198337
0.198271
0.198209
0.198146
0.198085
0.198023
0.197961
0.197898
0.197836
0.197773
0.197711
0.19765
0.197592
0.197535
0.197484
0.197436
0.197315
0.0365174
0.036178
0.0358649
0.0354276
0.0349437
0.0344334
0.0338579
0.0333343
0.032902
0.0325686
0.0323342
0.0321919
0.0321418
0.0321696
0.0322555
0.0324073
0.0326121
0.0328868
0.0332376
0.0336795
0.034242
0.034937
0.035774
0.0367802
0.0379376
0.0393086
0.040853
0.0425704
0.0446571
0.0468655
0.0494931
0.0523056
0.0555513
0.0590413
0.0629503
0.0670464
0.0717244
0.076133
0.0811707
0.0858397
0.0909999
0.0958828
0.100962
0.105992
0.111141
0.116272
0.121337
0.12632
0.131331
0.135807
0.140298
0.144749
0.148748
0.152551
0.156013
0.159455
0.162552
0.165347
0.168432
0.170746
0.172987
0.174732
0.176617
0.177919
0.179654
0.180688
0.181637
0.182837
0.183549
0.184467
0.185147
0.185811
0.18648
0.186903
0.187275
0.187948
0.189009
0.189699
0.190037
0.190561
0.191315
0.191876
0.192189
0.192676
0.193317
0.193911
0.194294
0.194543
0.19475
0.19516
0.195703
0.196229
0.196501
0.196688
0.197021
0.197451
0.197849
0.198047
0.198304
0.198612
0.19887
0.199023
0.199285
0.199593
0.199914
0.200073
0.200255
0.200446
0.200568
0.200655
0.200651
0.200644
0.200645
0.200613
0.200703
0.200827
0.20095
0.201042
0.201081
0.201036
0.200953
0.20083
0.200743
0.200701
0.200726
0.200819
0.20109
0.201458
0.201876
0.202293
0.202713
0.20316
0.203479
0.203765
0.203922
0.20405
0.204052
0.203984
0.20391
0.203855
0.203822
0.203818
0.203826
0.203869
0.203909
0.20394
0.20397
0.203995
0.204007
0.204025
0.203993
0.203957
0.203917
0.203872
0.203834
0.203797
0.203768
0.203751
0.203742
0.203746
0.203761
0.203794
0.203834
0.203887
0.203939
0.204001
0.20405
0.204106
0.204133
0.204167
0.204165
0.204158
0.204135
0.204099
0.204057
0.204006
0.203948
0.203882
0.203821
0.203757
0.203702
0.203657
0.20362
0.203589
0.203567
0.203553
0.203548
0.20355
0.203565
0.20358
0.203608
0.203628
0.203642
0.203633
0.203574
0.203512
0.203431
0.203335
0.203226
0.20312
0.203016
0.202926
0.202868
0.202822
0.202793
0.202781
0.202785
0.202806
0.202831
0.202857
0.202857
0.202886
0.202822
0.202767
0.202715
0.202645
0.202571
0.202493
0.202413
0.202332
0.202253
0.202176
0.202103
0.202034
0.201967
0.201903
0.201839
0.201776
0.201713
0.201649
0.201585
0.201521
0.201456
0.201392
0.201329
0.201269
0.20121
0.201157
0.201108
0.200985
0.0364624
0.0360514
0.0357011
0.0352375
0.0347398
0.0341927
0.0336114
0.0331167
0.032714
0.0324087
0.0321977
0.0320748
0.0320384
0.0320701
0.03216
0.032315
0.032523
0.0327953
0.0331481
0.0335927
0.0341571
0.0348584
0.0356929
0.0367086
0.0378993
0.0393066
0.0409467
0.0427608
0.0449582
0.0473177
0.0501241
0.0531535
0.0566296
0.0603615
0.0646331
0.0685592
0.0733342
0.0777354
0.0828845
0.0877183
0.0931401
0.0983851
0.103789
0.109175
0.114649
0.120094
0.125508
0.130768
0.136018
0.140642
0.145247
0.149889
0.1536
0.157605
0.161124
0.164759
0.168127
0.171285
0.174558
0.176906
0.179244
0.180992
0.182939
0.184206
0.185928
0.186932
0.187914
0.189075
0.189733
0.19062
0.191247
0.191862
0.192486
0.192882
0.193214
0.193708
0.194547
0.1953
0.195683
0.196092
0.196681
0.197253
0.197586
0.19797
0.198469
0.199027
0.199432
0.199674
0.199837
0.200121
0.200543
0.201046
0.201338
0.201515
0.20175
0.202071
0.202454
0.202646
0.202843
0.203075
0.203317
0.203452
0.203639
0.20388
0.20418
0.204326
0.204477
0.204612
0.20469
0.204729
0.204688
0.204653
0.204633
0.204585
0.204621
0.204712
0.204814
0.204873
0.204847
0.204782
0.204691
0.204576
0.204487
0.204471
0.204482
0.204595
0.204854
0.205213
0.205616
0.20602
0.206424
0.206853
0.207155
0.207434
0.207573
0.207689
0.207698
0.207619
0.207548
0.207483
0.207453
0.207437
0.207437
0.207464
0.207498
0.20752
0.207541
0.207561
0.207564
0.207572
0.207546
0.2075
0.207457
0.207411
0.207372
0.207336
0.207307
0.207287
0.207278
0.207279
0.207293
0.207325
0.207364
0.207416
0.207467
0.207529
0.207576
0.20763
0.207655
0.207691
0.207694
0.207687
0.207663
0.207627
0.207584
0.207532
0.207473
0.207406
0.207344
0.207278
0.207222
0.207176
0.207138
0.207105
0.207082
0.207067
0.207062
0.207063
0.207077
0.207091
0.20712
0.207135
0.207148
0.207137
0.207075
0.207009
0.206926
0.206828
0.206716
0.206607
0.2065
0.206409
0.206349
0.206301
0.20627
0.206257
0.206261
0.20628
0.206303
0.206329
0.206327
0.206353
0.206289
0.206231
0.206175
0.206102
0.206025
0.205944
0.205861
0.205777
0.205695
0.205615
0.205539
0.205467
0.205396
0.20533
0.205262
0.205197
0.20513
0.205064
0.204996
0.204929
0.204861
0.204795
0.204729
0.204666
0.204604
0.204548
0.204496
0.204371
0.0363484
0.0358822
0.0355213
0.0350423
0.0345335
0.0339435
0.0333848
0.0329173
0.0325412
0.0322609
0.0320723
0.0319686
0.031944
0.0319811
0.0320777
0.0322394
0.0324525
0.0327321
0.0330941
0.0335408
0.0341049
0.0348169
0.035678
0.0367159
0.0379805
0.0394816
0.0411969
0.0431467
0.0455049
0.0480544
0.051056
0.05433
0.0580242
0.0613896
0.065807
0.0696094
0.0745286
0.079048
0.0844231
0.0896102
0.0953938
0.100985
0.107013
0.112797
0.118837
0.124568
0.130432
0.135833
0.141283
0.146042
0.150789
0.155461
0.158901
0.162989
0.166283
0.170032
0.173441
0.176932
0.180494
0.183
0.185499
0.187386
0.189429
0.190802
0.192536
0.193678
0.19476
0.195935
0.196642
0.197567
0.198183
0.198783
0.199364
0.199761
0.200079
0.200432
0.201002
0.201704
0.202192
0.2025
0.202916
0.203455
0.203833
0.204108
0.204448
0.204918
0.205311
0.20557
0.205661
0.205805
0.206094
0.206514
0.206835
0.206984
0.207102
0.207308
0.207638
0.207822
0.207949
0.208106
0.208318
0.20842
0.208531
0.208696
0.208954
0.209085
0.209189
0.209256
0.209264
0.20924
0.209155
0.209085
0.209038
0.208953
0.208938
0.208976
0.209042
0.209042
0.208948
0.208861
0.208779
0.208682
0.208598
0.208584
0.208581
0.208708
0.208947
0.209275
0.209641
0.210019
0.210393
0.210787
0.211056
0.211316
0.211425
0.211516
0.211523
0.211439
0.211365
0.21129
0.211249
0.211218
0.211199
0.211203
0.211221
0.211228
0.211234
0.211244
0.211229
0.211222
0.211195
0.211141
0.211094
0.211045
0.211001
0.210961
0.210925
0.210898
0.210879
0.210873
0.210879
0.210901
0.210933
0.210977
0.21102
0.211077
0.211115
0.211162
0.211182
0.211215
0.211215
0.211204
0.211175
0.211133
0.211085
0.211027
0.210963
0.210891
0.210823
0.210752
0.210691
0.21064
0.210596
0.210559
0.210531
0.210511
0.210502
0.210499
0.210508
0.210517
0.210542
0.21055
0.210557
0.210541
0.210473
0.210401
0.210311
0.210208
0.210091
0.209976
0.209864
0.209769
0.209705
0.209653
0.209618
0.209602
0.209601
0.209616
0.209634
0.209657
0.20965
0.209672
0.209605
0.209543
0.209482
0.209404
0.209322
0.209236
0.209148
0.209059
0.208972
0.208887
0.208806
0.20873
0.208655
0.208583
0.208511
0.208441
0.20837
0.208299
0.208227
0.208156
0.208083
0.208013
0.207942
0.207875
0.207809
0.207749
0.207693
0.207564
0.0361745
0.0356806
0.0353281
0.0348473
0.03432
0.0337156
0.0331874
0.0327417
0.0323898
0.0321323
0.0319644
0.0318771
0.0318633
0.0319088
0.0320153
0.0321859
0.0324086
0.032699
0.0330701
0.0335214
0.0341006
0.034837
0.0357595
0.0368747
0.0381797
0.0398069
0.0416264
0.0437478
0.0462632
0.0490691
0.052209
0.055099
0.0589608
0.062046
0.066478
0.0702175
0.0752748
0.0799353
0.0857913
0.0911281
0.0976652
0.103369
0.110303
0.116533
0.123419
0.129412
0.135791
0.141267
0.146798
0.151477
0.156269
0.160509
0.163969
0.168123
0.171312
0.175061
0.17822
0.18164
0.185421
0.188316
0.191119
0.193188
0.19537
0.196956
0.198763
0.200105
0.201411
0.202658
0.203535
0.204559
0.205279
0.205972
0.206602
0.207084
0.207545
0.207855
0.208222
0.208819
0.209427
0.209731
0.21005
0.210524
0.210952
0.211176
0.211378
0.211706
0.212077
0.212311
0.212381
0.212404
0.212525
0.21281
0.213123
0.213254
0.213272
0.213353
0.213587
0.213735
0.213812
0.213886
0.21403
0.214089
0.214113
0.214187
0.214365
0.214456
0.214517
0.214481
0.214394
0.214303
0.21417
0.214054
0.21397
0.213853
0.213785
0.213762
0.21377
0.213686
0.213552
0.213459
0.213397
0.213323
0.213255
0.213212
0.213188
0.213299
0.213497
0.213777
0.214083
0.214419
0.214744
0.215085
0.215306
0.21553
0.215606
0.215651
0.215649
0.21557
0.215494
0.21541
0.21534
0.215282
0.215233
0.215205
0.215194
0.215176
0.21516
0.215152
0.215112
0.215091
0.21506
0.214995
0.214936
0.214872
0.214812
0.214758
0.214709
0.21467
0.21464
0.21462
0.214607
0.214612
0.214628
0.214657
0.214685
0.214728
0.214751
0.214786
0.214798
0.21482
0.214809
0.214789
0.214747
0.214693
0.214635
0.214567
0.214493
0.214411
0.214334
0.214252
0.214182
0.214122
0.214069
0.214022
0.213986
0.213957
0.213939
0.213928
0.213928
0.213929
0.213947
0.213942
0.21394
0.213914
0.213838
0.213756
0.213657
0.213546
0.213421
0.213298
0.213179
0.213077
0.213006
0.212947
0.212906
0.212883
0.212876
0.212883
0.212893
0.212911
0.212896
0.21291
0.212839
0.212771
0.212702
0.212617
0.212528
0.212435
0.21234
0.212245
0.212151
0.21206
0.211972
0.211889
0.211808
0.21173
0.211652
0.211576
0.211498
0.211421
0.211343
0.211265
0.211187
0.211111
0.211034
0.210962
0.21089
0.210824
0.210763
0.210628
0.0359601
0.035462
0.0351277
0.0346564
0.0341036
0.033519
0.0330181
0.0325939
0.0322643
0.0320277
0.0318777
0.0318042
0.0318012
0.031858
0.0319775
0.0321608
0.0323945
0.0326884
0.0330765
0.0335545
0.0341789
0.0349756
0.035926
0.0371497
0.0385312
0.0402851
0.0422063
0.0445547
0.0471752
0.0497265
0.0530088
0.0555437
0.0592652
0.0622965
0.0665664
0.0703055
0.0751694
0.0799207
0.0849494
0.090896
0.097027
0.102695
0.109849
0.115959
0.123251
0.129676
0.136994
0.142688
0.149348
0.154351
0.159984
0.164511
0.168644
0.172913
0.176197
0.179857
0.182638
0.185887
0.189147
0.192114
0.195245
0.19771
0.200276
0.202101
0.204073
0.20555
0.207124
0.208551
0.209614
0.210767
0.211643
0.212503
0.21327
0.213953
0.214628
0.215017
0.215391
0.215895
0.216577
0.217041
0.217483
0.21792
0.218427
0.218685
0.21888
0.21915
0.219494
0.219728
0.219862
0.219855
0.219842
0.219969
0.220235
0.22034
0.220325
0.220296
0.22039
0.220492
0.220546
0.220532
0.220586
0.220585
0.220529
0.220497
0.220554
0.220595
0.220609
0.220434
0.220265
0.220103
0.219929
0.219777
0.21966
0.219522
0.219389
0.219282
0.219199
0.219035
0.218901
0.218802
0.218716
0.218635
0.218557
0.218499
0.218447
0.218489
0.218621
0.218826
0.219049
0.219328
0.219581
0.219851
0.220022
0.220186
0.220217
0.220211
0.220207
0.220155
0.220052
0.219953
0.21986
0.219767
0.219674
0.219597
0.219543
0.219492
0.219447
0.219416
0.21935
0.219303
0.219253
0.219158
0.219072
0.218983
0.218898
0.218821
0.218748
0.218687
0.218635
0.218595
0.218564
0.218547
0.21854
0.218543
0.21855
0.218569
0.218573
0.218591
0.218581
0.218581
0.218548
0.218514
0.21845
0.218379
0.218303
0.218218
0.218128
0.21803
0.217938
0.217841
0.217757
0.217681
0.217614
0.217553
0.217503
0.217461
0.21743
0.217406
0.217393
0.217382
0.217387
0.217364
0.217348
0.21731
0.217221
0.217126
0.217015
0.216892
0.216757
0.216624
0.216494
0.216383
0.216303
0.216234
0.216183
0.216151
0.216135
0.216131
0.216131
0.216139
0.216114
0.216116
0.216039
0.215965
0.215884
0.215791
0.215693
0.215592
0.215488
0.215384
0.215282
0.215182
0.215086
0.214994
0.214905
0.214818
0.214733
0.214648
0.214563
0.214478
0.214392
0.214307
0.214221
0.214137
0.214054
0.213974
0.213895
0.213823
0.213754
0.213611
0.035721
0.035241
0.0349325
0.0344715
0.0339064
0.0333585
0.0328788
0.0324766
0.0321678
0.03195
0.031815
0.031754
0.0317624
0.0318338
0.0319681
0.0321639
0.032402
0.0327244
0.0331558
0.0336666
0.0343208
0.0352025
0.0362051
0.0375385
0.0390309
0.0409031
0.0428569
0.0452546
0.0479439
0.0500766
0.0532667
0.0555372
0.0590837
0.0618558
0.0655016
0.0689265
0.073144
0.0772235
0.0823268
0.0869678
0.0935411
0.0992959
0.106008
0.112353
0.119842
0.126428
0.133684
0.140211
0.146683
0.152388
0.158664
0.16363
0.169193
0.174397
0.179092
0.1834
0.18668
0.189949
0.192474
0.195126
0.198173
0.20099
0.203998
0.206043
0.208282
0.209794
0.211597
0.213261
0.214472
0.215771
0.216745
0.217771
0.218708
0.219596
0.220445
0.220981
0.221482
0.221949
0.222617
0.223314
0.223993
0.224496
0.22507
0.225482
0.225844
0.226161
0.226571
0.226907
0.227245
0.227355
0.22738
0.227446
0.227669
0.227838
0.227942
0.227889
0.227873
0.227939
0.228008
0.227952
0.227919
0.22787
0.227774
0.227647
0.227565
0.227535
0.227489
0.227207
0.226964
0.226786
0.226649
0.226523
0.226422
0.226268
0.226042
0.225815
0.225618
0.225412
0.225213
0.225036
0.224887
0.224755
0.224638
0.224556
0.224474
0.224416
0.224435
0.224521
0.224642
0.22483
0.224989
0.225157
0.225261
0.225349
0.22532
0.225274
0.225259
0.225223
0.225091
0.224967
0.224843
0.224717
0.224596
0.224486
0.224393
0.224304
0.224218
0.224146
0.224035
0.223941
0.22385
0.223715
0.223591
0.223466
0.223346
0.223234
0.223129
0.223034
0.222951
0.22288
0.22282
0.222775
0.222741
0.222717
0.222697
0.22269
0.222661
0.222649
0.222606
0.222576
0.222515
0.222457
0.222363
0.222266
0.222164
0.222055
0.22194
0.221821
0.221705
0.221586
0.22148
0.221384
0.221295
0.221213
0.221143
0.221082
0.221032
0.220989
0.220957
0.220928
0.220915
0.22087
0.220836
0.22078
0.220674
0.220563
0.220434
0.220296
0.220147
0.220001
0.219858
0.219735
0.219641
0.21956
0.219496
0.219451
0.219422
0.219404
0.219389
0.219385
0.219346
0.219334
0.219248
0.219165
0.219071
0.218967
0.218857
0.218745
0.218631
0.218516
0.218403
0.218293
0.218186
0.218083
0.217984
0.217887
0.217791
0.217696
0.217601
0.217506
0.21741
0.217316
0.217221
0.217128
0.217036
0.216947
0.21686
0.21678
0.216701
0.216549
0.0354699
0.0350333
0.0347482
0.0342934
0.0337407
0.0332327
0.0327727
0.0323921
0.0321027
0.0319017
0.0317804
0.0317308
0.03175
0.0318399
0.0319916
0.032213
0.0324739
0.0328079
0.033281
0.0338467
0.0345414
0.0355186
0.0366042
0.0380286
0.0396412
0.0415874
0.0434987
0.0456571
0.0484052
0.0502
0.0531657
0.0553489
0.0583881
0.0612137
0.0644037
0.0673206
0.0703506
0.073789
0.0770103
0.080688
0.0841085
0.0882479
0.0926083
0.0980244
0.104677
0.111969
0.120708
0.129037
0.137059
0.144472
0.152552
0.159883
0.167277
0.172945
0.177929
0.183168
0.186955
0.19126
0.194414
0.197373
0.200267
0.203486
0.206637
0.208928
0.211493
0.212931
0.214898
0.21681
0.218104
0.219558
0.220607
0.221788
0.222883
0.223923
0.224903
0.225562
0.226176
0.226674
0.227323
0.228105
0.228936
0.229538
0.230176
0.230716
0.231249
0.231667
0.23216
0.232607
0.23314
0.233418
0.233626
0.233796
0.23404
0.234364
0.234691
0.234783
0.234853
0.235011
0.235192
0.235262
0.235303
0.235329
0.235315
0.235207
0.235098
0.235045
0.234997
0.234765
0.234574
0.234383
0.234199
0.234014
0.233843
0.233672
0.23342
0.233151
0.232854
0.23253
0.232231
0.231956
0.231725
0.231531
0.231365
0.23124
0.231166
0.231001
0.230907
0.230849
0.230842
0.230911
0.23095
0.230985
0.230996
0.230998
0.23091
0.230884
0.230839
0.230802
0.230633
0.230479
0.230313
0.230143
0.229977
0.229822
0.229681
0.229547
0.229416
0.229299
0.229143
0.228998
0.228862
0.228683
0.228515
0.228348
0.228187
0.228034
0.22789
0.227758
0.227637
0.227529
0.227433
0.227353
0.227285
0.227227
0.227172
0.227131
0.227065
0.227017
0.226938
0.226872
0.226775
0.226685
0.226554
0.226423
0.22629
0.226148
0.226003
0.225853
0.225707
0.225559
0.225424
0.225299
0.225182
0.225072
0.224975
0.224887
0.224812
0.224745
0.224688
0.224635
0.224599
0.224527
0.224469
0.224389
0.224262
0.224128
0.223978
0.223819
0.223652
0.223488
0.223328
0.223187
0.223076
0.222976
0.222895
0.222834
0.222788
0.222752
0.222719
0.222697
0.222642
0.222613
0.222515
0.22242
0.222309
0.22219
0.222066
0.22194
0.221811
0.221683
0.221556
0.221431
0.221311
0.221195
0.221082
0.220972
0.220864
0.220756
0.220649
0.220542
0.220435
0.220328
0.220223
0.220118
0.220015
0.219916
0.219819
0.219728
0.219638
0.219475
0.0352324
0.034845
0.0345829
0.0341217
0.0336139
0.0331378
0.0327011
0.0323421
0.0320722
0.0318847
0.0317768
0.031742
0.0317785
0.0319091
0.032064
0.032283
0.0325718
0.0329449
0.0334711
0.0340916
0.0348527
0.0359276
0.0370969
0.038589
0.0402881
0.0423212
0.0441683
0.0460277
0.0486333
0.0503088
0.0529009
0.0549568
0.0574482
0.0597422
0.061903
0.0641718
0.0665139
0.0684283
0.0702276
0.071572
0.0730331
0.0742113
0.0756982
0.0772845
0.0797289
0.082969
0.0876236
0.0949406
0.105125
0.11678
0.129555
0.143503
0.155093
0.163724
0.172247
0.179832
0.185176
0.190403
0.193927
0.197397
0.200634
0.204376
0.20751
0.210295
0.213429
0.215136
0.217361
0.219439
0.220697
0.222307
0.223431
0.224764
0.226018
0.227165
0.228237
0.228969
0.229684
0.230265
0.230969
0.231713
0.232574
0.233257
0.233962
0.234558
0.235206
0.235712
0.236264