/*--------------------------------*- C++ -*----------------------------------*\
| =========                 |                                                 |
| \\      /  F ield         | OpenFOAM: The Open Source CFD Toolbox           |
|  \\    /   O peration     | Version:  2312                                  |
|   \\  /    A nd           | Website:  www.openfoam.com                      |
|    \\/     M anipulation  |                                                 |
\*---------------------------------------------------------------------------*/
FoamFile
{
    version     2.0;
    format      ascii;
    arch        "LSB;label=32;scalar=64";
    class       volScalarField;
    location    "0.002";
    object      T;
}
// * * * * * * * * * * * * * * * * * * * * * * * * * * * * * * * * * * * * * //

dimensions      [0 0 0 1 0 0 0];

internalField   nonuniform List<scalar> 
48128
(
225.802
225.851
226
226.135
226.138
226.134
226.133
225.927
225.391
224.485
223.431
222.431
221.443
220.606
220.003
219.476
219.043
218.723
218.521
218.446
218.594
218.969
219.57
220.367
221.39
222.64
224.092
225.708
227.445
229.39
231.525
233.855
236.328
238.888
241.446
243.993
246.439
248.834
251.219
252.899
254.715
257.704
258.689
259.498
260.197
260.769
261.21
261.536
261.799
261.976
262.129
262.191
262.229
262.188
262.083
261.998
261.832
261.77
261.693
261.615
261.473
261.391
261.282
261.254
261.234
261.161
261.158
261.161
261.178
261.194
261.21
261.219
261.157
261.045
261.227
262.104
262.2
262.09
262.209
263.104
263.248
263.232
263.395
264.259
264.505
264.678
264.808
264.994
265.276
265.955
266.253
266.451
266.598
266.834
267.491
267.764
267.978
268.18
268.674
268.949
269.166
269.407
269.976
270.302
270.576
270.839
271.203
271.503
271.77
272.022
272.244
272.487
272.716
273.038
273.428
273.769
274.093
274.406
274.695
274.924
275.125
275.324
275.573
275.86
276.162
276.499
277.065
277.507
278.022
278.515
278.979
279.389
279.721
279.993
280.254
280.484
280.64
280.812
281.01
281.227
281.46
281.712
281.965
282.243
282.511
282.783
283.049
283.309
283.575
283.825
284.05
284.288
284.51
284.731
284.953
285.176
285.4
285.632
285.859
286.1
286.332
286.578
286.825
287.073
287.316
287.556
287.792
288.017
288.239
288.445
288.645
288.846
289.036
289.22
289.398
289.571
289.741
289.91
290.08
290.25
290.423
290.598
290.781
290.962
291.149
291.336
291.527
291.719
291.92
292.114
292.311
292.502
292.669
292.832
292.983
293.116
293.238
293.352
293.461
293.577
293.694
293.821
293.957
294.105
294.262
294.428
294.597
294.777
294.951
295.109
295.267
295.401
295.524
295.654
295.772
295.876
295.982
296.08
296.178
296.275
296.372
296.47
296.568
296.667
296.766
296.866
296.965
297.063
297.16
297.257
297.352
297.448
297.542
297.637
297.731
297.828
297.922
298.021
298.106
298.173
225.687
225.721
225.759
225.721
225.598
225.416
224.987
224.142
222.8
221.121
219.491
217.977
216.558
215.412
214.603
213.968
213.506
213.227
213.145
213.295
213.632
214.203
215.003
216.063
217.392
218.98
220.816
222.894
225.238
227.767
230.395
233.125
235.901
238.736
241.418
244.178
246.499
248.421
251.533
252.801
254.096
255.39
256.251
256.881
257.354
257.694
257.898
257.968
257.893
257.688
257.459
257.132
256.781
256.392
255.981
255.584
255.148
254.803
254.472
254.124
253.729
253.37
253.012
252.697
252.408
252.088
251.806
251.555
251.296
251.051
250.806
250.559
250.257
249.896
249.592
250.27
250.127
249.785
249.465
250.179
250.109
249.874
249.641
250.295
250.335
250.28
250.229
250.212
250.156
250.596
250.671
250.671
250.639
250.585
251.017
251.093
251.094
251.082
251.345
251.41
251.428
251.427
251.778
251.883
251.958
252.028
252.197
252.296
252.383
252.445
252.49
252.533
252.563
252.603
252.789
252.918
253.045
253.173
253.279
253.342
253.36
253.371
253.45
253.554
253.691
253.864
254.236
254.494
254.847
255.186
255.512
255.807
256.071
256.293
256.469
256.604
256.681
256.743
256.814
256.915
257.021
257.172
257.313
257.492
257.65
257.811
257.968
258.123
258.282
258.424
258.548
258.684
258.811
258.937
259.067
259.199
259.334
259.481
259.626
259.781
259.937
260.106
260.276
260.448
260.618
260.786
260.95
261.107
261.256
261.401
261.529
261.663
261.785
261.904
262.019
262.13
262.239
262.349
262.46
262.576
262.697
262.821
262.951
263.083
263.223
263.364
263.511
263.661
263.817
263.97
264.128
264.276
264.409
264.524
264.634
264.729
264.815
264.894
264.971
265.054
265.148
265.251
265.363
265.49
265.627
265.773
265.925
266.087
266.243
266.386
266.524
266.649
266.74
266.845
266.942
267.027
267.116
267.199
267.284
267.369
267.455
267.543
267.633
267.725
267.817
267.909
268.001
268.093
268.184
268.275
268.366
268.456
268.547
268.638
268.73
268.825
268.919
269.019
269.109
269.161
225.551
225.503
225.432
225.295
225.118
224.763
224.074
222.967
221.508
219.893
218.261
216.812
215.527
214.519
213.854
213.352
213.036
212.91
212.968
213.217
213.676
214.375
215.32
216.53
218.01
219.738
221.671
223.777
226.052
228.479
230.99
233.595
236.183
239.057
241.236
244.054
246.095
247.74
249.528
250.775
251.752
252.537
253.053
253.406
253.592
253.667
253.607
253.431
253.136
252.727
252.325
251.862
251.395
250.913
250.451
250.005
249.553
249.193
248.863
248.496
248.086
247.713
247.343
247.02
246.728
246.398
246.108
245.856
245.589
245.335
245.076
244.814
244.493
244.098
243.774
244.373
244.18
243.813
243.469
244.042
243.926
243.657
243.395
243.913
243.901
243.793
243.69
243.592
243.491
243.86
243.864
243.799
243.696
243.595
243.948
243.954
243.887
243.829
244.009
244.011
243.958
243.905
244.168
244.203
244.206
244.212
244.303
244.335
244.352
244.349
244.332
244.315
244.282
244.264
244.374
244.428
244.48
244.531
244.564
244.56
244.507
244.456
244.45
244.476
244.52
244.601
244.895
245.081
245.356
245.616
245.864
246.09
246.286
246.447
246.575
246.664
246.704
246.726
246.758
246.803
246.858
246.939
247.018
247.128
247.227
247.329
247.434
247.535
247.643
247.746
247.825
247.92
248.007
248.093
248.183
248.274
248.368
248.473
248.576
248.689
248.804
248.932
249.059
249.19
249.318
249.445
249.568
249.686
249.798
249.905
250.001
250.101
250.19
250.277
250.36
250.439
250.517
250.596
250.678
250.764
250.854
250.949
251.051
251.155
251.266
251.38
251.499
251.622
251.75
251.878
252.009
252.133
252.244
252.335
252.425
252.501
252.569
252.631
252.691
252.758
252.834
252.921
253.016
253.125
253.244
253.372
253.507
253.651
253.791
253.921
254.045
254.159
254.239
254.332
254.42
254.495
254.575
254.65
254.726
254.803
254.881
254.962
255.044
255.128
255.212
255.298
255.383
255.468
255.553
255.638
255.723
255.808
255.893
255.98
256.068
256.158
256.249
256.345
256.434
256.482
225.249
225.228
225.093
224.944
224.69
224.168
223.324
222.216
220.848
219.329
217.815
216.453
215.284
214.385
213.815
213.404
213.196
213.164
213.306
213.639
214.184
214.964
215.981
217.234
218.703
220.367
222.221
224.229
226.38
228.668
231.017
233.519
235.51
238.647
240.303
242.223
243.856
245.245
246.494
247.41
248.032
248.444
248.611
248.648
248.54
248.339
248.015
247.61
247.097
246.512
245.974
245.408
244.866
244.342
243.885
243.458
243.055
242.757
242.533
242.253
241.918
241.636
241.35
241.123
240.941
240.683
240.478
240.313
240.128
239.951
239.762
239.568
239.307
238.971
238.705
239.262
239.133
238.826
238.55
239.036
238.949
238.715
238.506
238.941
238.94
238.85
238.758
238.641
238.543
238.885
238.883
238.822
238.714
238.614
238.92
238.915
238.841
238.782
238.922
238.913
238.845
238.784
239.009
239.023
239.007
238.996
239.051
239.061
239.055
239.032
238.993
238.958
238.908
238.875
238.959
238.988
239.014
239.034
239.04
239.007
238.931
238.861
238.827
238.819
238.819
238.871
239.107
239.249
239.474
239.685
239.882
240.064
240.215
240.334
240.426
240.487
240.505
240.502
240.514
240.536
240.566
240.618
240.667
240.745
240.811
240.879
240.95
241.018
241.091
241.161
241.211
241.274
241.333
241.394
241.459
241.525
241.593
241.671
241.747
241.834
241.921
242.021
242.119
242.221
242.321
242.421
242.517
242.61
242.698
242.782
242.856
242.931
243
243.066
243.127
243.185
243.243
243.301
243.363
243.428
243.499
243.573
243.655
243.739
243.832
243.926
244.026
244.13
244.24
244.348
244.461
244.568
244.663
244.74
244.816
244.879
244.934
244.984
245.032
245.086
245.149
245.224
245.306
245.4
245.506
245.62
245.742
245.873
246
246.119
246.232
246.337
246.411
246.495
246.576
246.645
246.717
246.786
246.855
246.926
246.998
247.071
247.147
247.224
247.303
247.382
247.461
247.541
247.621
247.7
247.78
247.86
247.941
248.023
248.106
248.192
248.279
248.371
248.458
248.505
225.001
224.932
224.79
224.639
224.267
223.613
222.786
221.749
220.403
218.936
217.535
216.314
215.288
214.512
214.026
213.718
213.587
213.609
213.799
214.165
214.723
215.488
216.458
217.624
218.987
220.537
222.273
224.147
226.141
228.261
230.166
232.59
234.189
236.14
237.614
239.014
240.265
241.19
241.98
242.411
242.678
242.694
242.504
242.195
241.811
241.365
240.774
240.192
239.5
238.795
238.19
237.578
237.027
236.529
236.139
235.808
235.518
235.33
235.266
235.119
234.888
234.737
234.587
234.494
234.479
234.325
234.249
234.222
234.15
234.105
234.026
233.952
233.797
233.574
233.399
233.905
233.907
233.696
233.538
233.94
233.941
233.779
233.661
234.018
234.075
234.04
233.99
233.906
233.836
234.139
234.189
234.163
234.086
234.018
234.272
234.3
234.248
234.215
234.336
234.342
234.289
234.248
234.44
234.464
234.456
234.452
234.496
234.508
234.502
234.479
234.442
234.409
234.363
234.331
234.408
234.432
234.451
234.459
234.461
234.421
234.345
234.275
234.236
234.217
234.201
234.245
234.441
234.558
234.75
234.926
235.09
235.242
235.366
235.458
235.526
235.573
235.58
235.563
235.564
235.575
235.595
235.631
235.667
235.729
235.778
235.829
235.882
235.933
235.985
236.037
236.073
236.116
236.156
236.197
236.243
236.292
236.34
236.401
236.458
236.525
236.592
236.671
236.748
236.831
236.911
236.992
237.071
237.148
237.221
237.291
237.351
237.41
237.463
237.514
237.561
237.605
237.648
237.692
237.74
237.79
237.847
237.907
237.975
238.046
238.124
238.205
238.292
238.383
238.479
238.574
238.674
238.769
238.852
238.921
238.982
239.038
239.084
239.125
239.165
239.211
239.265
239.331
239.403
239.488
239.583
239.687
239.8
239.919
240.037
240.148
240.253
240.35
240.418
240.497
240.573
240.637
240.704
240.768
240.832
240.898
240.965
241.034
241.105
241.178
241.252
241.326
241.401
241.477
241.552
241.628
241.704
241.78
241.858
241.937
242.016
242.099
242.183
242.272
242.356
242.402
224.688
224.639
224.525
224.301
223.826
223.147
222.377
221.287
220.004
218.671
217.421
216.337
215.438
214.777
214.357
214.093
213.987
214.018
214.201
214.54
215.044
215.718
216.574
217.615
218.851
220.268
221.855
223.541
225.144
227.034
228.375
229.884
231.164
232.4
233.38
234.113
234.832
235.058
235.363
235.226
235.172
234.82
234.368
233.81
233.219
232.589
231.963
231.288
230.597
229.869
229.304
228.76
228.232
227.87
227.54
227.369
227.209
227.076
227.224
227.151
227.081
227.047
227.09
227.104
227.328
227.281
227.351
227.52
227.529
227.679
227.713
227.805
227.776
227.703
227.642
228.066
228.248
228.164
228.136
228.451
228.592
228.536
228.521
228.807
228.959
229.01
229.027
229.009
228.986
229.24
229.372
229.4
229.382
229.365
229.568
229.657
229.653
229.662
229.778
229.813
229.804
229.801
229.958
230.025
230.047
230.069
230.119
230.149
230.158
230.153
230.133
230.121
230.095
230.08
230.158
230.189
230.216
230.226
230.239
230.21
230.148
230.094
230.063
230.051
230.034
230.079
230.245
230.348
230.525
230.674
230.819
230.95
231.055
231.137
231.193
231.236
231.244
231.223
231.224
231.232
231.251
231.28
231.312
231.366
231.408
231.451
231.497
231.54
231.582
231.628
231.657
231.691
231.723
231.754
231.789
231.825
231.863
231.91
231.956
232.01
232.065
232.132
232.196
232.267
232.335
232.404
232.471
232.535
232.596
232.658
232.707
232.756
232.798
232.839
232.876
232.911
232.945
232.98
233.018
233.06
233.108
233.159
233.218
233.28
233.349
233.422
233.5
233.582
233.67
233.756
233.847
233.933
234.01
234.072
234.123
234.177
234.216
234.253
234.287
234.329
234.376
234.437
234.504
234.583
234.671
234.769
234.874
234.986
235.096
235.201
235.301
235.393
235.458
235.533
235.605
235.666
235.73
235.791
235.853
235.916
235.981
236.047
236.115
236.185
236.256
236.328
236.4
236.473
236.546
236.619
236.693
236.767
236.842
236.919
236.997
237.078
237.16
237.247
237.33
237.375
224.329
224.343
224.222
223.932
223.398
222.764
221.958
220.91
219.716
218.517
217.406
216.434
215.635
215.052
214.659
214.403
214.283
214.285
214.414
214.67
215.051
215.595
216.317
217.226
218.316
219.565
220.791
222.191
223.175
224.256
225.141
225.873
226.365
226.61
226.763
226.426
226.657
226.036
226.064
225.565
225.491
224.977
224.595
224.012
223.498
222.85
222.331
221.759
221.268
220.672
220.136
219.591
218.964
218.765
218.361
218.378
218.392
218.107
218.62
218.516
218.771
218.691
219.108
219.089
219.662
219.812
219.95
220.364
220.463
220.83
220.986
221.2
221.312
221.369
221.413
221.743
222.05
222.164
222.238
222.5
222.737
222.859
222.93
223.19
223.42
223.584
223.69
223.752
223.796
224.031
224.217
224.342
224.402
224.442
224.629
224.759
224.848
224.903
225.027
225.117
225.176
225.217
225.365
225.464
225.549
225.606
225.678
225.731
225.773
225.798
225.806
225.831
225.838
225.848
225.931
225.988
226.035
226.064
226.084
226.086
226.046
226.024
226.013
226.015
226.014
226.047
226.207
226.306
226.465
226.598
226.734
226.855
226.954
227.033
227.092
227.138
227.166
227.148
227.158
227.173
227.196
227.226
227.26
227.312
227.355
227.398
227.446
227.488
227.53
227.574
227.605
227.636
227.667
227.695
227.726
227.757
227.791
227.831
227.873
227.92
227.969
228.03
228.089
228.154
228.216
228.279
228.34
228.399
228.455
228.508
228.552
228.594
228.63
228.665
228.698
228.727
228.757
228.787
228.822
228.859
228.903
228.949
229.004
229.062
229.127
229.195
229.269
229.346
229.43
229.511
229.598
229.679
229.754
229.813
229.859
229.911
229.947
229.985
230.017
230.056
230.103
230.161
230.226
230.301
230.386
230.48
230.581
230.689
230.795
230.896
230.993
231.082
231.147
231.22
231.291
231.351
231.414
231.475
231.536
231.598
231.662
231.727
231.795
231.863
231.934
232.004
232.076
232.148
232.22
232.293
232.366
232.439
232.514
232.59
232.667
232.747
232.829
232.915
232.998
233.044
223.984
223.997
223.878
223.542
222.992
222.372
221.591
220.598
219.514
218.431
217.422
216.54
215.817
215.272
214.878
214.598
214.43
214.358
214.378
214.49
214.734
215.134
215.715
216.48
217.237
218.214
218.855
219.516
219.971
220.201
220.13
219.68
219.161
218.093
217.901
216.654
216.835
215.773
215.886
214.932
214.644
213.788
213.367
212.594
212.191
211.494
211.129
210.581
210.382
209.926
209.856
209.793
209.191
209.468
208.666
209.047
209.11
208.926
209.637
209.476
210.096
210.036
210.726
210.732
211.499
211.763
212.099
212.578
212.807
213.32
213.613
213.948
214.215
214.433
214.632
214.919
215.339
215.603
215.839
216.105
216.449
216.706
216.918
217.169
217.465
217.712
217.913
218.065
218.196
218.407
218.66
218.87
219.021
219.145
219.316
219.509
219.683
219.821
219.968
220.12
220.248
220.356
220.505
220.649
220.798
220.908
221.012
221.104
221.185
221.254
221.309
221.383
221.441
221.484
221.586
221.677
221.753
221.809
221.842
221.884
221.891
221.899
221.911
221.921
221.949
221.972
222.138
222.237
222.387
222.515
222.648
222.77
222.874
222.963
223.035
223.091
223.145
223.151
223.178
223.206
223.233
223.274
223.314
223.371
223.423
223.474
223.526
223.577
223.627
223.671
223.712
223.745
223.778
223.808
223.839
223.871
223.906
223.947
223.989
224.038
224.089
224.149
224.209
224.273
224.336
224.4
224.461
224.52
224.576
224.627
224.668
224.708
224.743
224.776
224.809
224.839
224.87
224.9
224.935
224.972
225.016
225.063
225.118
225.175
225.24
225.308
225.382
225.459
225.541
225.622
225.708
225.788
225.863
225.923
225.97
226.022
226.06
226.099
226.133
226.175
226.223
226.282
226.347
226.422
226.507
226.6
226.7
226.806
226.911
227.011
227.107
227.195
227.263
227.337
227.408
227.47
227.534
227.596
227.658
227.722
227.787
227.853
227.921
227.991
228.062
228.134
228.206
228.279
228.352
228.426
228.499
228.574
228.649
228.727
228.805
228.886
228.968
229.055
229.139
229.187
223.637
223.611
223.489
223.12
222.621
222.043
221.274
220.355
219.367
218.378
217.45
216.631
215.952
215.414
214.991
214.655
214.396
214.194
214.055
214.024
214.124
214.37
214.676
215.181
215.458
215.777
215.891
215.727
215.189
214.242
212.966
211.132
210.331
208.361
208.179
206.392
206.293
204.476
204.349
202.581
202.224
200.667
200.537
199.109
199.277
198.163
198.58
197.792
198.424
197.948
198.558
199.15
198.53
199.835
199.249
200.003
199.869
200.234
200.883
200.641
201.542
201.489
202.352
202.373
203.232
203.484
204.021
204.488
204.746
205.355
205.714
206.17
206.554
206.9
207.231
207.572
208.073
208.416
208.803
209.166
209.592
209.952
210.286
210.605
210.967
211.296
211.604
211.868
212.098
212.341
212.656
212.944
213.195
213.415
213.624
213.877
214.131
214.347
214.55
214.759
214.955
215.128
215.305
215.497
215.703
215.874
216.023
216.163
216.297
216.423
216.54
216.668
216.785
216.88
217.009
217.133
217.243
217.334
217.4
217.478
217.519
217.552
217.594
217.635
217.691
217.727
217.9
218.007
218.161
218.297
218.438
218.571
218.691
218.8
218.896
218.983
219.062
219.101
219.149
219.194
219.24
219.295
219.349
219.418
219.485
219.551
219.616
219.679
219.741
219.796
219.846
219.883
219.92
219.953
219.989
220.028
220.069
220.117
220.169
220.226
220.285
220.352
220.419
220.49
220.559
220.63
220.697
220.763
220.822
220.876
220.921
220.964
221.003
221.04
221.078
221.113
221.149
221.185
221.224
221.267
221.315
221.366
221.424
221.486
221.554
221.626
221.703
221.783
221.869
221.954
222.042
222.124
222.202
222.267
222.319
222.375
222.418
222.461
222.5
222.546
222.599
222.661
222.73
222.808
222.895
222.99
223.092
223.199
223.305
223.406
223.504
223.595
223.667
223.744
223.817
223.883
223.95
224.016
224.081
224.148
224.216
224.285
224.356
224.429
224.502
224.577
224.651
224.727
224.803
224.879
224.955
225.032
225.11
225.19
225.27
225.354
225.439
225.527
225.614
225.665
223.275
223.203
223.072
222.703
222.277
221.743
221.008
220.163
219.253
218.338
217.473
216.696
216.029
215.468
214.985
214.552
214.152
213.784
213.498
213.302
213.191
213.139
213.084
213.04
212.882
212.456
211.663
210.414
208.598
206.253
204.47
201.834
200.999
198.371
197.639
194.904
194.296
191.576
191.075
188.808
188.602
186.29
187.186
184.865
186.318
184.611
186.242
185.114
186.845
186.381
188.033
188.864
188.604
190.413
190.118
191.533
191.417
192.444
192.874
192.66
193.821
193.768
194.774
194.769
195.67
195.825
196.518
196.926
197.125
197.758
198.07
198.571
198.974
199.338
199.711
200.078
200.571
200.912
201.409
201.84
202.298
202.708
203.127
203.53
203.94
204.329
204.746
205.117
205.45
205.762
206.134
206.492
206.842
207.155
207.441
207.747
208.076
208.372
208.65
208.922
209.196
209.444
209.678
209.925
210.196
210.439
210.649
210.849
211.046
211.241
211.429
211.616
211.793
211.945
212.103
212.259
212.402
212.527
212.631
212.724
212.785
212.845
212.918
213.022
213.119
213.196
213.385
213.514
213.682
213.839
213.999
214.152
214.299
214.438
214.571
214.701
214.81
214.885
214.951
215.018
215.097
215.174
215.253
215.344
215.434
215.521
215.607
215.688
215.764
215.834
215.893
215.938
215.988
216.038
216.089
216.142
216.197
216.257
216.32
216.391
216.466
216.548
216.63
216.715
216.797
216.881
216.96
217.036
217.101
217.165
217.221
217.274
217.323
217.371
217.419
217.463
217.509
217.554
217.603
217.655
217.712
217.771
217.837
217.907
217.983
218.062
218.147
218.233
218.326
218.417
218.511
218.599
218.685
218.757
218.817
218.879
218.93
218.981
219.029
219.082
219.142
219.211
219.285
219.369
219.461
219.56
219.666
219.776
219.886
219.992
220.093
220.189
220.269
220.35
220.428
220.5
220.572
220.643
220.713
220.785
220.858
220.932
221.007
221.084
221.162
221.24
221.319
221.399
221.479
221.559
221.64
221.721
221.803
221.887
221.971
222.058
222.147
222.238
222.329
222.385
222.918
222.791
222.64
222.333
221.982
221.47
220.785
220.006
219.163
218.306
217.483
216.726
216.044
215.428
214.85
214.271
213.703
213.182
212.715
212.179
211.775
211.335
210.902
210.284
209.346
207.971
206.009
203.458
200.709
197.359
195.734
192.384
190.929
187.175
185.519
181.916
180.564
177.281
176.544
173.626
173.974
170.571
172.374
170.012
172.675
171.039
174
173.058
176.001
175.947
178.628
179.817
180.142
181.993
181.909
183.712
183.882
185.544
185.96
185.874
187.237
187.21
188.348
188.292
189.246
189.297
190.14
190.497
190.611
191.256
191.461
191.977
192.331
192.636
192.989
193.286
193.678
193.949
194.456
194.834
195.258
195.615
196.056
196.44
196.853
197.228
197.688
198.087
198.474
198.853
199.233
199.627
200.058
200.445
200.804
201.156
201.543
201.907
202.258
202.599
202.944
203.27
203.574
203.881
204.218
204.528
204.81
205.071
205.339
205.596
205.843
206.08
206.307
206.509
206.705
206.903
207.086
207.248
207.359
207.468
207.589
207.708
207.833
207.992
208.162
208.301
208.527
208.695
208.885
209.076
209.263
209.444
209.623
209.806
209.975
210.163
210.292
210.4
210.498
210.595
210.696
210.805
210.922
211.046
211.169
211.283
211.394
211.495
211.587
211.679
211.762
211.834
211.91
211.984
212.059
212.135
212.212
212.294
212.377
212.465
212.556
212.657
212.759
212.867
212.968
213.072
213.164
213.257
213.34
213.423
213.499
213.569
213.634
213.698
213.763
213.823
213.884
213.944
214.007
214.073
214.143
214.216
214.295
214.377
214.464
214.555
214.651
214.749
214.851
214.954
215.057
215.154
215.251
215.334
215.404
215.476
215.538
215.6
215.658
215.722
215.791
215.868
215.952
216.043
216.142
216.249
216.36
216.476
216.593
216.705
216.812
216.916
217.004
217.092
217.178
217.256
217.335
217.413
217.491
217.569
217.648
217.728
217.81
217.893
217.976
218.061
218.146
218.231
218.317
218.403
218.489
218.576
218.664
218.752
218.842
218.935
219.029
219.124
219.219
219.282
222.58
222.409
222.241
222.013
221.725
221.233
220.602
219.883
219.092
218.276
217.476
216.718
215.998
215.29
214.582
213.826
213.086
212.223
211.483
210.73
209.964
209.157
208.075
206.666
204.752
202.251
199.033
195.311
192.502
188.548
186.496
182.111
179.598
175.242
172.442
168.178
165.503
162.213
161.013
159.212
160.04
157.59
160.175
158.371
162.012
160.524
164.811
163.882
167.883
167.729
170.8
171.563
172.49
174.24
174.592
176.921
177.422
179.367
180.134
180.332
181.656
181.861
182.967
182.914
183.98
183.954
184.975
185.329
185.384
186.068
186.197
186.756
187.075
187.328
187.665
187.867
188.174
188.374
188.809
189.074
189.435
189.707
190.074
190.346
190.676
190.951
191.35
191.64
191.985
192.306
192.625
192.961
193.373
193.73
194.087
194.447
194.833
195.213
195.599
195.982
196.368
196.737
197.1
197.458
197.847
198.206
198.554
198.865
199.184
199.441
199.677
199.907
200.143
200.386
200.646
200.905
201.131
201.302
201.477
201.669
201.876
202.084
202.291
202.507
202.765
202.995
203.28
203.511
203.742
203.982
204.211
204.435
204.65
204.89
205.096
205.34
205.505
205.651
205.783
205.919
206.05
206.182
206.317
206.46
206.609
206.752
206.896
207.03
207.156
207.288
207.408
207.516
207.626
207.734
207.841
207.948
208.056
208.166
208.278
208.392
208.508
208.63
208.755
208.882
209.008
209.132
209.25
209.368
209.478
209.586
209.687
209.781
209.87
209.958
210.044
210.127
210.209
210.291
210.374
210.46
210.549
210.641
210.737
210.837
210.941
211.049
211.161
211.275
211.391
211.509
211.624
211.734
211.845
211.942
212.028
212.113
212.189
212.265
212.337
212.414
212.495
212.584
212.679
212.781
212.89
213.007
213.127
213.251
213.376
213.497
213.613
213.727
213.826
213.923
214.017
214.105
214.193
214.28
214.366
214.453
214.54
214.628
214.718
214.808
214.9
214.992
215.084
215.177
215.27
215.363
215.457
215.551
215.645
215.741
215.837
215.936
216.037
216.138
216.238
216.308
222.281
222.068
221.914
221.757
221.5
221.041
220.462
219.792
219.04
218.248
217.448
216.67
215.894
215.041
214.132
213.036
212.057
211.102
210.062
208.976
207.794
206.345
204.447
202.108
199.075
195.507
191.207
186.937
184.124
179.27
176.248
171.09
167.405
162.565
158.36
154.263
151.522
148.983
147.064
145.227
145.7
144.337
146.637
145.761
149.828
149.148
154.581
154.349
159.252
160.628
163.648
165.223
167.033
168.379
169.425
171.698
171.73
174.045
174.991
175.763
176.878
177.506
178.437
178.502
179.719
179.653
180.853
181.229
181.248
182.01
182.096
182.739
183.059
183.302
183.632
183.766
184.065
184.23
184.598
184.8
185.132
185.316
185.631
185.805
186.08
186.276
186.57
186.756
187.037
187.244
187.454
187.664
187.963
188.172
188.45
188.7
188.975
189.235
189.546
189.838
190.155
190.455
190.771
191.084
191.443
191.767
192.11
192.363
192.644
192.9
193.197
193.489
193.787
194.063
194.321
194.576
194.826
195.069
195.324
195.603
195.902
196.201
196.498
196.784
197.081
197.414
197.75
198.045
198.337
198.636
198.918
199.199
199.459
199.755
199.993
200.245
200.461
200.657
200.832
201.01
201.177
201.343
201.51
201.68
201.856
202.03
202.206
202.373
202.533
202.701
202.858
203.004
203.151
203.295
203.437
203.579
203.719
203.861
204.003
204.147
204.291
204.44
204.591
204.743
204.895
205.045
205.191
205.336
205.474
205.611
205.742
205.865
205.981
206.097
206.211
206.321
206.431
206.539
206.648
206.759
206.873
206.989
207.108
207.231
207.357
207.486
207.619
207.752
207.888
208.024
208.156
208.282
208.41
208.525
208.629
208.731
208.825
208.919
209.01
209.103
209.202
209.306
209.416
209.531
209.654
209.784
209.916
210.051
210.186
210.319
210.446
210.572
210.684
210.793
210.898
210.998
211.098
211.196
211.294
211.391
211.489
211.588
211.688
211.789
211.89
211.992
212.094
212.196
212.298
212.4
212.503
212.605
212.708
212.812
212.917
213.023
213.132
213.241
213.348
213.426
222.045
221.793
221.679
221.565
221.326
220.906
220.369
219.735
219.006
218.221
217.389
216.534
215.627
214.431
213.344
212.204
211.011
209.739
208.391
206.864
205.03
202.822
199.985
196.62
192.311
188.16
182.983
178.718
175.174
169.457
165.239
159.834
155.031
150.092
145.964
142.263
138.754
135.523
132.794
130.912
129.505
128.473
128.178
128.677
131.186
133.28
138.397
140.845
148.258
151.566
154.918
158.141
160.754
162.338
165.17
166.825
167.947
169.883
171.055
172.095
173.087
173.885
174.684
174.822
176.213
176.158
177.527
177.948
177.96
178.831
178.899
179.635
179.974
180.227
180.549
180.638
180.991
181.162
181.473
181.656
181.955
182.09
182.389
182.517
182.781
182.931
183.168
183.304
183.556
183.704
183.86
183.994
184.191
184.318
184.54
184.695
184.865
185.011
185.227
185.385
185.585
185.755
185.944
186.125
186.333
186.509
186.717
186.874
187.094
187.283
187.55
187.809
188.073
188.322
188.549
188.773
188.986
189.22
189.492
189.797
190.132
190.48
190.836
191.165
191.498
191.83
192.183
192.516
192.864
193.205
193.531
193.86
194.161
194.498
194.73
195.022
195.278
195.535
195.758
195.979
196.187
196.391
196.595
196.799
197.007
197.215
197.424
197.626
197.822
198.021
198.211
198.393
198.574
198.752
198.927
199.101
199.273
199.445
199.616
199.788
199.961
200.136
200.314
200.493
200.672
200.848
201.02
201.192
201.356
201.52
201.679
201.83
201.974
202.119
202.261
202.4
202.539
202.676
202.813
202.952
203.093
203.235
203.38
203.527
203.677
203.83
203.985
204.141
204.297
204.454
204.605
204.749
204.897
205.032
205.158
205.279
205.394
205.51
205.622
205.738
205.856
205.98
206.108
206.242
206.382
206.527
206.674
206.822
206.971
207.117
207.258
207.399
207.526
207.65
207.769
207.884
207.999
208.112
208.224
208.335
208.447
208.559
208.672
208.785
208.899
209.013
209.127
209.24
209.354
209.468
209.581
209.695
209.808
209.923
210.038
210.154
210.273
210.391
210.507
210.594
221.882
221.605
221.525
221.434
221.224
220.837
220.327
219.696
218.955
218.149
217.22
216.196
215.113
213.884
212.632
211.236
209.735
208.146
206.381
204.205
201.615
198.565
194.669
190.268
184.632
180.661
174.957
170.319
165.457
159.562
154.277
148.597
143.585
139.196
135.103
131.188
127.609
124.405
121.574
118.842
116.295
113.951
111.88
110.07
108.549
107.417
106.592
106.161
110.898
122.529
132.659
141.03
149.465
154.863
158.627
161.778
163.99
165.902
167.54
168.913
170.071
171.119
171.805
172.354
173.553
173.473
175.002
175.408
175.398
176.371
176.407
177.232
177.584
177.829
178.147
178.203
178.638
178.836
179.101
179.254
179.529
179.624
179.935
180.045
180.313
180.442
180.657
180.767
181.003
181.115
181.281
181.382
181.533
181.63
181.823
181.931
182.072
182.172
182.337
182.434
182.59
182.693
182.823
182.916
183.032
183.103
183.231
183.286
183.461
183.56
183.754
183.921
184.09
184.243
184.378
184.497
184.6
184.747
184.941
185.172
185.437
185.727
186.031
186.308
186.582
186.815
187.097
187.352
187.662
187.976
188.276
188.6
188.889
189.232
189.484
189.816
190.102
190.423
190.697
190.965
191.218
191.463
191.705
191.944
192.185
192.428
192.67
192.906
193.136
193.363
193.586
193.8
194.013
194.222
194.428
194.631
194.832
195.033
195.232
195.432
195.632
195.833
196.036
196.238
196.44
196.638
196.832
197.026
197.213
197.4
197.581
197.759
197.927
198.097
198.266
198.431
198.597
198.761
198.924
199.088
199.252
199.418
199.585
199.754
199.926
200.1
200.275
200.452
200.629
200.806
200.975
201.138
201.304
201.459
201.608
201.748
201.884
202.022
202.157
202.294
202.435
202.579
202.727
202.881
203.039
203.202
203.365
203.529
203.692
203.854
204.011
204.167
204.312
204.453
204.588
204.721
204.852
204.982
205.11
205.238
205.366
205.493
205.621
205.749
205.878
206.006
206.134
206.262
206.39
206.518
206.645
206.772
206.9
207.027
207.155
207.284
207.416
207.545
207.672
207.771
221.812
221.487
221.444
221.37
221.187
220.809
220.297
219.644
218.853
217.978
216.99
215.883
214.676
213.282
211.74
210.048
208.239
206.237
203.883
200.947
197.504
193.546
188.379
183.342
177.075
173.227
166.805
161.445
155.653
149.764
144.351
139.416
134.734
130.231
126.428
123.159
120.077
117.161
114.448
111.978
109.776
107.81
106.058
104.489
103.095
101.849
100.744
99.7833
99.0694
98.7945
99.0417
99.2468
107.992
125.522
139.57
149.76
156.88
160.559
163.908
165.838
167.263
168.369
168.99
170.339
171.112
171.241
172.853
173.311
173.33
174.374
174.359
175.285
175.641
175.861
176.195
176.244
176.76
176.987
177.222
177.337
177.597
177.669
177.995
178.099
178.372
178.487
178.697
178.792
179.016
179.099