/*--------------------------------*- C++ -*----------------------------------*\
| =========                 |                                                 |
| \\      /  F ield         | OpenFOAM: The Open Source CFD Toolbox           |
|  \\    /   O peration     | Version:  2312                                  |
|   \\  /    A nd           | Website:  www.openfoam.com                      |
|    \\/     M anipulation  |                                                 |
\*---------------------------------------------------------------------------*/
FoamFile
{
    version     2.0;
    format      ascii;
    arch        "LSB;label=32;scalar=64";
    class       volVectorField;
    location    "0.002";
    object      U;
}
// * * * * * * * * * * * * * * * * * * * * * * * * * * * * * * * * * * * * * //

dimensions      [0 1 -1 0 0 0 0];

internalField   nonuniform List<vector> 
48128
(
(3.29118 -1.5215 0)
(3.35149 0.259783 0)
(-2.60605 2.48979 0)
(-12.3394 2.93693 0)
(-28.9476 4.97374 0)
(-50.64 6.72608 0)
(-72.9919 5.61262 0)
(-93.6201 4.43817 0)
(-112.257 3.10527 0)
(-128.402 1.69775 0)
(-141.664 0.654005 0)
(-152.652 0.985928 0)
(-162.209 0.945749 0)
(-170.014 1.10752 0)
(-176.364 1.22598 0)
(-182.09 1.35052 0)
(-187.059 1.49486 0)
(-191.243 1.64516 0)
(-194.624 1.82936 0)
(-197.104 2.15946 0)
(-198.495 2.5081 0)
(-198.93 2.41425 0)
(-198.55 1.94035 0)
(-196.725 1.57665 0)
(-193.615 1.12425 0)
(-189.273 0.654981 0)
(-183.741 0.0744823 0)
(-177.029 -0.698768 0)
(-168.597 -1.19732 0)
(-158.894 -1.78585 0)
(-148.238 -2.46943 0)
(-136.338 -3.15247 0)
(-123.456 -3.84462 0)
(-109.783 -4.40053 0)
(-95.4257 -5.09226 0)
(-80.4018 -5.64943 0)
(-64.6535 -6.37988 0)
(-48.7142 -6.47868 0)
(-33.0616 -6.77773 0)
(-18.0056 -6.61291 0)
(-3.74671 -6.36896 0)
(8.91654 -5.4053 0)
(21.1755 -4.91284 0)
(33.6697 -4.78083 0)
(46.6376 -5.04918 0)
(59.4149 -4.9888 0)
(71.6287 -4.79468 0)
(83.3395 -4.65114 0)
(94.5807 -4.43594 0)
(105.607 -4.31851 0)
(116.066 -4.08223 0)
(126.288 -3.90283 0)
(135.935 -3.69631 0)
(145.16 -3.62595 0)
(154.199 -3.48008 0)
(162.475 -3.1828 0)
(170.776 -3.02697 0)
(178.131 -2.70341 0)
(185.21 -2.5251 0)
(191.887 -2.29341 0)
(198.602 -2.17679 0)
(204.752 -1.96846 0)
(210.891 -1.86468 0)
(216.62 -1.66696 0)
(221.833 -1.50208 0)
(227.133 -1.41985 0)
(232.08 -1.26032 0)
(236.625 -1.16106 0)
(241.009 -1.03144 0)
(245.045 -0.943649 0)
(248.995 -0.848959 0)
(252.693 -0.79596 0)
(256.438 -0.682157 0)
(260.231 -0.786608 0)
(265.295 -0.442418 0)
(265.27 -0.432069 0)
(267.171 -0.453893 0)
(270.284 -0.546017 0)
(274.494 -0.262945 0)
(274.1 -0.278025 0)
(275.652 -0.30609 0)
(278.143 -0.378118 0)
(281.563 -0.148361 0)
(281.101 -0.156588 0)
(282.23 -0.201109 0)
(283.886 -0.206423 0)
(285.758 -0.174407 0)
(287.479 -0.217303 0)
(289.729 -0.103216 0)
(289.698 -0.0986894 0)
(290.515 -0.113665 0)
(291.778 -0.123009 0)
(293.271 -0.155052 0)
(295.293 -0.0575675 0)
(295.139 -0.062982 0)
(295.855 -0.0895619 0)
(296.957 -0.105079 0)
(298.555 -0.0555588 0)
(298.813 -0.0473601 0)
(299.531 -0.0510592 0)
(300.519 -0.0703201 0)
(301.981 -0.0108243 0)
(301.885 -0.0163892 0)
(302.357 -0.0263319 0)
(303.067 -0.0403451 0)
(303.969 -0.0171976 0)
(304.418 -0.0190881 0)
(305.007 -0.0136675 0)
(305.678 -0.0220681 0)
(306.407 -0.0166564 0)
(307.207 -0.0291071 0)
(307.964 -0.0171133 0)
(308.741 -0.0311398 0)
(309.59 0.0219572 0)
(309.798 0.00554733 0)
(310.103 0.00410217 0)
(310.443 0.00428557 0)
(310.785 0.00195463 0)
(311.171 -0.00147602 0)
(311.672 -0.00531101 0)
(312.3 -0.0108732 0)
(313.029 -0.00297539 0)
(313.608 -0.0136222 0)
(314.079 0.0114219 0)
(314.407 0.00389647 0)
(314.753 0.0399258 0)
(314.308 0.0343492 0)
(314.17 0.0461197 0)
(313.849 0.0410066 0)
(313.482 0.0404496 0)
(313.115 0.0281767 0)
(312.779 0.0365042 0)
(312.633 0.0139759 0)
(312.672 0.0031079 0)
(312.777 0.00297767 0)
(312.987 -0.000195077 0)
(313.356 -0.00557897 0)
(313.778 -0.0081598 0)
(314.22 -0.00486651 0)
(314.521 -0.00444394 0)
(314.837 0.0066421 0)
(314.971 0.0135052 0)
(315.157 0.0156355 0)
(315.184 0.0279497 0)
(315.247 0.0274604 0)
(315.291 0.0313642 0)
(315.341 0.0297507 0)
(315.405 0.034046 0)
(315.424 0.0329945 0)
(315.476 0.0297466 0)
(315.592 0.0335517 0)
(315.67 0.0328563 0)
(315.766 0.0325141 0)
(315.868 0.0330649 0)
(315.943 0.0345972 0)
(316.005 0.0352099 0)
(316.069 0.0376875 0)
(316.06 0.0387192 0)
(316.058 0.0415391 0)
(316.02 0.0404214 0)
(315.97 0.0434478 0)
(315.871 0.0411455 0)
(315.762 0.0444743 0)
(315.634 0.0433991 0)
(315.5 0.0422383 0)
(315.369 0.0429598 0)
(315.241 0.0389853 0)
(315.139 0.0408148 0)
(315.065 0.0349261 0)
(314.993 0.0383471 0)
(314.987 0.0318248 0)
(314.964 0.0309785 0)
(314.97 0.0297126 0)
(314.985 0.0288989 0)
(315.012 0.028265 0)
(315.049 0.0277267 0)
(315.091 0.0268984 0)
(315.136 0.0273878 0)
(315.164 0.0270636 0)
(315.185 0.0289325 0)
(315.179 0.0295669 0)
(315.16 0.0307864 0)
(315.118 0.0303516 0)
(315.063 0.0316618 0)
(314.984 0.0313804 0)
(314.891 0.0318137 0)
(314.781 0.0314855 0)
(314.657 0.0316865 0)
(314.514 0.0307374 0)
(314.372 0.0295319 0)
(314.222 0.0300906 0)
(314.068 0.025108 0)
(313.964 0.0263397 0)
(313.931 0.0194176 0)
(313.914 0.017858 0)
(313.938 0.0169267 0)
(313.985 0.0163307 0)
(314.048 0.0157291 0)
(314.123 0.0167734 0)
(314.182 0.0162712 0)
(314.202 0.0206254 0)
(314.179 0.02213 0)
(314.126 0.0235037 0)
(314.033 0.0247855 0)
(313.903 0.025975 0)
(313.74 0.0265207 0)
(313.555 0.0266357 0)
(313.342 0.0270733 0)
(313.118 0.0242505 0)
(312.943 0.0228465 0)
(312.794 0.0206979 0)
(312.634 0.0190938 0)
(312.643 0.0132028 0)
(312.614 0.0126083 0)
(312.584 0.0113952 0)
(312.602 0.0110423 0)
(312.601 0.0108148 0)
(312.61 0.0112337 0)
(312.608 0.0120225 0)
(312.598 0.0127415 0)
(312.577 0.0135641 0)
(312.543 0.0143866 0)
(312.497 0.0152329 0)
(312.44 0.015761 0)
(312.375 0.0163576 0)
(312.304 0.0164256 0)
(312.23 0.0166258 0)
(312.154 0.0164896 0)
(312.078 0.016589 0)
(311.999 0.0163865 0)
(311.919 0.0164423 0)
(311.837 0.0161912 0)
(311.753 0.0162975 0)
(311.663 0.0159267 0)
(311.57 0.0162219 0)
(311.468 0.0156025 0)
(311.364 0.0161886 0)
(311.245 0.0161164 0)
(311.104 0.013836 0)
(311.124 0.0106527 0)
(1.35991 -3.3876 0)
(-3.26338 3.73511 0)
(-14.7588 8.03946 0)
(-30.7822 11.8874 0)
(-52.0356 15.8979 0)
(-73.8499 17.448 0)
(-94.6001 15.4467 0)
(-113.825 13.2303 0)
(-131.298 10.96 0)
(-145.937 9.32914 0)
(-157.24 8.67911 0)
(-166.647 7.35017 0)
(-174.541 6.47882 0)
(-180.454 5.82198 0)
(-184.758 5.2867 0)
(-188.253 4.95936 0)
(-190.896 4.65218 0)
(-192.689 4.38854 0)
(-193.649 4.14287 0)
(-193.872 4.00814 0)
(-193.006 4.09407 0)
(-190.885 3.66633 0)
(-187.296 3.09204 0)
(-182.423 2.52019 0)
(-176.149 1.98571 0)
(-168.566 1.36688 0)
(-159.787 0.727448 0)
(-150.051 -0.166711 0)
(-139.661 -0.925313 0)
(-128.232 -1.71466 0)
(-115.942 -2.7445 0)
(-102.539 -3.78145 0)
(-88.2621 -4.88532 0)
(-73.1334 -5.81555 0)
(-57.3004 -6.90351 0)
(-40.9567 -7.73579 0)
(-24.1144 -8.95782 0)
(-6.97168 -9.27421 0)
(9.98186 -9.7337 0)
(26.5014 -9.51732 0)
(42.9573 -9.55507 0)
(59.5201 -9.12025 0)
(75.7265 -9.11695 0)
(90.943 -9.26954 0)
(105.1 -9.46507 0)
(118.368 -9.28627 0)
(130.91 -8.98755 0)
(142.825 -8.76075 0)
(154.183 -8.52705 0)
(165.285 -8.46363 0)
(175.682 -8.0961 0)
(185.813 -7.93217 0)
(195.322 -7.50178 0)
(204.431 -7.27088 0)
(213.263 -6.84474 0)
(221.291 -6.37697 0)
(229.278 -6.17074 0)
(236.459 -5.52163 0)
(243.196 -5.34768 0)
(249.554 -5.00686 0)
(255.907 -4.83827 0)
(261.78 -4.43493 0)
(267.498 -4.29662 0)
(272.985 -3.83956 0)
(277.96 -3.69219 0)
(282.912 -3.56052 0)
(287.732 -3.17471 0)
(291.986 -3.03712 0)
(296.23 -2.73872 0)
(300.065 -2.58419 0)
(303.86 -2.39928 0)
(307.403 -2.23865 0)
(310.977 -2.17763 0)
(314.62 -2.16537 0)
(319.698 -1.95903 0)
(319.862 -1.34948 0)
(321.789 -1.31033 0)
(324.673 -1.44984 0)
(329.149 -1.43784 0)
(329.017 -1.08668 0)
(330.554 -1.0027 0)
(332.885 -1.08836 0)
(336.547 -1.10181 0)
(336.396 -0.815116 0)
(337.556 -0.764169 0)
(339.24 -0.758812 0)
(341.103 -0.904244 0)
(342.814 -0.89393 0)
(345.242 -0.763976 0)
(345.501 -0.56585 0)
(346.484 -0.542954 0)
(347.833 -0.562228 0)
(349.331 -0.650805 0)
(351.526 -0.617922 0)
(351.645 -0.412994 0)
(352.465 -0.409878 0)
(353.634 -0.398569 0)
(355.279 -0.516377 0)
(355.777 -0.345309 0)
(356.655 -0.335684 0)
(357.733 -0.352465 0)
(359.337 -0.407434 0)
(359.51 -0.26678 0)
(360.148 -0.221277 0)
(360.988 -0.235274 0)
(362.007 -0.292229 0)
(362.628 -0.235254 0)
(363.37 -0.209168 0)
(364.171 -0.217458 0)
(365.02 -0.192152 0)
(365.916 -0.194664 0)
(366.798 -0.158235 0)
(367.695 -0.155041 0)
(368.735 -0.0773675 0)
(369.168 -0.0916262 0)
(369.688 -0.0619115 0)
(370.233 -0.0544886 0)
(370.75 -0.0539794 0)
(371.297 -0.0339186 0)
(371.926 -0.0463019 0)
(372.659 -0.00722578 0)
(373.491 -0.0161127 0)
(374.163 0.0141498 0)
(374.804 -0.00447234 0)
(375.296 0.0129538 0)
(375.927 0.00826399 0)
(375.739 -0.0151401 0)
(375.85 -0.0299818 0)
(375.753 -0.0452276 0)
(375.634 -0.0514617 0)
(375.508 -0.0462506 0)
(375.423 -0.0577118 0)
(375.453 -0.0728261 0)
(375.556 -0.0838497 0)
(375.741 -0.0539673 0)
(376.023 -0.0258752 0)
(376.431 -0.0417013 0)
(376.898 -0.0191327 0)
(377.397 -0.0103379 0)
(377.792 0.0096526 0)
(378.218 0.00178297 0)
(378.484 0.022524 0)
(378.805 0.0214562 0)
(378.99 0.0303308 0)
(379.206 0.0262865 0)
(379.419 0.0279072 0)
(379.634 0.0302846 0)
(379.86 0.0315731 0)
(380.045 0.0333155 0)
(380.251 0.0338522 0)
(380.51 0.0330241 0)
(380.73 0.0332109 0)
(380.96 0.0378458 0)
(381.197 0.0403231 0)
(381.408 0.0430391 0)
(381.603 0.0448503 0)
(381.808 0.0455741 0)
(381.943 0.0507324 0)
(382.1 0.051107 0)
(382.197 0.048257 0)
(382.311 0.05378 0)
(382.347 0.0474864 0)
(382.391 0.0544419 0)
(382.403 0.0485507 0)
(382.417 0.0497193 0)
(382.426 0.0465857 0)
(382.441 0.0439401 0)
(382.464 0.0435413 0)
(382.502 0.0382829 0)
(382.551 0.0424886 0)
(382.628 0.0374752 0)
(382.701 0.0392999 0)
(382.788 0.0388957 0)
(382.881 0.0403466 0)
(382.98 0.041675 0)
(383.086 0.0419474 0)
(383.193 0.0422612 0)
(383.303 0.043573 0)
(383.393 0.0437968 0)
(383.486 0.0453206 0)
(383.545 0.0464793 0)
(383.609 0.0461266 0)
(383.632 0.0449979 0)
(383.655 0.0457174 0)
(383.647 0.0449918 0)
(383.629 0.0447712 0)
(383.595 0.0435182 0)
(383.549 0.0433567 0)
(383.486 0.0391812 0)
(383.418 0.0399223 0)
(383.34 0.0358838 0)
(383.266 0.0337063 0)
(383.209 0.0347679 0)
(383.22 0.0239135 0)
(383.237 0.0261133 0)
(383.279 0.027591 0)
(383.34 0.0290588 0)
(383.414 0.0305985 0)
(383.503 0.0327607 0)
(383.566 0.0340809 0)
(383.624 0.0396572 0)
(383.623 0.0408949 0)
(383.604 0.0407442 0)
(383.555 0.0406321 0)
(383.475 0.0403028 0)
(383.369 0.0383964 0)
(383.241 0.0381167 0)
(383.09 0.0337939 0)
(382.933 0.0325797 0)
(382.787 0.0322196 0)
(382.677 0.0260029 0)
(382.534 0.0311873 0)
(382.543 0.0171494 0)
(382.52 0.0202549 0)
(382.487 0.0218926 0)
(382.497 0.0210895 0)
(382.491 0.0230119 0)
(382.494 0.0228516 0)
(382.49 0.024268 0)
(382.479 0.0249843 0)
(382.46 0.0258689 0)
(382.431 0.026673 0)
(382.392 0.027543 0)
(382.346 0.0277027 0)
(382.293 0.0283205 0)
(382.235 0.0279935 0)
(382.175 0.0282979 0)
(382.112 0.0279024 0)
(382.048 0.0282732 0)
(381.981 0.0278449 0)
(381.912 0.0282035 0)
(381.84 0.0277743 0)
(381.765 0.0280226 0)
(381.683 0.0275061 0)
(381.596 0.0278657 0)
(381.501 0.0269595 0)
(381.402 0.0276241 0)
(381.291 0.0259411 0)
(381.139 0.0289336 0)
(381.155 0.0152277 0)
(-3.73597 -1.04533 0)
(-10.8268 9.06293 0)
(-25.4513 17.0767 0)
(-44.6899 24.1576 0)
(-65.2431 29.408 0)
(-85.106 29.4601 0)
(-103.09 26.2865 0)
(-119.225 22.709 0)
(-133.237 19.2722 0)
(-144.804 16.3277 0)
(-154.543 14.2206 0)
(-162.204 11.8163 0)
(-168.274 10.0122 0)
(-172.53 8.69836 0)
(-175.228 7.60847 0)
(-177.254 6.89911 0)
(-178.407 6.36747 0)
(-178.783 5.99437 0)
(-178.305 5.48254 0)
(-176.69 4.93567 0)
(-173.898 3.97476 0)
(-169.805 3.16547 0)
(-164.482 2.15139 0)
(-157.992 1.12285 0)
(-150.24 0.0636804 0)
(-141.297 -1.10808 0)
(-131.334 -2.24092 0)
(-120.395 -3.55429 0)
(-108.36 -4.89275 0)
(-95.1297 -6.25264 0)
(-80.9548 -7.96658 0)
(-65.6664 -9.62603 0)
(-49.4975 -11.4911 0)
(-32.4607 -12.8649 0)
(-14.6893 -14.7248 0)
(3.5225 -15.8768 0)
(21.9984 -17.6576 0)
(40.5383 -18.1376 0)
(58.616 -19.0102 0)
(76.3576 -18.7318 0)
(93.9338 -19.1292 0)
(111.228 -18.8734 0)
(127.869 -18.8852 0)
(143.224 -18.5687 0)
(157.626 -18.3709 0)
(170.899 -17.8016 0)
(183.393 -17.1937 0)
(195.139 -16.6489 0)
(206.231 -16.1295 0)
(217.083 -15.8589 0)
(227.009 -15.1291 0)
(236.676 -14.6832 0)
(245.586 -13.89 0)
(254.087 -13.383 0)
(262.114 -12.5926 0)
(269.304 -11.7608 0)
(276.398 -11.2748 0)
(282.781 -10.2246 0)
(288.552 -9.74596 0)
(294.033 -9.10965 0)
(299.532 -8.75478 0)
(304.567 -8.0833 0)
(309.425 -7.76167 0)
(314.125 -7.08267 0)
(318.316 -6.72123 0)
(322.505 -6.45292 0)
(326.623 -5.86421 0)
(330.158 -5.56192 0)
(333.717 -5.08818 0)
(336.908 -4.79155 0)
(340.083 -4.47003 0)
(343.046 -4.18428 0)
(346.059 -4.0008 0)
(349.174 -3.90011 0)
(353.546 -3.76078 0)
(353.551 -3.07055 0)
(355.158 -2.78737 0)
(357.578 -2.71344 0)
(361.4 -2.90302 0)
(361.331 -2.36033 0)
(362.626 -2.12198 0)
(364.584 -2.08096 0)
(367.72 -2.27469 0)
(367.643 -1.85024 0)
(368.607 -1.67639 0)
(370.041 -1.5932 0)
(371.619 -1.73661 0)
(373.179 -1.73416 0)
(375.372 -1.78356 0)
(375.531 -1.42644 0)
(376.371 -1.29336 0)
(377.546 -1.23805 0)
(378.879 -1.27078 0)
(380.854 -1.44292 0)
(380.932 -1.11464 0)
(381.655 -1.01334 0)
(382.696 -0.913236 0)
(384.135 -1.11043 0)
(384.61 -0.893885 0)
(385.404 -0.833226 0)
(386.383 -0.789845 0)
(387.825 -0.938151 0)
(388.007 -0.724114 0)
(388.591 -0.634165 0)
(389.356 -0.594496 0)
(390.276 -0.673367 0)
(390.87 -0.597337 0)
(391.564 -0.552914 0)
(392.312 -0.543168 0)
(393.102 -0.501454 0)
(393.935 -0.482116 0)
(394.754 -0.423209 0)
(395.588 -0.394749 0)
(396.551 -0.350251 0)
(396.977 -0.324588 0)
(397.483 -0.277579 0)
(398.01 -0.25329 0)
(398.524 -0.245339 0)
(399.06 -0.193573 0)
(399.668 -0.191924 0)
(400.371 -0.110625 0)
(401.142 -0.107269 0)
(401.801 -0.0755777 0)
(402.418 -0.119141 0)
(402.932 -0.0931939 0)
(403.597 -0.149408 0)
(403.483 -0.162111 0)
(403.64 -0.187236 0)
(403.592 -0.201733 0)
(403.546 -0.235284 0)
(403.492 -0.222644 0)
(403.501 -0.218046 0)
(403.567 -0.221407 0)
(403.705 -0.213207 0)
(403.908 -0.169757 0)
(404.188 -0.103808 0)
(404.572 -0.117208 0)
(405.013 -0.0830212 0)
(405.474 -0.0722492 0)
(405.858 -0.0414264 0)
(406.266 -0.0539837 0)
(406.552 -0.0320751 0)
(406.882 -0.0308145 0)
(407.099 -0.0257852 0)
(407.339 -0.0248666 0)
(407.581 -0.0240165 0)
(407.817 -0.0124931 0)
(408.065 -0.0112325 0)
(408.277 -0.00990084 0)
(408.503 0.00284806 0)
(408.776 0.000687159 0)
(409.012 0.00460343 0)
(409.258 0.0134993 0)
(409.509 0.0185269 0)
(409.74 0.0240308 0)
(409.955 0.0284904 0)
(410.181 0.0288353 0)
(410.345 0.0356064 0)
(410.529 0.0355444 0)
(410.658 0.0343569 0)
(410.804 0.0386878 0)
(410.878 0.0343397 0)
(410.961 0.040968 0)
(411.011 0.0342152 0)
(411.064 0.0364868 0)
(411.108 0.0342785 0)
(411.156 0.0303604 0)
(411.21 0.0347448 0)
(411.275 0.0291447 0)
(411.35 0.0364937 0)
(411.447 0.0345097 0)
(411.54 0.036421 0)
(411.643 0.0418932 0)
(411.75 0.0447923 0)
(411.863 0.0476022 0)
(411.979 0.050269 0)
(412.096 0.0518355 0)
(412.216 0.0537971 0)
(412.317 0.0552249 0)
(412.422 0.0563702 0)
(412.497 0.0583828 0)
(412.577 0.05723 0)
(412.618 0.0570492 0)
(412.662 0.0575075 0)
(412.676 0.0566907 0)
(412.675 0.0562448 0)
(412.662 0.0540616 0)
(412.637 0.0538364 0)
(412.597 0.0469588 0)
(412.551 0.0492589 0)
(412.496 0.042416 0)
(412.441 0.0401231 0)
(412.401 0.0455864 0)
(412.415 0.0312953 0)
(412.433 0.0376601 0)
(412.473 0.0425487 0)
(412.531 0.046342 0)
(412.601 0.0500802 0)
(412.685 0.0531805 0)
(412.744 0.0562385 0)
(412.806 0.060231 0)
(412.814 0.0646933 0)
(412.804 0.06214 0)
(412.769 0.0596787 0)
(412.708 0.0572767 0)
(412.622 0.0539577 0)
(412.516 0.052989 0)
(412.389 0.0446185 0)
(412.255 0.0449569 0)
(412.125 0.0483162 0)
(412.023 0.0389205 0)
(411.891 0.0502076 0)
(411.885 0.0298001 0)
(411.858 0.0351655 0)
(411.817 0.0398009 0)
(411.817 0.0378981 0)
(411.805 0.0407989 0)
(411.799 0.0413657 0)
(411.788 0.043503 0)
(411.772 0.0445228 0)
(411.749 0.0455965 0)
(411.719 0.0464044 0)
(411.681 0.0473281 0)
(411.636 0.0474258 0)
(411.585 0.0481631 0)
(411.53 0.0476355 0)
(411.473 0.048287 0)
(411.413 0.0475868 0)
(411.351 0.0484998 0)
(411.287 0.0477525 0)
(411.22 0.0487452 0)
(411.151 0.0478984 0)
(411.077 0.0488361 0)
(410.997 0.0478203 0)
(410.912 0.0488643 0)
(410.818 0.047145 0)
(410.72 0.0485375 0)
(410.611 0.0451396 0)
(410.46 0.0508436 0)
(410.46 0.0285053 0)
(-5.61242 3.72114 0)
(-16.9721 17.1668 0)
(-34.8624 27.3447 0)
(-53.5727 36.1932 0)
(-72.3742 39.9966 0)
(-89.3867 39.2241 0)
(-104.192 35.1825 0)
(-117.057 30.4833 0)
(-128.494 25.4485 0)
(-137.958 20.62 0)
(-145.522 16.6063 0)
(-151.277 13.675 0)
(-155.562 11.4343 0)
(-158.289 9.8016 0)
(-159.632 8.46686 0)
(-160.515 7.57919 0)
(-160.647 6.80174 0)
(-159.975 6.11967 0)
(-158.386 5.4461 0)
(-155.74 4.72632 0)
(-151.984 3.87379 0)
(-147.021 2.76215 0)
(-140.816 1.44234 0)
(-133.342 0.0245325 0)
(-124.491 -1.50155 0)
(-114.281 -3.2126 0)
(-102.785 -4.87011 0)
(-90.164 -6.83935 0)
(-76.2576 -9.01431 0)
(-60.9621 -11.0719 0)
(-44.5896 -13.682 0)
(-27.0053 -15.9587 0)
(-8.58681 -18.8611 0)
(10.9711 -20.6487 0)
(31.0671 -23.4619 0)
(51.59 -25.0596 0)
(71.9923 -27.5995 0)
(92.2876 -27.9977 0)
(111.847 -29.3387 0)
(130.952 -28.821 0)
(149.476 -29.5197 0)
(167.138 -28.9293 0)
(184.019 -28.6746 0)
(199.282 -27.7284 0)
(213.697 -27.1644 0)
(226.659 -26.1423 0)
(239.014 -25.1272 0)
(250.319 -24.1885 0)
(260.908 -23.3725 0)
(271.317 -22.7742 0)
(280.427 -21.5502 0)
(289.34 -20.7505 0)
(297.302 -19.4885 0)
(304.965 -18.5946 0)
(311.913 -17.2888 0)
(318.069 -16.1396 0)
(324.011 -15.2938 0)
(329.341 -13.8717 0)
(333.906 -13.1707 0)
(338.287 -12.3131 0)
(342.739 -11.7562 0)
(346.718 -10.8183 0)
(350.568 -10.353 0)
(354.306 -9.43245 0)
(357.493 -8.96659 0)
(360.75 -8.5198 0)
(363.945 -7.72961 0)
(366.606 -7.30453 0)
(369.294 -6.67134 0)
(371.681 -6.3018 0)
(374.078 -5.87988 0)
(376.307 -5.50884 0)
(378.609 -5.26469 0)
(381.026 -5.14039 0)
(384.441 -5.0838 0)
(384.281 -4.18373 0)
(385.444 -3.65588 0)
(387.252 -3.54757 0)
(390.167 -3.92008 0)
(390.037 -3.26567 0)
(390.99 -2.83032 0)
(392.475 -2.77152 0)
(394.873 -3.12689 0)
(394.752 -2.64423 0)
(395.457 -2.28665 0)
(396.528 -2.19771 0)
(397.729 -2.31974 0)
(398.988 -2.37147 0)
(400.797 -2.42412 0)
(400.792 -2.07267 0)
(401.4 -1.78674 0)
(402.296 -1.71921 0)
(403.352 -1.75526 0)
(404.963 -1.90738 0)
(404.962 -1.62276 0)
(405.506 -1.39396 0)
(406.327 -1.30638 0)
(407.472 -1.51702 0)
(407.85 -1.31986 0)
(408.476 -1.18081 0)
(409.267 -1.15096 0)
(410.466 -1.34391 0)
(410.563 -1.08821 0)
(411.02 -0.930373 0)
(411.636 -0.880776 0)
(412.378 -0.974577 0)
(412.879 -0.895655 0)
(413.454 -0.828411 0)
(414.078 -0.79913 0)
(414.743 -0.737296 0)
(415.448 -0.684734 0)
(416.142 -0.608324 0)
(416.848 -0.581022 0)
(417.678 -0.582003 0)
(418.021 -0.500981 0)
(418.442 -0.446556 0)
(418.883 -0.418705 0)
(419.328 -0.402218 0)
(419.79 -0.333858 0)
(420.319 -0.272702 0)
(420.934 -0.176694 0)
(421.598 -0.173959 0)
(422.18 -0.141008 0)
(422.709 -0.204274 0)
(423.181 -0.182523 0)
(423.756 -0.325738 0)
(423.666 -0.314138 0)
(423.804 -0.35219 0)
(423.761 -0.384129 0)
(423.727 -0.432492 0)
(423.697 -0.414532 0)
(423.706 -0.407208 0)
(423.767 -0.377484 0)
(423.895 -0.339307 0)
(424.079 -0.273938 0)
(424.326 -0.176623 0)
(424.66 -0.170727 0)
(425.052 -0.117243 0)
(425.455 -0.113923 0)
(425.793 -0.0849055 0)
(426.147 -0.109691 0)
(426.402 -0.0879663 0)
(426.693 -0.0894858 0)
(426.884 -0.079169 0)
(427.096 -0.0746071 0)
(427.315 -0.0734431 0)
(427.528 -0.0523334 0)
(427.747 -0.0521805 0)
(427.948 -0.0480343 0)
(428.156 -0.0178959 0)
(428.401 -0.0303794 0)
(428.619 -0.0166317 0)
(428.845 -0.0045352 0)
(429.075 0.00331631 0)
(429.288 0.0118496 0)
(429.487 0.0160245 0)
(429.696 0.0143986 0)
(429.851 0.0202602 0)
(430.022 0.0200862 0)
(430.146 0.0184875 0)
(430.285 0.0237999 0)
(430.359 0.0145033 0)
(430.442 0.021664 0)
(430.495 0.0160506 0)
(430.551 0.0187309 0)
(430.596 0.0170863 0)
(430.646 0.015199 0)
(430.7 0.0212434 0)
(430.765 0.0184571 0)
(430.838 0.0336071 0)
(430.93 0.0263939 0)
(431.022 0.0326823 0)
(431.122 0.0425034 0)
(431.225 0.0488418 0)
(431.332 0.0548249 0)
(431.442 0.0601612 0)
(431.551 0.0630417 0)
(431.663 0.065738 0)
(431.759 0.0676566 0)
(431.858 0.0679914 0)
(431.929 0.0703142 0)
(432.005 0.0673676 0)
(432.046 0.067576 0)
(432.089 0.0663419 0)
(432.105 0.0661604 0)
(432.106 0.0645008 0)
(432.096 0.0612363 0)
(432.074 0.0606011 0)
(432.039 0.0508676 0)
(431.997 0.0537047 0)
(431.946 0.0440499 0)
(431.897 0.0441603 0)
(431.855 0.0539995 0)
(431.866 0.0389121 0)
(431.879 0.0493964 0)
(431.912 0.0581232 0)
(431.961 0.0651623 0)
(432.022 0.0716607 0)
(432.095 0.0761175 0)
(432.146 0.0804491 0)
(432.199 0.0823474 0)
(432.203 0.0878871 0)
(432.194 0.0830593 0)
(432.161 0.0777012 0)
(432.105 0.0726874 0)
(432.025 0.0668564 0)
(431.927 0.0643802 0)
(431.808 0.0512353 0)
(431.684 0.0534843 0)
(431.562 0.0602711 0)
(431.462 0.0496904 0)
(431.336 0.0655264 0)
(431.319 0.0461901 0)
(431.285 0.0505404 0)
(431.237 0.0583123 0)
(431.226 0.0558086 0)
(431.206 0.0600566 0)
(431.19 0.0612832 0)
(431.171 0.0636537 0)
(431.147 0.0648571 0)
(431.117 0.0659118 0)
(431.08 0.0665606 0)
(431.037 0.0673474 0)
(430.988 0.0672655 0)
(430.934 0.067977 0)
(430.876 0.0671104 0)
(430.816 0.068115 0)
(430.754 0.0671287 0)
(430.691 0.068647 0)
(430.624 0.0675977 0)
(430.556 0.0692856 0)
(430.485 0.0680176 0)
(430.409 0.0695968 0)
(430.328 0.068157 0)
(430.241 0.0697638 0)
(430.145 0.0672773 0)
(430.045 0.0691695 0)
(429.935 0.0636345 0)
(429.79 0.0762014 0)
(429.767 0.0414703 0)
(-6.64528 11.1046 0)
(-21.9676 27.0228 0)
(-40.6904 38.6917 0)
(-58.1388 46.7452 0)
(-74.5648 49.6469 0)
(-88.8648 47.4989 0)
(-100.637 42.0344 0)
(-110.856 35.3343 0)
(-120.031 29.1735 0)
(-127.519 23.9599 0)
(-133.188 19.4934 0)
(-137.326 15.7954 0)
(-140.272 13.0079 0)
(-141.907 10.9659 0)
(-142.349 9.3328 0)
(-142.45 8.12841 0)
(-141.7 7.1336 0)
(-140.226 6.21661 0)
(-137.807 5.24794 0)
(-134.371 4.10167 0)
(-129.8 2.71496 0)
(-123.932 1.12308 0)
(-116.662 -0.71862 0)
(-107.945 -2.75959 0)
(-97.6706 -4.96247 0)
(-85.8547 -7.43461 0)
(-72.4734 -9.76445 0)
(-57.7693 -12.432 0)
(-41.6749 -15.5337 0)
(-23.8802 -18.3114 0)
(-4.85124 -22.0031 0)
(15.8037 -24.8999 0)
(37.3014 -28.9004 0)
(60.0864 -31.4657 0)
(83.4024 -35.1642 0)
(107.059 -36.9343 0)
(129.907 -40.0138 0)
(152.635 -40.1416 0)
(173.966 -41.688 0)
(194.808 -40.7857 0)
(214.164 -41.4392 0)
(232.188 -40.2105 0)
(249.356 -39.6443 0)
(264.252 -37.9649 0)
(278.495 -36.9284 0)
(290.751 -35.2202 0)
(302.953 -34.0198 0)
(313.417 -32.4396 0)
(323.257 -31.2735 0)
(332.85 -30.17 0)
(340.716 -28.3972 0)
(348.51 -27.1977 0)
(355.104 -25.409 0)
(361.565 -24.0486 0)
(366.915 -22.1963 0)
(371.653 -20.5963 0)
(375.909 -19.3362 0)
(379.705 -17.4976 0)
(382.641 -16.4873 0)
(385.482 -15.2911 0)
(388.545 -14.5607 0)
(391.148 -13.3507 0)
(393.711 -12.7061 0)
(396.147 -11.5744 0)
(398.082 -10.9636 0)
(400.206 -10.3777 0)
(402.29 -9.43519 0)
(403.935 -8.8944 0)
(405.629 -8.10706 0)
(407.083 -7.65263 0)
(408.577 -7.1251 0)
(409.961 -6.66487 0)
(411.443 -6.34834 0)
(413.032 -6.13463 0)
(415.316 -6.08996 0)
(414.967 -5.26606 0)
(415.572 -4.57212 0)
(416.695 -4.33174 0)
(418.537 -4.72422 0)
(418.318 -4.13162 0)
(418.836 -3.5725 0)
(419.765 -3.41426 0)
(421.291 -3.797 0)
(421.111 -3.37165 0)
(421.477 -2.93243 0)
(422.111 -2.76891 0)
(422.869 -2.84113 0)
(423.709 -2.89157 0)
(424.955 -3.01264 0)
(424.827 -2.64285 0)
(425.154 -2.28674 0)
(425.7 -2.16701 0)
(426.394 -2.18322 0)
(427.492 -2.40816 0)
(427.419 -2.11037 0)
(427.739 -1.80917 0)
(428.276 -1.68974 0)
(429.056 -1.87617 0)
(429.275 -1.69977 0)
(429.673 -1.53147 0)
(430.215 -1.48223 0)
(431.075 -1.64398 0)
(431.08 -1.44856 0)
(431.359 -1.24152 0)
(431.771 -1.16465 0)
(432.281 -1.22508 0)
(432.633 -1.15973 0)
(433.035 -1.08238 0)
(433.484 -1.03089 0)
(433.973 -0.950723 0)
(434.5 -0.86868 0)
(435.018 -0.780711 0)
(435.551 -0.729425 0)
(436.199 -0.773295 0)
(436.416 -0.675351 0)
(436.706 -0.610626 0)
(437.021 -0.575988 0)
(437.353 -0.555427 0)
(437.695 -0.458828 0)
(438.102 -0.357754 0)
(438.584 -0.238599 0)
(439.102 -0.226741 0)
(439.567 -0.200811 0)
(439.968 -0.283907 0)
(440.348 -0.310521 0)
(440.776 -0.495577 0)
(440.667 -0.479796 0)
(440.743 -0.539646 0)
(440.676 -0.591169 0)
(440.617 -0.653462 0)
(440.566 -0.632032 0)
(440.528 -0.602323 0)
(440.556 -0.542834 0)
(440.644 -0.476381 0)
(440.781 -0.388696 0)
(440.966 -0.259598 0)
(441.226 -0.22265 0)
(441.546 -0.154864 0)
(441.873 -0.154458 0)
(442.142 -0.128235 0)
(442.423 -0.151471 0)
(442.625 -0.140818 0)
(442.854 -0.153524 0)
(442.995 -0.134777 0)
(443.157 -0.128167 0)
(443.328 -0.126044 0)
(443.492 -0.102651 0)
(443.66 -0.0969234 0)
(443.826 -0.0926086 0)
(443.989 -0.0487823 0)
(444.183 -0.0617154 0)
(444.363 -0.0456147 0)
(444.548 -0.0265658 0)
(444.737 -0.0178934 0)
(444.912 -0.00459896 0)
(445.075 0.00119949 0)
(445.247 -0.00489073 0)
(445.373 0.00237677 0)
(445.512 -0.00128029 0)
(445.61 -0.00131655 0)
(445.722 -0.00387149 0)
(445.775 -0.00920749 0)
(445.84 -0.00451286 0)
(445.875 -0.00882696 0)
(445.914 -0.00415276 0)
(445.944 -0.00733834 0)
(445.977 -0.00658243 0)
(446.015 0.000582797 0)
(446.063 0.00209437 0)
(446.117 0.0234536 0)
(446.19 0.0182571 0)
(446.266 0.0278194 0)
(446.35 0.0376863 0)
(446.435 0.0487859 0)
(446.524 0.0582896 0)
(446.616 0.0663768 0)
(446.706 0.0712666 0)
(446.8 0.0747018 0)
(446.878 0.0771864 0)
(446.959 0.0772835 0)
(447.015 0.0781752 0)
(447.076 0.0752421 0)
(447.105 0.0745614 0)
(447.135 0.0732258 0)
(447.138 0.0716575 0)
(447.133 0.0703135 0)
(447.115 0.0647614 0)
(447.086 0.0640112 0)
(447.043 0.0508826 0)
(446.996 0.0545951 0)
(446.938 0.0444878 0)
(446.884 0.0429668 0)
(446.832 0.0610825 0)
(446.829 0.044471 0)
(446.838 0.061035 0)
(446.857 0.0722879 0)
(446.891 0.0836096 0)
(446.936 0.0930446 0)
(446.992 0.0990653 0)
(447.03 0.103848 0)
(447.065 0.105605 0)
(447.06 0.109079 0)
(447.044 0.10184 0)
(447.005 0.093421 0)
(446.944 0.0854676 0)
(446.863 0.0773226 0)
(446.763 0.0716151 0)
(446.645 0.057226 0)
(446.522 0.0604022 0)
(446.402 0.0688228 0)
(446.299 0.0593989 0)
(446.174 0.07908 0)
(446.146 0.0644202 0)
(446.102 0.0668449 0)
(446.045 0.0768043 0)
(446.022 0.0749111 0)
(445.991 0.0798194 0)
(445.963 0.0820689 0)
(445.932 0.0846817 0)
(445.897 0.0860623 0)
(445.856 0.0869279 0)
(445.81 0.0873515 0)
(445.758 0.087915 0)
(445.701 0.0876646 0)
(445.639 0.0882389 0)
(445.575 0.087122 0)
(445.508 0.088433 0)
(445.44 0.0871609 0)
(445.371 0.089228 0)
(445.299 0.0879183 0)
(445.225 0.0902759 0)
(445.148 0.0886798 0)
(445.068 0.0909002 0)
(444.982 0.0890458 0)
(444.89 0.09131 0)
(444.79 0.0880098 0)
(444.685 0.0904776 0)
(444.571 0.0831039 0)
(444.43 0.0967295 0)
(444.384 0.0604403 0)
(-9.45024 20.0547 0)
(-24.6663 37.8169 0)
(-43.4574 48.8598 0)
(-58.9936 56.2254 0)
(-73.1128 57.7403 0)
(-84.8743 53.8851 0)
(-94.2294 46.8184 0)
(-102.553 39.5989 0)
(-109.629 32.622 0)
(-115.2 26.4107 0)
(-119.33 21.2117 0)
(-122.317 17.0542 0)
(-124.29 13.8929 0)
(-125.079 11.4984 0)
(-124.771 9.58714 0)
(-124.055 8.04799 0)
(-122.504 6.86451 0)
(-120.22 5.66829 0)
(-116.943 4.34654 0)
(-112.587 2.80636 0)
(-106.998 0.935862 0)
(-99.9398 -1.25247 0)
(-91.323 -3.74599 0)
(-81.0581 -6.53714 0)
(-69.0039 -9.53291 0)
(-55.2295 -12.9446 0)
(-39.5339 -16.1108 0)
(-22.1948 -19.6603 0)
(-3.1813 -24.053 0)
(18.1541 -27.7609 0)
(40.8125 -32.8129 0)
(65.5294 -36.5336 0)
(91.2657 -41.8388 0)
(118.453 -45.0891 0)
(145.893 -49.9476 0)
(173.734 -51.6896 0)
(199.389 -55.0521 0)
(225.302 -54.842 0)
(248.271 -56.4122 0)
(271.155 -54.9375 0)
(290.896 -55.112 0)
(309.177 -52.8265 0)
(326.384 -51.8363 0)
(340.626 -49.1855 0)
(354.424 -47.6076 0)
(365.605 -44.9681 0)
(376.574 -43.5246 0)
(385.519 -41.0969 0)
(393.912 -39.5201 0)
(401.7 -37.601 0)
(407.991 -35.1715 0)
(414.059 -33.4974 0)
(419.179 -31.0228 0)
(423.732 -29.0697 0)
(427.304 -26.5656 0)
(430.217 -24.4969 0)
(432.375 -22.7087 0)
(434.651 -20.5563 0)
(435.639 -19.2385 0)
(436.867 -17.765 0)
(438.283 -16.807 0)
(439.466 -15.368 0)
(440.344 -14.5022 0)
(441.369 -13.2116 0)
(441.649 -12.4141 0)
(442.387 -11.6801 0)
(443.166 -10.6316 0)
(443.388 -9.93129 0)
(443.953 -9.08055 0)
(444.127 -8.50491 0)
(444.549 -7.95052 0)
(444.825 -7.39184 0)
(445.294 -7.04136 0)
(445.895 -6.76177 0)
(446.9 -6.75665 0)
(446.413 -6.11762 0)
(446.23 -5.2485 0)
(446.628 -4.89966 0)
(447.381 -5.11342 0)
(447.067 -4.7447 0)
(447.022 -4.14401 0)
(447.35 -3.9185 0)
(447.985 -4.14946 0)
(447.724 -3.89605 0)
(447.655 -3.47005 0)
(447.801 -3.18824 0)
(448.062 -3.17494 0)
(448.41 -3.23422 0)
(449.009 -3.39334 0)
(448.784 -3.10572 0)
(448.751 -2.69251 0)
(448.911 -2.5 0)
(449.195 -2.4709 0)
(449.715 -2.67519 0)
(449.566 -2.46736 0)
(449.609 -2.1525 0)
(449.817 -1.99576 0)
(450.194 -2.08326 0)
(450.215 -1.97009 0)
(450.355 -1.81082 0)
(450.606 -1.73818 0)
(451.041 -1.88031 0)
(450.971 -1.71059 0)
(451.043 -1.47821 0)
(451.211 -1.37513 0)
(451.443 -1.40262 0)
(451.603 -1.36248 0)
(451.791 -1.27507 0)
(452.028 -1.19848 0)
(452.303 -1.09226 0)
(452.62 -0.980319 0)
(452.925 -0.890435 0)
(453.246 -0.828875 0)
(453.669 -0.886154 0)
(453.737 -0.785355 0)
(453.873 -0.731495 0)
(454.033 -0.695552 0)
(454.226 -0.67045 0)
(454.414 -0.53757 0)
(454.666 -0.394142 0)
(454.984 -0.254767 0)
(455.326 -0.237975 0)
(455.638 -0.230675 0)
(455.887 -0.336326 0)
(456.146 -0.401772 0)
(456.382 -0.620694 0)
(456.232 -0.62871 0)
(456.228 -0.730238 0)
(456.104 -0.808228 0)
(455.995 -0.861083 0)
(455.886 -0.837856 0)
(455.773 -0.798217 0)
(455.735 -0.700557 0)
(455.756 -0.602438 0)
(455.821 -0.48798 0)
(455.918 -0.328668 0)
(456.08 -0.255008 0)
(456.308 -0.171697 0)
(456.534 -0.176869 0)
(456.716 -0.150016 0)
(456.903 -0.183541 0)
(457.033 -0.178052 0)
(457.183 -0.196579 0)
(457.257 -0.180227 0)
(457.352 -0.170006 0)
(457.456 -0.169955 0)
(457.554 -0.143029 0)
(457.656 -0.13294 0)
(457.765 -0.131561 0)
(457.862 -0.0727831 0)
(457.986 -0.0821027 0)
(458.11 -0.0658211 0)