/*--------------------------------*- C++ -*----------------------------------*\
| =========                 |                                                 |
| \\      /  F ield         | OpenFOAM: The Open Source CFD Toolbox           |
|  \\    /   O peration     | Version:  2312                                  |
|   \\  /    A nd           | Website:  www.openfoam.com                      |
|    \\/     M anipulation  |                                                 |
\*---------------------------------------------------------------------------*/
FoamFile
{
    version     2.0;
    format      ascii;
    arch        "LSB;label=32;scalar=64";
    class       volScalarField;
    location    "6e-05";
    object      alphat;
}
// * * * * * * * * * * * * * * * * * * * * * * * * * * * * * * * * * * * * * //

dimensions      [1 -1 -1 0 0 0 0];

internalField   nonuniform List<scalar> 
109340
(
0.47749120197299
0.32773768488678
0.17692127284772
0.14788021587308
0.14328166434993
0.14623981922616
0.15174739196674
0.16093304474329
0.14029391126479
0.1248025775603
0.11253918447466
0.10253456021426
0.094198378909398
0.087137992403312
0.081078143183068
0.075818729532523
0.071210217932582
0.06713836737946
0.063514272290998
0.060267632338005
0.057342066775681
0.054691769784697
0.052279074083478
0.050072646961636
0.048046132732627
0.046177108705561
0.044446256697764
0.04283667834069
0.041333286178724
0.039922198115857
0.038590030947881
0.03732289661348
0.036104658447797
0.034913402246547
0.033713274665893
0.03243538069513
0.47194211774296
0.22906464453422
0.16786917636134
0.15359005475306
0.15258968582491
0.15567557301255
0.13914806412198
0.12105202689219
0.10699327811225
0.095863142056365
0.086851898507504
0.079411692165235
0.073166473327733
0.067850868148891
0.063272478956728
0.05928844265589
0.055790458647862
0.052694922537659
0.049936250729832
0.047462225042574
0.045230665747821
0.043207055694001
0.041362829892763
0.039674126298498
0.038120825833591
0.036685795512052
0.035354275918433
0.034113352177747
0.032951460709631
0.031857888356044
0.03082216493999
0.02983316378091
0.028877518891398
0.027936443857647
0.026978181714554
0.02593850663679
0.277239379362
0.19551240330572
0.16856789925256
0.1580620798963
0.12646495860919
0.1054358176791
0.090189835647811
0.078700421865612
0.069771519947501
0.062662784709757
0.056886246249185
0.052108480289568
0.048096017409305
0.044681547060489
0.041742504219383
0.03918727335983
0.036946102517864
0.034964983214722
0.033201326367447
0.031620791928943
0.03019524412753
0.028901525746198
0.027720611656896
0.026636862212309
0.025637277218826
0.024710978340814
0.023848772496183
0.023042649909271
0.022285522908207
0.021570819971264
0.020892074618569
0.020242347422574
0.019613125125291
0.018992455123689
0.018360523972422
0.017673262716524
0.1593587650401
0.16093140969834
0.10101479494335
0.073544799970051
0.057858719294075
0.047730016280566
0.040670947052904
0.03548146168485
0.031513738267854
0.028387585487822
0.02586529440233
0.023790462248716
0.022055985030918
0.020586155979489
0.019326091412679
0.018235100047124
0.017282346773833
0.016443722257243
0.015697727004844
0.015025828391234
0.014414120172576
0.013852682180513
0.0133343198504
0.012853689849377
0.012406647591688
0.011989802611924
0.011600014255429
0.011234823967562
0.010891963476408
0.010569175092706
0.010263919605808
0.0099725232199598
0.0096890010484221
0.0094056150394776
0.009112703557592
0.0087882194112636
0.095997186572942
0.031378051857589
0.019082355774575
0.013840098362998
0.010951604449759
0.0091385006676851
0.0079053029604258
0.0070193191161525
0.0063568208671834
0.0058465557109076
0.0054448939642179
0.005124165992775
0.0048660522385196
0.0046582185785659
0.0044922733231959
0.0043623438483289
0.00426334211449
0.0041872222329036
0.0041193116748161
0.0040515929281225
0.0039829232083321
0.0039155185143585
0.0038519007691066
0.0037938172122098
0.0037422320738684
0.0036975880944603
0.0036599550784817
0.0036291279059539
0.0036052191782446
0.0035877408061598
0.0035756189022057
0.0035676441700719
0.0035620313199063
0.003555518264907
0.0035398357890958
0.0034907701952371
0.00024156106900183
0.00036050006198786
0.00046381707179244
0.00054444136299248
0.00060208122336414
0.00064010037422239
0.00066296287717897
0.0006748502311995
0.00067909498834793
0.00067845355235243
0.00067452729869921
0.00066857618166502
0.00066146679232795
0.0006537840654342
0.00064592014005548
0.00063815418681755
0.00063066696326494
0.00062357862036173
0.00061701344695672
0.00061111921284314
0.00060575609255648
0.00060083291841264
0.00059629829382086
0.00059211617443846
0.00058825089091386
0.00058466166681717
0.00058129919888823
0.00057810207033285
0.00057498979022466
0.00057185168435383
0.00056852808505023
0.00056476542204374
0.00056013012969162
0.00055372087506314
0.00054293324621709
0.00051611866654149
0.028942377003242
0.015663542738838
0.0084488073092744
0.0052140142028066
0.0034880717257051
0.002356433478135
0.0015955663613286
0.0010665046448486
0.00072076321479985
0.000526000067911
0.0004298395142688
0.00042576711827328
0.0003895164219398
0.00035102486272012
0.00030481345204488
0.00025693964847095
0.00021538897833242
0.00017966499411863
0.00015022558746751
0.0001269762339442
0.00010783702209988
9.195915672429e-05
7.736985079818e-05
6.2637438071405e-05
5.1205626328139e-05
4.2275866454258e-05
3.5430999537477e-05
2.9701647882582e-05
2.5229645166154e-05
2.1599926938573e-05
1.8529146492273e-05
1.6135768063303e-05
1.3996890620914e-05
1.2337542704646e-05
1.0816765796498e-05
9.6281946303093e-06
8.522550583876e-06
7.6494834740957e-06
6.8293348249829e-06
6.1740250490377e-06
5.5577591406881e-06
5.0527637761657e-06
4.5877649171023e-06
4.1863545808191e-06
3.8328691562947e-06
3.506629843475e-06
3.2307010265083e-06
2.9684653779348e-06
2.746856876243e-06
2.5403791303912e-06
2.3547567742822e-06
2.1872753437244e-06
2.0352615281872e-06
1.897236473235e-06
1.7713727943012e-06
1.6564194719803e-06
1.5511344844556e-06
1.4545789045067e-06
1.3658622180948e-06
1.2842096822613e-06
1.2088931836547e-06
1.1392848501729e-06
1.0748549250739e-06
1.0151451608128e-06
9.5974115237394e-07
9.0822818724354e-07
8.5885930337396e-07
1.1204005650644e-05
0.0004050843316324
0.0007568904890344
0.00067485671427235
0.00053518468468282
0.00032950679043898
9.3243492496149e-05
6.3511431172632e-05
5.3638328441838e-05
4.7851187470753e-05
4.477086899312e-05
4.3570028412186e-05
4.3766024901812e-05
4.4940116303577e-05
4.6613299254602e-05
4.8513744971027e-05
5.0504919897305e-05
5.3391115053544e-05
5.4567580693193e-05
5.5438853296555e-05
5.6158709990481e-05
5.6681693891691e-05
5.7111869903694e-05
5.7541056493941e-05
5.8095170532515e-05
5.8852875664664e-05
5.9843763559768e-05
6.1120153688297e-05
6.2596732124385e-05
6.416730662028e-05
6.5741660193524e-05
6.7211264573022e-05
6.847971766817e-05
6.9423824752349e-05
6.9993921433775e-05
7.0118999025121e-05
6.9907228266464e-05
6.9120378550044e-05
6.8147903379498e-05
6.7018883389732e-05
6.5609833961702e-05
6.4051224113795e-05
6.2243019547385e-05
6.0679344167592e-05
5.8883414688737e-05
5.7145224151912e-05
5.5808480599729e-05
5.4699397685013e-05
5.3654963340093e-05
5.2251230126246e-05
5.0914145535417e-05
4.97159842923e-05
4.8496468105941e-05
4.7307954638842e-05
4.5894648901279e-05
4.4595511508625e-05
4.3132415723356e-05
4.1840840227719e-05
4.0498594150356e-05
3.9353216283394e-05
3.8197160210552e-05
3.718466134725e-05
3.6282176801287e-05
3.5614489515739e-05
3.4821094966887e-05
3.4458665001378e-05
3.4560923631409e-05
3.4760141981974e-05
3.4957189076803e-05
3.504902611771e-05
3.6103360441568e-05
3.7455650757386e-05
3.2294959147967e-05
0.022226880336297
0.012093266702365
0.00712229911564
0.0046498345208214
0.0031160062774588
0.0021090154102141
0.0014159913773071
0.00094410317540715
0.00062975379141809
0.0004281756224607
0.00030259350818252
0.0002315113024
0.00019002490885735
0.00016005422959837
0.00013890316361331
0.00012301071677243
0.00011039159455128
0.0001002344836653
9.1018765036476e-05
8.2649076584358e-05
7.5156295925469e-05
6.8499958474054e-05
6.2490510732069e-05
5.7133557462524e-05
4.780483814119e-05
3.9600397149819e-05
3.3116521875976e-05
2.7947686606969e-05
2.3762872115347e-05
2.0368036713524e-05
1.7572415637055e-05
1.5263413714087e-05
1.3334544040092e-05
1.1712895227947e-05
1.0342256091613e-05
9.1740833219637e-06
8.1747001094609e-06
7.313778326113e-06
6.5697136787443e-06
5.9231489236398e-06
5.3581119453429e-06
4.863694143917e-06
4.4269936751767e-06
4.0427018531018e-06
3.7003015425133e-06
3.3970761126157e-06
3.1250215269689e-06
2.8822744559259e-06
2.6636467605463e-06
2.466979972813e-06
2.289152736635e-06
2.1279212337715e-06
1.9816378274568e-06
1.8484282379452e-06
1.7269750602503e-06
1.6158929902782e-06
1.5141363640874e-06
1.4207374974685e-06
1.3348546518507e-06
1.2557190533869e-06
1.1826650006699e-06
1.1151191191085e-06
1.0525596065925e-06
9.9452207204699e-07
9.4060121467581e-07
8.904823338317e-07
8.4754373014369e-07
3.3401397647311e-05
0.00058740116997497
0.00074317401544224
0.000642330404518
0.00048999129029859
0.00026735732000466
7.3614327845592e-05
6.2124631522679e-05
5.4175197370539e-05
4.9774687480844e-05
4.7615970400725e-05
4.7011676812248e-05
4.7582524044418e-05
4.8881953636992e-05
5.0462038762343e-05
5.2122361255142e-05
5.383134137595e-05
5.40596920094e-05
5.5134505062037e-05
5.5786656813657e-05
5.6270054243803e-05
5.6582770466022e-05
5.6821532726079e-05
5.7068604656801e-05
5.7437417407844e-05
5.8039511536754e-05
5.8872084146977e-05
5.9979624012902e-05
6.1296680578783e-05
6.2706555149106e-05
6.4115085135002e-05
6.5407466874287e-05
6.6491482660825e-05
6.7261534617979e-05
6.7684674775421e-05
6.7681762155708e-05
6.7388400288026e-05
6.6550666388728e-05
6.5597948138151e-05
6.4419950945401e-05
6.316920118852e-05
6.152628757316e-05
5.9927106574508e-05
5.840652234851e-05
5.6746920718739e-05
5.5230892800167e-05
5.4088951323911e-05
5.3127377451502e-05
5.2052832665229e-05
5.0738740936171e-05
4.9562543631729e-05
4.8451425665673e-05
4.7303125287816e-05
4.6152839209566e-05
4.4808614683944e-05
4.3582767061908e-05
4.2210645567746e-05
4.0979184129115e-05
3.9714929109846e-05
3.8610738796365e-05
3.7512046753257e-05
3.649471502612e-05
3.5647786122742e-05
3.4928258368778e-05
3.4186917475931e-05
3.3869899965476e-05
3.3889694499227e-05
3.4018302123596e-05
3.4161848265356e-05
3.420388411234e-05
3.5185064317992e-05
3.7448233762758e-05
3.2778915497091e-05
0.016242427936053
0.0080983565361623
0.0048766052336933
0.0032694527546382
0.0021880998684134
0.0014929844375688
0.0010207307681343
0.00070727253171556
0.0004996529170765
0.00036079771859339
0.00027822017344873
0.00021984558492149
0.00018010164975738
0.00015194336146206
0.00013021496586917
0.00011277674808053
9.8875056659543e-05
8.729664586605e-05
7.6974693639303e-05
6.814384490085e-05
6.0889173216583e-05
5.4736281725453e-05
4.9497688692117e-05
4.5137705045391e-05
4.1469010473572e-05
3.8243294788784e-05
3.2382825031112e-05
2.7325946582452e-05
2.3247838008807e-05
1.9921524399308e-05
1.7196122991e-05
1.4935332305976e-05
1.3054576012395e-05
1.1470983024353e-05
1.0134756876569e-05
8.9952119697642e-06
8.0207487489222e-06
7.1796895381208e-06
6.4537488175459e-06
5.8209351834152e-06
5.2697979850598e-06
4.7847216806224e-06
4.3586663212732e-06
3.9810709966934e-06
3.6466030866084e-06
3.3484474824087e-06
3.0820091561272e-06
2.8436111344118e-06
2.6289185120319e-06
2.4358823019205e-06
2.2610369764258e-06
2.102835330353e-06
1.958899017259e-06
1.8278165439352e-06
1.7081990682197e-06
1.5987929309481e-06
1.4985667871716e-06
1.4065399214884e-06
1.3218857263781e-06
1.2438497630796e-06
1.1717916927336e-06
1.1051487131555e-06
1.0434069504407e-06
9.8610821790823e-07
9.3285556564119e-07
8.8335153580291e-07
8.407869627459e-07
3.2926834157858e-05
0.00058490138268862
0.00074269751386788
0.00064235162672879
0.0004909223635181
0.0002700547853077
7.627905118013e-05
6.6623717592087e-05
6.0063513906099e-05
5.6758412931459e-05
5.5384798539441e-05
5.5318292041744e-05
5.6203087135384e-05
5.7597680445458e-05
5.9009881880858e-05
6.0190156271232e-05
6.1288539645678e-05
5.9895031008927e-05
6.0356825625751e-05
6.0245906988904e-05
5.9890462602193e-05
5.9423347876137e-05
5.900959450195e-05
5.8768503244996e-05
5.8779040565566e-05
5.9075929973472e-05
5.9689107730179e-05
6.0533567597244e-05
6.1623393765867e-05
6.2842144383822e-05
6.4069387682534e-05
6.5163912157082e-05
6.602973345284e-05
6.6587994568471e-05
6.6799235122603e-05
6.6608008533101e-05
6.6195607588349e-05
6.521171626695e-05
6.4185166652308e-05
6.2992818841076e-05
6.156314126422e-05
5.9959994850574e-05
5.8402580104571e-05
5.677678903709e-05
5.5109764054852e-05
5.3641080641896e-05
5.2521660852352e-05
5.1493186837827e-05
5.0381361031446e-05
4.9119584423012e-05
4.8020031133937e-05
4.6916532052948e-05
4.5792878328253e-05
4.4650346784848e-05
4.3360463570988e-05
4.219436292329e-05
4.087144329438e-05
3.9697491927439e-05
3.8477094909911e-05
3.7408996770711e-05
3.635240812336e-05
3.5357122211328e-05
3.4537245000162e-05
3.3812662422241e-05
3.3057484512332e-05
3.2918210305927e-05
3.2815416339961e-05
3.289677413374e-05
3.3031855006593e-05
3.305475097866e-05
3.3597767825422e-05
3.5300578094659e-05
3.371827264108e-05
0.0083908515758636
0.0045162500608866
0.0027635630038283
0.001804070053777
0.0012409972283738
0.00089319650583065
0.00066517603941545
0.00051172771040073
0.00040211566002471
0.00032735322426342
0.00026733913363374
0.00021880873827835
0.0001807923632069
0.00015108714331331
0.00012791480826644
0.0001101470656621
9.5663524360489e-05
8.3744159278043e-05
7.3515133541274e-05
6.4557056074743e-05
5.6674208686708e-05
5.0219669962052e-05
4.4912062692968e-05
4.0405566602257e-05
3.6598541985006e-05
3.3493261674707e-05
3.0818091693337e-05
2.6718532969445e-05
2.2743477946194e-05
1.9500557017876e-05
1.683503424596e-05
1.4626319330434e-05
1.2782782700283e-05
1.1234678483725e-05
9.92387777075e-06
8.8090758428948e-06
7.8535050626108e-06
7.0317349354706e-06
6.3208508172827e-06
5.7032341734545e-06
5.1638553874546e-06
4.690822468143e-06
4.2746251896421e-06
3.9064564524751e-06
3.5801359173711e-06
3.2888203774607e-06
3.0289200061237e-06
2.7955466613549e-06
2.5859116067156e-06
2.3968089064382e-06
2.2258036294753e-06
2.0709026218508e-06
1.9299613668124e-06
1.8015548485303e-06
1.6842093277972e-06
1.5768898338999e-06
1.4785312366836e-06
1.3881986461081e-06
1.3050778573324e-06
1.2284336527825e-06
1.1576327638654e-06
1.0921217120085e-06
1.031407534811e-06
9.7504427632279e-07
9.2264911828415e-07
8.7392580463154e-07
8.3181033015523e-07
3.2223975064932e-05
0.0005800411650493
0.00074177497411382
0.0006423764517781
0.00049228150314786
0.00027402112589594
8.1373827319947e-05
7.5160991899605e-05
7.1363105103691e-05
7.0198780010084e-05
7.0397963755876e-05
7.1436084183087e-05
7.3076448870306e-05
7.4867491857109e-05
7.6246190863454e-05
7.6878969896046e-05
7.69665014712e-05
7.2308547644518e-05
7.147588937262e-05
6.9823027774785e-05
6.7861721696387e-05
6.5891408936448e-05
6.413331070498e-05
6.2730302346247e-05
6.1797101885923e-05
6.1396131918209e-05
6.1515132202135e-05
6.2109669724683e-05
6.2949603133318e-05
6.3963136078795e-05
6.4986615424464e-05
6.5856625209181e-05
6.6433596549031e-05
6.6670275363556e-05
6.6521274825088e-05
6.6080640874682e-05
6.5395606900028e-05
6.4118519052858e-05
6.2920622132336e-05
6.1575228342892e-05
6.0007029750091e-05
5.832404930208e-05
5.6700597701043e-05
5.4962418711261e-05
5.3319626323404e-05
5.1865952040236e-05
5.06627521168e-05
4.953365845934e-05
4.8420060792638e-05
4.7224947652657e-05
4.6156277166548e-05
4.5051997175737e-05
4.3952084610601e-05
4.2854419767043e-05
4.1621879591849e-05
4.0513114474651e-05
3.9251687839642e-05
3.8126083271512e-05
3.6977210316743e-05
3.5926094809839e-05
3.4919628721922e-05
3.3970763426315e-05
3.3147276061257e-05
3.2453746531604e-05
3.169653498199e-05
3.1608613718412e-05
3.1476381396752e-05
3.1441926352299e-05
3.158536792893e-05
3.1665982801836e-05
3.1958104729911e-05
3.2925533645738e-05
3.1499147418086e-05
0.0032657130366673
0.0022989828368156
0.0016140321938622
0.0012233340086647
0.00093951644290426
0.00073201540387495
0.00058228718470309
0.00047785495668205
0.00039764207702858
0.00032329941503236
0.00026944686723759
0.00022406084902566
0.0001866364263524
0.0001562744646514
0.00013122268908465
0.00011103385793121
9.5434723671293e-05
8.2571264437634e-05
7.1660863193965e-05
6.2589284125515e-05
5.5089104010965e-05
4.8563014001368e-05
4.3061793410234e-05
3.8531014616057e-05
3.4720410182004e-05
3.1437800960197e-05
2.8701240070074e-05
2.6074690538816e-05
2.2227168344568e-05
1.9079834445905e-05
1.6483365524227e-05
1.4330257721933e-05
1.2528676423349e-05
1.101415622594e-05
9.7314842883553e-06
8.6397413152511e-06
7.7032704998849e-06
6.8978685928501e-06
6.2006954731128e-06
5.5952797994957e-06
5.0659914990871e-06
4.6022951116849e-06
4.1935489152723e-06
3.8324947209471e-06
3.5119493574181e-06
3.2265940893025e-06
2.971792224034e-06
2.7432583951586e-06
2.5380548181856e-06
2.3529787693475e-06
2.1858906925557e-06
2.0343879570994e-06
1.8967682233092e-06
1.7712986600446e-06
1.6565666973193e-06
1.5515468270099e-06
1.4552481542699e-06
1.3668075800096e-06
1.28541347919e-06
1.2103421193169e-06
1.140961358677e-06
1.0767372713603e-06
1.0172015732766e-06
9.6191391405198e-07
9.1050143500546e-07
8.6267032193521e-07
8.2106694072032e-07
3.1318794122359e-05
0.00057333631836201
0.00074047130297043
0.00064237980380265
0.00049401937975612
0.00027913877214243
8.9549567958356e-05
8.8729637816249e-05
8.8883458451824e-05
9.0496354360546e-05
9.2589963577633e-05
9.4994103607007e-05
9.7749898380034e-05
0.00010042784358887
0.00010234885168945
0.0001030132624832
0.00010226203963772
9.3710250913329e-05
9.0660716722726e-05
8.6476134497295e-05
8.1870979503364e-05
7.7395337592766e-05
7.3455490292511e-05
7.0254924296345e-05
6.789168331854e-05
6.6348123539233e-05
6.5539882442103e-05
6.5349997847291e-05
6.5638888739267e-05
6.6165302191387e-05
6.6757908953682e-05
6.7302927834063e-05
6.7566479740898e-05
6.7463093275862e-05
6.7040857182351e-05
6.6225232665606e-05
6.513672486457e-05
6.3443080387394e-05
6.1984357348755e-05
6.0421256957606e-05
5.8714171549991e-05
5.6933686242475e-05
5.5187711501931e-05
5.3335010136137e-05
5.1719966117581e-05
5.0299139539223e-05
4.8895480143145e-05
4.7655487772059e-05
4.6532723270057e-05
4.5341516265264e-05
4.4272443297846e-05
4.3164349499024e-05
4.2083344199849e-05
4.1011562808794e-05
3.9836517239079e-05
3.8777533938316e-05
3.7589286762218e-05
3.6506578233867e-05
3.5421003660922e-05
3.4399723783087e-05
3.3415538659524e-05
3.2523831735197e-05
3.1701019207183e-05
3.1021617361026e-05
3.0257134151848e-05
3.0173126510423e-05
3.0037169390119e-05
2.9916011612719e-05
3.0030965633012e-05
3.0081658345698e-05
3.0258358027111e-05
3.1075694872279e-05
2.9658467725254e-05
0.0011030783061158
0.00096569910107496
0.0010011476084167
0.0010485959748504
0.0010957676553032
0.0009428645324924
0.0007228423936456
0.000552334670037
0.00043059112970305
0.00034707742566722
0.00028343292837597
0.00023381154108592
0.00019440897858618
0.00016227115847129
0.00013607765502719
0.00011473543700406
9.7212938148885e-05
8.2883609209665e-05
7.1248593094292e-05
6.1724614526444e-05
5.3900797742899e-05
4.7520475876376e-05
4.2131596275148e-05
3.7560890495554e-05
3.376511634572e-05
3.0528750995518e-05
2.7719245964122e-05
2.5311713540383e-05
2.1678303053109e-05
1.8639359996287e-05
1.6127310822972e-05
1.4032826037909e-05
1.2280040029097e-05
1.0802575240762e-05
9.5497966883305e-06
8.4808413167191e-06
7.564969915914e-06
6.7753240318331e-06
6.0915771286885e-06
5.4970353164825e-06
4.9776452253326e-06
4.5219131715711e-06
4.1203240209388e-06
3.7655814536393e-06
3.4505935355978e-06
3.1702548716036e-06
2.9196348154275e-06
2.6952680930392e-06
2.4936203303542e-06
2.3118417893632e-06
2.1476156643184e-06
1.9987460413906e-06
1.8635841745358e-06
1.7403879966056e-06
1.62786958854e-06
1.5248678671647e-06
1.4304494679095e-06
1.3437777443287e-06
1.264048731845e-06
1.1905349843211e-06
1.1226219591454e-06
1.0597738005407e-06
1.0014999124841e-06
9.4734962669071e-07
8.9697823013441e-07
8.5010007628496e-07
8.0905956491537e-07
3.0197799729988e-05
0.00056499728179308
0.00073886776317986
0.00064237149989638
0.00049610254045657
0.00028530936842349
0.00010104110748319
0.00010720767865305
0.000111583799901
0.00011557299620104
0.0001190930837164
0.0001226034454179
0.00012646850431625
0.00013028364254258
0.00013325661208515
0.00013470951808337
0.00013420974086067
0.00012381560668856
0.00011898420094465
0.00011203521932062
0.00010371983288089
9.5079797577209e-05
8.7305849817048e-05
8.1071480764328e-05
7.6428948407286e-05
7.3214189596331e-05
7.1221592577877e-05
7.016559766256e-05
6.9738023350411e-05
6.9622965607847e-05
6.9691431799715e-05
6.9635779701721e-05
6.9311723696607e-05
6.8697246622555e-05
6.7725164518923e-05
6.6413444826444e-05
6.4837719501512e-05
6.2668697006595e-05
6.0898640576623e-05
5.908554470667e-05
5.724515467606e-05
5.5404255905705e-05
5.3585872619487e-05
5.1616269406928e-05
5.0075518529619e-05
4.8653296900988e-05
4.7155912687984e-05
4.5833172441387e-05
4.4647648309076e-05
4.3410656365129e-05
4.2327807388969e-05
4.1230546217006e-05
4.0178252547666e-05
3.9137174224828e-05
3.801731744171e-05
3.6997647918678e-05
3.5878218221939e-05
3.4848750100246e-05
3.3803264617892e-05
3.2820943179552e-05
3.1859760576435e-05
3.1002518907706e-05
3.0206557849694e-05
2.954043658314e-05
2.8766431801624e-05
2.8672058629469e-05
2.8519898647632e-05
2.832336755731e-05
2.8381765619213e-05
2.8367981498675e-05
2.8528387174569e-05
2.9065343475772e-05
2.7629550277743e-05
1.4842713981553e-05
0.00019851045352743
0.00028411388031416
0.00038272370703129
0.00047083996376862
0.00054848718163328
0.00062149996731915
0.00067258787863202
0.00051823015660218
0.00040329932965446
0.00032109234205141
0.00026101104736005
0.00021444921663668
0.00017746990912463
0.00014771483795982
0.00012355575051271
0.00010368367358339
8.7548268294806e-05
7.4521312945828e-05
6.3926569346954e-05
5.5361758730426e-05
4.8397444720575e-05
4.2711629227556e-05
3.8037148628549e-05
3.3968815423637e-05
3.0653388233995e-05
2.7821884892315e-05
2.5373258125223e-05
2.1927636307038e-05
1.8854246607816e-05
1.631621551009e-05
1.4201925284081e-05
1.2426493431723e-05
1.0927478822068e-05
9.6574157454448e-06
8.5738341107978e-06
7.643788439674e-06
6.8420886694284e-06
6.1485654308135e-06
5.5451024492085e-06
5.0177074839329e-06
4.5551992677026e-06
4.1481449976106e-06
3.7884508165862e-06
3.4692620610906e-06
3.1853152169124e-06
2.931741177777e-06
2.7047799215668e-06
2.5008243655159e-06
2.3172321952488e-06
2.1514630185191e-06
2.0013663696947e-06
1.8651285109763e-06
1.7410605387665e-06
1.6279085512073e-06
1.5244137661424e-06
1.429587411594e-06
1.3425392649288e-06
1.2624944593549e-06
1.1887696139494e-06
1.1207093803351e-06
1.0577518554045e-06
9.9941060847998e-07
9.4527676877655e-07
8.9496706856614e-07
8.481242416817e-07
8.0356520780273e-07
9.4369420702133e-06
0.00037375659157863
0.00074428215163171
0.00067092366925537
0.00053967285097318
0.00034981936153414
0.00013439787033664
0.00012629309062635
0.00013541297874032
0.00014132319204115
0.00014577913321186
0.00014994898216058
0.00015456514976262
0.00015955508977384
0.00016405345401236
0.00016715273541827
0.00016827355805743
0.00015814521457452
0.00015280367918174
0.00014429118701727
0.00013312277314186
0.00012033024421341
0.00010748290218355
9.6210119727284e-05
8.7523694730219e-05
8.1467406465089e-05
7.7527230952834e-05
7.5141605099932e-05
7.3809056852979e-05
7.305336347155e-05
7.2558638171022e-05
7.1990052438189e-05
7.1142454431015e-05
6.9864043415144e-05
6.820741323941e-05
6.635444241677e-05
6.4104224251587e-05
6.0755658569726e-05
5.8593334463027e-05
5.639251613247e-05
5.4390729955515e-05
5.2493749406134e-05
5.0599784906944e-05
4.8529970452403e-05
4.6972766566848e-05
4.5529706950716e-05
4.4032065045457e-05
4.271192147752e-05
4.1494360389852e-05
4.0217568328639e-05
3.912103260135e-05
3.8052656943444e-05
3.7063285618663e-05
3.6137475948718e-05
3.511689386594e-05
3.4126438975348e-05
3.3058364783017e-05
3.2087716668556e-05
3.1112816875819e-05
3.0179567315902e-05
2.9262323186974e-05
2.8428444702256e-05
2.7683091592748e-05
2.7050331485025e-05
2.6333069497159e-05
2.614259790215e-05
2.5942701576581e-05
2.5700761807697e-05
2.5723010520899e-05
2.5685385423847e-05
2.5771573326856e-05
2.5848620261843e-05
2.4107665091373e-05
3.3083887851557e-06
2.2935394777713e-05
4.8952981801396e-05
7.9235720511745e-05
0.0001152242495859
0.00015756798428334
0.00020105786203763
0.00024564365987432
0.00028707534096154
0.0003147538836147
0.00032215374676604
0.00026944503054252
0.00021791404979532
0.00017791560825249
0.00014688412345039
0.00012234033483937
0.00010221089176037
8.5948122636454e-05
7.2834582268125e-05
6.2252917072424e-05
5.3663068144292e-05
4.6663909005956e-05
4.0920397596465e-05
3.6196220355227e-05
3.2329713093978e-05
2.9148865999932e-05
2.6305992135934e-05
2.3158457027266e-05
1.9905319416101e-05
1.7211258081859e-05
1.4968718235448e-05
1.3085884314429e-05
1.1499100927559e-05
1.015377228099e-05
9.0054409972093e-06
8.0184569075067e-06
7.1681123228434e-06
6.4325670029934e-06
5.7932775941623e-06
5.2345808010892e-06
4.7446183992473e-06
4.3138625966871e-06
3.9336201236195e-06
3.5965967164108e-06
3.2968209145879e-06
3.0295598294473e-06
2.7905437225801e-06
2.5760834437395e-06
2.3831384325761e-06
2.2091968084704e-06
2.0519784611166e-06
1.9095199993477e-06
1.7800534737635e-06
1.6621584477555e-06
1.5545475823519e-06
1.4561346699076e-06
1.3659440730588e-06
1.2831087852042e-06
1.2069056279795e-06
1.1366812040349e-06
1.071852827188e-06
1.0118954317333e-06
9.5634745167369e-07
9.0479223777827e-07
8.5687963678989e-07
8.1229401710848e-07
7.7249141782766e-07
2.5520748911966e-05
0.00053237100361242
0.00073271358085895
0.00064249675010434
0.0005041677622706
0.00030923119475342
0.00014921217851397
0.00017654723140874
0.00018875560181414
0.00019473774032812
0.00019900116222321
0.0002036221847325
0.00020952190455758
0.00021631511980433
0.00022298502104722
0.00022839030338963
0.00023160840426712
0.00022448856451521
0.0002203089440946
0.00021161572981085
0.00019846316661949
0.00018138581988718
0.00016153701548352
0.00014082889019718
0.00012154583710826
0.00010562289084698
9.3854502921278e-05
8.5839458368616e-05
8.0762645974494e-05
7.7577955328929e-05
7.5392468420122e-05
7.3522907295833e-05
7.1553730178535e-05
6.9471749308863e-05
6.7026548529385e-05
6.406868333645e-05
6.0677286316416e-05
5.5555301005521e-05
5.3025242089125e-05
5.0746564108042e-05
4.8763486307586e-05
4.6994343975786e-05
4.5324381382836e-05
4.3497260273944e-05
4.1853877633301e-05
4.0468768820494e-05
3.9249119623808e-05
3.8014064357762e-05
3.6807418059936e-05
3.5579894175085e-05
3.4527814385795e-05
3.3481759756424e-05
3.2472820134759e-05
3.1599581616954e-05
3.0660944591688e-05
2.9783567604795e-05
2.8881079155524e-05
2.8046200927509e-05
2.7223013442874e-05
2.6396343180093e-05
2.5647133188542e-05
2.4913319641016e-05
2.4303792156383e-05
2.3798246224082e-05
2.3277946803042e-05
2.3072267962553e-05
2.2907747588199e-05
2.2710264413641e-05
2.2749987512466e-05
2.2759186822517e-05
2.2850989291674e-05
2.2673338793756e-05
2.0905941999934e-05
3.0259026517105e-06
7.6849470474775e-06
1.4885624730122e-05
2.4925750206792e-05
3.823082411579e-05
5.4814773482472e-05
7.49507440567e-05
9.7745681326189e-05
0.00012264925756222
0.0001482160611363
0.00016938088506513
0.00018059477998718
0.00018049223087145
0.00016865157169526
0.00014714242046291
0.00012187714264819
0.00010220251193929
8.6193510249378e-05
7.3176613608476e-05
6.2495594552494e-05
5.3837664567801e-05
4.674056735392e-05
4.0911529366536e-05
3.6101875613072e-05
3.2111380681499e-05
2.8779496913801e-05
2.5024016952829e-05
2.157002807065e-05
1.8676134487527e-05
1.623866316797e-05
1.4180639754084e-05
1.2441848508004e-05
1.0964762263658e-05
9.706795602651e-06
8.6265526185141e-06
7.6972298664239e-06
6.8956920927741e-06
6.2006232977496e-06
5.5942651298041e-06
5.0624835323957e-06
4.5954667776526e-06
4.1833770604642e-06
3.8186168063118e-06
3.4943297465997e-06
3.2056338551631e-06
2.9476605003991e-06
2.7165468481674e-06
2.5088296224652e-06
2.3217007517667e-06
2.1528619169936e-06
2.0000639094646e-06
1.8614316889935e-06
1.7353363538582e-06
1.6204641866744e-06
1.5155792297204e-06
1.4196056006033e-06
1.3316037402993e-06
1.2507610892783e-06
1.1763862726582e-06
1.1078284567339e-06
1.0445219498476e-06
9.8597447214385e-07
9.3173675384598e-07
8.8142279550469e-07
8.346742085734e-07
7.9117800317896e-07
7.5176714139548e-07
2.1699147924917e-05
0.00050566859678641
0.00072828318465572
0.00064305074454854
0.00051098262414892
0.00032874649676255
0.00018361533189487
0.00021912719517498
0.00023457462531062
0.0002392505265286
0.00024210871624157
0.00024612210444374
0.00025241336577089
0.00026059141890106
0.00026948601827299
0.0002776606149625
0.0002836803956867
0.0002801108489791
0.00027771997149881
0.00026982321313125
0.00025627769763832
0.00023738780133963
0.00021412805684826
0.00018811752594918
0.00016190337916144
0.00013769493856191
0.00011727586732946
0.00010136542604966
8.9824582270395e-05
8.1856912784276e-05
7.6384604572802e-05
7.2411371220285e-05
6.9327074864943e-05
6.609370249129e-05
6.2322162936881e-05
5.8289674920097e-05
5.410299167364e-05
4.8505956023573e-05
4.6246353052903e-05
4.4307869185965e-05
4.2495033884078e-05
4.0874755315773e-05
3.938763652167e-05
3.7718407024125e-05
3.5748394099191e-05
3.4304586026016e-05
3.338305972185e-05
3.223842423747e-05
3.1139151888169e-05
3.0129484458175e-05
2.9308258889452e-05
2.8514112209185e-05
2.7722561213808e-05
2.7092448134445e-05
2.641772304454e-05
2.5840485464377e-05
2.5235064119435e-05
2.4674646061058e-05
2.4094156671995e-05
2.3544819409881e-05
2.3034096345383e-05
2.2520217401505e-05
2.2129556907569e-05
2.181106930892e-05
2.1499617100961e-05
2.1411458700854e-05
2.1319157843355e-05
2.1375099925308e-05
2.1509234143023e-05
2.1726244894766e-05
2.1928081899277e-05
2.3469332223144e-05
3.0291708111816e-05
2.7071654160926e-06
4.8474744388015e-06
6.8213495703462e-06
1.0912695315603e-05
1.6659147337604e-05
2.4185487004312e-05
3.3700178298926e-05