/*--------------------------------*- C++ -*----------------------------------*\
| =========                 |                                                 |
| \\      /  F ield         | OpenFOAM: The Open Source CFD Toolbox           |
|  \\    /   O peration     | Version:  2312                                  |
|   \\  /    A nd           | Website:  www.openfoam.com                      |
|    \\/     M anipulation  |                                                 |
\*---------------------------------------------------------------------------*/
FoamFile
{
    version     2.0;
    format      ascii;
    arch        "LSB;label=32;scalar=64";
    class       volScalarField;
    location    "6e-05";
    object      cSound;
}
// * * * * * * * * * * * * * * * * * * * * * * * * * * * * * * * * * * * * * //

dimensions      [0 1 -1 0 0 0 0];

internalField   nonuniform List<scalar> 
109340
(
553.80532673232
552.81913692349
550.85043904755
548.43989662184
545.75612801871
542.94221252133
540.05149037981
537.09837047528
534.10040650698
530.97106057282
527.56536518991
523.75220579188
519.3858254447
514.30346387699
508.33057176403
501.28780429485
492.99717852653
483.29159819503
472.02468747916
459.08223956239
444.3922301733
427.93809504157
409.76752071057
389.99663219092
368.80638140324
346.43332291965
323.15263652364
299.2564111389
275.02873582706
250.72081432733
226.52783619634
202.56833757451
178.86897442697
155.37083094468
131.98599006296
108.72833683448
553.99074245365
552.69744697413
550.47632918586
547.89504636016
545.12852745265
542.30210396274
539.4484192983
536.54888259184
533.54362708838
530.3492371513
526.85029394388
522.91354103423
518.38758907507
513.10517487457
506.88882035779
499.55687766242
490.93351745994
480.85540131832
469.1823753293
455.80900043413
440.67570091454
423.78093836898
405.18926329426
385.03381551012
363.51112442497
340.8698010488
317.39227742652
293.37182325201
269.08731914568
244.7784109614
220.622379363
196.71174264144
173.03294467083
149.4669522581
125.79087976526
102.01648544728
554.59249934419
553.08230516523
550.62963286075
547.98586134849
545.24391785913
542.45916715456
539.62219843251
536.71679717089
533.70391623489
530.50313244722
527.00188550448
523.06598624185
518.54283219045
513.26437955635
507.05287337716
499.72732113398
491.11114143349
481.04073647165
469.37518541432
456.00837613782
440.87942222928
423.98585267088
405.39145793795
385.22890808183
363.69460348517
341.03742806535
317.54055295225
293.49847316006
269.19147495707
244.86023653663
220.6822496127
196.74602235311
173.01565357002
149.30535971618
125.22916376478
100.35409739486
555.42941493408
553.59248752349
551.01395961067
548.29465144745
545.49907054518
542.65521926761
539.77112182158
536.83510882154
533.80289700002
530.59246211022
527.0911855928
523.16346929571
518.65473442517
513.3951447581
507.20477388932
499.9002855873
491.30303342123
481.24727050085
469.58925358606
456.22099970466
441.07807509404
424.15626174291
405.51834832793
385.2968728016
363.69009472042
340.94958234478
317.36258025036
293.22849542812
268.83295073064
244.42136788656
220.17468210299
196.18212686046
172.38210331527
148.50777161255
123.91901817467
97.331227636523
556.74601772308
554.33539801216
551.36970220657
548.45981570814
545.58622425891
542.71388791574
539.82150465684
536.89199440749
533.87365204543
530.68082312974
527.20131495394
523.2978088489
518.81196226871
513.56880232148
507.38142087122
500.05781254623
491.4095921251
481.26065358989
469.44832934239
455.86166252959
440.42342326947
423.1269789453
404.03852965626
383.3004470068
361.13043466784
337.80495214343
313.64146687842
288.97180171506
264.1132637156
239.33942495547
214.8508656133
190.76535589669
167.00392600981
143.24431811632
118.5788275389
90.316760547052
559.19163800507
554.72952638077
551.45440473526
548.48193313936
545.60453579278
542.73823179102
539.85118524883
536.90585479174
533.82891726407
530.50246064087
526.77254092693
522.45069443674
517.32002678001
511.14243548365
503.66870714513
494.65232780952
483.86758834149
471.13741027416
456.36604142736
439.43090133986
420.36851378155
399.31803365982
376.52706816238
352.34104049952
327.17775835594
301.49008893933
275.72650863214
250.29327256697
225.52394080322
201.65805121013
178.81988053535
157.06910720803
136.22709633536
115.9325535967
95.25819910085
70.616196458131
86.577946555843
67.89976450285
54.068665753507
44.679991485162
38.484924533284
34.314880181413
31.515921127391
29.693599462735
28.610080742547
28.109238923758
28.032936542575
28.384831988207
28.994083379173
29.779822768596
30.688956195907
31.652339504666
32.629202200047
33.589991103304
34.515467340286
35.396035051731
36.226220492268
37.003398923328
37.728990151277
38.405464048783
39.035226446462
39.622110378436
40.171163070898
40.681418784943
41.160099589821
41.608560092698
42.028563037425
42.424942351506
42.79655956593
43.148872692654
43.480189775673
43.795360731361
44.092793468387
44.376547227739
44.64524506108
44.902229822623
45.146426095644
45.380370744336
45.603585604615
45.817537818279
46.022636272363
46.219144486922
46.408304475311
46.589705386836
46.76471158811
46.933051231406
47.095382733047
47.252038642779
47.403325606398
47.549542782162
47.690962121085
47.827839430727
47.960408324795
48.088889633217
48.213484067656
48.334377214755
48.451740298674
48.565737934273
48.676527439091
48.784260950011
48.889075799667
48.991110191705
49.090491609752
49.197340399816
50.011461096079
50.721367424186
51.409104016724
52.289217076332
53.389159409454
54.560037062642
54.743100829793
54.719487864873
54.698604706204
54.679712422735
54.663164276007
54.649560738669
54.639188326005
54.631276429742
54.625063165275
54.620006081308
54.614573543068
54.612310862252
54.610947649315
54.609778049581
54.608329089972
54.606486182647
54.60413370564
54.60148641936
54.598783179505
54.596202277568
54.593850966791
54.591741948482
54.589809531705
54.58803969148
54.586381726709
54.584763608496
54.583097185212
54.581387980444
54.579735907714
54.578257643302
54.576595727272
54.575297543329
54.574248830191
54.573224158466
54.572150748357
54.571334408828
54.57174339981
54.571788966509
54.572584270674
54.5752689222
54.579057959956
54.582705749556
54.585277828831
54.588117504758
54.591362917372
54.594576217227
54.597660707215
54.599930967683
54.602153614324
54.603796658618
54.605640199884
54.607418896695
54.609702538793
54.61201091526
54.614852367908
54.618246401422
54.622550658473
54.626291789447
54.632666613214
54.641322141736
54.650085563356
54.658886917393
54.667555619417
54.681014760603
54.843288520504
66.033143916707
79.242665881675
61.10132891931
48.734419562899
40.87172316764
35.792448703915
32.412665502619
30.231118059552
28.893629974577
28.190204083619
27.968640852071
28.122279060991
28.561681643564
29.249265998441
30.077759199207
30.991382282716
31.949707441073
32.912733215911
33.856167662535
34.763950155924
35.626148978786
36.438135009366
37.198900873632
37.9093183344
38.571639065507
39.18883047492
39.764387721741
40.30159064089
40.803732603353
41.273596144002
41.714243547237
42.127974415011
42.517286475601
42.884144248097
43.230475975452
43.557988331575
43.868193489945
44.162496003363
44.4421161058
44.708195029759
44.961734730249
45.203639936509
45.434774372359
45.655834237861
45.867584548723
46.070566957173
46.265437914519
46.452627247876
46.632682943973
46.805982367923
46.972966379239
47.133978355306
47.289367985409
47.439462970994
47.584545159342
47.724893744378
47.860750939619
47.992352071112
48.119909303683
48.24362081345
48.363668427417
48.480224267102
48.593454679918
48.703514724784
48.810546258957
48.914678647427
49.016044575776
49.114745781857
49.26682723046
50.224291358294
50.876665214695
51.604665071945
52.537218037184
53.685275629586
54.688149756302
54.729059094783
54.703299943972
54.680571410779
54.660372531255
54.643170688545
54.629496314304
54.619210430566
54.611519210987
54.605602209237
54.601103960674
54.602746433859
54.600662735207
54.599355850674
54.598206256214
54.59676372108
54.594888494666
54.592465367489
54.589697222575
54.586819003235
54.583996154023
54.581333233567
54.578861441381
54.576555816232
54.574415024763
54.572409677406
54.570477750232
54.568540200166
54.566586668783
54.564781418613
54.563170577846
54.561446162474
54.560247482493
54.559154349082
54.558469927562
54.557263524875
54.556975205766
54.557459556544
54.557913788835
54.559395687338
54.562260194248
54.566066756721
54.569525651304
54.572290030287
54.57547974368
54.578971045833
54.582303722982
54.58547745971
54.587871488049
54.59024629959
54.592037189382
54.594002465295
54.595867824748
54.598229666205
54.600587369999
54.603385970391
54.606763086126
54.610852232794
54.614508801534
54.621002968795
54.629260786234
54.637691041774
54.646211905526
54.654662931654
54.667774604263
54.829271371172
66.073511189203
75.394860231014
56.121607631278
44.635718383664
37.475406029716
33.290188519113
30.693534680349
29.100668406843
28.218379330201
27.852782888932
27.845988353295
28.186319037217
28.729985932858
29.444391007335
30.276165785527
31.178156778283
32.114177498903
33.05395587738
33.975877994842
34.864275639958
35.709540445887
36.507557674589
37.257032602924
37.958131397177
38.612850796996
39.224083862457
39.794635994051
40.327444726252
40.825899406863
41.292790661097
41.730706287887
42.142263264598
42.529578616586
42.894823120407
43.239702859736
43.566007598727
43.875129979143
44.168527019284
44.447328606715
44.712722037366
44.965627219472
45.207033159305
45.437676293425
45.658378621928
45.869754596279
46.072473836776
46.267062243987
46.454043140502
46.633898111163
46.807030278665
46.9738769834
47.134765696857
47.290067046395
47.440070197345
47.585079055653
47.725361051816
47.861163307282
47.992717534254
48.12023382983
48.243909800956
48.363927788254
48.480460483718
48.593673740078
48.703720427404
48.810740957861
48.914864043984
49.016223768696
49.114916918007
49.265431499979
50.22092999682
50.872831931256
51.598720544645
52.527729661208
53.669932001976
54.674219681235
54.716616556667
54.686360488146
54.659958581167
54.636988690358
54.617836859824
54.602964919713
54.592104008898
54.584416935515
54.579000089739
54.575336501871
54.580001147662
54.578635653896
54.577965122842
54.577281579211
54.57613613462
54.574325024189
54.57177260696
54.568666901762
54.565297609878
54.561888800684
54.558583181481
54.555453671028
54.552498747089
54.549732119462
54.547151938783
54.544697847239
54.542310181138
54.539979852123
54.537916718651
54.536133253528
54.534387868187
54.533268984446
54.53252554817
54.531632326386
54.530765394949
54.530830768832
54.531159781109
54.531696899072
54.533912914159
54.536920870471
54.540636993999
54.544106682331
54.546965009922
54.550530006901
54.554223174965
54.557605481089
54.560970126983
54.563351121588
54.566047630948
54.56772588543
54.569919596346
54.571772890698
54.574264094625
54.576615721812
54.579337762528
54.582686275647
54.586598683591
54.589275780532
54.597314100306
54.604503376876
54.612560423848
54.62086754947
54.628721305947
54.639120218053
54.778985684734
65.026977058571
68.308721682689
48.195063639044
38.434965901236
33.056284378351
30.188874337049
28.661234090423
27.86018285536
27.555132820597
27.584888261523
27.832923987785
28.361462622289
28.987762698783
29.722326301008
30.544345077625
31.420435712943
32.327433714625
33.238277200832
34.132114926046
34.995764971036
35.820648083853
36.601358705763
37.335735580303
38.024884513471
38.669926214893
39.272957087483
39.836762921108
40.364244016472
40.85799852902
41.320910815976
41.755505427441
42.16415805554
42.549019007417
42.912075422512
43.255126944894
43.579755517716
43.887475761246
44.179574490915
44.457275559624
44.721637858081
44.973669151004
45.214245867178
45.444184194992
45.664231392391
45.875035954014
46.077236370648
46.271350985232
46.457925455665
46.637387078151
46.810192960629
46.976721638703
47.137344440497
47.292400621551
47.442189979742
47.587007902942
47.727113602871
47.86276033819
47.994172790155
48.121561320902
48.245122155446
48.365037999001
48.481480439877
48.594614433339
48.704591321421
48.811549787413
48.915618591667
49.016929600308
49.11557238647
49.26395066556
50.2162270142
50.867625816699
51.59040583874
52.514478267862
53.648838375927
54.653074596815
54.698778367448
54.662585004135
54.631538930356
54.605160628658
54.583619242288
54.567209583585
54.555569074031
54.547869688005
54.543244085165
54.541136674143
54.549366448219
54.549828141967
54.550874558359
54.551679874804
54.551659064405
54.550545239075
54.548271571963
54.545076826512
54.541271659067
54.537163198343
54.532977895517
54.528891907231
54.524996916387
54.521339934492
54.517946330614
54.514771534573
54.511745309029
54.508908044722
54.506398081941
54.504276624386
54.502352796148
54.501238820647
54.500438855051
54.499422959686
54.498595328737
54.498648199649
54.498644659636
54.499573560801
54.502085003239
54.505181027871
54.50854659408
54.511943342868
54.514974679723
54.518644608014
54.522266730303
54.525613093626
54.52896919656
54.531393669596
54.534120833344
54.535809885369
54.537979242698
54.539822465737
54.542219630535
54.544533394383
54.547118067917
54.550361190752
54.554048338843
54.556276718672
54.564345143164
54.571256439785
54.578048344413
54.586234060542
54.593489962534
54.602866171969
54.73665398855
65.179790397317
53.523012339479
36.67866329092
30.656172755809
28.259013336663
27.288067774319
26.945511041192
26.975034107425
27.22297189312
27.605636900921
28.103524618227
28.686291874586
29.346777072891
30.082821680948
30.882561489036
31.72642569825
32.592907663543
33.464901515615
34.324867011662
35.158747849322
35.957755837578
36.717045189779
37.434312032093
38.108427083788
38.741108079117
39.33416055131
39.889753090822
40.410210180868
40.89824964066
41.356306799337
41.786813203847
42.191935893741
42.573809494399
42.934263708184
43.275064392486
43.597740237709
43.90374421357
44.194326026106
44.470691885454
44.733864257852
44.984832618656
45.224445590326
45.453532374807
45.67278739283
45.882895134794
46.08443980696
46.277977651672
46.464006699418
46.642978744163
46.815336125186
46.981451080459
47.141703066165
47.296410037929
47.445889882041
47.590422297128
47.730268271039
47.865674273125
47.996863585563
48.12404795958
48.24742188657
48.367167673199
48.483455391125
48.596449520794
48.706300434185
48.813143518168
48.917107896747
49.018323243325
49.116871320572
49.262498361022
50.210243232258
50.861119906307
51.579932892331
52.497939951722
53.62319201079
54.624773795098
54.676799496262
54.634660371149
54.599167767694
54.569574563097
54.545642704945
54.52745952036
54.514589155687
54.506270150234
54.501777765573
54.500681138158
54.512006859921
54.515166587365
54.51918194851
54.523028948369
54.525749060698
54.526770885241
54.525908262839
54.52345177697
54.519813834323
54.515325058029
54.510374346414
54.505246711659
54.500237413666
54.495501425739
54.491105884046
54.487042729023
54.483244040085
54.479817276245
54.476741493438
54.474084115387
54.47201207462
54.470724708976
54.469651373037
54.468356506966
54.467244797745
54.466768349699
54.466233245346
54.467125923019
54.469424769546
54.471830961243
54.474816939535
54.47812199726
54.480934843791
54.48429345403
54.487551242958
54.49059691904
54.493718489079
54.495943834613
54.498490456393
54.500004224928
54.501999853072
54.50366901478
54.505808799187
54.507874809214
54.510191770387
54.513178384137
54.516564634238
54.518085930447
54.525746120767
54.532149986429
54.537487853124
54.544951417056
54.551284386645
54.559556693352
54.689615918365
65.347445246042
26.705238525847
24.532422286781
24.763882952118
25.319730183155
25.85861376901
26.372014806744
26.871453580644
27.406920532965
27.948243440778
28.520917641079
29.136591164849
29.803979180603
30.520866193459
31.284209068333
32.084336918181
32.905824572271
33.733245890647
34.552235808425
35.350957196486
36.12035369754
36.854667979157
37.550908832806
38.208268422677
38.82659624712
39.407566771099
39.953192652348
40.465516708365
40.946590432069
41.398738711019
41.824312251792
42.225288842062
42.603533827263
42.960919739384
43.29905213248
43.619418212624
43.923373390006
44.212193186494
44.486982550648
44.748773522696
44.998507494746
45.237033548013
45.465123725571
45.683484546726
45.892781382851
46.093588723584
46.28645708412
46.471863786853
46.650280299574
46.822116020683
46.987759070102
47.147569026605
47.301870586784
47.450978812419
47.595165859211
47.734695271272
47.869803635428
48.00071730042
48.127645277796
48.250780453656
48.370305306576
48.486390305901
48.599198326514
48.708877981012
48.81556040181
48.919376441766
49.020455580185
49.118873883346
49.261198352624
50.203065871101
50.853393546741
51.567471737664
52.478521829062
53.593992405189
54.590095573258
54.652719725145
54.605991394013
54.566928930854
54.534607878802
54.508425855236
54.488327130528
54.473855767558
54.464319621123
54.459107172226
54.457833364948
54.469863681133
54.474711240475
54.481450550669
54.488951416901
54.495800839213
54.500816971102
54.503207958945
54.50289746273
54.500442968936
54.496389933388
54.491239660344
54.485373402696
54.479222249996
54.47323452498
54.467628353475
54.462489607883
54.45784462686
54.453667431532
54.449894735624
54.446645172441
54.444549051625
54.442772991278
54.441172711703
54.439290321363
54.43768494062
54.436579346794
54.435207657375
54.435779722806
54.437537860251
54.439189034283
54.441752796848
54.444729333979
54.447179712046
54.450135673416
54.452910265176
54.455520601661
54.45828380975
54.460242130726
54.462495176145
54.46375543023
54.465464142004
54.466833805236
54.468558211044
54.470231561034
54.472101442723
54.474702801757
54.477557932268
54.478302965536
54.485189154831
54.490524020635
54.494657777188
54.501172379904
54.506528375066
54.514060688931
54.640133980514
65.521978026234
26.018866246518
22.920126855763
24.121035366785
25.118867035655
25.945402581641
26.644900754372
27.247078425157
27.815027258181
28.37696521598
28.947175651558
29.545323059038
30.178617332365
30.848260696856
31.555469692752
32.296892417924
33.063010084625
33.840695074802
34.617928459086
35.382417965908
36.1249948073
36.839025680777
37.5203883681
38.16689637197
38.778162444777
39.354323026316
39.896567960988
40.407038864205
40.887419435228
41.339566353515
41.765472495052
42.16728753091
42.546713534312
42.905401647997
43.244935689803
43.566814661928
43.872323826008
44.162669099495
44.438975059598
44.70227853349
44.95348284776
45.193431654648
45.422895482861
45.642581646448
45.853137019315
46.055153019776
46.249179558168
46.435702211189
46.615183235815
46.78803240598
46.954649596378
47.115387967186
47.27057798708
47.420529102516
47.565522428694
47.705827957428
47.841680981908
47.973306935077
48.100914617965
48.224702427599
48.34485616659
48.461546843368
48.574933376814
48.685167657963
48.792396745214
48.896751661356
48.99834705312
49.097308932321
49.198934012096
49.973440397393
50.689022039061
51.359453396205
52.210846708611
53.269512807007
54.391884967804
54.638545282811
54.590986193977
54.547024570057
54.510636580291
54.480749311772
54.457096493954
54.439439297085
54.427063186205
54.41943755427
54.416169161706
54.427208613613
54.432286839876
54.440024214468
54.449629540857
54.459960098152
54.469544292479
54.476637222313
54.480155103202
54.480462478418
54.477969537873
54.473403938495
54.467383121852
54.460543426361
54.453433902438
54.446615104527
54.440371168644
54.434770040444
54.429749929753
54.425235817386
54.421503226829
54.405157195155
54.402721273714
54.400266730264
54.397449656233
54.395236274792
54.393583689703
54.391637195312
54.391634176429
54.393006309541
54.39450719074
54.39691826345
54.399721554787
54.401862596739
54.404458271105
54.40676647018
54.408802781215
54.41112601152
54.41261283975
54.41429320261
54.415078045481
54.416279517394
54.417168783903
54.418195609292
54.419283014467
54.42058736817
54.4226047401
54.42496632141
54.425572481891
54.431641929642
54.436679689508
54.440792333402
54.447136678543
54.452700678675
54.458179179111
54.576436668137
65.741128422071
34.325214834411
28.764010020846
28.470038833384
28.492710013247
28.665286523179
28.922792659901
29.258342540202
29.66474154768
30.081055220692
30.541198991111
31.043060953829
31.578410282859
32.147593580325
32.750315960491
33.384225962525
34.042847191341
34.717173392364
35.397221536709
36.073772457076
36.737563107243
37.381711489726
38.001789209589
38.594983547909
39.159848013195
39.69608708146
40.20407342744
40.684663999616
41.138842314312
41.568258160969
41.974380614542
42.358734133464
42.722695505719
43.067717100036
43.395151169995
43.706219240368
44.002037480105
44.283702067902
44.552212615968
44.808465365984
45.053285582339
45.287442476012
45.511641843219
45.726510147418
45.932644147681
46.1305984501
46.320886641342
46.503964229778
46.680250918817
46.850143619558
47.014011616048
47.172189698055
47.324987118019
47.472693488435
47.615585860545
47.753915881321
47.887917039941
48.01780186018
48.143769806154
48.266010304913
48.38470066526
48.50000791772
48.612086492246
48.72107994567
48.827119624556
48.930335320436
49.030847124665
49.128759425197
49.259002088657
50.174911398447
50.823685936232
51.519149696946
52.404606744227
53.488156229717
54.461601520191
54.583656690803
54.535216930201
54.489432026268
54.450959529295
54.418854912327
54.392840524852
54.372552404016
54.357547297886
54.347497164317
54.342127276445
54.349417330618
54.352724278215
54.359503737044
54.369349149654
54.381510005367
54.395179337098
54.409106312295
54.421396132757
54.429935118195
54.433449411789
54.433027281061
54.429345510921
54.423077858278
54.415198825936
54.406595693144
54.398321305818
54.39087051867
54.384296386681
54.378318350948
54.37322209272
54.355609168651
54.352239158068
54.348716239522
54.345283767891
54.343274801856
54.34251037179
54.34143918141
54.341491703923
54.342925525933
54.346250729492
54.349360004486
54.352416057365
54.354721000244
54.357382969907
54.359327309036
54.360889192314
54.362720212794
54.363611297148
54.364534598039
54.364770693166
54.365152526629
54.365201813031
54.365306041603
54.365478851748
54.366047718508
54.367310794111
54.369252495494
54.3707044008
54.37586910853
54.380954756181
54.386420356452
54.394319333498
54.402717572797
54.408607297729
54.514536350166
64.655680728496
37.778574398127
32.610544665291
31.931459495946
31.626913910634
31.479762257393
31.431852039726
31.490510546027
31.634951516414
31.862784374058
32.164291320997
32.505853096054
32.898904876764
33.342030242666
33.827916889381
34.346055253708
34.894004642479
35.464257617393
36.048546237817
36.638333903844
37.226090276922
37.804813177893
38.368553877386
38.913440063473
39.4369800879
39.937870408143
40.415718651941
40.870517416468
41.302837596769
41.713562470807
42.103570367116
42.473963972436
42.825956301553
43.160606356908
43.479007133356
43.782109207887
44.070950619757
44.346478670008
44.609532309524
44.860922577683
45.101394522608
45.331691855345
45.552438067054
45.764216774297
45.967560389461
46.163010389194
46.351034837012
46.532061865444
46.706485448534
46.874681227073
47.037008316404
47.193779669983
47.345286693373
47.491803560695
47.633596705086
47.770912156636
47.903975875631
48.032996902125
48.158168688462
48.279672231211
48.397675067039
48.512336989578
48.623811922174
48.732232632379
48.837738028771
48.940458339649
49.040503647715
49.137999640262
49.259675081514
50.151499078707
50.799278192049
51.478136176285
52.341085577892
53.398613062608
54.363659147161
54.544727869239
54.506264787457
54.459692998048
54.419136085382
54.38411202324
54.354332983402
54.329652445224
54.309962563917
54.295250013884
54.285471355979
54.287310299024
54.287239721135
54.291344229783
54.299207860342
54.310273386048
54.323975018248
54.339421854619
54.355281008814
54.3693296611
54.379214395743
54.383352946398
54.382748751917
54.379080662312
54.37261388976
54.364251556138
54.354998036064
54.346299012499
54.338437244276
54.331029159348
54.324772000844
54.306847186913
54.303397191804
54.300613527722
54.29859824095
54.299155117783
54.301619637465
54.303495720362
54.303831199683
54.305210610512
54.31129207027
54.315342353679
54.318759978059
54.321685220059
54.325547650424
54.329022708248
54.332889537002
54.337637326077
54.342032823325
54.347043327378
54.35211736673
54.357782094712
54.363809142463
54.370731636833
54.378471225092
54.387957926729
54.399568078071
54.41440233614
54.432461801462
54.456380618645
54.485066039744
54.52140190429
54.564183730414
54.61444899609
54.670771599689
54.687516295557
51.421072234376
40.306005350532
35.198871410861
34.405064921498
34.009276194655
33.75348032854
33.592453639226
33.504262217655
33.505513481534
33.587527994565
33.730503080391
33.953399383137
34.220944318272
34.536939105251
34.903769643606
35.316159265113
35.762824441996
36.237067185069
36.732292618024
37.240022586227
37.753048544699
38.265213484711
38.771238410268
39.266050136726
39.74640279122
40.210052269188
40.655700532857
41.0827872273
41.491206064876
41.881203802181
42.253296217632
42.608171244689
42.946605413921
43.269353775639
43.577281147933
43.871265982577
44.15208482106
44.420531959155
44.677278605035
44.923048498168
45.158545837558
45.384363787134
45.601091176948
45.809228320797
46.009303622699
46.201783612623
46.38710870981
46.565678236099
46.737855500645
46.904012726383
47.064472703652
47.219541735252
47.369491002126
47.514583380754
47.655067596333
47.79117231003
47.923116817976
48.051102196553
48.175317909376
48.29593932779
48.413123530717
48.52702275236
48.637781738145
48.745530882461
48.850410355477
48.952547931368
49.052061606774
49.149046039993
49.262984047604
50.126055973045
50.772453837055
51.430299301235
52.263639116038
53.287418775113
54.252872788112
54.509853791576
54.492656531931
54.449976125386
54.409592696346
54.372633948744
54.339048236909
54.309106696955
54.283283223978
54.262134875277
54.246097768843
54.241218884739
54.23641094553
54.23684519921
54.242123232924
54.251421927962
54.264293177671
54.279768530533
54.296662129662
54.313177679898
54.326481611151
54.334462842928
54.335781783096
54.333320982563
54.327814711715
54.319842003777
54.310263587138
54.300694984103
54.292082518074
54.284211297666
54.277701014783
54.262743689352
54.262775313282
54.26357839095
54.26420118662
54.267321522217
54.272763017531
54.278077783692
54.282361893918
54.289519683513
54.305131641127
54.320893664171
54.338201881228
54.358562061204
54.383199814176
54.410544098679
54.441672558258
54.476427804237
54.514039861176
54.554997572568
54.599073606411
54.646049452121
54.696167977042
54.751510459319
54.811942970774
54.881269539294
54.959456801266
55.051906243605
55.158311200566
55.286801631133
55.436824419759
55.614169739955
55.818410344805
56.050687804222
56.307028160986
56.487125741141
49.193003191859
42.55232183258
37.112543851352
36.27243996522
35.840729305231
35.551214532694
35.342890994323
35.198580255239
35.1207423737
35.111580749168
35.16614703573
35.273203358476
35.458693292617
35.6877795597
35.950479174689
36.262986816193
36.61989486397
37.009364216326
37.423437318107
37.855310206162
38.299427853842
38.748915818761
39.198217622552
39.643199332402
40.079759230831
40.505227862101
40.917736666591
41.316052205416
41.69942957863
42.067562841786
42.420545186742
42.758693875677
43.082426574736
43.392272877515
43.688839591318
43.972733451659
44.244567110581
44.505031067796
44.754732607604
44.99423410751
45.224117576674
45.444884008684
45.657048652471
45.861119569118
46.057513626937
46.246649817207
46.428912010574
46.604681625913
46.774323641706
46.93814673775
47.096464436505
47.24955574734
47.397698882611
47.541137812204
47.680094199363
47.81478846109
47.945422962719
48.072194487764
48.195287315306
48.314864810088
48.431082334669
48.544084083588
48.654002845625
48.760973091381
48.865126450464
48.96658362175
49.065466158373
49.1618413148
49.269797856532
50.101423157258
50.745127043936
51.376363404572
52.17042681531
53.149067684499
54.118178331173
54.472890154082
54.492016410507
54.460083788263
54.423184899542
54.385713543388
54.348122090784
54.31142153564
54.277053012554
54.246600890109
54.221414057423
54.208008207746
54.196556325576
54.192198887573
54.194571633732
54.202298096336
54.214776933932
54.230767592816
54.2487926687
54.266904029285
54.281936921873
54.291591613921
54.293876267284
54.290978700774
54.284960683301
54.276113766981
54.265712737823
54.256210073497
54.2480779141
54.240874432601
54.235075168157
54.230006181336
54.234365851485
54.240676115498
54.250175116859
54.266981904828
54.291219218866
54.320122976287
54.354693033678
54.399687057629
54.459680169644
54.530044635234
54.612735111312
54.708745934001
54.821195537156
54.946457934353
55.089083157806
55.245943805854
55.418783094376
55.60542355396
55.804613321075
56.015445692256
56.238356502911
56.477420837022
56.734274816675
57.016195778429
57.325896221369
57.673562319457
58.058881392315
58.493809317571
58.974874223719
59.514886289379
60.105101252375
60.747309473477
61.434531176265
62.013102792423
53.764844273668
44.877866764476
38.60486748122
37.758550420913
37.301049910655
37.000712213615
36.775582400551
36.610972552196
36.4933336348
36.431986151105
36.429959887423
36.474692582097
36.574087168708
36.735507089382
36.938085484354
37.170676814847
37.44590502592
37.759546371021
38.103410460971
38.469141413748
38.850456730765
39.242169622861
39.638945062325
40.036031370712
40.430060303098
40.817765562212
41.196855152854
41.565746408235
41.92337322881
42.268980448269
42.60216751274
42.922856470422
43.231180706907
43.527401126615
43.811865826293
44.085002866623
44.34729159423
44.599217397651
44.841253656801
45.073871484605
45.297566910423
45.512783275795
45.719948114575
45.919497834244
46.111778875907
46.297175597847
46.476056813191
46.648750606336
46.815577725709
46.976825863299
47.13276127587
47.283677504177
47.429812849727
47.571399266779
47.708642239495
47.841739689795
47.970897974339
48.096299874244
48.218114204976
48.336501716544
48.451607243354
48.563578212964
48.67253821981
48.778614102155
48.881933978668
48.982614239245
49.080754759807
49.176443252999
49.280219892178
50.082526271937
50.720316070956
51.317860486061
52.060895220121
52.979246078867
53.942761124146