/*--------------------------------*- C++ -*----------------------------------*\
| =========                 |                                                 |
| \\      /  F ield         | OpenFOAM: The Open Source CFD Toolbox           |
|  \\    /   O peration     | Version:  2312                                  |
|   \\  /    A nd           | Website:  www.openfoam.com                      |
|    \\/     M anipulation  |                                                 |
\*---------------------------------------------------------------------------*/
FoamFile
{
    version     2.0;
    format      ascii;
    arch        "LSB;label=32;scalar=64";
    class       volScalarField;
    location    "6e-05";
    object      dydt;
}
// * * * * * * * * * * * * * * * * * * * * * * * * * * * * * * * * * * * * * //

dimensions      [0 0 -1 0 0 0 0];

internalField   nonuniform List<scalar> 
109340
(
0
0
0
0
0
0
0.00039371546361877
0.0050005307583083
0.017998026961203
0.042513372627733
0.081774083077153
0.13886205540965
0.21684953229493
0.3190267647332
0.44912145924421
0.6115376186373
0.81175926087678
1.0567747193334
1.3556555208442
1.7202183079918
2.1660341903649
2.7133440167013
3.3885237167911
4.226201764356
5.2725785270007
6.590156615556
8.2653573350364
10.420784437698
13.236231724542
16.986051793707
22.109521929001
29.351881368819
40.063408555998
56.855686090615
85.088294555206
136.42866658731
0
0
0
0
0
0
0.00083131218845289
0.0066667635035853
0.021489342731646
0.048657951392761
0.091329728319494
0.15256637735202
0.23548125397996
0.34345574201803
0.48036949682751
0.65091953554079
0.86088094302308
1.1176949291532
1.4310633143168
1.8136707891812
2.2821546421505
2.8581406296099
3.5698298002004
4.4543579989939
5.5614223828877
6.9586003255623
8.7398453674845
11.039485944195
14.056374982321
18.097555676328
23.66209998098
31.614656096597
43.571305745852
62.793794852703
96.616637055083
161.68437860525
0
0
0
0
0
0
0.0006819525094367
0.0061235537584055
0.02045430348246
0.047137277780294
0.089369387009143
0.15025053328292
0.23293215746628
0.34082036272153
0.47778991881057
0.6484623541416
0.85857839429018
1.1155117669767
1.428924820588
1.8114562272138
2.2797524110386
2.8554026343908
3.566574868415
4.4503551997745
5.5564130667455
6.9523016781551
8.731936407524
11.029582048352
14.044029234346
18.082543345869
23.64533405942
31.604474018034
43.622445251432
63.187480478119
98.68668914425
172.73776678473
0
0
0
0
0
0
0.00056593558559559
0.0057524790252574
0.01985226557858
0.046392576819526
0.088563924329677
0.14943022369468
0.23210287520838
0.33994233276287
0.47679290379192
0.64726108182383
0.85706313699723
1.1135565121479
1.4264483363794
1.8083654466133
2.276144819659
2.8514281422609
3.562481384711
4.4465864845648
5.5535791113003
6.951391602391
8.7344409487492
11.037740634703
14.061292328904
18.114721765086
23.703091829745
31.710883087598
43.869617751266
63.978678596764
102.10365543553
192.5472964717
0
0
0
0
0
0
0.00051839771749917
0.0055354037019137
0.019354158778437
0.045537656785985
0.087298696739982
0.14771631255209
0.22992157844326
0.33729916763413
0.47372425431941
0.64384088246521
0.85339179740799
1.1097617659193
1.4234051124324
1.8068298176392
2.277947804533
2.859176363799
3.5800200174407
4.4796436736361
5.6102515069061
7.0433872646499
8.8785253331212
11.258033854334
14.392931938185
18.61031042459
24.447687840778
32.831752250747
45.650441823777
67.189452347741
110.04699879213
231.80984441256
0
0
0
0
0
0
0.0011966150115117
0.0085696577949408
0.02661034042459
0.059114389605874
0.10953635854973
0.18126419490724
0.27788112971626
0.40346632129896
0.56294405041962
0.76248980214197
1.0099729615525
1.3150148936819
1.6888513213594
2.1551737940155
2.7369237690573
3.4654908690254
4.3823465023343
5.5421957676867
7.0179131620673
8.9083723700252
11.350157614189
14.537277167249
18.755240218661
24.444017349183
32.334912609831
43.625268718114
60.875200253813
89.885961333809
148.59788046704
346.72781362764
231.68406715283
388.23147796821
601.69537300738
853.10741710311
1131.2986059763
1449.1358061759
1812.5929846764
2226.5081618987
2687.4832362139
3181.7080852094
3721.0287111568
4197.1980266404
4628.1179909104
5001.3932151176
5276.7657597827
5468.6939731745
5580.1420720177
5622.4730741209
5609.9200321817
5552.2070463298
5460.3445161155
5347.0802751065
5218.9994798232
5081.2062364555
4940.364197007
4799.0090750827
4652.2120766624
4515.8431775963
4381.0416849271
4247.4313319892
4124.2464638396
3999.285706059
3886.2025960779
3772.0160773559
3668.3239828066
3564.5691015835
3469.76880908
3375.4631891238
3288.9529099764
3203.0997677829
3124.0558256903
3045.8704929478
2973.4163243317
2902.1908725408
2835.1828749794
2770.6006007579
2708.6086842407
2649.7474253031
2592.5655761317
2538.2350009407
2485.8326203254
2435.5499130357
2387.1913502685
2340.6522578587
2295.8508610638
2252.6960649642
2211.1090076018
2171.0089982754
2132.321973033
2094.9776696066
2058.912614679
2024.0676319791
1990.3769700092
1957.7871188117
1926.2480390179
1895.716060155
1866.1471392033
1840.6960793851
1721.2232284725
1344.8920690348
1159.1750556819
974.04602834304
779.50831855328
570.98743683096
509.03281775536
513.39588081381
518.69865318925
523.34605127478
526.88031201026
528.87004134463
529.18792341906
528.28282540528
526.56099206062
524.23723139345
520.85795229618
517.56826505835
513.84384685075
510.1832489377
506.86424800728
503.95559294832
501.52424623157
499.43513742122
497.52741326116
495.67247378012
493.80199829756
491.92049265611
490.08648217307
488.3392483057
486.73413338754
485.37481952195
484.35274197207
483.70495815006
483.48533289327
483.63456293897
484.08021397126
484.69011062039
485.23191078611
486.15997114344
487.02481185145
488.44018887752
488.8847859223
489.97348035551
490.85752884271
490.48851078446
489.46175797932
488.26475707234
488.33423624992
488.29283759083
487.88641997222
487.60678482304
487.21730230169
487.70180596896
487.95272400902
488.8949909022
489.52592955856
490.41398209931
490.91078807025
491.51092630806
491.82590548993
491.95834978003
491.27314228962
491.13406407762
489.70189726457
486.5607968643
482.95816249298
479.383641079
476.09805404644
472.24599719984
507.50690332688
56855.768236837
291.63450292185
497.82739142921
755.48152897566
1035.8448833065
1344.646673907
1700.7925843147
2096.197215883
2531.122327456
2995.4793730641
3478.6004633292
3963.336729119
4432.4736327822
4812.8738800402
5125.9298857771
5365.5020831032
5521.2935323077
5605.3032159518
5626.5608308859
5595.9046178782
5525.8899404918
5427.1976123263
5308.2634081849
5176.584843182
5037.7522167932
4895.5897407767
4752.8744123018
4611.9097828
4473.5855605555
4339.6441975587
4209.9241278763
4085.2373509776
3965.5351722894
3850.8615703328
3741.3807543742
3636.6209812695
3536.7577323158
3441.276789871
3350.2689640675
3263.252017573
3180.2544509783
3100.8881961952
3025.0628211957
2952.5622625874
2883.1582225288
2816.7806162596
2753.1161898751
2692.1958534874
2633.686448071
2577.6198799417
2523.7463927279
2472.0272833944
2422.3143805341
2374.504774145
2328.4947828246
2284.183331058
2241.4945479577
2200.3438868368
2160.6560798593
2122.3586955097
2085.3849095226
2049.6691918085
2015.1509089337
1981.7757172095
1949.4904611658
1918.2414133765
1887.9759855054
1858.6137722391
1845.3555473362
1577.2957449008
1298.2966938181
1115.6655958231
928.90189983969
730.35303659726
538.02269255634
511.59009092766
517.45325707272
523.16864551962
528.00413833969
531.48924265868
533.2491134034
533.32424025733
532.15779348228
530.14285131794
527.48302187757
523.8662457831
520.24731120962
516.37205487686
512.55027198739
509.06607583193
506.01005424029
503.44974336124
501.2528528557
499.26740777078
497.37346209927
495.50307337945
493.65996874829
491.88054708671
490.19963168358
488.66994276171
487.38943997109
486.44799750561
485.87242917043
485.71683915167
485.99409803083
486.51706916518
487.05157999228
487.73900205596
488.28063992216
489.58843719717
490.62041964693
491.10879891118
492.052466887
492.51758753485
491.96935881516
490.81590259074
489.85173374473
489.76513243545
489.47436921702
488.90531782756
488.57208106701
488.17401542959
488.58323454277
488.7451516955
489.56047269357
490.10958020812
490.87200084753
491.30560260675
491.84521094186
492.14226355866
492.24083092673
491.6747578674
491.47657736404
489.7763763045
486.88794688983
483.48070699675
480.0467151877
476.82677770466
473.101999061
507.83382199527
59851.979945625
343.89544934153
629.47922561827
935.98262902619
1301.7918244167
1662.6710452777
2046.5982233842
2461.5272912355
2895.2137170338
3336.7679259174
3799.0853846396
4200.7700646856
4587.4725982511
4922.1475885777
5194.1367507119
5400.102124279
5537.2447184258
5608.4518189475
5620.5856344263
5585.0448135269
5513.7916356938
5415.0030230587
5296.1107928689
5165.07006409
5027.0945095519
4885.3928068861
4743.3406541784
4603.2131263145
4465.8326260845
4332.220252762
4203.3808415785
4079.141702466
3960.0553821282
3845.8438060543
3736.7443087533
3632.4016559731
3532.8357131042
3437.7002474449
3346.9265479769
3260.1946347244
3177.414750794
3098.2499148446
3022.6479138193
2950.2793036295
2881.0912392653
2814.7953810681
2751.3322492363
2690.4838299644
2632.1406896997
2576.1624342358
2522.4067255539
2470.7798780899
2421.13904779
2373.409492871
2327.4689498075
2283.2297984663
2240.6032000919
2199.5084413788
2159.8721842081
2121.6228463966
2084.6939697972
2049.0194717076
2014.5394795535
1981.1996354952
1948.9470071223
1917.7287561476
1887.4899838465
1858.1556267708
1844.323587529
1578.8186177945
1299.3253431453
1117.0454988101
930.81919174927
733.38014386002
541.86282325482
514.70973988936
521.4823661469
528.03099433256
533.53269046207
537.51854040413
539.63368235344
539.92534524251
538.81420311832
536.69881921953
533.75246025583
528.77735767436
524.71143908366
520.36790903161
516.11659156275
512.23437527342
508.85382305054
506.02485248924
503.6323075703
501.52210179218
499.56140866752
497.65424878798
495.79544590932
494.01058645526
492.33441966864
490.81797984504
489.55679320409
488.6386526216
488.06619803649
487.92608795847
488.20208067616
488.68771576618
489.06568970113
489.47106098099
490.19257286532
491.17222646048
491.92465395317
492.70838686655
493.54258122183
493.71172095989
493.06879993633
492.03335200124
491.27778479292
491.00781090855
490.45971920366
489.86448331968
489.49295348031
489.15951331245
489.50030201725
489.57460039268
490.3278258101
490.78244181894
491.49862504913
491.86637352908
492.37341205709
492.63282842331
492.67532304147
492.20641901826
491.935088381
489.66211237627
487.00149112409
483.79222795822
480.36758405001
476.91695081703
473.41037662244
504.43756136537
49075.733321654
465.62178750409
923.30952096648
1351.0348131645
1820.1546899662
2260.454966511
2666.0703911342
3069.9292658127
3456.7910823355
3831.7852458497
4222.6681047124
4496.7055019891
4792.1078038126
5061.8773355699
5283.7493658666
5455.3347327807
5564.8079453686
5616.3921502135
5618.0670122111
5576.7569295615
5500.5067101997
5399.4320108389
5281.7990279494
5151.1632687616
5013.4174841696
4872.9307450724
4732.0370019336
4592.4297413551
4455.9845731189
4323.3388264028
4195.1203615514
4071.6943283723
3953.1859596345
3839.6575256492
3730.9758754831
3627.1805868798
3527.9568838385
3433.2500254872
3342.7682231075
3256.3929814283
3173.8387516317
3094.9812464376
3019.5767175735
2947.454393641
2878.4392332744
2812.3450950758
2749.0457189074
2688.3444565594
2630.1530805107
2574.2927128607
2520.6723615647
2469.1485257651
2419.6153399326
2371.9732717655
2326.1191324054
2281.9658464946
2239.4156672901
2198.3928493861
2158.8222962499
2120.6337239521
2083.7605568989
2048.1375584672
2013.7066461257
1980.4128045577
1948.2017278465
1917.0222465674
1886.818455523
1857.5226384112
1843.0019906874
1581.5464390185
1300.8656642327
1118.9944376067
933.48932394929
737.49036431287
547.41190424262
519.04980300463
526.90384298569
534.45973358553
540.75389275445
545.36220362405
547.94681732944
548.59386986796
547.67743700239
545.57553899697
542.4388116471
536.74722915523
532.21681771864
527.37397467249
522.59170066779
518.17449489132
514.29250507896
511.02918179075
508.28818660753
505.92183448896
503.79003608202
501.78738586931
499.88748159616
498.10179912948
496.45066723179
494.97271894926
493.7420130589
492.82869369195
492.26306444865
492.12952306796
492.37756475104
492.74103816341
492.94589938793
493.23076650781
493.87825558974
494.69895819721
495.26411078736
496.12177279835
496.63595878475
496.43033943665
495.66527660742
494.73894969964
493.87607868824
493.32275317702
492.52857252759
491.84425842461
491.37131777615
490.94993769233
491.15227203729
491.11655208071
491.7367005127
492.07635507452
492.64646611126
492.93080450986
493.32172194142
493.48965368631
493.412376064
492.90557713015
492.49533537953
489.97108207692
487.27971349931
484.37302287995
480.83128914095
477.35408864519
473.85830834629
504.27787672764
51337.396746798
886.38313698434
1722.734591195
2412.492005713
2936.7072619811
3332.5625447128
3661.6385679994
3926.9373608987
4156.0448894607
4379.353896875
4590.7229341843
4808.4088780836
5025.1927237763
5223.589228868
5389.0179241126
5513.5892810713
5594.5987016445
5627.439068674
5615.0831324316
5565.5450712857
5486.2587251404
5383.5141616028
5263.6606681434
5134.2952046795
4998.0165703337
4858.3986800401
4718.3386729785
4580.1443266795
4444.6840773153
4312.9899479837
4185.6233017589
4063.0522379401
3945.2440093441
3832.389344202
3724.3344312191
3621.0352093696
3522.2970664158
3428.0179403977
3337.9284043283
3251.891350781
3169.6703612199
3091.1107785842
3015.9659322153
2944.1056873958
2875.3089744813
2809.4424478154
2746.3197111644
2685.813018295
2627.7794928277
2572.0773296452
2518.5953062873
2467.1976976144
2417.7896202843
2370.2538601962
2324.5013688647
2280.4390013786
2237.9786569555
2197.0404302301
2157.5472856437
2119.4297283809
2082.6216233488
2047.0593851136
2012.6862956777
1979.447027904
1947.2839805339
1916.1497550854
1885.9891465219
1856.7398339489
1841.3584234029
1585.3671181689
1302.877260254
1121.481341543
936.82752252171
742.45680886815
554.48292551942
524.31329586676
533.08780553297
541.57086356113
548.57625553576
553.75344738404
556.79406556564
557.82019376018
557.17632693702
555.2138315731
552.07310872236
546.13425256761
541.32084859373
536.09053717221
530.78393853887
525.7369044063
521.20631421077
517.3388921697
514.08813726886
511.33336184061
508.92921568563
506.76201525415
504.77220018332
502.96423245311
501.33005671588
499.88787646682
498.68939852515
497.76735535312
497.20109214064
497.04265839274
497.23624236984
497.39939977761
497.45150634919
497.63158064043
498.13175738937
498.75524667537
499.23965060767
500.02011842269
500.16202636623
499.47592240316
498.81642116092
497.80611771366
496.6403591127
495.81961098363
494.80162506347
493.95043112019
493.32637243665
492.74794910583
492.78893054609
492.59897896131
493.06460566755
493.24132523637
493.6506196927
493.81304871472
494.06782380953
494.10531733881
493.89255517267
493.2274925776
492.71756779525
490.00248429186
487.2602942496
484.33586499178
480.68147440121
477.10530268366
473.68544581756
503.84080798062
53895.504737758
4225.9631875579
5015.033718298
5060.995545438
4922.018234689
4829.6301717308
4792.1191875773
4808.8616685653
4831.6432522155
4904.5169324946
5008.4143580485
5132.6188348503
5260.4095771705
5385.871362359
5495.4327002885
5576.8850639519
5624.2033635135
5635.1247414105
5610.0064832247
5552.4844785994
5468.4081378184
5363.8826869729
5244.4327600231
5114.3843577666
4979.2476547845
4841.3641997248
4702.806974239
4565.5625288926
4431.4859117093
4301.1021383892
4174.7870123631
4053.0466282319
3936.2268529043
3824.1018905821
3716.738305417
3614.0396611166
3515.8966642905
3422.0629342047
3332.4307162576
3246.7922446953
3164.9485655976
3086.6974269742
3011.871570648
2940.2873870294
2871.7524613195
2806.1174906604
2743.2151226257
2682.9190245771
2625.0645517947
2569.5385482306
2516.2090803798
2464.96346873
2415.6900960128
2368.278553268
2322.6396135341
2278.6804283794
2236.3212359741
2195.4761588999
2156.0693074608
2118.0317362683
2081.2987684138
2045.8066483932
2011.497906328
1978.3197407939
1946.2109526032
1915.1278527906
1885.0178276388
1855.8232106035
1839.4319514933
1590.2510638254
1305.3099502817
1124.4703544169
940.75560485496
748.08507097043
562.78237778939
530.13332341671
539.38079375796
548.58332120571
556.15208317783
561.7915766112
565.22083161663
566.58103130003
566.18841733352
564.37753422169
561.30123394793
555.51824642263
550.61959168788
545.22624148478
539.64145870771
534.17010976014
529.07439269386
524.57664544117
520.69289296238
517.41577694164
514.61575862747
512.19218998696
510.05179917771
508.17847632941
506.5409414232
505.11173315065
503.91174480416
502.98957076323
502.38681637936
502.20529608996
502.33496003533
502.27674456649
502.20291495216
502.23812321353
502.56156279614
502.91000401729
503.16607822619
503.89646594193
503.53241813893
502.5043038046
501.64574048185
500.42264933951
499.0346103621
498.03887013103
496.82208223825
495.80407162669
494.98390975778
494.20346812091
494.00181383943
493.60903062077
493.85104331926
493.81078861794
494.02063677527
494.01613465052
494.09242572386
493.90751930874
493.51025236521
492.63222090427
491.96528645095
488.95657063577
486.01873146867
483.03726160373
479.19244415987
475.26268432957
471.72403198258
501.30141173252
56617.53620805
18016.28113581
10825.427906018
8424.9374789084
7136.0729971115
6350.3564836287
5884.575619453
5632.7722383541
5492.2352357116
5423.8570299753
5409.445082659
5428.8887587882
5471.0268435031
5526.3264419774
5582.5188849968
5626.8002339852
5649.4004318612
5646.0057348136
5613.8734792522
5554.3592246783
5471.1926191464
5368.9140716322
5252.1258937766
5125.3133719268
4991.5952678401
4855.252428414
4718.7782943393
4582.8006740204
4449.1770477716
4319.0463091143
4193.231466611
4071.5050981866
3954.3407233114
3841.9795493927
3734.3377795461
3631.2130888261
3532.5662467704
3438.2869133156
3348.1698139534
3262.0050723094
3179.6517604337
3100.9203945551
3025.6131571728
2953.5456300137
2884.558638961
2818.4894963051
2755.1705453791
2694.4614946053
2636.2186258298
2580.3238057404
2526.6352597168
2475.0437418402
2425.4351256602
2377.7093325915
2331.7706240691
2287.519870052
2244.8772785048
2203.7615595675
2164.1003057358
2125.819965584
2088.8512537796
2053.1345468667
2018.6077988906
1985.2139259136
1952.9061660059
1921.6340849266
1891.3511124899
1862.0014676315
1832.8445049543
1739.6721262824
1357.4110259979
1172.832318479
991.39047447193
803.26634178757
608.20477627904
536.3084331996
542.76718244141
552.8629353797
561.3505871259
567.91326691753
572.25601828232
574.40736009628
574.63807518219
573.29206677156
570.57203423638
564.09892612037
559.19360390164
553.7668776538
548.09539167008
542.442143761
537.01517714854
532.05597470821
527.61988480795
523.76572508865
520.48952010742
517.73306240842
515.36869134095
513.36951823267
511.66837494016
510.19548776819
508.97058089891
508.0135393797
507.35598033568
507.13851720944
507.12572387739
509.1131039153
508.63828004679
508.31885888422
508.29042829585
508.15692356108
508.01577441438
508.50501455308
507.74188873974
506.32650062887
505.0179403741
503.30850630011
501.48122068108
500.22822067202
498.63778845663
497.2762014486
496.12674186856
494.88828500198
494.21558875664
493.43725567232
493.24459445592
492.76015290464
492.51983964953
492.12343490288
491.79156269791
491.15042231596
490.28273723377
488.85882043126
487.60447297322
484.17139625988
480.68702162716
477.1474763885
472.56438293796
468.05063390427
463.09127621522
491.3882856502
62115.309766561
11184.853670728
12599.419748051
10556.263374361
9141.4416391486
8146.2986219199
7433.2704520459
6902.8228229987
6499.8963493394
6259.0249919352
6076.2489034305
5942.0007282903
5855.4076002478
5797.9172021074
5758.7931481405
5725.4399602849
5687.2178732627
5637.3642012951
5572.6021022366
5491.0925136518
5394.0440491839
5284.2091164469
5164.4546723554
5037.6639447049
4906.7372082079
4773.8159850289
4640.4784562009
4508.6690116059
4379.8584208776
4254.1080965719
4132.124119344
4014.2208517675
3900.8823732669
3791.9219222898
3687.3464710787
3587.1257101056
3491.2478584877
3399.4550194254
3311.60832139
3227.5540576101
3147.166620018
3070.2436086865
2996.5934751102
2926.0674663177
2858.5181313725
2793.7900597536
2731.7147805684
2672.1618087777
2615.0043641504
2560.1183654265
2507.3745861835
2456.6621415093
2407.8783027179
2360.9279377037
2315.7155057176
2272.1502122319
2230.148880085
2189.6360569292
2150.5423196237
2112.7989402739
2076.3387737052
2041.1006530491
2007.0295396962
1974.0711324188
1942.1678929185
1911.2740972946
1881.3502376999
1852.3427702509
1832.3396132457
1610.2555390413
1314.9410026026
1136.1881280637
955.77607901368
768.37970710886
592.30339379054
548.81235285183
556.35916290971
566.91016237598
575.81817569985
582.62765172033
587.06117718703
589.23925208761
589.36246080339
587.74339909233
584.64178994774
579.16158952102
574.12612855786
568.56711713718
562.76334023142
556.96088552804
551.29418953625
545.93767037824
540.92054664374
536.28512894041
532.15366738456
528.64029487893
525.71548283301
523.31294773065
521.31928261353
519.65860596931
518.27178142835
517.13756362863
516.29285720718
515.88207245115
515.5345190955
516.22398582019
515.11907405985
514.30385626849
513.86188420549
513.13122064914
511.95237867383
511.47783079799
510.28937095316
508.25219632958
505.34823302869
502.57090794164
499.73806763453
497.52115281561
494.87194832887
492.58745412048
490.47123548971
488.08616048785
486.24430055055
484.35906444678
482.87381498371
481.17757391378
479.67764535186
478.06872265961
476.46448893847
474.52629314392
472.12465159176
469.015958319
465.92978080614
460.83590104243
455.47629482132
449.86427337383
442.8634463325
435.6560476303
426.49751868179
448.44136190903
53843.894716798
8632.4029148918
11011.402180603
10292.199515049
9365.8857692311
8592.5964040782
7979.8049212855
7477.77476929
7072.1834389546
6727.9496577802
6456.3201702898
6255.2728578731
6090.6631863287
5960.7484803894
5854.9953261227
5769.2047336551
5689.8308901325
5610.0667318475
5524.5538027199
5430.5916274687
5327.2194370521
5214.9552161542
5095.7839816164
4971.5972348932
4844.2898184686
4715.6805182633
4587.1527874856
4460.0305141246
4335.1433325984
4213.199185476
4094.9691063822
3980.5964110793
3870.1663213581
3763.8818006523
3661.6937673827
3563.7745426195
3469.8715243875
3379.864345953
3293.6201923789
3211.0423903979
3131.9851591114
3056.2209259423
2983.6275457594
2914.0586147808
2847.3907614465
2783.439001901
2722.0810701193
2663.1780720536
2606.6189370265
2552.2783391255
2500.0292151671
2449.7707157333
2401.4042877369
2354.8405174402
2309.981984932
2266.7438179772
2225.046090643
2184.8145029493
2145.9807847109
2108.4756900524
2072.2375332579
2037.2082274693
2003.3366338827
1970.5551437143
1938.8187175288
1908.0854447607
1878.3146944778
1849.465692474
1827.1542946758
1627.599358762
1322.9291083304
1146.1466715419
968.72136458522
785.48857923221
614.82323613764
562.18741617954
566.45872488393
577.54800499368
587.49956108285
595.28228966333
600.52774013009
603.29228225943
603.69668068506
602.06446747322
598.75215579561
593.04449556074
587.66569523228
581.74485092145
575.57362913748
569.42620148789
563.45676597919
557.81968510394
552.48307428098
547.4563428467
542.87616865836
538.86955328271
535.44781896565
532.56932357376
530.16930323588
528.15684498339
526.44212692215
524.93203311103
523.66751691926
522.80532345516
521.89631754823
520.99338771967
518.92796220087
517.1557180429
515.85658337017
513.67886218751
510.49480579798
507.85629295456
506.16420399559
502.98212557168
496.9340060346
492.18576680683
487.68010371078
483.39196281111
478.2928822136
473.63974366283
469.03681159807
464.07218829782
459.56410879588
454.97705392234
450.59314257531
446.10957893737
441.66347839494
437.02105996269
432.2640862542
427.05648785097
421.20113648624
414.32743214909
406.89579714133
397.59539732155
387.58925768028
375.7475746129
363.05346129947
349.5826332727
335.53844898173
305.4745580198
0
7516.43536184
9261.0527074067
9380.6046651404
8895.0924688052
8360.9860667974
7895.9808112237
7489.2246630129
7136.9623457275
6828.9794534693
6562.2801498712
6340.0277299644
6165.2444272371
6006.1193835137
5874.1623610115
5757.9416290813
5654.0836261493
5554.0674079146
5454.7465357663
5352.5966809279
5245.7523866128
5133.5255859794
5016.2194707192
4895.4012722416
4772.4726662166
4648.7041906384
4525.2677694303
4403.0616236414
4282.9639225217
4165.6361606331
4051.4819702708
3940.8082118659
3833.8643297732
3730.8166501023
3631.6128123203
3536.2317186949
3444.5957822384
3356.6393599212
3272.3613060016
3191.5235482377
3113.9745944678
3039.6107966267
2968.2747142673
2899.8829311875
2834.2375444507
2771.2311691352
2710.72547577
2652.612109513
2596.7751721119
2543.0780101581
2491.4254622696
2441.7078930684
2393.8445936291
2347.7380305001
2303.2988293956
2260.4491912307
2219.1089078115
2179.2111222156
2140.6855468661
2103.4639603458
2067.4883659558
2032.7025639893
1999.0580262639
1966.4880921041
1934.9485030715
1904.4048654535
1874.8260900332
1846.1308150982
1822.125334634
1647.6878579704
1331.6044249362
1157.6476981173
984.43861787543
806.55754755159
640.36924382833
577.09258925166
576.6088509026
587.86097253454
599.10603346876
608.17523454768
614.46129429405
617.9208539811
618.61319419236
616.89750271631
613.23979022396
607.0541309993
601.13003281903
594.6380424618
587.87884478462
581.16233718229
574.69356322741
568.59099689672
562.81181341833
557.36610924685
552.38464574558
547.99325403359
544.19196045464
540.87095968426
538.00089560308
535.49366235824
533.23851658005
531.0990646936
529.1885057872
527.69816957864
525.92778265122
521.98653444063
518.14975766329
514.35765960249
511.28088376165
506.52438676732
500.09712545432
494.21120903455
489.6687663899
483.4158879124
473.0282559072
463.78517791299
454.9973331405
446.00491258701
436.04411781456
426.28677166961
416.04577867837
405.47608336996
395.16872733542
384.91511136248
374.97213707681
365.34221652628
355.76203318622
345.94893258873
335.82148841163
324.97751087519
313.43387135562
300.60196152931
287.04390138602
272.36827387092
257.04790785154
240.87465392572
224.3852627571
207.64463390611
191.28944239585
152.88741371777
0
7053.7670683381
7929.5818055819
8377.3466722072
8247.3458160217
7914.9404054578
7578.9812559812
7265.822390903
6984.328236026
6723.8127783063
6492.2332096098
6291.2247485731
6102.4897545541
5942.7355813548
5810.5758857873
5688.6329944987
5573.9833852769
5467.4140431663
5362.4663599325
5257.3289906936
5149.960891448
5039.4870757005
4925.9963471131
4810.0419079922
4692.410305729
4574.1318341497
4456.195116034
4339.4071691352
4224.4591058267
4111.9572700443
4002.3510491293
3895.9181296925
3792.8393940569
3693.2227321611
3597.1568994723
3504.676827138
3415.7238663156
3330.1911835568
3248.0244007314
3169.0830108955
3093.2627311679
3020.513507203
2950.6460011146
2883.5347399522
2819.0770386942
2757.137649608
2697.6375314604
2640.4348200352
2585.4095776131
2532.4691502598
2481.4993318696
2432.4264589959
2385.1433301834
2339.5679569926
2295.6194288301
2253.2180575652
2212.3003378924
2172.79027672
2134.6197458412
2097.7298651369
2062.0594694051
2027.5629048064
1994.1763573538
1961.8482823745
1930.5418800517
1900.2144955596
1870.8404637713
1842.327515488
1817.2892568341
1669.2416766208
1340.1216868102
1170.3020635525
1003.1341728083
832.33704755296
670.57896149585
594.7882677541
587.67892839522
598.32018589679
611.00003895779
621.69575946868
629.29684012076
633.5991902349
634.61222106454
632.74557887205
628.58884177864
621.72071899842
615.02767841824
607.74810639
600.19742554998
592.71591913261
585.56620349828
578.84540902468
572.50576909217
566.52710500353
561.02814248456
556.12658910649
551.81396301999
547.97083047662
544.49845137253
541.30529396715
538.31899109699
535.41300046088
532.44045019717
529.53279471673
525.83379180778
516.49329331964
509.59327193869
502.19885681769
495.02697513366
484.76393063
472.46880664863
460.7546026279
449.30152922924
436.11339185905
418.24850993857
400.62937118595
383.70762491303
367.08226420627
350.00203044915
333.90803492495
317.72685317257
301.79178707567
286.83138825792
272.22966044043
258.09131990304
244.4674571496
230.78480657759
217.1670297374
203.52398321124
189.61007772557
175.6041227783
161.19814345437
146.93304060071
132.21837186219
117.75894343533
103.23308871936
89.232859352996
76.001199644872
63.533678453551
39.506483666074
0
6975.0544346894
6961.8750779127
7463.5186029462
7573.2906006562
7412.8213405087
7181.5709787189
6947.6417529095
6727.4707552714
6517.7765666128
6322.0597182137
6143.7206327636
5976.8384709179
5828.8643407032
5698.4779144771
5576.5895316227
5463.750188661
5356.6020038688
5250.7067819201
5146.7400012032
5042.1808165454
4935.6893386417
4827.1473254014
4716.794658299
4605.145396387
4492.956840979
4381.0637352231
4270.1610365553
4160.7915288995
4053.4656568567
3948.6307123736
3846.6006542821
3747.591290127
3651.7262454798
3559.0748987148
3469.6809428574
3383.5329263613
3300.5719765331
3220.7416224832
3143.9529277834
3070.1018500174
2999.0982108943
2930.7947013998
2865.1231068707
2802.0124504135
2741.2989825265
2682.8834511282
2626.6775426042
2572.5623618
2520.4609670315
2470.2809435011
2421.9136930502
2375.2877765233
2330.3123668981
2286.9208451673
2245.0426168061
2204.5980861337
2165.5265241014
2127.7633701052
2091.2479872562
2055.9321534424
2021.7603314293
1988.6699380444
1956.620990396
1925.5792223099
1895.5116259536
1866.3602417435
1838.0573085119
1812.2311687293
1688.9477885889
1347.1801570322
1183.4342256568
1024.6981718514
863.25825806615
707.36248605368
617.41099538121
600.79284223055
609.2710565308
623.10657010312
635.70568526556
644.95861090763
650.33820716747
651.77621953546
649.72173538843
644.89647084456
637.13728505616
629.39173709729
621.05030129712
612.47315630964
604.05097941714
596.08228924643
588.65960633755
581.70556167351
575.12849216235
568.9915513151
563.39956787384
558.38043303141
553.79787424255
549.49791903103
545.47830067006
541.40548987332
536.94581069358
531.84288137901
526.18192798359