/*--------------------------------*- C++ -*----------------------------------*\
| =========                 |                                                 |
| \\      /  F ield         | OpenFOAM: The Open Source CFD Toolbox           |
|  \\    /   O peration     | Version:  2312                                  |
|   \\  /    A nd           | Website:  www.openfoam.com                      |
|    \\/     M anipulation  |                                                 |
\*---------------------------------------------------------------------------*/
FoamFile
{
    version     2.0;
    format      ascii;
    arch        "LSB;label=32;scalar=64";
    class       volScalarField;
    location    "6e-05";
    object      k;
}
// * * * * * * * * * * * * * * * * * * * * * * * * * * * * * * * * * * * * * //

dimensions      [0 2 -2 0 0 0 0];

internalField   nonuniform List<scalar> 
109340
(
6.9467508483206
6.9443893852078
6.9474889324972
6.9520135838843
6.9540945832221
6.9521280090449
6.9456882783273
6.935252667072
6.9216656579772
6.9046689485772
6.8843839230524
6.8610151069064
6.8347693122401
6.8058440918637
6.774426330465
6.7406968163284
6.704831743544
6.667003142622
6.6273801548351
6.5861275307358
6.5434034439922
6.4993571342992
6.4541271836239
6.4078396312255
6.3606058819975
6.3125190773087
6.2636484895153
6.2140322377276
6.1636668495015
6.1124904285811
6.0603537870082
6.00696554839
5.9517714106896
5.8936418121126
5.8299582503029
5.754088046674
6.9425002727392
6.9426900132726
6.9456152339265
6.9474273336186
6.9458942573036
6.9404441858442
6.9309066082747
6.9169668529487
6.8988878661393
6.8770802590092
6.851801824343
6.8232835093992
6.791758780561
6.7574605835445
6.720619672611
6.6814626736409
6.6402132641652
6.5970926290794
6.5523196947357
6.5061087989527
6.4586660367429
6.4101836024805
6.360836301139
6.3107791979364
6.2601443350612
6.2090355879348
6.157523821873
6.1056400316115
6.0533632517729
6.0006022995199
5.9471612481729
5.8926716477102
5.836437429469
5.7770231705573
5.711102253441
5.630230991757
6.9371175188352
6.9387328527831
6.9404300303691
6.9391153642985
6.9334304599371
6.9227812491435
6.9069534218551
6.8860592218437
6.8603546893115
6.8302225012649
6.7960481146768
6.758197820948
6.7170362197674
6.6729286046471
6.6262390684064
6.5773287675659
6.5265537901049
6.4742712603723
6.4208404319574
6.3666048964574
6.3118839943938
6.2569524045975
6.2020474464605
6.1473697797727
6.0930644377942
6.0392310819924
5.9859329782261
5.9331679296483
5.8808840053756
5.8289515753708
5.7771268881597
5.7249872517178
5.671746710823
5.6157811571914
5.5533067939014
5.4741621166101
6.9259878769177
6.9329883227197
6.9329179166787
6.9251103893678
6.9093561029128
6.8856883761632
6.8544036535197
6.815959066643
6.7709768772658
6.7202203214588
6.6645343306056
6.6047931814627
6.5418735517019
6.4766342568845
6.4099219528849
6.3425575699638
6.2753486899977
6.2092513390548
6.1449934337648
6.0832051125059
6.0243771050946
5.9687970018458
5.9165743042417
5.8677222691994
5.8221925787322
5.7798846374801
5.7405401888789
5.7040425232857
5.6702546913343
5.6389806814037
5.6099021197882
5.5824805592928
5.5556357356101
5.52694103712
5.490094982666
5.4254836822242
6.9135591011923
6.9421941932873
6.9508420874207
6.9389952382352
6.9062015057009
6.8538796655895
6.7852462473844
6.704402173749
6.615802421537
6.5238763294356
6.4327198587413
6.3462342078382
6.2677992372556
6.2004520953662
6.1469809002328
6.1100215925493
6.0921649967063
6.0971147309604
6.1246376451959
6.172417583577
6.2367743785196
6.314562098291
6.4033071392951
6.5011268774237
6.606568860693
6.7184768738171
6.8358852290733
6.9579471118602
7.0847537799121
7.2154165850002
7.3481119351364
7.4804955361421
7.6092019662637
7.727097945864
7.8141999534045
7.7966054732548
8.3801384057821
12.432043481452
15.887463661889
18.518465327962
20.334240619121
21.46611918913
22.078023329556
22.319680454538
22.308432434092
22.139590794421
21.868477422147
21.537957228755
21.177189391001
20.805632376295
20.436178686377
20.077878539102
19.736514542909
19.415872900534
19.119634618473
18.851345209444
18.606451069726
18.382096044922
18.176830704214
17.989852255393
17.820599929236
17.66865366118
17.533736180402
17.415754230501
17.31485892197
17.231556177238
17.16694774991
17.123273410493
17.103862736933
17.116201932702
17.169017437545
17.25315332718
5.6521973873622
5.5136304690768
5.3370445877708
5.1229434323635
4.8715008327211
4.5831859778607
4.26191008627
3.9140479735566
3.5496518857515
3.1858247510153
2.837213375073
2.5448125966204
2.295465942858
2.0642598049353
1.8530963426584
1.6612266424189
1.4902078187652
1.3399262427958
1.2089784000928
1.0954741075735
0.99718999437693
0.911427050328
0.83669814907483
0.7716852809679
0.71439095199879
0.66374495811318
0.62059962223147
0.57982679580365
0.54470940822018
0.51329467640213
0.48378568972478
0.4591442436963
0.43462999976128
0.41447268366503
0.39399972459227
0.37713650291006
0.35983426090996
0.34550441410355
0.33073945458425
0.31845632415914
0.30587720018088
0.29516424830908
0.28452497996299
0.27487296630451
0.26587395263915
0.2570281260924
0.24922376714521
0.24131554460284
0.23438837927382
0.22756174646489
0.22116443887464
0.21511678210977
0.20938731532468
0.20395004019662
0.19876811916706
0.19382368970738
0.18909979469918
0.18458985220059
0.18028507366801
0.17617412592607
0.17224032547503
0.16846680995447
0.16483961298245
0.16134881005119
0.1579887770209
0.15475148655243
0.15130294448178
15.927947912094
3220.4930009442
2378.8237369497
1493.2358600587
885.50605653136
419.78114642484
69.546428537628
17.552217407819
13.273114598921
11.218330492912
10.303814639328
10.064560185749
10.246494509465
10.662249765578
11.158304063938
11.65215590366
12.077297264591
12.61791273165
12.577732446003
12.398090659801
12.179491576627
11.939963166705
11.719191593353
11.551728503666
11.459449581617
11.447921627313
11.517792805529
11.675951231288
11.897119332756
12.155894305723
12.430306266538
12.695708746474
12.934299313915
13.117622416821
13.234234719649
13.269041982945
13.239273522208
13.08546576963
12.888093354896
12.6460082762
12.357882430201
12.03753478017
11.677047303291
11.313135121417
10.935634445099
10.553194381216
10.183905906706
9.833458780218
9.5052546469458
9.1696529259596
8.8470719949999
8.5449226123817
8.2530834296627
7.9695056855774
7.6822522406944
7.4157230511747
7.1465582426708
6.9081773977346
6.6700784351572
6.4629337619482
6.2578126583188
6.0760574432857
5.9069792624336
5.7639369131581
5.6149191039317
5.5029684401769
5.4290522756584
5.3623773274214
5.295873097661
5.2146921066722
5.2955105576687
5.2296676084689
5.2550125018433
5.5168055466772
5.3571027920196
5.1461474949379
4.8889815304684
4.5906733743826
4.2569351410823
3.8967530734311
3.5211396797482
3.1427420373527
2.7728293722533
2.4224542941696
2.1012323020126
1.8237613297031
1.5862126633476
1.387047522763
1.2250405924119
1.0948809561431
0.9911457873424
0.90531616412076
0.83313976969983
0.77177186355419
0.71877781163383
0.6723464959978
0.63132289524865
0.5946205816273
0.56138897453452
0.53107448368589
0.50329281702292
0.47756453594278
0.45406826471071
0.43239329757775
0.41253421793493
0.39421561967159
0.37726646907029
0.36160322643504
0.34701544019217
0.33345778244053
0.32078922494253
0.30900027716038
0.29799882418925
0.28771257563565
0.27809470374507
0.2690194044687
0.26052111110593
0.25245758720489
0.24489443846685
0.23769886364131
0.23093283500305
0.22450822833742
0.21844235116823
0.21268243581008
0.20720696445527
0.20199910734617
0.19702667292882
0.19227586315272
0.18772545464186
0.18336988839813
0.17920201211338
0.17521452695663
0.17139457781383
0.1677282240817
0.16420301233627
0.1608077635896
0.15753257387981
0.15436957467884
0.15131619936225
0.14901351396941
179.56269819227
3186.1876685995
2126.3118694707
1323.3410121461
761.45404047069
318.29607480914
37.144095379031
16.525472587241
13.272502929605
11.764172159331
11.178375063955
11.129635768932
11.406812186246
11.819344983997
12.222401094212
12.561011566493
12.815731283753
12.597911484821
12.496763335776
12.238446032786
11.935551372936
11.62138207273
11.340159739771
11.124120302004
10.990487328946
10.947051472174
10.983798562655
11.105749621491
11.292228574631
11.51560026641
11.753854585391
11.981691354442
12.180497884917
12.328926161662
12.420768896169
12.438025452472
12.403004097677
12.256218689173
12.073607249184
11.845827098346
11.591078480346
11.291417277368
10.975951002097
10.64607032396
10.308852776403
9.9723320188268
9.6673257874634
9.370055662409
9.065853507845
8.7574259314222
8.4730272865551
8.194264761164
7.9251911875746
7.6594740600862
7.3931936178885
7.1469252611151
6.9003949457103
6.6784618590531
6.4594597701413
6.2638889611577
6.0734244076292
5.8940501476286
5.740687030531
5.5938871339481
5.4599632174323
5.3515857337204
5.2711198186969
5.1981499532241
5.1281563684347
5.0433466464853
5.1125249952332
5.2715229283833
5.358632982024
5.3555157129465
5.177148958422
4.9404671581573
4.6568303482581
4.3386644905521
3.9965710774401
3.6416050021044
3.283942405228
2.9324579384462
2.5910462865238
2.2788813592258
1.9912986105432
1.7363149109084
1.5149522679631
1.3259761987582
1.1678431059243
1.0375815499767
0.93084344503688
0.8406872018661
0.7640006332979
0.69907811460472
0.64422354914891
0.59742631979847
0.5572932631346
0.52278787263593
0.492740623185
0.4661995725377
0.44263039488576
0.42153726128871
0.4024303197965
0.38516606574512
0.36940964581371
0.3550314121147
0.34169939243553
0.32932929607755
0.31769489635774
0.30674250289817
0.29637847105743
0.28665893812078
0.27748565728112
0.26888607339764
0.26072212932946
0.25302958987438
0.24570111656933
0.23876697192557
0.23215800725771
0.22587856440835
0.21991779234351
0.21424057618762
0.20886049817801
0.20372439181956
0.19883662384841
0.19415281191341
0.18966405234391
0.18535401570289
0.18121211483247
0.17723534115329
0.17341866593767
0.16975701404506
0.16623975724932
0.16285557066174
0.15959378356207
0.156444579716
0.15339906830359
0.1504504765009
0.14759737522674
0.14545162232255
174.27121090181
3191.2953202611
2130.668044239
1326.4181744355
764.50016386656
322.25707960907
39.469722366464
18.20003001579
15.379459470932
14.243185397584
13.960125522365
14.148415144984
14.580267165219
15.039951397543
15.348949821016
15.429421770759
15.337730842213
14.310956494595
13.898953514937
13.294777966742
12.653897733821
12.050750524437
11.541438164218
11.152885123481
10.891052640115
10.750423867349
10.719264340189
10.772292943487
10.904778464577
11.087177678683
11.291506856762
11.487554407915
11.651986456664
11.769754181583
11.834491214794
11.832618773748
11.788001352547
11.629678844979
11.444601569501
11.217728265445
10.957446150047
10.673668368806
10.377451561655
10.067456777767
9.750170655126
9.4254115477685
9.1437365044095
8.8603481618556
8.5769852897651
8.2936627686951
8.0280393363823
7.7629938832158
7.5098638810292
7.2577601569705
7.0124549320578
6.7836410270914
6.557327308772
6.3504393205602
6.1465585834174
5.9615690349076
5.784373226619
5.6146290003307
5.4699976869353
5.3297992777403
5.2061303925493
5.1095944892429
5.0210890384198
4.9498243298871
4.8850693166174
4.801332752506
4.804534794582
4.9310107727329
5.190376119551
5.2759253903044
5.0128401503367
4.6677098405034
4.2965258392941
3.9399264424813
3.5979890766599
3.271190502728
2.9594942470623
2.6618981585209
2.3741073284547
2.1189046144461
1.8747777030527
1.6512753813015
1.453122111772
1.279428471577
1.1310526749858
1.0066435918471
0.90269991007263
0.81355840068163
0.73729658667485
0.67172143027706
0.61512473621332
0.5666977928707
0.5250545581699
0.48899437555054
0.45771567386841
0.43053932886028
0.40669454003072
0.38565703723997
0.36698224802348
0.35032965794304
0.33541595985906
0.32196970174322
0.30979911779272
0.29866760576664
0.28845414433084
0.27898045950985
0.27019533180779
0.26201168585676
0.25439851503352
0.24727421672924
0.24057355344267
0.23422828436187
0.22818098402071
0.22240885668333
0.2168611450863
0.21156796551722
0.20649327279345
0.20165678888503
0.19703056764257
0.19260791618916
0.18837343551556
0.18429969166107
0.18037553225788
0.17658354187689
0.1729246893643
0.16939629995301
0.16599822908671
0.16272771822049
0.15957676831941
0.15653542283962
0.15359443956883
0.15074589438668
0.14798214482078
0.1452980858353
0.14269282178583
0.14073276982407
166.17189809587
3192.1914353471
2135.6335599709
1330.5754479537
768.85603320582
327.99556189905
43.669826646025
21.65623486456
19.766433257595
19.410014043651
19.769309822005
20.487229169918
21.328807199065
22.037180577607
22.37116443524
22.204973892009
21.59577942891
18.974813159678
17.809232940081
16.405805847092
14.999736073008
13.73211198971
12.685859942555
11.886672510584
11.322655311503
10.967652272427
10.787508345623
10.7497304753
10.802681831874
10.926974691429
11.084172176643
11.238750515105
11.356277388674
11.423834013438
11.434600570622
11.401686648794
11.319223352831
11.118906543088
10.909300641758
10.666119333887
10.395739836425
10.107987602095
9.8115525021667
9.5086780852408
9.2019089770824
8.8884908882169
8.6048350179525
8.3325062146133
8.0691376607754
7.8093602144249
7.5603749359763
7.3111583343485
7.0741308640415
6.8413278055924
6.6140213250447
6.4030523311645
6.1932792163308
6.0002453287057
5.8123527170365
5.6347089741221
5.4702596503929
5.3124460466431
5.1674725034566
5.0383847828246
4.915866704419
4.8286709503877
4.739735047605
4.667143689664
4.6070176056674
4.5395639107905
4.5094153125185
4.5024013097812
4.8325612274447
7.2286327072759
6.0088754099454
4.8980653456808
4.1409694665002
3.5789437732421
3.1349227441116
2.8189750719295
2.5893807111504
2.3796926134062
2.1659752978138
1.9557946215089
1.7528041516582
1.5645020421014
1.3924544463251
1.2377268896247
1.1017016125074
0.98476250563944
0.88378191101261
0.79637456649062
0.72093714420797
0.65601725844721
0.60006578849341
0.55141298776014
0.50931136376115
0.47271689596273
0.44072890174219
0.4126298765907
0.38797159747962
0.36623531690206
0.34698615128244
0.32986156485885
0.31462398712573
0.30097144539535
0.28871435935909
0.27764279578784
0.26759459132145
0.25839186098072
0.24995566939225
0.24218935666614
0.23504179553875
0.22841826189611
0.22227171086672
0.21651472785719
0.21111399040967
0.20600960869188
0.20117987788972
0.19659794050286
0.19224246602878
0.18810968142921
0.1841721975505
0.1804199584941
0.17681770920134
0.17335113083039
0.1699938912188
0.1667316955899
0.16356606580169
0.16049907502732
0.15753605045391
0.15467576301751
0.15191182024585
0.14923498959291
0.14663764544728
0.14411347821732
0.14165545487292
0.13925973256833
0.13692557843412
0.13516498199514
155.86020197509
3191.5259191721
2141.2752159183
1335.7093027824
774.4106991364
335.32086590465
50.195388313987
27.40459600588
26.806408561727
27.4240663581
28.5552008637
29.941952817086
31.386169364464
32.584004703962
33.207855556205
33.046204625128
32.037203209145
27.749708278319
25.500429456798
22.843927378611
20.121970899322
17.622614621926
15.535180281985
13.924502531911
12.760773804626
11.975512566381
11.489959515808
11.233152935834
11.139379754864
11.140535251686
11.1961864169
11.275669531701
11.331690850304
11.337052231696
11.30045155637
11.204345690722
11.057775973355
10.784163013458
10.530168358662
10.252959255511
9.9627890603362
9.6604322978607
9.3526593515313
9.0427868373383
8.7436866506693
8.4423778933783
8.1476818356209
7.8757299174228
7.6206366195741
7.3731411207568
7.1379469737072
6.9037595087776
6.6834414223837
6.4663617910078
6.2568590445963
6.0608569104151
5.8681739627667
5.6862411236399
5.5122744487197
5.3427530150938
5.1840688783277
5.0390286607158
4.8952264633394
4.7685761921956
4.6467475509558
4.56312094856
4.4784481418291
4.4021043486108
4.3426930012359
4.2774381293577
4.238324523647
4.2303514401977
4.6285001361429
11.500352100308
7.6678209574465
5.8855518449801
4.65486790613
3.8015901933783
3.1954651849648
2.7385762825444
2.4056577965075
2.14275060357
1.9545165958597
1.8057761808229
1.6494894044505
1.4890538049354
1.3361130729098
1.1979353160679
1.0751434670574
0.96593489518389
0.86886618810566
0.78374563409212
0.70962278243083
0.64539097508871
0.58978100475021
0.54166380027836
0.49970779579961
0.46307108353158
0.43095516640673
0.40267082749272
0.37760986492863
0.35541285435512
0.33571439658415
0.31815944212695
0.30243771854175
0.28837492424801
0.27573802410947
0.26435068321714
0.25403822476807
0.24467530265651
0.23612387330234
0.2283047178393
0.2211431779835
0.21456542602379
0.20849529465918
0.20286943620261
0.19764118143605
0.19274964754908
0.18816369679166
0.18384447340611
0.17978445421632
0.1759562412974
0.17234159036299
0.16892107451313
0.16566939258798
0.16256891802461
0.15958994699545
0.15671738506558
0.15393954349904
0.15125685733258
0.14867043096368
0.14617833143192
0.14377179789096
0.14144011418337
0.13917462332248
0.13696670253678
0.13480785080008
0.13269637871208
0.13063240466352
0.12906732380092
143.72079113663
3190.3727491963
2147.7640307312
1341.8246372758
781.09720338297
344.09416607124
59.292814054078
35.401067832162
36.000968463906
37.412927340132
39.167427530956
41.163833124788
43.245885577414
45.059587762713
46.18617888045
46.322536819089
45.293443758716
40.070051790546
36.880421271408
32.91067712449
28.568562295611
24.323611973501
20.594605128133
17.61837197472
15.422118829746
13.902767855915
12.909183807222
12.298543311999
11.949145689957
11.762938154299
11.675846548748
11.624684521152
11.563525335
11.468142663639
11.325617486638
11.136817010583
10.90448403676
10.545660698889
10.233421097736
9.9096070043632
9.5940436757837
9.2757724219104
8.9539167458666
8.6290191809153
8.3464535710645
8.0559752564936
7.7621335718347
7.4881697407121
7.2333194804951
6.9895645415599
6.763852321746
6.544864260404
6.3411447274639
6.139203517844
5.9444125947912
5.7594009205436
5.5797464177587
5.4080800995897
5.2419007767706
5.0816505929323
4.9270405076085
4.7875945860736
4.6491842192265
4.5243838473273
4.4006699518501
4.3174632053966
4.2349423481793
4.154686459293
4.0924710235582
4.0226913486667
3.9867485998999
3.959441936063
4.4452316370537
6.4008168150925
6.8783599668826
5.1905802159781
4.4639105965962
3.829757635621
3.3034617379611
2.8886131736258
2.556237138169
2.2309218643726
1.963432910931
1.7523513754402
1.5839499440661
1.4550691489246
1.3286822468628
1.2001425909423
1.0804208771226
0.97238291561986
0.87679192391607
0.7924822704738
0.71800228448247
0.65264572015127
0.59564092132927
0.54600126742905
0.502902085717
0.4652099026644
0.43201454655254
0.40282884497838
0.37700230195308
0.35405824859718
0.33354448461979
0.31525996296848
0.29887664856585
0.28412861902901
0.27083045127076
0.25884509126313
0.24799340325694
0.23812520066383
0.22913302762467
0.22093536766441
0.2134343117303
0.2065548376142
0.2002321374712
0.19440839960355
0.18902346285964
0.18402283800731
0.17936767132149
0.17501798418417
0.17095208008136
0.16714052476311
0.16357056871468
0.16021689607853
0.15705719027774
0.15406801636308
0.15122290985215
0.14850601773434
0.1458989383629
0.14339561796402
0.14099293924579
0.13868950101411
0.13648066922335
0.13435574510781
0.13230291706493
0.13031082466775
0.12837216081722
0.12648224812418
0.1246395564378
0.12264791690833
10.403668896878
3205.7104667382
2413.0677264033
1521.4461724974
913.53756801763
454.81701414417
110.21973686615
45.415764479418
46.031403937209
47.838040481635
49.909942725045
52.306693794663
54.947376426568
57.498675538977
59.442724887736
60.340590243943
59.928150226363
54.200350293392
50.486144225941
45.553775932968
39.802508435155
33.767212361446
28.051265192782
23.186888762745
19.429171521666
16.751181125099
14.95478740239
13.799756692639
13.07763928303
12.624721186831
12.339273408058
12.12732971041
11.917545731504
11.679184089143
11.400906616743
11.102358112291
10.740493896349
10.151495317845
9.756594606379
9.3609012630783
9.016141633539
8.6835252412094
8.3505963554844
8.0148607622671
7.747513370654
7.4714402203778
7.1906295556208
6.9278702563913
6.67883293962
6.4422532414347
6.2266551790056
6.0251056332594
5.8443939388666
5.669577762435
5.4963635804735
5.322694143623
5.1524894863347
4.9894244407685
4.8321471640826
4.6809038794939
4.5327733430568
4.395717575205
4.2654689229857
4.1463483777216
4.0282318642077
3.9397178782894
3.857536977193
3.7778185580419
3.7184769538407
3.6552373686488
3.6154624148786
3.5310541595289
4.0576284717559
4.1876226722187
3.4456630255826
3.1938939706055
2.9654231160379
2.8337864325329
2.6817456203201
2.5078740562525
2.336474678675
2.1634468134523
1.9877765795959
1.7887862869731
1.5532652152008
1.3747250693664
1.2288716660324
1.112837284515
1.015484381284
0.92014066457889
0.83253825214246
0.75420290849343
0.68534055993047
0.62512703494016
0.57222945119281
0.52556568577984
0.48440597637049
0.44814786842878
0.41620473035487
0.38793765206426
0.36277863210601
0.34046284232925
0.32056203205177
0.30273483336636
0.28663152476399
0.27208443966861
0.25891405169834
0.24694518809902
0.23601094254466
0.22602629874445
0.21689854857532
0.20854134464818
0.20086255485782
0.19379436287672
0.18728225712804
0.1812691555319
0.17570519333517
0.17054568579236
0.16575598237528
0.16129942999971
0.15714510471496
0.15326971058987
0.14965383141617
0.1462748206584
0.14311022942206
0.14013658659509
0.13733476988069
0.13468491342207
0.13217253362858
0.1297864219645
0.12751884362658
0.12536445659071
0.12331585721492
0.12136378864526
0.11949798173402
0.11770841523158
0.11598490355662
0.11431977104339
0.1127091867945
0.11140806427954
100.82487367515
3188.2153425606
2174.0317912055
1366.4802160591
807.77947027118
378.58633669667
99.468397116811
67.093394714595
68.451438168744
70.315701316309
72.650374412563
75.679970700778
79.256965019827
82.839886594094
85.742891413798
87.374770892214
87.325396385935
82.398646854368
78.375599198967
72.483268413625
65.0693060656
56.610555384655
47.695763988333
39.076241365492
31.476065442892
25.390963255893
20.950042869045
17.910832456767
15.906907402829
14.578170935977
13.659556679228
12.964534866113
12.368881597322
11.831526064254
11.29226061948
10.737707569642
10.127999272351
9.1994706266365
8.7335909144637
8.3300810639056
8.0062678493781
7.7095444009019
7.4178911019227
7.1295792275338
6.8746698637478
6.6391858268394
6.3936827645377
6.1549317016592
5.9228239473801
5.7060980248861
5.5070525710255
5.3202771477259
5.14471347144
4.9817533248282
4.8217300067454
4.6682608313077
4.5197300926885
4.377545895186
4.2419678881291
4.1056624327736
3.98209460756
3.8580107361722
3.7482674280271
3.6475687857584
3.5543811335926
3.4770379985904
3.414290556858
3.3502944792194
3.3075494139531
3.2641693937979
3.2382747545506
3.1306229773645
3.5724967280965
3.6859688120811
2.0496348616675
2.1098923242367
2.0439742720278
2.0215973705414
2.0103945729439
1.9982031575609
1.9609018322471
1.9114967660226
1.8326082131885
1.7385561613594
1.6173204464217
1.4400204302897
1.2468112015188
1.1027549313318
0.98651935435466
0.89121740741035
0.81406082345743
0.74141515783578
0.67536695115865
0.61637490049382
0.56420941028079
0.51842612412956
0.47830454755526
0.44292573390129
0.41150407767299
0.38345108113167
0.35839164394789
0.33603728819572
0.31602324534658
0.29807077437215
0.28193474238452
0.26735776556932
0.25416433254411
0.24212381047546
0.23112329255307
0.2210498019927
0.21180514527085
0.20330175567935
0.19545950271105
0.1882288601753
0.1815334422753
0.17532362619386
0.16955047104647
0.16419003459514
0.15919891909662
0.15454581478996
0.15019997508341
0.146140505219
0.14234983391437
0.13880186904331
0.13547431194259
0.13234731974907
0.12940674858307
0.12663570189443
0.12401921988143
0.12154480929914
0.1192028494594
0.11698603927936
0.11488515320949
0.11289162002689
0.11099718968355
0.10919256170928
0.10746881652212
0.10581658307656
0.10423161155987
0.10283616819357
72.026368708146
3189.9770769752
2198.4350519769
1388.578027184
831.36066887097
408.57081425087
132.74059181803
89.921657855598
89.523321400049
90.498100167449
92.380073507725
95.522261332397
99.722055085351
104.28886492027
108.32116296784
111.0137508514
111.73495602504
107.54587666345
103.4290655808
96.931768467956
88.401483985055
78.318036020196
67.292033111052
56.064404454341
45.526218218428
36.347366361689
28.963226179104
23.440515976457
19.521221931764
16.794748627886
14.872698695587
13.461313759512
12.386446973951
11.444995980321
10.546017794964
9.7177031232876
8.9269561594968
7.9011773836822
7.4992649150007
7.1848258957842
6.9275768193976
6.6733176107107
6.4123545075737
6.1433101479812
5.8564426882236
5.6435936669515
5.4189682163792
5.1975637831037
4.9968308434322
4.8218771083992
4.661303011403
4.5168775170443
4.3744235428843
4.2494195621987
4.1289937293348
4.023528280379
3.9194121592309
3.8234182428821
3.7274377377258
3.6373960153584
3.5540369410546
3.4710204283655
3.4007459077456
3.3367734175906
3.276113824526
3.2342022211067
3.1990954667426
3.1708362902932
3.1565347115
3.1554406878168
3.1605347605505
3.4989224459577
3.5069028678785
3.4266415498111
1.563257301551
1.4874309347668
1.4953618699575
1.5053423564277
1.5287769391463
1.5550329961747
1.5759493291371
1.5828182511963
1.5849457117632
1.5588387635123
1.5045563714468
1.4332006525878
1.312598125025
1.1454959080307
1.0005440492421
0.89027786305051
0.80105012444014
0.72689375025077
0.66625453764698
0.61032417645549
0.55971112326898
0.51450757271084
0.47448504846419
0.4392011964623
0.40802960553764
0.38036789003903
0.35568251791407
0.33354364742732
0.31362475092895
0.29566171511859
0.27942252233955
0.26469576083743
0.25134095239604
0.23922177979188
0.22817621031142
0.21806956221056
0.20876382045129
0.20020522923184
0.19232757553958
0.18503814596071
0.1782744354033
0.17196754626707
0.16610255166543
0.16063606281644
0.1555337533875
0.15076071409853
0.14629095449038
0.14211340652018
0.13819982587719
0.13452804755662
0.13107083389896
0.12781414976985
0.12474480140321
0.1218480997048
0.1191126908234
0.11652557308817
0.1140775607596
0.11176018378835
0.1095630317524
0.10747829390746
0.10549744795358
0.10361289620088
0.10181767073245
0.10010312455568
0.098464432428725
0.096871266558665
47.588388867558
3185.3713380267
2228.4695999955
1415.321327653
860.11139440676
444.65652763493
169.29316070113
112.18187845311
108.57987644362
108.02077961114
108.90915655563
111.79149344725
116.42367243652
121.9275957224
127.12615291999
130.94446270012
132.49626696086
129.0981142025
124.93266436433
117.90270706923
108.35424081881
96.800407946502
83.927125180585
70.516685802299
57.558934418197
45.898940772408
36.10673742929
28.399885458868
22.643638692673
18.476799201796
15.528381379191
13.441239265378
11.775109406345
10.382533317026
9.2139238451605
8.2772144035703
7.5446386388752
6.6995990529298
6.3673823233384
6.0987938914753
5.8367143617827
5.5674008706466
5.2904834534504
5.034427529582
4.7787813037625
4.5663327738271
4.3991579760869
4.2601854460658
4.1332747280572
4.0416362985009
3.95963654937
3.8928526331534
3.8347824592083
3.7884399317997
3.740871425345
3.6952855660879
3.6481546429582
3.6000986282808
3.5504551972453
3.5035869948363
3.4662900251445
3.4295594167144
3.3999975422321
3.3984987513887
3.4048883899661
3.4252739898152
3.4613237598472
3.5163412290799
3.5907905410496
3.6817230627775
3.7940748892773
4.7333566578065
4.5813918366279
3.5262573154724
1.3707335643772
1.1522381397804
1.1484911120306
1.1704691515698
1.1999467835617
1.2366698632754
1.2730549086631
1.3049816301029
1.3283422239619
1.3477540947676
1.3455040261765
1.3096191539613
1.2656636569657
1.1802917903315
1.057757622442
0.91661147981787
0.81108152910615
0.72814474981165
0.66048158333234
0.6035023108399
0.55566241769106
0.5121878716456
0.47294752815838
0.43780745836297
0.40651860695929
0.37870571324666
0.35397465180001
0.33189467995318
0.31207942918629
0.2942154005811
0.27803665802135
0.26333261553216
0.24993674216234
0.23770839470555
0.22652653072716
0.21629686338028
0.20691359533327
0.19829133582978
0.19035539916038
0.18300242790213
0.17617786582424
0.16983965908858
0.16393507997756
0.15842937026115
0.1532723501511
0.14844101295607
0.14391833872352
0.13967607234326
0.13569552618469
0.13194495147714
0.12840969751972
0.12507112999634
0.12191434488572
0.11892944325187
0.11610372102198
0.11343040166238
0.11089967965488
0.10849863600386
0.10621846122609
0.10404973390244
0.10198683079611
0.10002310526199
0.098150038274737
0.096362456567571
0.094654186543046
0.092913893619946
31.016449999747
3173.0000843178
2263.3017971984
1446.7796983053
894.66450085185
487.51160954248
209.99242206685
133.84423631918
125.41871789651
122.85356300001
122.31331921542
124.58799983194
129.50122201164
135.94505214154
142.39341639229
147.43178571099
149.90992878648
147.33966368935
143.1683897066
135.66647247189
125.14539879195
112.17114646876
97.508710427212
82.020701108296
66.750407750235
52.782472877851
40.846604602318
31.279867927633
24.033114477024
18.863385523108
15.099118133771
12.332784213573
10.246211804549
8.6426050030442
7.5229221113908
6.7806287042665
6.2427358401762
5.5300465331165
5.1807950794404
4.8844221951722
4.6303174088733
4.4008396265639
4.2120804067968
4.0612754412506
3.9397717750919
3.8252149057568
3.771761512708
3.7514185615791
3.728443739166
3.7275277885549
3.7248372332363
3.7280471422383
3.7392424546101
3.7611527354565
3.7905366983207
3.8293546129634
3.8742348661599
3.9262871405165
3.9867925524462
4.0569157847347
4.1388601801508
4.2357431759241
4.3513571221227
4.4898175448116
4.653409801176
4.8466884074094
5.0727877457678
5.3404104378912
5.6477655519323
5.9977694241342
6.4176172602744
8.7548822883742
7.828752359395
4.167774119348
1.2383454236582
0.98781019468598
0.92528259756462
0.94237307473498
0.9717802963816
1.0089276961287
1.0466572317827
1.0845346860264
1.1162085134891
1.1514215320824
1.1766596038893
1.1780914404986
1.1507538556786
1.123220263553
1.0611232567094
0.96558897859245
0.84523338757958
0.74474263070085
0.66744630640198
0.60511590396891
0.55350018672323
0.50962310681888
0.47168749730943
0.43744343119951
0.40648520669056
0.37864364505059
0.35370473396137
0.33139665596823
0.3113979486778
0.29341068363739
0.27720926020112
0.26254516318929
0.24917652586883
0.23693919610564
0.22573091574484
0.21544855500116
0.20597980019251
0.1972481677856
0.18920159760864