/*--------------------------------*- C++ -*----------------------------------*\
| =========                 |                                                 |
| \\      /  F ield         | OpenFOAM: The Open Source CFD Toolbox           |
|  \\    /   O peration     | Version:  2312                                  |
|   \\  /    A nd           | Website:  www.openfoam.com                      |
|    \\/     M anipulation  |                                                 |
\*---------------------------------------------------------------------------*/
FoamFile
{
    version     2.0;
    format      ascii;
    arch        "LSB;label=32;scalar=64";
    class       volScalarField;
    location    "6e-05";
    object      nut;
}
// * * * * * * * * * * * * * * * * * * * * * * * * * * * * * * * * * * * * * //

dimensions      [0 2 -1 0 0 0 0];

internalField   nonuniform List<scalar> 
109340
(
0.0007207710387841
0.000494722193153
0.00026706756843785
0.00022323309964006
0.00021629543135172
0.00022076536434651
0.0002290842805152
0.0002429563108765
0.0002118023539902
0.00018841908605492
0.00016990858257389
0.00015480797057142
0.00014222624857436
0.00013157081483702
0.00012242627408144
0.00011449068637739
0.00010753845794542
0.00010139728789662
9.5933145784595e-05
9.1040121605137e-05
8.6633365703754e-05
8.2644053189567e-05
7.9015725132247e-05
7.5701590612462e-05
7.2662513488873e-05
6.9865486095778e-05
6.7282452723633e-05
6.4889388706018e-05
6.2665561129714e-05
6.059291425171e-05
5.8655528847101e-05
5.6839087135936e-05
5.5130183188828e-05
5.3515035475344e-05
5.1975940803212e-05
5.0482529646643e-05
0.00071239377296159
0.00034577488886729
0.00025340385042393
0.0002318532989895
0.00023034766916643
0.00023501074135054
0.00021006468324775
0.00018274970066369
0.00016152885793709
0.00014472876663344
0.00013112727004018
0.00011989747477178
0.00011047182090077
0.00010244981308638
9.5541116231312e-05
8.9530174573829e-05
8.425361447001e-05
7.9585358287902e-05
7.5426554210455e-05
7.1698556903327e-05
6.8337915782914e-05
6.5292800459362e-05
6.2520435104537e-05
5.9985234868567e-05
5.7657388286888e-05
5.5511759041141e-05
5.3527027438902e-05
5.1684993790728e-05
4.9969998035641e-05
4.8368440934063e-05
4.6868362214736e-05
4.5459029127271e-05
4.4130497644424e-05
4.2873069884352e-05
4.1676369363005e-05
4.0523827406119e-05
0.00041848936401034
0.00029512670515869
0.00025445831755444
0.00023860393297857
0.00019090992063941
0.00015916769717441
0.00013615479645333
0.00011881223444186
0.00010533466808912
9.4604638297137e-05
8.588563325713e-05
7.8674415990387e-05
7.261862552076e-05
6.7465766336159e-05
6.3030887685407e-05
5.9175761439839e-05
5.579517016464e-05
5.2807672834002e-05
5.014908229149e-05
4.7767684492477e-05
4.5621159043136e-05
4.3674736717861e-05
4.1899933081777e-05
4.0273436782456e-05
3.877600484697e-05
3.7391711758165e-05
3.6107335693098e-05
3.4911669976601e-05
3.3795241339601e-05
3.2749886685004e-05
3.1768471746061e-05
3.0844674923509e-05
2.9972725546887e-05
2.9147815348544e-05
2.8368080126214e-05
2.7634786567854e-05
0.0002405486124436
0.00024292568017777
0.00015248445676933
0.00011101992470014
8.7342642617155e-05
7.2053942558735e-05
6.1398701192629e-05
5.3565510559957e-05
4.7576530934965e-05
4.2857903495264e-05
3.9050841486229e-05
3.5919286070555e-05
3.3301593096448e-05
3.1083512448166e-05
2.9182227821053e-05
2.7536349095586e-05
2.6099368358072e-05
2.483493643743e-05
2.3710650205565e-05
2.2698593530866e-05
2.1777848219713e-05
2.0933531626934e-05
2.0154899923393e-05
1.9434036095636e-05
1.8764875830335e-05
1.8142552112278e-05
1.7562655955377e-05
1.7021926908015e-05
1.651756772895e-05
1.6047071074646e-05
1.560795264264e-05
1.5196793214445e-05
1.4808197278947e-05
1.4437460656658e-05
1.4085871782155e-05
1.3765931801914e-05
0.00014490430733343
4.7364862290757e-05
2.8805238700894e-05
2.0892365959211e-05
1.6532365268468e-05
1.3795610787909e-05
1.1934198632355e-05
1.059689323373e-05
9.5969361550574e-06
8.8267797466732e-06
8.2205724092286e-06
7.7365545016591e-06
7.3470809601262e-06
7.0335428765903e-06
6.7832841985288e-06
6.5874538014716e-06
6.4383875664054e-06
6.3239573161902e-06
6.2220283121831e-06
6.1205154115628e-06
6.0177207926836e-06
5.9170276456842e-06
5.8222934867221e-06
5.7362218142762e-06
5.6603543768892e-06
5.5954740800878e-06
5.5418405617072e-06
5.4993557228547e-06
5.4684902184701e-06
5.4489406402897e-06
5.4397352102166e-06
5.4400737685535e-06
5.4490429877818e-06
5.4651750888247e-06
5.4841693644151e-06
5.4980101315086e-06
3.6462132843334e-07
5.4416981481537e-07
7.0014180274022e-07
8.2186325720694e-07
9.0889217192831e-07
9.663047268561e-07
1.0008384755208e-06
1.0188050169275e-06
1.0252350701037e-06
1.0242902556426e-06
1.018388965777e-06
1.0094345695667e-06
9.9873693417765e-07
9.8718105382273e-07
9.7536123056063e-07
9.6370166435739e-07
9.5247852796404e-07
9.4187714850981e-07
9.3208990130616e-07
9.2334682232272e-07
9.1544484863069e-07
9.0825667180844e-07
9.0171806338619e-07
8.957919923966e-07
8.9044736814354e-07
8.8565272465899e-07
8.8137389154206e-07
8.7757289590282e-07
8.742042945003e-07
8.7120987925181e-07
8.6851146800329e-07
8.6597678864787e-07
8.6338862023136e-07
8.6022649159684e-07
8.5456890511797e-07
8.3683591072996e-07
4.5795195255489e-05
2.549398910354e-05
1.4382628158378e-05
9.4656046999266e-06
6.8896540299138e-06
5.1733228338719e-06
3.9827063363977e-06
3.0995004448911e-06
2.4984778184917e-06
2.225422715894e-06
2.2744421919353e-06
2.8537442792392e-06
3.3389897471035e-06
3.8755914676177e-06
4.325846670856e-06
4.6693294135122e-06
4.9763103186269e-06
5.2295826425155e-06
5.4553282501914e-06
5.6898028483157e-06
5.8950380888001e-06
6.0707487767132e-06
6.1066472101096e-06
5.8534857902134e-06
5.6206777980613e-06
5.4065856696341e-06
5.2181121961743e-06
5.0337126022007e-06
4.869850017406e-06
4.7192765806084e-06
4.5733843048412e-06
4.4486886174335e-06
4.3209277384635e-06
4.2137014482752e-06
4.1018132216383e-06
4.0080045948812e-06
3.9092995357078e-06
3.8262899670057e-06
3.7387557345562e-06
3.6649290728334e-06
3.5875628268655e-06
3.5207264878646e-06
3.4530265510956e-06
3.3907696514934e-06
3.3318727343794e-06
3.2729820887302e-06
3.2204572525353e-06
3.1662328065967e-06
3.1183041585781e-06
3.070264188009e-06
3.024631712526e-06
2.9809427370829e-06
2.9389994726664e-06
2.8987117773362e-06
2.8598777340977e-06
2.8224228365722e-06
2.7862641961243e-06
2.7513783273577e-06
2.717710346161e-06
2.6851896209902e-06
2.6537157310853e-06
2.623195787989e-06
2.5935581575115e-06
2.5647598161123e-06
2.5367811283646e-06
2.5095851933946e-06
2.4790647893965e-06
3.3456230116171e-05
0.00043361195038596
0.00041768078805763
0.00035548128772124
0.00028137337850677
0.0001762274092739
5.1453908286996e-05
3.5719137826387e-05
3.0739690918179e-05
2.8016198824027e-05
2.6749029664969e-05
2.6425289680069e-05
2.6707873918009e-05
2.7310425908355e-05
2.800150947153e-05
2.8667941917374e-05
2.9252540626904e-05
3.0051710795257e-05
2.9969330110736e-05
2.9668190455606e-05
2.9309969958937e-05
2.8921417331818e-05
2.8564699732737e-05
2.8292285375498e-05
2.8138506862987e-05
2.8111665898912e-05
2.8202852199468e-05
2.8423358465671e-05
2.8732783140399e-05
2.9091586196895e-05
2.9466557126559e-05
2.9820963008959e-05
3.0130156299139e-05
3.0358708037339e-05
3.0497882919283e-05
3.05256740186e-05
3.0480087588112e-05
3.0260729054579e-05
2.9979237260378e-05
2.9632526534657e-05
2.9219074436627e-05
2.8756242341954e-05
2.8230866283875e-05
2.7696340091025e-05
2.7135618092941e-05
2.6557941941474e-05
2.5991918986593e-05
2.5443338495367e-05
2.4924536830978e-05
2.4382607771219e-05
2.3855545846129e-05
2.335368715902e-05
2.2853785773146e-05
2.2365731082837e-05
2.1860237810789e-05
2.139186851027e-05
2.0907639876487e-05
2.0474691316525e-05
2.003172782841e-05
1.9640603732345e-05
1.9246336184587e-05
1.8887028715377e-05
1.8553488043194e-05
1.826084005825e-05
1.7954839463462e-05
1.7711711105352e-05
1.7543299000058e-05
1.7381185663649e-05
1.7220779948487e-05
1.7017370680556e-05
1.712925554882e-05
1.6977655744256e-05
1.6994979070995e-05
3.545588068693e-05
2.0009603562854e-05
1.2473100707924e-05
8.8000529518939e-06
6.5071548533528e-06
4.9684422341337e-06
3.8456484430527e-06
3.0208110983932e-06
2.4234364784607e-06
2.0203242696243e-06
1.7815924071266e-06
1.7265928672595e-06
1.8027127649075e-06
1.9386855186458e-06
2.1493702282464e-06
2.4208828951501e-06
2.7456267281527e-06
3.1242069120655e-06
3.5203484804989e-06
3.9261345918974e-06
4.3398452649038e-06
4.7590366066717e-06
5.1730764456885e-06
5.5846502750103e-06
5.4702943165675e-06
5.2628021065255e-06
5.0740301075612e-06
4.90207828356e-06
4.7432255918703e-06
4.597790670459e-06
4.4630414742343e-06
4.3386614456427e-06
4.2229705122581e-06
4.1150745959337e-06
4.014480050827e-06
3.9199539059826e-06
3.8312642005638e-06
3.7476731686834e-06
3.6691331135136e-06
3.5950354010315e-06
3.5249028303619e-06
3.4585839731098e-06
3.3953653515964e-06
3.3356091961994e-06
3.2783459368959e-06
3.2241019661253e-06
3.171971805619e-06
3.1224603312811e-06
3.0749475057119e-06
3.0295938064489e-06
2.9860519989579e-06
2.9442180003067e-06
2.9040277870302e-06
2.865286921343e-06
2.8279468334827e-06
2.7918849351036e-06
2.7570813903379e-06
2.7234814596418e-06
2.6910252904721e-06
2.6596205518864e-06
2.6291827472197e-06
2.5996471818402e-06
2.5709582602986e-06
2.54305683786e-06
2.5158962576741e-06
2.4894614399029e-06
2.4746261550788e-06
9.6472331712983e-05
0.00044627704509096
0.00040281480468308
0.00033886439485905
0.00025923773351639
0.00014430270110314
4.0943704358043e-05
3.5126999908916e-05
3.1241437721852e-05
2.9322882636858e-05
2.8595159619204e-05
2.860075253681e-05
2.9047565130554e-05
2.9655714097766e-05
3.0216052347359e-05
3.0666580890932e-05
3.1012497081405e-05
3.0526136836377e-05
3.0349682471227e-05
2.9922245860101e-05
2.9433622875507e-05
2.8931215509909e-05
2.8474221161425e-05
2.8108440992596e-05
2.7862392693915e-05
2.7761569966804e-05
2.7782871078107e-05
2.7934447873367e-05
2.818517076007e-05
2.8487491666771e-05
2.8806067728009e-05
2.9100737039825e-05
2.9347641456159e-05
2.9517977955708e-05
2.9609642789477e-05
2.9592954178197e-05
2.9530024283391e-05
2.9297245875944e-05
2.9012149538793e-05
2.865905552198e-05
2.8263725049767e-05
2.7802609729649e-05
2.7313652018084e-05
2.6799867337716e-05
2.6271769219877e-05
2.5736267552685e-05
2.5244546791851e-05
2.4759981520674e-05
2.4258283317053e-05
2.3741666133408e-05
2.3261565603882e-05
2.2783474534798e-05
2.2311934724493e-05
2.1841136725517e-05
2.1359835257e-05
2.091596428687e-05
2.0461365086486e-05
2.0047456636483e-05
1.9630555021908e-05
1.9252280616004e-05
1.8880307150979e-05
1.8517755344838e-05
1.8210005376332e-05
1.7903874786542e-05
1.7623671657392e-05
1.7383436074358e-05
1.7199772158404e-05
1.7025868148014e-05
1.6857744612715e-05
1.6643674596952e-05
1.6745992780867e-05
1.7005275891877e-05
1.710969975428e-05
2.6025509681811e-05
1.3594536949008e-05
8.785870375668e-06
6.4856923277719e-06
4.8730028000569e-06
3.8070589859717e-06
3.0367116477624e-06
2.4971141658754e-06
2.1261575212961e-06
1.8816485573142e-06
1.792671501989e-06
1.7709655122918e-06
1.8266286480024e-06
1.9476536931278e-06
2.1115614618792e-06
2.3082374242772e-06
2.5407930492463e-06
2.7949722876732e-06
3.0438202270129e-06
3.2981656700991e-06
3.5725691139174e-06
3.8547476043656e-06
4.1457433883954e-06
4.4574611387512e-06
4.787530808291e-06
5.1218854444155e-06
4.9959159028659e-06
4.8230125196431e-06
4.6649233977367e-06
4.519546031493e-06
4.3862740804758e-06
4.2629003327107e-06
4.149306192559e-06
4.0437494147773e-06
3.9458702269305e-06
3.8544849087473e-06
3.7687035814025e-06
3.6878549270405e-06
3.6120859097908e-06
3.5404279124841e-06
3.4729515797811e-06
3.4086869438608e-06
3.3479695373836e-06
3.2900221939871e-06
3.235012785733e-06
3.1824028285893e-06
3.1322022926717e-06
3.0843160366527e-06
3.0384268031309e-06
2.9946377567296e-06
2.952541182117e-06
2.912207437234e-06
2.8733088260275e-06
2.8358049913646e-06
2.7996022680515e-06
2.7646425592989e-06
2.7309035933585e-06
2.6983210008354e-06
2.6668309375572e-06
2.6363428311447e-06
2.6067820192016e-06
2.5780878530487e-06
2.5502055079526e-06
2.5230748284528e-06
2.496649140934e-06
2.4709154310121e-06
2.4562735431394e-06
9.5321517486902e-05
0.00044630287774848
0.00040303699506994
0.0003392104215158
0.00025997059878731
0.00014588871322777
4.2466625648027e-05
3.7712008855338e-05
3.4673192747363e-05
3.3469943205045e-05
3.3290892300206e-05
3.3682869344708e-05
3.4337440562627e-05
3.4972246904669e-05
3.5361021663124e-05
3.5434526336387e-05
3.531678000941e-05
3.3769792800786e-05
3.3155957355846e-05
3.2230489997858e-05
3.123698111086e-05
3.02871050483e-05
2.9472842895145e-05
2.8846224971291e-05
2.8413985431084e-05
2.8160469029597e-05
2.8075545892149e-05
2.8102930959295e-05
2.8248747839418e-05
2.8464885960523e-05
2.8704555024158e-05
2.8915676673474e-05
2.9073189021747e-05
2.9159028230801e-05
2.9165645726349e-05
2.9073331930758e-05
2.8966171432362e-05
2.8669881395042e-05
2.8339810803323e-05
2.7945400456959e-05
2.7500621972049e-05
2.7020283187901e-05
2.6519620473247e-05
2.599658129867e-05
2.5461316854756e-05
2.4907464021429e-05
2.4426404153218e-05
2.3938136142095e-05
2.3446633186361e-05
2.2947149901049e-05
2.2480546299356e-05
2.2006637081231e-05
2.155029320191e-05
2.1088448030865e-05
2.0632754862427e-05
2.0204759692402e-05
1.9774081357045e-05
1.9375104107254e-05
1.897619326223e-05
1.8607024363062e-05
1.8252718995696e-05
1.78998320053e-05
1.760202722655e-05
1.7303042163571e-05
1.7036567226943e-05
1.681297935759e-05
1.6609930061958e-05
1.6437718881396e-05
1.6275983157612e-05
1.6059328871936e-05
1.6038423013884e-05
1.6240590675015e-05
1.6670034149598e-05
1.3580861696161e-05
7.8399049742507e-06
5.3099677207763e-06
3.9410674860422e-06
3.1309653633519e-06
2.6306430837994e-06
2.3110270647469e-06
2.1143553376154e-06
1.9930636966195e-06
1.9707426625685e-06
1.9503416976352e-06
1.9607883833106e-06
2.0078062242736e-06
2.090376365399e-06
2.2120368774069e-06
2.3780596595855e-06
2.5691675696842e-06
2.782240759008e-06
2.9992719200065e-06
3.2066653178721e-06
3.3979473990477e-06
3.6045160518301e-06
3.8238747781887e-06
4.0463945942502e-06
4.2778506791549e-06
4.53556095106e-06
4.8004851217377e-06
4.7567204329983e-06
4.5995199647247e-06
4.4548392473534e-06
4.3216219190385e-06
4.1986657076038e-06
4.0847874483254e-06
3.9793585916517e-06
3.8812545587175e-06
3.789864803338e-06
3.7041723157416e-06
3.6241137272894e-06
3.5491837314307e-06
3.4788045802633e-06
3.4125694195479e-06
3.3501648477693e-06
3.2912249761246e-06
3.2354865306715e-06
3.1825868636337e-06
3.131959223182e-06
3.0837446939177e-06
3.0375762914004e-06
2.9935241942652e-06
2.9513114633104e-06
2.9108609829914e-06
2.8720503336061e-06
2.8346448591466e-06
2.7985558310918e-06
2.7636526538387e-06
2.7299597721128e-06
2.6974354914174e-06
2.6660279452115e-06
2.6356666597301e-06
2.6062635324379e-06
2.5777407760225e-06
2.550038768705e-06
2.5231092671922e-06
2.4968916354361e-06
2.4713442402128e-06
2.4464505412007e-06
2.4319102522072e-06
9.3548072784657e-05
0.00044592675681491
0.00040331931154324
0.00033970730812664
0.00026102788901802
0.00014820608005545
4.5356656059945e-05
4.2606870639608e-05
4.1254526606527e-05
4.1451547875567e-05
4.2369223540105e-05
4.3550964872082e-05
4.4700579929196e-05
4.5517705360549e-05
4.5747101789818e-05
4.5304947228803e-05
4.4376061721947e-05
4.0785978438231e-05
3.9268322775252e-05
3.7352696968351e-05
3.5392384583785e-05
3.3580599224774e-05
3.2026522445512e-05
3.0782761587913e-05
2.9862440138472e-05
2.9254892600126e-05
2.8923255594468e-05
2.8826149600272e-05
2.8852366852025e-05
2.8974094432532e-05
2.912443870948e-05
2.9240570551653e-05
2.927688677816e-05
2.922861224212e-05
2.9084073284367e-05
2.8891002456986e-05
2.867056410237e-05
2.8241959495863e-05
2.7822124382104e-05
2.7352460789806e-05
2.6843628039082e-05
2.6310100444552e-05
2.5763847281765e-05
2.5206676993095e-05
2.4643312922052e-05
2.4062916972795e-05
2.3538510263368e-05
2.3033414997913e-05
2.254323991753e-05
2.2053352927469e-05
2.158626695649e-05
2.1113762529004e-05
2.0667066654916e-05
2.0224519164291e-05
1.9785714541425e-05
1.9377385546406e-05
1.896383086527e-05
1.8578697076587e-05
1.8201564699808e-05
1.7834628250694e-05
1.749488679072e-05
1.7159709152833e-05
1.6852985522932e-05
1.657030601863e-05
1.6299424308189e-05
1.6092363186448e-05
1.5881156199508e-05
1.5702076690758e-05
1.554436415995e-05
1.5371208178476e-05
1.5258001481683e-05
1.5208637586017e-05
1.579878886727e-05
5.4711170901229e-06
4.4198645083976e-06
3.6802416398392e-06
3.3142405050466e-06
3.0022638013185e-06
2.7466503731597e-06
2.5550321375517e-06
2.4511800163305e-06
2.3956713117642e-06
2.3004495932014e-06
2.2863866901779e-06
2.2907045020229e-06
2.3200534083056e-06
2.3785221098368e-06
2.4563891176082e-06
2.5616048927271e-06
2.7096742394989e-06
2.8734603890864e-06
3.0394489676707e-06
3.2138198435593e-06
3.3981473065718e-06
3.5690684935889e-06
3.7431329751159e-06
3.9300218295237e-06
4.1236976566767e-06
4.3167825592243e-06
4.5269647446904e-06
4.6942295640077e-06
4.5403602948569e-06
4.3980357043764e-06
4.2662229354714e-06
4.1442828833412e-06
4.0309499757815e-06
3.9257618333877e-06
3.8278901078227e-06
3.736619967946e-06
3.6510503946183e-06
3.5710495735222e-06
3.4961455198106e-06
3.4260077545009e-06
3.3599275228964e-06
3.2977161872431e-06
3.238896334168e-06
3.1833321720245e-06
3.1305728372774e-06
3.0804960274178e-06
3.0329332895559e-06
2.9876203085652e-06
2.9444878374933e-06
2.9033846342005e-06
2.8642334315101e-06
2.8267556444472e-06
2.7908594566508e-06
2.7562069992288e-06
2.7226533855234e-06
2.6902169855011e-06
2.6589158447681e-06
2.6287109528294e-06
2.5995226240635e-06
2.5712554003434e-06
2.5438225444864e-06
2.5171696454587e-06
2.4912593689018e-06
2.4660225527501e-06
2.44141774793e-06
2.4174283336125e-06
2.4029043771945e-06
9.1245118242959e-05
0.00044531129674529
0.00040364960124668
0.00034034287995187
0.00026238340924345
0.00015119404290791
4.9983688607872e-05
5.0394433029892e-05
5.1480552150837e-05
5.353694315966e-05
5.5828250587408e-05
5.8020894500648e-05
5.990684281748e-05
6.1179117949602e-05
6.1526633392072e-05
6.0802503364166e-05
5.9022691208779e-05
5.2872898678567e-05
4.9803793914304e-05
4.6246910888066e-05
4.2680807405076e-05
3.9423325953596e-05
3.6660705474454e-05
3.4453190312205e-05
3.2785025141459e-05
3.1593161971418e-05
3.0797075545116e-05
3.0316978154357e-05
3.0078492791337e-05
2.9973764416408e-05
2.9930632723395e-05
2.9906765637051e-05
2.9811374428941e-05
2.9619650810139e-05
2.9359878101825e-05
2.9009377307754e-05
2.8617719776154e-05
2.7993791978638e-05
2.7449288377558e-05
2.6878229304892e-05
2.6296301928829e-05
2.570230899421e-05
2.5102392772926e-05
2.449363116964e-05
2.3906047865636e-05
2.3308106939433e-05
2.2720136199859e-05
2.2168518789157e-05
2.1654433407675e-05
2.1151796637996e-05
2.0677693287777e-05
2.0201914461387e-05
1.9761278543805e-05
1.9326616241773e-05
1.890656385054e-05
1.8514474581627e-05
1.8124978791328e-05
1.7749837973184e-05
1.7391871634157e-05
1.7033224610842e-05
1.6696520078854e-05
1.6382984133997e-05
1.6070086416255e-05
1.5788691564525e-05
1.5516245126813e-05
1.5312494473484e-05
1.5106555129376e-05
1.4913840262436e-05
1.4751760834486e-05
1.4580020307265e-05
1.4441668417202e-05
1.4388651847217e-05
1.5112419476427e-05
2.4584148999389e-06
2.9721513188571e-06
3.6716528650017e-06
4.3542672974424e-06
5.1036580780974e-06
4.9204663577701e-06
4.2435019649378e-06
3.6544975864464e-06
3.243508447503e-06
3.0090212250102e-06
2.8614999151943e-06
2.7786313786526e-06
2.749720596e-06
2.7572864284572e-06
2.7962037693374e-06
2.8619873543078e-06
2.9467837784773e-06
3.0481098579832e-06
3.1664700938873e-06
3.2974089139993e-06
3.4394353792075e-06
3.5971524055765e-06
3.7552609790764e-06
3.9157494356148e-06
4.0888832111057e-06
4.2649793733494e-06
4.4385332368011e-06
4.6189665907744e-06
4.48299857885e-06
4.3444152712176e-06
4.2156541861244e-06
4.0956051952693e-06
3.98393176406e-06
3.8798140000542e-06
3.7826893053493e-06
3.6917998000798e-06
3.6067153300563e-06
3.5268782724266e-06
3.4520378409067e-06
3.381787285277e-06
3.3156815264679e-06
3.2533337894187e-06
3.1944735710751e-06
3.1388948776448e-06
3.0861885657641e-06
3.0361992813588e-06
2.9886821134486e-06
2.943610365894e-06
2.9007329941277e-06
2.8598891017173e-06
2.8209474343034e-06
2.7837305536349e-06
2.7481088385469e-06
2.713842758816e-06
2.6808465614082e-06
2.6490474086914e-06
2.6184360657823e-06
2.588996521445e-06
2.5606703436455e-06
2.5333264530813e-06
2.5068834285922e-06
2.4812555871399e-06
2.4563511665879e-06
2.4320615625449e-06
2.4083712753766e-06
2.385268212444e-06
2.3706650413199e-06
8.8354120762706e-05
0.00044453672718231
0.00040402744541265
0.00034110981291924
0.00026401447326686
0.00015480433018651
5.6492549270588e-05
6.1039471167206e-05
6.4793120809287e-05
6.8548008694771e-05
7.1995366512523e-05
7.5083732213557e-05
7.7721621930029e-05
7.9594198040043e-05
8.0326920578698e-05
7.969355792095e-05
7.7588622913774e-05
6.9926336632167e-05
6.5390769602653e-05
5.9919569737821e-05
5.4063427547683e-05
4.8418172784465e-05
4.355576594343e-05
3.9737173720763e-05
3.6885965649094e-05
3.4842104714381e-05
3.3450411870534e-05
3.2542408686555e-05
3.1959357485673e-05
3.155683633286e-05
3.1278814107719e-05
3.0992058419432e-05
3.0642464679592e-05
3.0231088427413e-05
2.9735248476836e-05
2.9178046056574e-05
2.8578521669464e-05
2.7732375798307e-05
2.7039924621327e-05
2.6349572801527e-05
2.5698592649645e-05
2.5055606538081e-05
2.4410126744763e-05
2.3754328929853e-05
2.3158514356651e-05
2.2543572115502e-05
2.1914847465952e-05
2.1317560345347e-05
2.0764681282204e-05
2.0234013437071e-05
1.9748241232051e-05
1.9276690953748e-05
1.8845411559535e-05
1.8419984141929e-05
1.8013715233123e-05
1.7633054922743e-05
1.7264085152364e-05
1.6904090494335e-05
1.6555040225482e-05
1.6209751625743e-05
1.587666240346e-05
1.5571205731726e-05
1.5264959778525e-05
1.4984420666276e-05
1.4705050618144e-05
1.4498095369587e-05
1.4292800627071e-05
1.408649930597e-05
1.3914459044169e-05
1.372796892418e-05
1.3606791254718e-05
1.3491457141938e-05
1.4390401666187e-05
9.822635738587e-07
1.9174689607068e-06
2.2309259497358e-06
2.8070096748705e-06
3.4142038462187e-06
4.0960707890313e-06
4.9227893429844e-06
5.7584395392894e-06
4.8688465720126e-06
4.2176652948189e-06
3.7907322709238e-06
3.527305047543e-06
3.3615869306801e-06
3.2659165788132e-06
3.2226004988132e-06
3.2172925029844e-06
3.2353516184297e-06
3.2771964561487e-06
3.3416100875261e-06
3.4224034676237e-06
3.5221942821901e-06
3.6385556032292e-06
3.7714591012164e-06
3.9185547699503e-06
4.0576649589234e-06
4.2212529144108e-06
4.3887790656052e-06
4.558246761503e-06
4.4619078288439e-06
4.3246672165721e-06
4.1971662665386e-06
4.078299860077e-06
3.9670842617024e-06
3.8629957477057e-06
3.7657640214101e-06
3.674624161686e-06
3.5889533194526e-06
3.5084471192595e-06
3.4328939812239e-06
3.3617682876075e-06
3.2946780797423e-06
3.2313639891958e-06
3.1716256668713e-06
3.1151573390219e-06
3.0616280598494e-06
3.0108509107098e-06
2.9626246837905e-06
2.9168600370345e-06
2.8733240420668e-06
2.831927928904e-06
2.7924922568107e-06
2.7548801258948e-06
2.7189322840098e-06
2.684445634891e-06
2.6513291771983e-06
2.6194698280247e-06
2.5888461233442e-06
2.5594089136738e-06
2.5310971363388e-06
2.5038356027038e-06
2.4775230863105e-06
2.4520637964919e-06
2.4273707047185e-06
2.4033957068178e-06
2.3801008460031e-06
2.3574732329853e-06
2.3328279302839e-06
2.8472746157189e-05
0.00042855108104511
0.000419146551637
0.00035830052959035
0.00028718391474667
0.00018903749621208
7.4760394559459e-05
7.1811197247155e-05
7.8482840411377e-05
8.366690865418e-05
8.8051589275628e-05
9.1933847825794e-05
9.5354914847866e-05
9.8074194627424e-05
9.9649319656495e-05
9.971666362842e-05
9.8120111080208e-05
8.9441480493349e-05
8.4042313883658e-05
7.7192759747854e-05
6.9385039100534e-05
6.1261434945739e-05
5.3603092372644e-05
4.7138388462392e-05
4.2222755662034e-05
3.8754815819491e-05
3.6401954744187e-05
3.4850240145575e-05
3.3839566704105e-05
3.3142932870397e-05
3.2613124145505e-05
3.2101355715818e-05
3.152461324362e-05
3.0825782084735e-05
3.0035356604733e-05
2.9251376142957e-05
2.8353210861366e-05
2.7017826002665e-05
2.6133152286365e-05
2.5257753759117e-05
2.4521184521397e-05
2.3818828566311e-05
2.311300043169e-05
2.239528083305e-05
2.1772645634538e-05
2.1133670503134e-05
2.0480208381101e-05
1.9862319256983e-05
1.9279407460281e-05
1.8727137199835e-05
1.8229483124314e-05
1.7769223671002e-05
1.7366546160783e-05
1.6982394679714e-05
1.6605133246115e-05
1.6229356625334e-05
1.5865806660243e-05
1.5518038418737e-05
1.5183804334179e-05
1.485329370674e-05
1.4528284829575e-05
1.4220519307948e-05
1.3927162647821e-05
1.3653966757294e-05
1.3382700093171e-05
1.3159336840026e-05
1.2954465378447e-05
1.2748926460645e-05
1.2585030822813e-05
1.2412987662308e-05
1.2292636428656e-05
1.2071815668384e-05
1.3068096214288e-05
4.9036050184925e-07
1.2637880824675e-06
1.5099224347952e-06
1.7868225598509e-06
2.1596286654931e-06
2.6535900913093e-06
3.2122977813377e-06
3.8734557012669e-06
4.6500722556829e-06
5.3548686966017e-06
5.8750088699253e-06
5.3728530210833e-06
4.8325483869352e-06
4.4580996523367e-06
4.2149535625102e-06
4.0620131884754e-06
3.9553962563883e-06
3.8941811186536e-06
3.8702238180006e-06
3.8772808431871e-06
3.909030880375e-06
3.9620294116792e-06
4.0325638037084e-06
4.1208701609722e-06
4.2309039590949e-06
4.361813442526e-06
4.4784230907349e-06
4.4652808761752e-06
4.3253409084887e-06
4.1952530184556e-06
4.0747198769262e-06
3.9627039395423e-06
3.8585398497371e-06
3.7611027360818e-06
3.6694563045109e-06
3.5828164237943e-06
3.5011090749422e-06
3.4241186322355e-06
3.3515164977389e-06
3.2827904663149e-06
3.2176632417312e-06
3.1560168402969e-06
3.0976342445518e-06
3.0422345638826e-06
2.9895419689414e-06
2.9394205043253e-06
2.8917315219945e-06
2.8463274217168e-06
2.803062796833e-06
2.7618204930182e-06
2.7224792085427e-06
2.6849270734137e-06
2.6490157387099e-06
2.6146228293693e-06
2.5816207402292e-06
2.5499401723178e-06
2.5195220739619e-06
2.4903047990126e-06
2.4622284861435e-06
2.4352159185895e-06
2.4091921060835e-06
2.3840849439228e-06
2.3598299420446e-06
2.3363448887371e-06
2.3135645054045e-06
2.2914694624467e-06
2.2751897524769e-06
7.5879227933148e-05
0.0004420411540523
0.00040552607440137
0.00034416284862169
0.00027040907961108
0.0001690173621922
8.4089504885732e-05
0.00010172117927828
0.00011101341240966
0.00011703177052567
0.00012193926814067
0.00012644992141
0.00013062803793994
0.00013408633995023
0.00013625984312561
0.0001366758735445
0.00013506919677657
0.00012754060266715
0.00012152129650869
0.00011339339288248
0.00010351074809105
9.2347430729987e-05
8.0526326887983e-05
6.8953316643604e-05
5.8596546293354e-05
5.0220114924121e-05
4.4061543032084e-05
3.9833037704212e-05
3.7081334964808e-05
3.5282388745986e-05
3.4004981203582e-05
3.2931942275473e-05
3.187879474801e-05
3.0843741048226e-05
2.9721216379838e-05
2.846579115502e-05
2.70527456636e-05
2.4889022682234e-05
2.3805187393505e-05
2.2878272476301e-05
2.2137085254232e-05
2.1460438469986e-05
2.0789715487974e-05
2.0125923639226e-05
1.9485752690564e-05
1.8893367118126e-05
1.8281225243731e-05
1.7683425887571e-05
1.7104203877215e-05
1.6571187007933e-05
1.608897400332e-05
1.5642830142144e-05
1.5228068900481e-05
1.4853531669011e-05
1.4491896362064e-05
1.4152675540108e-05
1.3830969584208e-05
1.3525871447923e-05
1.3238773806369e-05
1.2942344814076e-05
1.2680550372679e-05
1.2405801785103e-05
1.2162625461052e-05
1.1937374096563e-05
1.1727387324805e-05
1.1543332571842e-05
1.1391750728496e-05
1.1234992418827e-05
1.1124254609984e-05
1.101240707301e-05
1.0942598219528e-05
1.0714017045281e-05
1.1554931586119e-05
5.6173182134495e-07
9.6425697802522e-07
1.1519331479943e-06
1.3180240555497e-06
1.5587399454829e-06
1.8693177457252e-06
2.2659249920319e-06
2.7417079037533e-06
3.3053184684291e-06
3.968086099058e-06
4.6387149821842e-06
5.1691795931484e-06
5.5184421140651e-06
5.6094538652981e-06
5.415237022499e-06
5.0299681286805e-06
4.7809387001789e-06
4.605520202993e-06
4.4881307157093e-06
4.410819776319e-06
4.3744870028563e-06
4.3675031793491e-06
4.3863977226263e-06
4.4278798102756e-06
4.4895052071134e-06
4.5686741555203e-06
4.4923620013291e-06
4.3610679351814e-06
4.2350060578987e-06
4.1143042672926e-06
3.9993553310891e-06
3.8910437610147e-06
3.7890092404893e-06
3.6934368578932e-06
3.6034464336381e-06
3.5189800650179e-06
3.4400259361456e-06
3.3659230002628e-06
3.2959144656818e-06
3.2294271641989e-06
3.1663030620892e-06
3.1062369678546e-06
3.049110334293e-06
2.9946606146273e-06
2.9428013394068e-06
2.8932955807402e-06
2.8460579033441e-06
2.8009537841616e-06
2.7578729720641e-06
2.7167215323759e-06
2.67734523952e-06
2.639642440917e-06
2.6035124667222e-06
2.5688849231337e-06
2.5356482758833e-06
2.5037138062539e-06
2.4730125624589e-06
2.4434887314968e-06
2.4150959339229e-06
2.3877620806368e-06
2.3614277416468e-06
2.3360402941016e-06
2.3115328152235e-06
2.2878394652178e-06
2.2648823201281e-06
2.2426516694359e-06
2.2244561102527e-06
6.5329258474906e-05
0.00044104221005135
0.00040691319831685
0.00034681733030058
0.00027585908906985
0.00018094322679555
0.00010434380933642
0.00012776933448388
0.00013979479864657
0.00014578073188057
0.00015048773131806
0.0001551071066976
0.00015974331532307
0.00016392882010322
0.0001669205428231
0.00016807408066519
0.00016692982711016
0.00016021218320993
0.0001539050506911
0.00014502359976402
0.00013390131411673
0.00012096310951002
0.00010677848938329
9.2114778773807e-05
7.8052455321667e-05
6.5472925959791e-05
5.5081657039055e-05
4.7090311324428e-05
4.1323932226533e-05
3.7337011506732e-05
3.4585840655981e-05
3.2590999534941e-05
3.106472459458e-05
2.9536266605477e-05
2.7835494017993e-05
2.6106675516729e-05
2.4321723009843e-05
2.1881575498386e-05
2.088997177521e-05
2.0102620353672e-05
1.9441371713602e-05
1.8792660429065e-05
1.8133438389405e-05
1.7458655521756e-05
1.6739534391898e-05
1.6161028135724e-05
1.5572435352318e-05
1.5004796686113e-05
1.4497029760359e-05
1.406408354874e-05
1.3677794467445e-05
1.3347689478335e-05
1.3028636507009e-05
1.2765076666927e-05
1.2517274882774e-05
1.2310844768365e-05
1.2106659967648e-05
1.1922597845618e-05
1.1733154005575e-05
1.1555570037783e-05