/*--------------------------------*- C++ -*----------------------------------*\
| =========                 |                                                 |
| \\      /  F ield         | OpenFOAM: The Open Source CFD Toolbox           |
|  \\    /   O peration     | Version:  2312                                  |
|   \\  /    A nd           | Website:  www.openfoam.com                      |
|    \\/     M anipulation  |                                                 |
\*---------------------------------------------------------------------------*/
FoamFile
{
    version     2.0;
    format      ascii;
    arch        "LSB;label=32;scalar=64";
    class       volScalarField;
    location    "6e-05";
    object      omega;
}
// * * * * * * * * * * * * * * * * * * * * * * * * * * * * * * * * * * * * * //

dimensions      [0 0 -1 0 0 0 0];

internalField   nonuniform List<scalar> 
109340
(
9637.9439163363
9928.4234139965
10735.112177501
12474.799453001
15375.600185343
19323.780689816
23918.345815158
28545.266603909
32679.833474832
36645.273539671
40518.164643381
44319.521027125
48055.611258472
51727.612239039
55334.74232793
58875.503585588
62348.222874341
65751.296518104
69083.319437018
72343.131957813
75529.830693264
78642.768396065
81681.553549269
84646.036884866
87536.276638318
90352.4677214
93094.829869588
95763.457810958
98358.121085728
100877.97400186
103321.10043379
105683.70906492
107958.49145474
110130.57843955
112166.47857084
113981.76927642
9745.3129662793
10850.021616256
13710.218912193
18027.994678384
23050.882298741
28134.587834315
32994.154472413
37849.40182024
42709.940219016
47517.023871468
52253.065454985
56909.317918387
61479.558544268
65958.739991519
70342.695770268
74628.053675146
78812.206525915
82893.295588546
86870.197947177
90742.534856386
94510.726040576
98175.963618993
101740.11569983
105205.54286007
108574.88556215
111850.81674917
115035.78876861
118131.77450177
121139.95376697
124060.27946404
126890.7417956
129625.98983829
132254.05878029
134747.13115111
137034.54357304
138936.30863966
9988.8477352586
14005.824364699
21455.498528725
29082.149978314
36317.811231157
43493.632012265
50728.682365755
57957.492796866
65129.124283253
72197.543632189
79129.044718461
85900.832384618
92497.429848038
98908.364449582
105126.85624037
111149.03479954
116973.45434822
122600.95764348
128035.05345594
133282.67769521
138354.31029768
143262.5099727
148020.46185505
152640.80423478
157134.92047055
161512.55981678
165781.6303342
169947.98397284
174015.15042547
177983.87003397
181850.95381165
185606.98940465
189230.26209113
192665.59397468
195758.99282552
198089.53845794
11956.632227311
28539.544759724
45466.390893639
62377.185069005
79106.332209323
95562.964796137
111637.60015078
127245.29264057
142317.58272837
156802.35787085
170663.01459741
183878.74326035
196443.26122043
208362.36791723
219651.56300577
230334.00498908
240440.63457409
250020.82669704
259165.96046458
267999.20903618
276628.66617104
285130.91379985
293555.13184039
301930.19300386
310270.77564351
318581.67482228
326860.59577005
335099.69547571
343286.29882936
351402.48679481
359425.88039781
367345.95782921
375172.99580473
382819.47002717
389758.97747565
394123.96925211
46804.569703928
146568.44457124
241304.79040971
332130.65728325
417738.26028832
496815.96349446
568554.82771911
632676.20290903
689366.0971216
739100.38730652
782514.83455334
820292.05720417
853100.60842829
881554.60258913
906195.39449136
927524.01408634
946225.26740924
964129.64637678
984347.44072179
1008480.0328933
1036401.4206346
1067184.8225852
1099791.1997906
1133346.4931994
1167165.2375101
1200698.4176239
1233504.4924077
1265229.5036933
1295559.3768794
1324187.0413579
1350821.6211215
1375072.4446759
1396429.0579695
1413879.3030922
1424864.8125472
1418077.683883
4723103.897933
5547901.290927
6164704.9505918
6595781.9044491
6877549.7102419
7047497.0449287
7137690.5481824
7173002.2318221
7171369.8631963
7146722.934849
7106963.641106
7058187.7753027
7004559.9565538
6948895.7162052
6893101.2468582
6838557.0418334
6786184.2058711
6736621.0892748
6690505.4788324
6648467.0130514
6609863.6904093
6574302.3584716
6541601.6237512
6511676.5084874
6484476.0970544
6459968.2449669
6438140.5891526
6419007.9084169
6402622.7286456
6389094.3357862
6378629.6725535
6371624.1098313
6368658.8879098
6371014.3790837
6380232.9422127
6395316.0164383
115386.06989995
115633.13359008
114924.90520815
114347.88627403
114800.10574025
116757.48432869
120798.33339418
127107.41998162
135077.74309392
145485.83619607
158223.508695
170751.34821918
180269.82506535
184133.58168132
183254.95871098
179639.3970101
174312.33992976
168102.63059614
161584.56199352
155079.80279021
148755.65125601
142702.21514067
137014.32558437
131833.45934795
127100.49884824
122766.01142956
118931.82800601
115188.69701662
111853.42593165
108765.54226791
105782.86395321
103208.89663912
100587.19471107
98363.087359854
96055.013552009
94095.825985758
92045.71244112
90297.498904384
88462.439930836
86892.902381037
85260.444190779
83836.176802278
82398.723482943
81065.066210983
79797.151282451
78530.25746075
77387.69609471
76215.35096853
75165.335821731
74117.969181166
73121.113542096
72164.01020849
71244.420855481
70358.854506066
69502.31361194
68672.803803834
67868.580072993
67089.95646479
66337.11864205
65609.566098765
64905.341388842
64221.973337196
63557.322786472
62909.910330617
62279.230657457
61664.169425189
61032.267139181
476083.16468374
7427131.5587072
5695315.1903685
4200603.2712181
3147085.4180687
2382042.3176761
1351625.7725208
491395.326873
431790.76309683
400423.00396907
385203.30525567
380868.49028339
383650.69944996
390409.50153458
398489.37698461
406452.47354149
412863.19088069
419873.35821297
419686.80646275
417891.70385545
415540.90958438
412841.56408093
410268.32779629
408299.58945878
407251.5161311
407230.28185093
408391.06357285
410787.17862952
414060.80554822
417849.14110392
421844.54102152
425731.01152568
429280.85687642
432087.63695368
433939.45588535
434684.65183964
434358.11934383
432424.00888717
429900.6423332
426761.054661
422938.87361162
418605.9721234
413626.95660389
408470.40021301
402999.27599377
397364.91647101
391810.46662846
386484.61097228
381361.33527391
376073.51157834
370860.17867982
365891.79919204
361125.4394167
356326.63453121
351425.83109974
346660.83739317
341815.63700588
337400.80819481
332975.69197687
329059.83186784
325143.06090788
321705.31081677
318375.6740879
315644.67432887
312724.55069053
310696.60110446
309465.86931229
308516.1985604
307528.06281147
306433.47932889
309150.07033294
308032.37427159
309209.70716651
140005.9821414
138860.35948541
135884.58960203
132007.85974011
127844.67235218
123853.25220776
120383.14987669
117718.94267158
115945.17036294
115095.5358636
115043.2714134
115655.92294498
116320.92352114
116760.64238977
117126.27692456
117571.07095196
118108.68003668
118520.82517754
118255.21177278
117451.98141646
116214.20301983
114638.47514736
112809.85073
110782.46127368
108699.92494305
106671.11610342
104665.22122021
102669.27370597
100683.49621855
98757.924676326
96883.10092434
95083.293108577
93350.313133205
91679.132485979
90074.734923778
88525.387929323
87035.966455004
85596.905200575
84216.153407549
82891.763486875
81622.838836132
80407.098947787
79231.357044454
78103.007811217
77007.610564713
75957.411099242
74937.256132051
73958.612921209
73012.052375002
72102.851115963
71225.295435011
70377.589035079
69558.255691742
68763.330981345
67991.328859577
67239.68179401
66508.696130896
65798.873526003
65110.695011674
64443.244617081
63794.813905221
63163.575997277
62547.792421541
61946.147461012
61357.68683147
60782.704619095
60216.576012335
1861287.013633
7139483.6540384
5278633.8653656
3905222.9511942
2937280.8894063
2205752.7154786
907199.1887743
470449.30196406
424836.49593123
401194.25859394
390918.43559591
389137.86462814
392694.26318446
398552.02761371
404500.26210257
409599.34891885
413244.09479548
412692.62312315
411759.27779881
409008.27063603
405507.38260861
401690.07308904
398260.57666274
395757.28532699
394455.97690348
394323.93359828
395344.2584021
397564.67254467
400644.32004892
404233.56331656
408033.98424153
411731.54267691
415041.79826895
417675.15986908
419483.91557709
420303.60935158
420013.33892073
418340.30205675
416156.93566727
413336.26955226
410104.4168784
406127.96378344
401848.533284
397243.39638718
392392.7882483
387481.67341719
382947.09218484
378435.4868999
373721.97320624
368863.15737964
364250.08663824
359658.25794695
355199.64025686
350690.26655274
346125.96627896
341697.14401366
337240.20448019
333132.62525777
329051.30613641
325358.28279745
321680.38152464
318291.82521691
315249.0574216
312440.02768345
309808.49641183
307855.46141907
306464.5141896
305308.95153388
304201.80672133
303018.82057997
305298.41151458
309993.37863735
313192.69531211
198390.21006975
194211.23507869
185780.66178063
175322.38311322
164656.31872079
154719.74876192
146205.16820912
139108.28608753
133410.18871362
128740.92327321
125214.82410331
122177.64681157
119825.67864418
118009.91318465
116446.26231154
115001.82261988
113482.51005513
111812.57146406
109736.60197999
107463.51258524
105154.61085303
102919.84407051
100787.91497817
98758.1730131
96841.830497407
95020.81077271
93316.136941029
91774.672589594
90363.168984345
89042.199590907
87811.67311445
86656.880757709
85564.042670888
84500.634778911
83461.765627741
82422.140410193
81392.0480273
80366.08731116
79361.052112235
78376.304825374
77422.926067568
76487.554775023
75577.028718164
74680.686658704
73807.118469076
72950.540758733
72114.934893201
71301.96443234
70510.362786049
69744.828972604
68999.678329121
68276.943910722
67571.160522218
66881.909341955
66207.267302971
65546.308770717
64899.889393504
64269.101372292
63654.959020597
63056.957268769
62473.796988832
61903.935264789
61345.871628047
60798.461691943
60260.960995351
59733.88379637
59216.377886255
1828246.2920899
7150514.7723014
5286532.1801768
3910310.7991443
2940717.7866756
2208923.9974716
929429.21091961
482605.68896249
443554.75375429
425551.52574736
419337.67940124
420047.79937808
424617.17956605
430053.90641729
434064.09371432
435434.68379637
434290.18268727
423779.81348652
419199.28191987
412490.71818719
405093.49123438
397883.86857112
391595.68709673
386632.39763888
383299.01542782
381755.85271858
381800.74508138
383315.63917976
386026.9675161
389503.67459963
393369.86228351
397277.73061084
400781.16122548
403640.13808767
405768.18788218
406992.18107951
406957.52215901
405640.98207223
403834.79088574
401415.90680448
398443.57561016
395024.29691726
391312.22002683
387260.79641412
382940.54901975
378417.14996193
374338.21396937
370135.25653214
365808.82302344
361424.52568003
357110.50921447
352756.93667147
348480.82161423
344158.09766314
339870.02602487
335744.70225659
331612.23474161
327762.84893264
323908.93676507
320393.46639123
316904.74323212
313669.36844259
310759.52880499
308026.71734578
305585.64546476
303907.7358372
302294.41181813
301125.98746833
300139.7377542
298974.68261556
299564.04008193
303622.62502674
311359.65727317
388482.37382431
366174.21937187
327847.34633572
286662.80985123
249358.39303492
219162.17450298
195442.79672484
177138.71818125
162948.21031955
151323.09764216
142748.96897274
135481.90568178
129542.62981878
124681.9934859
120590.08568032
117156.46147136
114356.40197556
111807.87402611
108963.92111141
105874.76676629
102713.24055118
99638.617522104
96765.871247184
94113.076964543
91668.812704705
89424.624446761
87369.678462818
85498.936874531
83847.23627633
82378.336825847
81064.393069579
79886.321802573
78821.653713027
77851.520705535
76951.305627667
76111.987972968
75315.194793792
74554.871104964
73823.083188523
73128.141913125
72459.834901174
71809.467406613
71167.509380557
70524.473477982
69883.043641231
69241.369262138
68607.48424943
67979.616965687
67364.34242668
66760.34369533
66168.709984642
65588.486842094
65016.854251206
64453.076209493
63894.983919784
63343.310451227
62799.017990231
62264.249474526
61740.629309002
61228.178322449
60725.820181639
60232.197821382
59746.082481176
59266.546741802
58793.139163321
58326.469054959
57869.228396212
1776326.2582479
7158555.4949601
5295143.3240308
3916829.0352403
2945493.8171482
2213104.6295558
962809.66101887
508280.34397881
479133.68261672
468257.88271932
466595.99044322
470419.63892402
477148.33303838
484145.24420879
489018.17951272
490122.49765721
486653.8081776
465228.83319851
453526.70247746
439213.42175084
423812.53056004
408929.92700318
396104.82106317
386147.0478091
379160.41887402
374899.76197621
372970.05900284
372915.93308038
374412.32767064
377129.11845693
380579.76969819
384354.69291722
387892.246697
390844.21520962
393156.77892919
394644.89561308
394802.9523387
393701.66736189
392108.83007823
389950.99621393
387270.29823574
384186.58352893
380826.37250808
377228.5449544
373403.89282028
369385.42813684
365564.12966134
361757.30847416
357940.45976953
354112.14975378
350240.03692789
346274.5365401
342290.02993798
338268.99665786
334282.66192748
330439.43497073
326583.76149478
322963.73120089
319332.5855715
315942.04795958
312677.62494437
309588.35020616
306620.59825691
304061.05820617
301597.56636
300059.7795639
298450.25060277
297230.98298271
296378.64619366
295329.02411322
295544.29640946
296042.38277864
305881.75258524
1321235.2410307
1072791.0140457
804966.89311411
597357.23972169
449579.27182658
349629.62029338
282867.44967076
237146.66819309
205400.40695439
182520.07186479
165881.42116893
153043.29355966
142938.62218464
134780.26962995
128054.58358282
122495.90717548
117866.98991991
113683.4717235
109769.65305176
106078.16773474
102555.77906243
99145.109195489
95846.258413801
92760.965040906
89911.41256492
87285.349876839
84864.717340671
82648.62043696
80662.170646879
78895.710404799
77319.345436973
75917.59442639
74665.140278004
73543.52393557
72531.54818119
71614.077325755
70771.923981547
69995.015259818
69273.248294098
68605.155732636
67983.091998128
67401.710227992
66848.304335374
66318.555212353
65805.722913973
65307.624518627
64821.056625232
64346.351334417
63885.365405126
63433.619983048
62990.661483542
62551.465864649
62113.887683336
61676.750427805
61238.678590682
60800.324540074
60362.600547563
59929.01208265
59501.602942669
59080.797740109
58665.644707164
58254.971297558
57847.641243731
57442.887014538
57040.517824695
56641.00835184
56250.670346254
1708148.391677
7166954.7628781
5304787.1453483
3924598.9308527
2951446.8973832
2217817.9738794
1004235.3758198
543802.0503103
520709.42213644
512245.65205963
511482.99585337
516054.65711583
523916.26546052
532600.10598394
539731.39314468
543500.72442253
542794.68714534
524838.03558832
512017.80933951
493955.74623138
471452.44250767
447009.83987676
423755.62829281
404157.130464
389225.68305398
379053.94139451
373086.05808937
370523.50266049
370343.68151827
371676.21313485
374071.15714423
377027.38131373
380112.99604162
382754.41882708
384894.36220335
386231.85778372
386396.12309604
385234.09124736
383622.63581561
381459.62441227
378866.54508686
375858.53862534
372580.39248029
369189.31189536
365752.07662149
362207.78956079
358610.60708216
355266.40242987
351920.38859226
348582.26215698
345200.35065645
341737.88439572
338208.95786518
334583.23537418
330935.81118483
327357.75912484
323761.70092814
320354.53688256
316945.4423694
313666.56268321
310487.98515166
307576.97251621
304617.30799331
302024.786076
299476.29165293
297999.84296888
296457.27324825
295169.06921006
294384.72125196
293376.69215909
293478.86969891
294006.10183058
306271.28524077
4677954.1161231
2579889.1559784
1602970.6678105
1069035.8648547
744875.56478226
540405.27253005
407583.09871845
320208.4060771
261939.30359299
222342.71642171
194557.35979733
174403.38349897
159200.55505259
147205.49953432
137563.95421078
129735.1941553
123091.37755263
117239.53246847
112024.75696487
107356.43085566
103160.89374715
99349.632157483
95849.662275913
92583.133815632
89506.815706745
86635.79780055
83975.604869027
81515.808799375
79280.162173571
77274.932442188
75470.953754734
73844.451338006
72384.503883702
71069.908017658
69884.323526996
68811.484512942
67838.81739086
66949.822212003
66136.215291119
65392.39737114
64712.314590826
64086.659456003
63506.374896797
62965.21200619
62455.564020716
61973.434335129
61513.558962609
61076.172410379
60659.23394315
60261.634012136
59880.972065985
59513.444062199
59156.651928884
58805.893037472
58458.17038602
58111.282944191
57766.106764724
57423.959334138
57085.9625858
56752.179615892
56420.698533555
56090.401989949
55760.228586144
55429.456587857
55097.974331772
54766.33779883
54443.509121414
1626645.0268077
7176848.5124243
5315886.4703798
3933702.8325053
2958539.3320216
2222768.3531635
1049568.7452531
579970.09402632
555629.48680728
545791.59996789
544027.05935448
548239.0380876
556420.26637513
566116.48678267
574977.58594145
581258.23501364
583763.98572059
573032.33260061
564000.41619806
549247.55415452
528426.76817733
502365.34290086
472833.03787796
443372.54829763
418102.61866154
399022.04444546
385920.02565427
377923.57137595
373885.66698543
372754.03751579
373282.9035186
375085.91277898
377369.29636413
379349.31423904
380881.88486
381684.81155282
381562.21524963
380265.31789363
378455.97726499
376082.26436935
373329.53623499
370207.45867048
366811.56306522
363260.91157519
360405.39745018
357351.32015542
354195.19044769
351267.6694426
348347.24319579
345436.38924122
342504.03579071
339522.18646383
336482.15680678
333290.38019471
329993.70301251
326625.24705887
323199.65804817
319927.30406892
316634.73512448
313493.42730594
310332.25890944
307464.60284182
304565.769362
301939.19058279
299262.48240316
297795.19966833
296298.98706894
294941.01898917
294116.43029508
293028.87928171
292996.96932717
293477.70922054
308902.54074691
6516394.3624089
3587207.9850236
2326648.3661606
1590272.6080922
1121713.2333392
806495.2751323
586783.8276977
443911.4313397
348343.93436848
282921.39778838
237655.62491668
205631.36735101
182479.56179201
165026.96813864
151427.85412107
140433.35675982
131247.82853799
123485.21659896
116814.85597253
110979.61432783
105839.00450191
101291.4732962
97239.279910492
93614.418206024
90323.128120161
87288.661340559
84453.756134629
81798.229924158
79351.313872594
77126.046448534
75112.57428181
73284.618301756
71621.523588985
70108.917782686
68736.407749259
67488.100100869
66349.483949307
65308.958589356
64358.342807209
63488.704000536
62693.4810063
61965.206686924
61296.136436972
60678.624636981
60106.203108276
59573.747302954
59075.314244749
58608.25610788
58169.744280874
57759.439089253
57374.159476279
57010.535159574
56664.896462911
56333.012628988
56011.912444333
55697.888481854
55389.780285122
55088.086351708
54794.223035911
54508.638297167
54229.866050569
53955.740162313
53683.940575885
53412.827714162
53141.550004732
52869.977352814
52574.780726929
365390.42772492
7480346.2376537
5757097.8861188
4246285.022902
3181019.2740895
2405961.9031026
1474306.51638
632432.9104709
586515.51977388
571767.754434
566826.14289689
568960.12765374
576240.63231805
586277.31542849
596519.12419114
605120.42870581
610763.17144989
605986.73003207
600722.92031167
590130.16352527
573646.84017089
551198.52140836
523314.30802111
491889.7212883
460158.77497869
432234.82735982
410823.74579837
395973.07321255
386460.00988671
380917.44131995
378353.00147896
377782.47802894
378039.39542117
378877.1378789
379582.86185112
379549.94178842
378810.49694389
375733.24059618
373341.66576872
370614.95461366
367687.85071014
364565.58797737
361294.34515283
357881.68150314
355837.02140286
353532.54037295
351101.38636364
348794.62799671
346423.14362511
344006.30340293
341570.58302441
339075.3442477
336531.73663653
333850.31200621
331003.88289625
327967.04555216
324754.33469423
321524.17117
318243.50852607
315142.4843481
311996.45355448
309110.90375921
306269.77158575
303673.53688674
301002.92438468
299385.74611954
297776.62485485
296324.44501925
295468.24367726
294468.78286587
294116.11055628
292503.98254314
310498.82134472
5676209.2878231
2726456.3366154
2115270.2264727
1659606.9372918
1312163.7426895
1010610.3535369
780710.32854498
603201.60055291
465250.14978172
371209.21020106
304473.80192566
254074.20037255
217873.94061223
191088.59170098
170939.44467051
155295.26213811
142607.48396897
132098.99746533
123280.45308592
115798.8700963
109358.36740263
103738.31347669
98802.407035868
94451.134710182
90594.556132236
87155.727686559
84054.355322662
81244.30291533
78713.527912001
76410.655243334
74295.863890092
72332.308730864
70514.870978242
68839.930697576
67297.48704064
65873.021284945
64558.485298885
63344.344011151
62222.98019087
61186.529240561
60228.292496032
59341.336439263
58518.579412891
57755.307700839
57047.429861888
56390.700864805
55779.531665671
55209.777875861
54679.37099484
54186.661223818
53728.535446447
53301.346930107
52901.379386799
52525.652395459
52170.681511533
51833.582239868
51512.317874007
51206.118896425
50915.037859489
50638.572240588
50375.305621668
50123.206406141
49880.04141078
49643.742289826
49412.83062406
49186.423228243
48966.493523562
1328754.6067809
7212485.3383751
5361016.0441958
3970446.6113399
2987249.8047513
2239925.7199752
1182887.1777992
659581.36929425
616605.11719199
600825.75014011
595791.4584886
598497.57008067
606737.77444523
617810.03661404
629260.16533541
639284.52495872
646523.40037518
646058.15819617
644953.61266463
639219.50451512
628623.66725784
613017.11306055
592300.25547645
566705.75495974
537165.88150626
505593.49165683
475472.29232962
449647.66658691
428973.42875938
413185.48585051
401692.81663327
393676.59391802
387997.1528125
383595.68788217
379939.38320575
377214.44351103
374379.71724911
369619.60074082
366877.6376382
364104.46079504
361667.66118622
359244.49594468
356805.80170582
354248.54805858
352804.94281737
351402.9968999
349740.38552094
348062.17645786
346278.84407238
344338.52096138
342287.3683486
340109.62846118
337844.11569595
335391.8405292
332719.05113588
329850.05683752
326783.31516607
323642.42940208
320419.99887395
317227.09383451
314031.68557572
310984.39286731
308179.13780458
305558.72307032
303083.80163028
301216.13294517
299716.05227607
298201.75700389
297327.73384965
296408.34852519
295932.89359484
292198.8049985
309175.06533646
5245261.7885572
2125610.6083516
1831610.0443071
1550786.7731408
1296943.3268197
1075469.6880941
881848.76577451
715211.79537859
578309.40778638
461836.8068232
374792.62425836
312877.58865362
260946.91228516
222269.624006
194122.66639201
172864.36650821
156347.28286094
143117.80155049
132181.58513467
122973.00966318
115134.19952364
108390.13557419
102540.16877502
97430.54040727
92928.436758872
88927.804582005
85356.2293106
82179.789279753
79347.53424236
76810.85909442
74529.705339031
72457.355840943
70561.391804576
68815.128652041
67192.287976099
65679.057079824
64258.17889047
62926.319245661
61682.958643557
60524.511863247
59447.518599533
58441.594815184
57499.928494557
56617.591395269
55793.788182874
55023.385842896
54301.711363065
53624.581716675
52990.296035869
52397.653649058
51843.097033014
51322.978386242
50834.140969446
50374.677128477
49942.140279813
49534.103926596
49148.480336989
48783.875252978
48439.49991226
48114.154312579
47806.510458015
47515.100644374
47238.16204994
46973.932461596
46720.565627699
46476.950915025
46229.803195303
1102513.1830604
7232815.826412
5402712.5713064
4003773.4734321
3013714.9791735
2258005.5716179
1272146.3080771
703781.21807421
640390.93204307
620782.31464489
613871.12888611
615847.09666866
624264.33859641
636183.83182777
648938.47776807
660504.88220455
669352.85298839
671271.52572741
672031.65273887
668386.17042801
660198.77824345
647453.89183062
630202.14557919
608636.36867663
583277.20801103
555151.09228525
525823.4362588
497777.89352387
472395.07181338
449815.02134571
430022.76115024
413037.76967871
398730.30054519
387489.59484942
378869.43153036
372230.58589212
367036.33849805
361088.13939219
358988.75286659
357407.4309408
356331.68901096
355102.33561128
353620.44251467
351877.61968988
349856.96442417
349210.06383724
347984.63398807
346393.48281967
344679.62927797
342850.43114887
340793.46801835
338401.45325346
335754.51587209
332894.16688022
329863.62990375
326827.95990721
323740.17026203
320686.67352455
317684.20801045
314774.26067822
311935.04213722
309435.72141831
307014.51314289
304971.77410679
302949.46714187
301336.52952573
300011.4147989
299158.44284477
298470.7844456
297899.46468643
297803.33219312
309924.3108158
307583.35354508
5228689.5990905
1820918.9186365
1562397.607755
1389666.1893375
1216347.9158704
1050924.7576063
897758.53017668
758339.92554199
634899.38955987
529810.13300953
436561.08834659
359556.81009619
305441.15900655
260248.98801363
221209.83623385
192465.71037416
170961.66864867
154389.14667349
141242.12010205
130461.44526853
121359.4698969
113564.86790232
106841.76237068
101016.06689404
95929.001572701
91450.168769774
87478.292672978
83938.964238951
80776.254735533
77945.107395607
75400.226894972
73101.450558278
71018.728972512
69125.422635051
67393.454026612
65800.551959734
64323.270042073
62945.470686873
61660.085075432
60455.140875479
59319.577570002
58242.975671628
57220.91440253
56257.780149823
55352.144408054
54501.225206343
53700.023296769
52944.689592667
52234.620020231
51566.582765
50937.481681609
50342.665802913
49779.7258861
49246.874879495
48742.339753869
48264.863218806
47812.683326955
47384.538210148
46979.178594216
46594.889864107
46230.393559634
45884.309918098
45555.477381756
45242.75047628
44944.544919962
44659.75468111
44366.904390399
875743.05414287
7248970.2857335
5452722.745402
4043927.0572121
3047231.8725118
2286982.7884243
1372480.2406686
753907.59117038
660242.57622857
635388.71264756
626282.06649777
627562.08260797
636444.92677265
649600.39222809
663952.992872
677129.40662777
687382.82406698
690649.36783484
692365.00351494
689653.80507641
682399.89265016
670680.50176683
654671.66644752
634603.32636595
610851.50332177
584217.9756742
555998.04413919
527790.24886499
500772.29136932
474569.66547985
448572.74353661
423694.16296345
402508.60767403
384947.00639009
371467.23690675
362511.80207941
357329.20658883
352764.06367782
351406.36877146
350864.60551722
350142.31325898
348925.03399174
347156.97799609
344915.21645602
342246.12951914
339771.04917455
337545.19648045
335151.39327708
332589.37114968
330371.33502974
328153.19782475
326012.1666063
323811.64669751
321844.67766344
319833.41244985
317950.26912019
316021.51687293
314063.87372918
312063.81179701
310266.34454633
308516.33851142
306925.91757075
305487.41915954
304243.66218465
303080.37689213
302330.78277605
301572.7843272
301275.38323749
301305.23210658
301347.77429053
301559.14256168
322859.6431822
307164.04090311
5875325.8589534
1665724.6439836
1373316.8620218
1239602.8931709
1119949.2318209
996282.53711251
876812.59252171
762953.21913539
657698.71818318
562493.3961475
478856.89583178
403640.44240525
338091.33260374
291290.57148075
252728.38889073
217295.41913691
189187.52040094
167918.18691936
151533.91228147
138589.33849051
128035.02196822
119194.30175951
111647.92173169
105127.56884395
99457.219806976
94490.932736856
90108.305513224
86217.758789073
82746.399107956
79632.845082159
76827.125256445
74290.806957389
71992.611380998
69904.453694929
68001.997782938
66262.727502596
64665.172287614
63192.184981359
61830.971002827
60566.903550208
59385.237725081
58275.718804482
57227.640073808
56236.128340091
55296.643602284
54402.008357013
53549.784843082
52740.949133935
51974.594889113
51250.211863543
50563.770865793
49913.010694095
49294.680807213
48706.383989425
48146.991860495
47615.03834146
47109.983788802
46630.47307584
46174.25921528
45739.681395341
45325.020710111
44929.47604921
44552.232629321
44192.095321417
43848.225754397
43519.641142112
43175.979415641
687840.95720092
7262358.4282437
5507448.3473987
4089849.1093672
3088668.8697221
2330157.664364
1490441.6577147
819753.87817764
681015.93377259
647606.2452009
635633.88901059
636169.49769223
645910.07742687
660888.0657334
677343.53357466
692382.50757736
704002.65152909
708053.0232398
710112.46384544
707511.33918946
700232.6241648
688488.907489
672585.76858404
652816.83786733
629417.11183547
602838.58190701
574042.76503922
544239.35850315
514090.65987056
483493.92362288
452663.9383305
420826.66052234
391743.69230124
369343.76535272
355385.16910933
348737.5643854
346909.76824181
342381.51081422
340275.17918875
337815.8804461
335108.41342973
332086.31882798
329207.27821905
326647.84714077
324181.20810689
321522.21580793
320206.94497174
319360.57472006
318330.19708113
317756.04845907
317011.6552425
316235.5261295
315523.79965354
314848.4988106
314035.1876809
313148.71514345
312141.29137137
311028.11902832
310016.71249261
308959.67958555
308184.06551999
307524.63366348
307043.48116908
306921.34591355
307019.91767308
307251.03001679
307677.41884562
308380.62369824
309278.12696331
310387.6833785
312058.87527633
340156.44725664
308155.72933565
7391657.2079634
1550436.5227327
1260679.6565675
1118671.9144764
1027224.7377436
933296.00089432
840224.60621873
747877.35741538
659114.14141471
576084.94864473
501232.82910106
433283.44906898
370010.20925205
314954.97667155
275404.76137502
242391.98479514
211339.09513407
184811.29242516
164318.44092371
148407.93323991
135789.71325047
125548.29751262
117020.5876029
109747.01607369
103454.43669651
97963.410567807
93135.835468158
88866.112983912
85070.24107098
81675.925403292
78622.540633793
75861.767960432
73357.763719616
71081.223053725
69004.003797098
67101.829532049
65356.207019278
63752.799317113
62277.638873362
60915.439459961
59651.807593178
58474.013916211
57370.193856501
56333.063338602
55358.189418993
54437.801317283
53566.568087234
52739.780183135
51952.089551745
51200.981005111
50482.930655736
49794.681305534
49136.117540019
48505.794420219
47903.330037569
47329.448271916
46783.043882412
46262.708693758
45766.440684552
45291.63973276
44837.47556208
44402.650693987
43986.116830224
43587.171320797
43204.760839338
42838.478369266
42450.998052568
556427.53844872
7287607.4084075
5561637.8042419
4139588.1713616
3138399.7424182
2388773.7305899
1627821.408344
916061.10664389