/*--------------------------------*- C++ -*----------------------------------*\
| =========                 |                                                 |
| \\      /  F ield         | OpenFOAM: The Open Source CFD Toolbox           |
|  \\    /   O peration     | Version:  2312                                  |
|   \\  /    A nd           | Website:  www.openfoam.com                      |
|    \\/     M anipulation  |                                                 |
\*---------------------------------------------------------------------------*/
FoamFile
{
    version     2.0;
    format      ascii;
    arch        "LSB;label=32;scalar=64";
    class       volScalarField;
    location    "6e-05";
    object      p;
}
// * * * * * * * * * * * * * * * * * * * * * * * * * * * * * * * * * * * * * //

dimensions      [1 -1 -2 0 0 0 0];

internalField   nonuniform List<scalar> 
109340
(
386337.9678264
384908.96350301
382081.28581795
378662.17534121
374910.09352264
371036.2058685
367122.65868517
363219.73779092
359416.71148356
355701.07421075
352019.38675254
348368.09574371
344750.74066651
341169.78938026
337626.95569028
334123.76761782
330659.61250175
327232.06810616
323836.28995456
320465.39220918
317109.22448925
313756.72330692
310395.34602011
307009.94593435
303580.51323417
300081.03410679
296476.87239818
292721.55414358
288751.31597707
284476.80812768
279769.44828692
274438.44762922
268195.09954491
260611.4330549
251094.74852911
238895.55929203
386607.36382503
384733.33215486
381547.58520963
377895.84665345
374040.79297208
370163.44138793
366315.59621554
362507.77612087
358736.74926289
355005.29758863
351307.85332077
347645.339686
344020.20566311
340433.97817314
336887.63775989
333380.80664582
329913.49225989
326482.69441001
323082.73428502
319705.66127746
316341.08621444
312977.69180434
309602.56918868
306199.74937457
302748.05744542
299219.63678539
295577.36955594
291771.03940758
287731.28829756
283360.06267425
278514.54986283
272978.17543659
266411.05674331
258287.10719637
247745.75258882
233857.87653046
387484.20865136
385289.58057131
381766.1825862
378023.4194035
374200.38490111
370377.16727051
366546.43856339
362720.72203956
358924.86209898
355166.33799096
351444.10402217
347758.71595716
344112.00598758
340505.4844326
336940.70918391
333418.76572738
329939.35488177
326499.57377527
323093.24895625
319712.06095322
316344.82810733
312980.05832052
309604.64385787
306202.51245978
302752.24883288
299225.78105029
295585.85166545
291782.14726919
287745.15391127
283376.18262051
278530.99201141
272986.73532132
266375.6930145
258084.53491838
247011.84286683
231394.0472083
388708.89317343
386028.85838999
382315.02247965
378457.68962653
374553.67067555
370644.29849182
366744.18231369
362867.57375893
359030.76981839
355239.32361301
351492.70559957
347790.34197638
344132.37671834
340519.10675074
336950.77135959
333427.33472196
329948.03665886
326509.57065915
323104.85494964
319725.76251403
316359.68863222
312995.69662686
309621.00869664
306219.58230542
302770.51130596
299245.63651007
295607.78139601
291806.66121428
287772.58712343
283405.96877435
278560.66839828
273008.57592474
266345.29398329
257845.97165876
246013.55275994
227474.62921824
390647.78250554
387109.33593116
382824.17859402
378690.32277726
374674.4810365
370724.28979232
366810.5917057
362935.41354277
359102.08805483
355311.00771334
351563.71273448
347860.61232766
344202.03035773
340588.40570767
337020.2247067
333497.9326164
330021.79686608
326589.68089488
323187.77199216
319814.59758973
316452.32628821
313091.57152295
309719.96177946
306321.19012246
302875.30981282
299353.96394926
295720.0542804
291923.24371444
287893.53168161
283530.2119878
278681.14479544
273126.60148477
266414.65220667
257712.34435846
245025.53970147
222044.45960323
394289.72406436
387683.47126967
382944.27492385
378720.33133438
374699.21949895
370757.71328943
366854.53424763
362982.16056414
359146.75093746
355349.73383146
351593.76461411
347879.66622451
344207.96723051
340579.1674624
336993.85733112
333452.73857982
329956.86132977
326512.80686233
323135.08555685
319756.30181037
316386.37664658
313018.54174289
309640.67066474
306236.84608874
302786.1543541
299260.47355002
295622.48829832
291821.86581597
287788.64386702
283421.72651504
278556.94631953
273006.64483283
266270.41401438
257470.2459524
244320.18009015
216516.56685558
224150.74967534
209374.45150832
197031.9169782
187092.29758054
178169.61334885
168667.37239289
158168.82155354
146524.70817913
133880.4210221
120576.36636054
106493.26375317
93398.163739931
80995.667140387
69485.879440943
59409.668671815
50627.190288964
43126.570733766
36793.276424867
31471.959619393
27040.048630325
23360.048244868
20279.401748618
17699.51255583
15536.22352216
13697.771427448
12134.578013558
10847.419733981
9683.7932927652
8708.0500025295
7872.3032274974
7113.8516775183
6494.3172698381
5905.2611098217
5428.2725093543
4966.783091074
4591.5726032935
4225.3562745141
3925.6871528044
3631.2922200134
3388.5011615644
3150.2389881941
2949.6721758095
2757.2048106106
2587.4862551907
2432.0779867915
2285.4874678804
2157.4029537351
2032.4431292494
1924.0611908464
1820.3105341374
1724.8396403397
1636.5499154072
1554.5513188134
1478.4205875028
1407.4933388254
1341.3466016559
1279.5081905962
1221.6412713494
1167.4115858039
1116.5318588141
1068.7198019126
1023.7310877475
981.36170985059
941.42997002066
903.75832512063
868.1517580321
834.4607508159
810.28307963041
2345.1040203606
4651.9354822774
5004.4839293178
5186.905090187
5315.8278605739
5380.5751727162
5314.79741257
5211.3188180962
5097.3283059553
4991.9455828079
4914.9036003293
4882.6268111117
4901.2246718868
4956.740684763
5037.5603562362
5138.3530494297
5286.1830222114
5416.7986618536
5558.5288378038
5698.9163090403
5828.6453667182
5945.511282608
6047.0351859898
6137.6919289851
6222.6803451613
6306.0167211524
6389.6470394074
6472.7327882445
6552.5564936002
6627.2071286692
6694.2008748583
6749.9702376195
6790.9847224174
6815.0431262965
6820.6355932828
6809.9464861662
6781.8875516453
6749.0952730122
6714.6909057967
6666.5569369335
6613.1139809642
6545.8056874243
6504.874946539
6443.091162599
6389.1843654344
6376.1623846467
6385.1455765634
6394.6049594639
6366.4704784928
6341.3136720496
6325.9169498064
6306.5077091187
6286.941528058
6240.7786247056
6197.47193205
6133.4578772708
6076.1284724634
6011.7697799237
5958.6870224436
5902.6696458295
5856.1819821681
5817.5609380614
5802.9349545705
5771.3028533512
5790.9619167387
5865.616747439
5956.1277158261
6047.3980736267
6137.4619270142
6283.4056803242
6614.588225662
8275.8771047658
216580.19366693
200968.25818624
189280.02673424
180165.65699932
171214.51182903
161156.64811101
150247.69053588
138448.6041613
126003.66152697
113141.92156312
100190.20674438
87473.47574328
76004.012357044
65508.146204989
56108.926166393
47958.674062261
40960.306981011
35030.867891893
30054.377220944
25889.675380078
22407.595183937
19496.210950908
17052.65581703
14992.439610386
13249.411547231
11767.180800291
10499.676815963
9413.2591765031
8472.1188365637
7658.6946423432
6947.9133206041
6326.9766125297
5780.4783348309
5297.4291891883
4869.6923720658
4488.5101198197
4148.567018477
3843.5902218826
3569.7417151422
3322.737435848
3099.2977619223
2897.0753388866
2712.7065084191
2545.3520081637
2391.7960481248
2251.9031581443
2122.8760402338
2004.6691575866
1895.3820500456
1794.6063225311
1701.2335538037
1614.5831405775
1534.1760782062
1459.3569199043
1389.7018265093
1324.6784523693
1263.9044905221
1207.0091329078
1153.6741626029
1103.6028150691
1056.538006441
1012.2548428219
970.53580294297
931.18521663365
894.02975345666
858.94654478011
825.76690206466
840.82212200783
3323.2548270729
4764.2351376606
5034.8989625744
5203.4607630645
5326.0989200685
5363.4116731585
5283.7043903577
5175.9418415412
5062.6819682279
4962.9767167871
4896.2613353613
4877.27848388
4905.942624334
4969.0932002237
5055.8878418471
5162.3630863737
5266.9923572402
5402.231652597
5543.6032256551
5683.8669417551
5814.0779667428
5931.5950204816
6034.0531330954
6125.71235026
6211.3794128881
6294.6375620478
6377.2972270498
6458.4735590237
6536.0854127378
6608.2294288275
6672.4737949765
6725.3590654097
6763.4134214859
6784.3836073579
6787.5178198618
6772.2160833599
6740.924680448
6709.4942971543
6670.1843647807
6632.069057614
6566.7090518838
6510.4741194197
6467.3249065921
6410.1851924035
6369.1645230003
6359.6215841683
6369.7348097846
6370.9423621209
6345.9799808278
6327.5882886678
6316.3645220962
6297.803694362
6277.8797803712
6233.0245586163
6191.7671118695
6130.5868194874
6075.1616001338
6013.3061054078
5961.6100085489
5906.6776247216
5859.6846449968
5821.228389042
5802.1459639809
5770.2178239172
5797.0410022581
5863.9967487476
5948.0117912059
6034.3424368341
6121.1248159778
6260.7856704556
6599.3372570674
8356.1158007401
210062.37610684
191645.50270078
181025.43512259
170493.540835
161324.34330906
151554.08843504
140881.20434953
129645.20535373
118071.68556363
105988.7906437
94685.269943945
83473.712638267
72917.770589291
63208.646316291
54453.890324388
46737.58731345
40067.647886265
34390.308562715
29592.012061467
25544.534894581
22146.141598822
19299.319100058
16901.274278838
14873.906274943
13157.642961428
11695.266755615
10441.778441459
9365.3237119549
8435.769843267
7626.8343867434
6922.8960091447
6304.8950778898
5762.4557850794
5281.9471203642
4856.7364031215
4477.2825717148
4139.1137978685
3835.3154841952
3562.8050072417
3316.4024081278
3094.2445864642
2892.152494157
2708.9321098029
2541.5231338045
2388.8681003515
2248.9066877986
2120.4016875683
2002.3328625862
1893.2600650941
1792.7307560804
1699.4751800347
1613.1352756343
1532.8248468283
1458.1220778214
1388.5372796794
1323.5993630018
1262.9187865704
1206.1066921156
1152.84471591
1102.8359784856
1055.8307301323
1011.6031261551
969.93427400029
930.62740644223
893.51012553997
858.47007428139
825.31180327367
838.81297703278
3308.6961146644
4757.8590685315
5028.7744934438
5196.778144601
5318.3102980813
5355.5332785444
5275.5558685944
5167.3568375803
5053.9048036444
4954.2271177865
4887.5728980916
4868.6683369394
4897.027978047
4960.4294787301
5047.9550769924
5156.3144813742
5270.5980947501
5408.9933402143
5553.5943602287
5695.9122667051
5828.1459866574
5946.7415332491
6050.2055615593
6142.3016402012
6227.7705507573
6310.3006168447
6392.2342300491
6472.6890250752
6549.6095974191
6620.8594198581
6683.9763096682
6735.3462890906
6771.6199948334
6790.9537546997
6792.545972539
6775.1173695481
6743.0965134182
6714.0331558841
6682.2454062888
6636.2019823499
6578.2734856255
6528.4642131982
6474.8299418604
6417.107374011
6385.5715413463
6376.1625580279
6379.8175427951
6373.8019377821
6350.1612238551
6337.7073735229
6326.3117176435
6306.3861197758
6284.529938644
6238.4158204232
6199.9136912993
6136.8546634667
6083.9250155186
6021.4020820731
5971.0664529703
5915.6606617512
5867.8231412467
5829.5370706799
5806.7314688874
5766.5569303418
5820.2078932199
5874.3833224861
5952.2042006604
6037.6348798235
6124.8503487704
6235.6341666729
6502.6069108034
8500.9285859652
197812.29951349
176368.44936761
166070.20955679
155496.53201075
145852.26179928
136584.24985693
126858.24061593
117057.18546901
107118.59316854
96696.676760909
87675.052378258
78157.075121297
68876.20905848
60182.673248999
52186.95172088
45081.590296829
38869.916418075
33506.504164182
28933.283027148
25065.950639201
21796.000030331
19023.82761882
16689.713449685
14713.669072429
13030.330290396
11592.640351814
10361.586382607
9300.1139707619
8381.9219738816
7583.4955505659
6886.3036757801
6274.8279277167
5736.3672683258
5260.6885873702
4838.000340027
4461.9548271949
4125.5327593199
3824.0869134865
3552.7283168043
3308.1114283746
3086.6829370052
2885.779654258
2703.194665343
2536.5365373169
2384.4439049213
2244.8697591849
2116.9706397834
1999.0840369789
1890.4815373373
1790.0874434546
1697.1399172466
1611.0094931524
1530.9213936117
1456.4201511381
1386.9486553394
1322.1414863451
1261.5713245504
1204.8654633625
1151.702905561
1101.7892372017
1054.8695085166
1010.7145918988
969.11165481967
929.86670811481
892.81082782361
857.82831565821
824.70183908783
836.40204932827
3283.7114345823
4747.682031867
5020.002914449
5187.4462481911
5307.8738112558
5345.0718181196
5264.4091313997
5155.5723250103
5041.8462409925
4942.136714305
4875.3874224537
4856.3867804867
4884.079163783
4947.5810831537
5036.2943244291
5146.9713062687
5262.4786048848
5402.7114170528
5548.2997049957
5690.9200486154
5823.4678458285
5942.5509166751
6046.5713008801
6139.1363197962
6224.7475159141
6307.0288365557
6388.1384558002
6467.3891412675
6542.7235519478
6611.9947077534
6672.8903888186
6722.0887615328
6756.3491789821
6774.0173300301
6773.5361593916
6754.4207957974
6722.6331733536
6696.3618743828
6665.6265083493
6618.9427752945
6563.6955905362
6516.4583228592
6456.5956969654
6407.0873277427
6383.4224170818
6375.0609418108
6370.5713934454
6363.5573982719
6345.0901024747
6336.5633791337
6324.2766664751
6304.0620897712
6281.9431705106
6237.247109624
6199.7185536682
6138.1898300073
6086.3482739822
6025.8029651932
5975.6046597675
5921.6048165135
5873.8912331451
5836.6083193383
5812.8363489248
5772.1820563153
5831.8115589416
5886.014953515
5947.9787571713
6037.2830611537
6122.2710284807
6226.4524894413
6466.8152515776
8467.0996584956
171302.84392016
151365.97918068
140035.38350493
131113.9973807
123444.28230698
116082.58335736
109151.7620688
102278.95002618
95072.119598536
87681.528989782
79917.238934243
71956.356844619
64082.700944153
56542.965160093
49508.708985795
43088.429560991
37387.779433974
32419.473205753
28130.986274372
24458.343747838
21334.449895445
18686.404849921
16425.191997663
14503.691816495
12866.373990966
11464.860520731
10257.426536171
9215.8135119575
8313.2235208327
7527.3921228213
6839.3641846283
6235.9519462179
5703.5277514816
5232.7704456289
4814.4425234099
4441.8920060724
4108.3138484771
3809.3567715995
3540.0549588825
3297.159138156
3077.0535254289
2877.5404683818
2695.8000397263
2530.1589231881
2378.6452631733
2239.8440533063
2112.3939180731
1994.9859794386
1886.808961074
1786.7296699908
1694.1551606084
1608.2390969208
1528.438806199
1454.1721066724
1384.9136049705
1320.2730346198
1259.8362171741
1203.2657158177
1150.2324251781
1100.440951565
1053.6274219173
1009.5660327269
968.05157302883
928.88916133782
891.91053408666
856.99546545152
823.91891154358
833.35105025069
3249.8433539122
4734.2879961081
5008.6330179846
5175.6136919814
5295.0919139253
5332.0704422018
5250.1908657127
5140.5545489269
5026.4876781223
4926.6273918967
4859.5644012567
4840.1204856454
4867.0793806948
4930.5661293698
5020.681537628
5133.9585572012
5253.7874352766
5396.3562222066
5543.6111382571
5687.3321695965
5820.8980562518
5940.7688851831
6045.4592527295
6138.4705419051
6224.0463068701
6305.7822387775
6385.6172437458
6463.210593464
6536.3699872659
6603.063529637
6661.0411734352
6707.3902870357
6739.4470342921
6755.6327618054
6753.3495016097
6732.6701618443
6703.3189047581
6678.8360696704
6648.5827457052
6603.5720831447
6551.1761593103
6502.0717950832
6440.0429936738
6398.8010152224
6383.3476365905
6366.5147195987
6360.1622799933
6358.5032461563
6343.6366759747
6336.908299816
6324.6296138297
6304.4855990578
6282.8805134175
6239.0680599308
6202.4837715724
6142.102340992
6091.8081843261
6032.8296073531
5982.8293602174
5929.4378294522
5882.2663150916
5845.8345049123
5823.3117668747
5780.0018819524
5842.1414620146
5896.3841915529
5949.5557545997
6039.4204375811
6122.0738426043
6218.6681609217
6439.8736313264
8366.9491719679
103663.02495961
99964.68331158
98697.059345307
98566.359447811
97326.944810024
94995.499835365
91626.298141614
87858.083795935
83122.546573074
77670.691438636
71668.55198493
65378.420320546
58934.519820154
52563.773166447
46480.507180935
40831.533760067
35708.646367744
31159.862640009
27186.471315039
23749.479422434
20795.575268226
18266.59986134
16109.405214236
14257.286033356
12669.102516795
11306.549465933
10132.954003682
9114.4239438088
8229.2867451384
7458.2627951443
6782.9923579366
6188.0194058039
5663.5516281874
5198.9556668476
4785.8869346034
4417.1811248908
4087.5240369488
3791.3797364017
3524.5892125021
3283.6537371642
3065.4771158162
2867.3325828699
2686.8449324689
2522.2730717832
2371.6595899633
2233.6660593831
2106.7703956282
1990.0209344873
1882.2881438177
1782.6780478991
1690.4537511265
1604.8612042913
1525.3890736829
1451.3923883409
1382.4046715909
1317.9659096327
1257.7161879058
1201.3192635582
1148.4379181383
1098.7823344701
1052.0960835261
1008.1583292263
966.75688719647
927.69206174781
890.80315183176
855.96958104852
822.97434597151
829.73125941537
3207.5725900601
4718.2354254422
4994.9078310223
5161.520869171
5280.1809816162
5316.3908470008
5232.6681738486
5122.1284199856
5007.6896587691
4907.5716940543
4840.0528805913
4819.8552843908
4845.9373063406
4909.5077622996
5001.3699174417
5117.5629484114
5240.6374846453
5386.0975317723
5535.6075417887
5681.0329343698
5816.0925357082
5937.490763548
6043.5276359921
6137.445494134
6223.2834362545
6304.5267505652
6382.8625413507
6458.0665519779
6527.9609913731
6590.8213227831
6644.9570569492
6688.0917694251
6717.758076458
6732.0600359078
6726.8510355384
6704.2684919739
6677.2094057984
6654.3759010837
6625.1210820803
6581.065166945
6532.6332160797
6485.1798340701
6419.108828278
6387.8452124811
6376.3486447845
6357.9188187776
6353.2961245145
6354.4122743682
6340.9931741198
6335.6249807128
6323.062994065
6303.3542252972
6282.5454443354
6240.9427753788
6205.2690721987
6146.5671340796
6097.8369552426
6040.065962045
5989.9504478838
5937.0188587271
5891.1214425456
5855.6940415683
5834.4642291421
5789.8307606116
5854.5492025555
5908.1800688673
5954.232810454
6041.4680539171
6121.5575205155
6212.495945552
6412.4232797796
8226.0604168107
9999.1906598799
45949.031648501
59959.016580808
68462.098653839
73670.485938219
76023.181869237
76038.636126271
74599.263771883
72093.537595488
68700.170620065
64610.824592795
59972.200181261
54951.275019889
49744.28696568
44563.312774745
39594.627922381
34961.394745758
30751.994082844
27001.168126298
23705.925476603
20838.188074772
18359.600120528
16223.26865757
14389.2447566
12806.729521613
11436.045539229
10254.635995412
9230.3595960214
8338.4144352042
7556.6177420985
6873.1146876141
6271.8848405752
5740.1409764187
5268.4312735028
4849.5645392364
4475.8342507942
4141.0580828515
3840.3935549153
3569.8309496075
3325.3145904542
3103.7572759925
2902.597336582
2719.5249050655
2552.4511636999
2399.5610919465
2259.4808294226
2130.7555757978
2012.2913608678
1902.9314449727
1801.9085388218
1708.3813684184
1621.6272691769
1541.0380094483
1466.0110102309
1396.1246288981
1330.8736951528
1269.8629836027
1212.7292636012
1159.1654153019
1108.9005551951
1061.6552760575
1017.1915194974
975.30229675547
935.80857259443
898.52732105084
863.26693036542
829.91255722666
801.93718567637
2186.2787960804
4553.0401896931
4926.751311654
5109.3311917133
5237.6110291559
5304.8533581689
5236.8489150142
5128.8936101624
5013.2125875316
4907.4644897216
4829.6527085835
4795.8159070135
4810.3613565327
4865.554740852
4952.6113324202
5066.162053409
5225.0387692099
5373.5739789518
5525.6576935673
5673.2237629058
5809.8923611027
5932.752757603
6040.0634939155
6134.8984072847
6221.1282453818
6302.0281616795
6378.7435457745
6451.1081306792
6517.4272145405
6576.5451714993
6627.2034957215
6667.3224895132
6694.4699859262
6706.448458273
6698.0446833197
6674.9885756936
6634.9997837218
6614.8922686238
6586.5760679215
6543.0479850466
6500.6616481789
6457.219081928
6391.182456895
6362.9837732365
6354.5807858082
6342.0167283805
6343.7433394337
6349.8658176501
6336.5297322451
6332.6632993042
6319.8842411108
6298.8380122861
6281.0290754309
6242.7416632981
6207.6199863068
6151.4687892769
6105.0369790337
6050.212846846
5999.6631727032
5947.8245696371
5903.7892541476
5870.6411481688
5851.8191199796
5812.3749104668
5869.4780867493
5917.7159523173
5957.879880728
6041.8720187813
6117.7126652714
6199.4106883698
6358.5949354379
7951.6741567467
7870.1239740959
14610.098524108
25010.820690269
33623.890594865
40357.875456683
45280.608310977
48587.8734714
50540.315856858
50733.243697241
50036.690153529
48538.634112577
46286.780893155
43486.378221844
40274.836280651
36836.226200164
33350.882198472
29957.641985115
26754.317559129
23811.248648595
21158.132134861
18796.624781671
16714.887735322
14890.718945789
13296.523371544
11906.554375982
10696.375646585
9639.4937623243
8711.0554783077
7898.6603707746
7184.9584793797
6556.1459162917
5998.485647021
5503.8061186414
5063.976833924
4671.3585456393
4319.1933338195
4003.1245638973
3718.717499105
3461.9241827623
3229.169569401
3017.8065819397
2825.6303126444
2650.3468262349
2490.0141027206
2343.0325403029
2208.1394962204
2084.0431777412
1969.5858908684
1863.8295984441
1766.0082682842
1675.3615474306
1591.2088468947
1512.9175569227
1440.0018468108
1371.9922753367
1308.4733786336
1249.045877414
1193.3471748669
1141.0866309183
1091.9993190785
1045.8409048072
1002.3815525985
961.4154134199
922.75646280896
886.25205434834
851.74587701731
819.08361216115
816.31273397225
3036.9394923897
4656.3967883175
4942.3376150073
5107.0230813585
5221.003131449
5249.6497976487
5157.8453857905
5044.1338340875
4928.312035632
4826.9542781124
4757.5097942002
4734.4613875561
4758.4318179135
4824.2113972755
4924.1728857546
5051.7659162515
5186.6281064705
5342.4956956947
5500.4847636544
5652.7603560255
5793.0812422332
5919.1115522447
6029.147792958
6125.7613302673
6212.8031195356
6292.7579771188
6366.0219378144
6432.929884448
6492.6513666428
6544.7023260342
6588.1269695281
6621.3394463873
6642.4906556526
6649.0868499062
6634.533759748
6610.2636680831
6574.0740280955
6559.5390804963
6531.2178637609
6485.4121460972
6446.8120630206
6418.1995698664
6362.4243469809
6323.2510136575
6306.2953070915
6321.6720174545
6330.3449281358
6337.7173574572
6324.0374018743
6321.6160259179
6305.4791696739
6282.4770856734
6268.2009941116
6234.0820070205
6201.1299257826
6153.3038371525
6110.398593134
6059.8273093913
6010.5318217873
5960.6603442421
5918.5842106962
5889.5975372489
5876.3987027063
5851.2526385867
5893.0639228998
5929.9362644624
5961.9518322854
6033.4285676661
6098.9169613106
6163.801873052
6270.4320676422
7543.8755717539
7627.2734199675
8375.5702673025
12923.738026807
18386.367291457
23421.785864562
27710.769545827
31192.282225158
33792.650082986
35599.561211612
36503.058156587
36495.318194565
35857.891109407
34600.919531068
32875.717286849
30767.127450282
28447.769537198
26039.097739793
23650.290625534
21361.790754293
19226.060325059
17271.850946516
15507.631316213
13930.468282875
12529.438311561
11289.333488016
10194.887915957
9229.1345113349
8376.7890038028
7624.1514384252
6956.5286746946
6363.6878587547
5837.3110458325
5368.1203587424
4949.3409738658
4573.0340148573
4234.9247341789
3930.7342059385
3656.1895034607
3407.5128463648
3181.5167418368
2976.2592360294
2789.1474872936
2618.1863604604
2461.4355546207
2317.7113145864
2185.5754150965
2063.8619218411
1951.4570259573
1847.4882094089
1751.2755518814
1662.0393153427
1579.1155454989
1501.909283025
1429.9669043811
1362.8299819222
1300.0796576762
1241.3363829222
1186.264745721
1134.5847669021
1086.0186893984
1040.3205912996
997.2762473196
956.685949877
918.3831102319
882.20855364978
847.99835103358
815.59782799676
806.09047232044
2889.4495257399
4608.1584395741
4900.9590795688
5061.5352076768
5167.3530763746
5187.4331520656
5089.5330132382
4972.8126910477
4855.5877918648
4753.065440474
4682.1769549951
4657.6024708983
4681.5814141081
4751.1483539232
4858.9354197669
4996.3099728293
5140.358343971
5304.9579238724
5470.1572658075
5628.302048159
5773.0254435706
5901.7295174943
6013.2659412519
6110.9569086836
6198.6893164108
6277.5044578213
6347.4212042401
6409.3301469794
6463.4690481272
6509.441637929
6546.3931910994
6573.1230142393
6588.6262024524
6590.280357494
6570.2589303044
6544.3084019439
6517.1189388517
6507.6346412549
6478.4417200765
6424.3356812558
6392.8732604092
6384.8009488792
6351.012138609
6278.2293292424
6240.7867160887
6303.9150069716
6318.904513647
6318.0755885378
6302.1870639103
6304.4478392431
6286.2337931543
6262.3433574442
6247.5118698124
6213.6833206242
6181.0585811379
6139.3328480281
6097.0733485318
6051.2423157201
6005.7893040815
5960.8963814499
5921.6700100992
5895.3372908885
5885.7605997014
5873.9180266547
5899.2514239086
5918.3886125315
5977.6865640517
6037.9458366322
6100.3896503222
6157.7258832185
6199.1497544365
6998.5022087873
6954.9279895023
6937.5316927888
8391.7884898434
11554.210965973
15031.117125274
18300.543138201
21211.967919796
23659.065113994
25609.161627392
26977.92964682
27713.298497775
27779.543610321
27470.938604613
26652.576072279
25471.604813367
24012.524810269
22385.860777427
20671.142811531
18949.792857612
17280.950927776
15705.368765002
14246.537135882
12912.758961811
11705.303281749
10619.438343971
9647.0183134107
8778.9243771065
8004.7130452406
7314.0665473787
6697.8051068012
6147.4992741765
5655.2527360967
5213.3621211924
4816.2934354486
4459.3660690279
4137.6333609472
3847.0388025434
3583.1280873196
3343.5198985886
3125.8856262336
2927.4504431969
2746.2679101307
2580.0434138121
2427.7129470353
2287.7345924162
2158.8567495127
2039.9048468941
1929.8619052166
1828.1081037507
1733.7760909884
1646.2156433219
1564.7212967252
1488.8141723888
1418.046283141
1351.9399411223
1290.1117874889
1232.177287539
1177.8369292144
1126.8346408183
1078.885275014
1033.7532085303
991.20778254058
951.06161866026
913.17334269069
877.37394750877
843.51374393502
811.42675081199
795.7979625719
2721.6563232048
4560.2503169671
4859.214713194
5011.7780107907
5104.028415159
5113.4628325493
5009.3532380949
4887.4914271158
4767.7926084112
4663.6176873302
4591.4240708651
4566.3078000813
4592.0576535396
4667.4568111347
4784.815188644
4933.4074183293
5087.4474875189
5261.8303263504
5435.2510901202
5600.3095747818
5750.3962810128
5882.2921989664
5995.0097166313
6092.7314034935
6179.5938221972
6256.4668151267
6323.1134708536
6381.0352276118
6430.7490691867
6471.7167217715
6503.2288280495
6524.60722961
6536.1466528999
6534.2604931266
6510.7328953764
6481.8197116154
6468.5041844553
6457.9920660403
6426.5096248441
6359.7940221603
6333.1023935412
6344.2449737585
6323.7130938746
6240.7191315094
6184.8355250198
6263.8033039015
6286.5948554724
6276.7493747058
6259.7890615771
6261.0067971391
6243.0000511369
6228.9072497639
6218.8954668682
6196.865356977
6170.9971050814
6141.8474587528
6100.9313291086
6060.5932663155
6020.4671873247
5985.4491824668
5956.2232923204
5936.1956667684
5932.1818863727
5930.2571246856
5942.400193017
5959.5166397602
5996.1939189508
6037.5272964219
6089.482302856
6113.6427038967
6139.2343597825
7042.7745520802
6316.3669241557
6315.7458107448
6543.7410693576
8129.7259007413
10446.208949396
12839.771942597
15127.599811816
17190.284626812
18938.716738416
20332.611630693
21277.019317707
21869.344602067
21990.449909598
21700.997062237
21098.842557349
20236.719714419
19158.949813709
17960.712765151
16696.943525985
15422.061770147
14178.846332747
12994.377760755
11885.085029659
10860.663062532
9923.7378920525
9072.1760246258
8301.8498173974
7607.133950408
6981.3306602014
6417.83801594
5910.5291472263
5453.5984207552
5041.7372346527
4669.9974681006
4333.6648561006
4028.6170077292
3751.9858863932
3500.6076598488
3271.7441310734
3063.1626640385
2872.1220267745
2697.0478729411
2536.6310095535
2389.1805166214
2253.5018267878
2128.1619902657
2012.2838794522
1905.1617217772
1805.8576908376
1713.7298248554
1627.9753701371
1548.1571846544
1473.7726765418
1404.3253442153
1339.4147147613
1278.6045462035
1221.6049332001
1168.1407538574
1117.9017530671
1070.6530406245
1026.142360476
984.17426461351
944.57368166173
907.16154643869
871.79406526366
838.3124152723
806.54364820913
786.64906469655
2550.5067797134
4520.8778348564
4824.4455490163
4963.750732995
5036.8843636125
5032.3233509134
4922.2378583126
4791.7410894538
4667.6245225165
4560.9933529143
4487.7511723495
4463.3831024958
4492.8703740958
4575.9814446317
4704.3877703545
4865.3667987336
5029.9643662325
5214.8712933691
5396.9731844366
5569.3855513662
5725.5471567818
5861.0006597441
5975.1411368021
6072.3741636782
6157.3111713956
6231.2710657514
6294.4079259225
6348.8165162286
6394.6933478245
6431.601434954
6459.2572515253
6477.3685838613
6486.2731324184
6483.0838672347
6457.564291604
6424.5663475477
6426.4860681765
6408.8913073923
6368.3654545384
6293.7676359542
6281.3821613592
6302.0703457046
6274.0648806608
6205.4158190263
6148.3392516087
6216.4735194426
6253.4413066026
6258.0784477591
6241.6961435004
6255.1406019577
6224.3254208795
6218.2362905888
6200.1750752409
6181.625632731
6150.3280361472
6127.3606399432
6086.0639390659
6056.6366539515
6024.5377064875
5996.8013186762
5976.9243488584
5957.6795273919
5958.5629921929
5952.4514348743
5971.2511379318
5970.4611506008
6008.7804748581
6032.6528229335
6071.3375142464
6093.3378039089
6117.5275394421
7471.558451603
5788.4221610903
5777.0726685418
5735.703841
6327.2037002674
7766.5991499792
9496.9304635098
11255.321331594
12923.235087017
14407.576859466
15661.254346655
16665.135449162
17364.465876056
17704.923580763
17739.729632331
17531.074458267
17062.314934526
16378.983492628
15568.164316732
14657.638756513
13700.971182146
12733.990391201
11786.160658675
10878.013149814
10021.656633031
9223.8577165652
8487.1027897867
7810.9292870645
7193.7680033974
6632.2610801287
6122.1248075842
5659.0758538545
5238.8783938834
4857.5699406091
4511.3190350965
4196.4828711574
3909.952782564
3648.9501441695
3410.6711779658
3192.6676730447
2993.2595649003
2810.5176851304
2642.8228501908
2488.6808808168
2346.3199331761
2214.9608298513
2093.7189798998
1981.4932206123
1877.5370287292
1780.9818151806
1691.0863532006
1607.5140998395
1529.5980631082
1456.8953902132
1388.9179780939
1325.2514952446
1265.639317485
1209.7273365515
1157.2158841117
1107.8517117675
1061.3452066231
1017.5421065164
976.23952966372
937.23477902672
900.36496530759
865.46480012474
832.39342362089
801.04509385554
778.80079720046
2401.3150101779
4503.1313819531
4806.4287621061
4925.7283537763
4973.9879050377