/*--------------------------------*- C++ -*----------------------------------*\
| =========                 |                                                 |
| \\      /  F ield         | OpenFOAM: The Open Source CFD Toolbox           |
|  \\    /   O peration     | Version:  2312                                  |
|   \\  /    A nd           | Website:  www.openfoam.com                      |
|    \\/     M anipulation  |                                                 |
\*---------------------------------------------------------------------------*/
FoamFile
{
    version     2.0;
    format      ascii;
    arch        "LSB;label=32;scalar=64";
    class       volScalarField;
    location    "6e-05";
    object      pTsat;
}
// * * * * * * * * * * * * * * * * * * * * * * * * * * * * * * * * * * * * * //

dimensions      [1 -1 -2 0 0 0 0];

internalField   nonuniform List<scalar> 
109340
(
386337.83287464
384909.10561025
382081.32534219
378662.1856099
374910.09436713
371036.20252176
367122.65281305
363219.74249742
359416.7202648
355701.08127987
352019.39232489
348368.10012011
344750.74400499
341169.79198939
337626.95769626
334123.76912409
330659.61357891
327232.06878464
323836.29032416
320465.39231226
317109.22437784
313756.72301397
310395.34557862
307009.94539295
303580.5125919
300081.03342353
296476.87171213
292721.55347663
288751.31534049
284476.80752618
279769.447711
274438.44708672
268195.09904153
260611.43258703
251094.7481141
238895.55894435
386607.38710501
384733.39336286
381547.60120977
377895.85154866
374040.79335875
370163.44194059
366315.60200121
362507.78195375
358736.75374338
355005.30098532
351307.85582841
347645.34150681
344020.20720721
340433.97928955
336887.63843249
333380.80701601
329913.49236759
326482.69430447
323082.73397317
319705.66080174
316341.08559994
312977.69107924
309602.56835959
306199.74847256
302748.05650008
299219.63582917
295577.36858455
291771.03846781
287731.28740002
283360.06182827
278514.54910115
272978.17472908
266411.05606625
258287.10660272
247745.75225662
233857.87633917
387484.20936455
385289.60692382
381766.19417488
378023.42735329
374200.39244601
370377.17325721
366546.4431104
362720.72545041
358924.86458133
355166.33994778
351444.10565313
347758.71738191
344112.00719871
340505.48552621
336940.71015426
333418.7665592
329939.35556797
326499.5743193
323093.24935888
319712.06123044
316344.82827737
312980.05841091
309604.64387123
306202.51241263
302752.24874726
299225.78092863
295585.85151586
291782.14709724
287745.15371871
283376.18240725
278530.99177572
272986.7350601
266375.69272467
258084.53458547
247011.84249618
231394.04677241
388708.8598929
386028.873337
382315.03674231
378457.69659134
374553.67496174
370644.30160432
366744.18485246
362867.57594803
359030.77153701
355239.32485126
351492.70641571
347790.34246662
344132.3769971
340519.10690585
336950.77143066
333427.33474868
329948.03665319
326509.57063434
323104.85490544
319725.76245584
316359.68856225
312995.69655119
309621.0086101
306219.58220813
302770.51119482
299245.63639011
295607.78127492
291806.66108788
287772.58698851
283405.96862915
278560.66824839
273008.5757469
266345.29377302
257845.97139982
246013.55243181
227474.62879832
390647.75428676
387109.34516946
382824.18140203
378690.32325106
374674.48088942
370724.28965061
366810.59181112
362935.41365746
359102.08818242
355311.00777778
351563.71277614
347860.61235456
344202.03038646
340588.40573108
337020.2247238
333497.93263429
330021.79689209
326589.68092797
323187.77203897
319814.59763109
316452.32634155
313091.57157951
309719.96184556
306321.19020203
302875.30988948
299353.96391057
295720.05424318
291923.24369176
287893.53167283
283530.21197871
278681.14451622
273126.60148813
266414.65210105
257712.34417714
245025.53937608
222044.45915634
394289.70012369
387683.47325462
382944.27542144
378720.33150801
374699.2195757
370757.71331778
366854.53349849
362982.16074722
359146.75105274
355349.7338458
351593.76458302
347879.66616528
344207.96715771
340579.16736181
336993.85721906
333452.73845385
329956.86118579
326512.80673214
323135.08541329
319756.30165624
316386.37648375
313018.54157617
309640.67049404
306236.84591035
302786.15416482
299260.4733497
295622.48808717
291821.86559047
287788.6436231
283421.72625071
278556.94248606
273006.64529095
266270.41365775
257470.24542423
244320.17938583
216516.56597696
224150.75018265
209374.45128588
197031.9169434
187092.2966686
178169.61251133
168667.37257033
158168.82169443
146524.70811516
133880.42106487
120576.36617577
106493.26469985
93398.163395516
80995.666701751
69485.879107606
59409.668315305
50627.189876396
43126.570318431
36793.275950099
31471.959145792
27040.048226513
23360.048030337
20279.402133841
17699.513723276
15536.222653916
13697.764764463
12134.582071064
10847.442766055
9683.779987191
8708.0783354918
7872.2854670962
7113.8565001313
6494.3117793575
5905.2632597088
5428.2710104935
4966.7832029214
4591.5711590604
4225.3565325425
3925.6810120583
3631.2938747353
3388.4955244556
3150.2415941476
2949.6690996401
2757.2168890395
2587.4821465823
2432.0709232741
2285.4848020891
2157.4043862535
2032.4414699329
1924.0599996625
1820.3114865117
1724.8393458741
1636.5500667466
1554.5513528693
1478.4206851538
1407.493407414
1341.3466975287
1279.5082849188
1221.6413794784
1167.4117024127
1116.5319905379
1068.7199467869
1023.7312457066
981.36188168352
941.43015409631
903.75851670775
868.15193989485
834.46094728549
810.28401757053
2345.098687032
4651.9307126368
5004.4834828068
5186.9046185075
5315.8272078726
5380.5772369999
5314.7973363986
5211.3187443491
5097.3282845249
4991.9455901571
4914.9036203844
4882.6268239513
4901.2247644138
4956.7407255876
5037.5603858043
5138.3530283594
5286.1834122475
5416.7986334732
5558.5288184768
5698.9162961964
5828.6453602636
5945.5112865704
6047.0351730124
6137.6919000635
6222.6803121219
6306.0166942404
6389.6470308296
6472.7327924974
6552.5565140085
6627.2071719973
6694.2009400713
6749.9703213373
6790.9848124846
6815.0432007896
6820.6356161142
6809.946356543
6781.8873869584
6749.0950291288
6714.6905470959
6666.5565608404
6613.11311665
6545.8051342952
6504.8740979239
6443.0900952348
6389.1834218626
6376.1616078499
6385.1445434078
6394.6034386137
6366.4687530924
6341.3119925981
6325.9152783601
6306.506055253
6286.9398961916
6240.7770614933
6197.4705184384
6133.4566714948
6076.1274341318
6011.7689641709
5958.6863217455
5902.6693524732
5856.1819867636
5817.5611193422
5802.935323304
5771.3029310004
5790.9618995855
5865.6164982598
5956.1272848727
6047.3975177965
6137.4613355029
6283.4041722921
6614.7167672434
8221.8312607686
216580.19413102
200968.25793535
189280.02520967
180165.59432582
171214.4993017
161156.65846655
150247.69051046
138448.60420919
126003.66139385
113141.92151123
100190.20654157
87473.47552524
76004.012150073
65508.145882221
56108.925783013
47958.673670617
40960.306575226
35030.867465796
30054.376782785
25889.674966494
22407.594791025
19496.210507828
17052.655318069
14992.439320203
13249.411760967
11767.180247241
10499.675216558
9413.2600297913
8472.1169539028
7658.6955955969
6947.9127147864
6326.9768583899
5780.4787786155
5297.4289951303
4869.6930980568
4488.5099886355
4148.5675622504
3843.5904296142
3569.7419322247
3322.7378054774
3099.2973630004
2897.075503718
2712.705816578
2545.352079688
2391.7956229925
2251.9033078824
2122.8760604605
2004.6693937924
1895.382208928
1794.6062390328
1701.2336712804
1614.5831709184
1534.1761430002
1459.3570059555
1389.7019022588
1324.6785478713
1263.9045868376
1207.0092442752
1153.6742836153
1103.6029522863
1056.5381575444
1012.2550048584
970.53597317975
931.18539286573
894.02993549536
858.94674952128
825.76697606606
840.8169032338
3323.2363454962
4764.2338913564
5034.8988681096
5203.4605032748
5326.0984156356
5363.4124870955
5283.7042850667
5175.9418112613
5062.6819744531
4962.9767473562
4896.2613938279
4877.2784858098
4905.942658135
4969.0932621428
5055.8878775477
5162.3630764347
5266.9924987773
5402.2316211648
5543.6031982256
5683.866935904
5814.0780183195
5931.5950111653
6034.0531087222
6125.712310289
6211.3793659086
6294.6375177077
6377.2971998241
6458.4735473177
6536.0854157791
6608.2294486863
6672.4738267717
6725.3591016586
6763.4134484129
6784.3836062748
6787.5177579095
6772.2158815289
6740.9244637097
6709.4940190309
6670.1839338905
6632.0686070456
6566.7084438309
6510.4738005591
6467.324160271
6410.1843694174
6369.1637715239
6359.6209030579
6369.7339745956
6370.9410599551
6345.9785957729
6327.5869094915
6316.3631343069
6297.8023122935
6277.8784229557
6233.0232613269
6191.7659799642
6130.5858563238
6075.1607899871
6013.3054891719
5961.6095037243
5906.6773787041
5859.6845563135
5821.2284204237
5802.1461367362
5770.2177521907
5797.0408792759
5863.9964895623
5948.0112322436
6034.3417830808
6121.1240809545
6260.7854045861
6599.3399064893
8355.5007072425
210062.37620848
191645.5023613
181025.43720827
170493.53831141
161324.34799047
151554.08636445
140881.20421571
129645.20529712
118071.68543489
105988.79060133
94685.269762522
83473.712387227
72917.77022665
63208.645967098
54453.889952858
46737.586974223
40067.647555659
34390.308183379
29592.011695262
25544.534533826
22146.14123205
19299.318697641
16901.273825833
14873.905944406
13157.642749788
11695.266458338
10441.777838093
9365.3238362601
8435.7693087914
7626.8342256238
6922.8958583679
6304.8947485186
5762.4558352719
5281.9467756498
4856.7364838092
4477.282252149
4139.1138554142
3835.3152275731
3562.8050311537
3316.4022477161
3094.244550867
2892.1524873831
2708.9319878169
2541.5232325405
2388.8679104163
2248.9067788285
2120.4015169824
2002.3329228037
1893.2600293142
1792.730797113
1699.4752357768
1613.1353059456
1532.8249382514
1458.1221385064
1388.5373661745
1323.5994527189
1262.9188846781
1206.1068022374
1152.844837131
1102.8361149493
1055.8308803701
1011.603286633
969.93444283215
930.62758072677
893.51030780535
858.47028082012
825.31189953181
838.80752866196
3308.6794361133
4757.8578046449
5028.7743988145
5196.7778832482
5318.309801569
5355.5341346159
5275.5557600966
5167.3568038393
5053.9048087929
4954.2271471228
4887.5729526622
4868.6683607158
4897.0280184441
4960.4295320113
5047.9551021244
5156.3144645224
5270.5984338222
5408.9933247759
5553.5943471315
5695.9122842115
5828.14600591
5946.7415422136
6050.2055530584
6142.3016178998
6227.7705246023
6310.3005971349
6392.2342262323
6472.6890303272
6549.6096166116
6620.8594500056
6683.9763425465
6735.3463162084
6771.6200046648
6790.9537428749
6792.545899323
6775.1171595671
6743.0963431523
6714.0329788343
6682.2451755002
6636.2016072579
6578.2730470392
6528.4638501553
6474.8292834258
6417.1067393849
6385.5709560003
6376.1619375268
6379.8165438508
6373.8008064343
6350.1600592425
6337.7062492048
6326.3105229129
6306.3849284
6284.5287770715
6238.4147318315
6199.9127564194
6136.8538248867
6083.9243239801
6021.4015225548
5971.0659723557
5915.6603993662
5867.8229764723
5829.5369710817
5806.7314473597
5766.5566727499
5820.2075774684
5874.3829053277
5952.2036953207
6037.6343708211
6124.849794952
6235.6313970292
6502.5131190821
8560.1187432897
197812.29931654
176368.44934693
166070.20921608
155496.57453427
145852.2585382
136584.24983604
126858.24108433
117057.18536809
107118.59308678
96696.676624836
87675.05220204
78157.074918989
68876.208766932
60182.672917052
52186.951395086
45081.589977601
38869.916082551
33506.503758058
28933.282636953
25065.950251654
21795.999736905
19023.827210847
16689.713072954
14713.668662263
13030.329978934
11592.640149285
10361.586029857
9300.1136741922
8381.9219446252
7583.4950817448
6886.3036890006
6274.8275184523
5736.3672647695
5260.6882815817
4838.0003344932
4461.9545700664
4125.5327688277
3824.0866836632
3552.7283578122
3308.1112151756
3086.6829912474
2885.7794694189
2703.1947057426
2536.5364236614
2384.4439029385
2244.8697491721
2116.9705938897
1999.0840993148
1890.4814810325
1790.0875276724
1697.139920455
1611.0095671669
1530.9214517415
1456.4202174805
1386.9487437819
1322.1415707213
1261.5714248247
1204.8655715965
1151.7030271529
1101.7893725585
1054.8696577796
1010.7147504674
969.11182175496
929.86688058476
892.81101111198
857.82851925394
824.70195252602
836.39552334821
3283.6976579181
4747.6807507676
5020.0028164355
5187.4459840383
5307.873341965
5345.072744395
5264.4090538794
5155.5723037992
5041.8462564476
4942.1367550451
4875.3874843501
4856.3868222687
4884.0792334997
4947.5811682274
5036.2943810215
5146.9713113168
5262.4790412181
5402.7114023429
5548.2996837056
5690.9200537987
5823.4678665493
5942.5509208892
6046.5712873226
6139.1362914199
6224.7474810859
6307.0288079007
6388.138431434
6467.3891277085
6542.7235459038
6611.9947030317
6672.8903814914
6722.0887392731
6756.3491329824
6774.0172550227
6773.5360251153
6754.4205322332
6722.6329975771
6696.3616920771
6665.6262537502
6618.9424328395
6563.6952873015
6516.457974584
6456.5951301776
6407.0869335476
6383.4219147308
6375.0602424359
6370.5704798073
6363.5564801638
6345.0892277197
6336.5625158404
6324.2757094072
6304.0611237678
6281.9422230282
6237.2462055762
6199.7177486181
6138.1891832302
6086.3477912874
6025.8025944762
5975.6043964653
5921.6047206851
5873.89122177
5836.6083234434
5812.8363241932
5772.181848723
5831.8112872944
5886.0145108542
5947.9781829756
6037.2824915832
6122.2704535628
6226.4490047934
6466.806064152
8466.196649449
171302.84355166
151365.97906881
140035.38322721
131113.97903713
123444.2868479
116082.58394764
109151.76111859
102278.95001745
95072.119537927
87681.528807939
79917.238793853
71956.35673101
64082.700715879
56542.964854294
49508.708709324
43088.429253097
37387.779092266
32419.472815743
28130.985869358
24458.343357046
21334.449451593
18686.404454893
16425.191516835
14503.691443862
12866.373642794
11464.8602545
10257.426299672
9215.8131979214
8313.2233709006
7527.3918838758
6839.3639475901
6235.9518006133
5703.5275021571
5232.7703679671
4814.4423028104
4441.891943004
4108.3136657183
3809.3567186502
3540.0548329054
3297.1590806102
3077.0534627059
2877.5403934369
2695.8000344697
2530.1588309888
2378.6452885783
2239.8439736281
2112.3939459059
1994.9859553292
1886.8089778632
1786.7297106467
1694.1551743842
1608.23916984
1528.4388463884
1454.1721888836
1384.9136803478
1320.2731217788
1259.8363163102
1203.2658230994
1150.2325467164
1100.4410856589
1053.6275700615
1009.5661893379
968.05173786231
928.8893323054
891.91071847262
856.99566837686
823.91908075057
833.34486801418
3249.8296672315
4734.2866921463
5008.632916269
5175.613430401
5295.0914901135
5332.0714269478
5250.1908234464
5140.5545477716
5026.4877057395
4926.6274315534
4859.5644659468
4840.1205470646
4867.0794747558
4930.5662379216
5020.6816081158
5133.958569377
5253.7880177266
5396.3562142503
5543.6111214475
5687.3321771136
5820.898069938
5940.7688849992
6045.4592368824
6138.470510963
6224.0462695514
6305.7822035854
6385.6172168587
6463.2105719727
6536.369966512
6603.063504556
6661.0411361266
6707.3902329409
6739.4469586899
6755.6326618677
6753.3493498544
6732.6699059276
6703.3187378955
6678.8359031178
6648.5825387548
6603.5718070256
6551.1758944408
6502.0715342143
6440.0426785057
6398.8008242744
6383.3471758968
6366.5140518104
6360.1615921815
6358.5025964818
6343.6360777318
6336.9076331204
6324.6288410086
6304.4848494505
6282.8797610308
6239.0673771353
6202.4832159095
6142.1019082386
6091.8079198225
6032.8294269521
5982.8293053671
5929.4378702645
5882.2664610276
5845.8346334898
5823.3117923484
5780.0018162072
5842.1413033938
5896.3837965765
5949.5551182836
6039.4197505317
6122.0731236412
6218.6673409907
6439.8698585105
8366.7642145452
103663.02512449
99964.683308492
98697.059540328
98566.359012761
97326.938067465
94995.502489439
91626.297258789
87858.083909621
83122.54647054
77670.691337938
71668.551875229
65378.420252757
58934.519624027
52563.772895063
46480.506896182
40831.533464737
35708.646033377
31159.862268313
27186.470941546
23749.479063034
20795.574908074
18266.599498105
16109.404862878
14257.285597648
12669.102187511
11306.54915984
10132.953757626
9114.4236799463
8229.2864722297
7458.262624814
6782.9920804096
6188.019271901
5663.5514019847
5198.9555638347
4785.8867414658
4417.181036433
4087.5238701838
3791.3796765832
3524.5890680409
3283.6537042639
3065.4770033263
2867.3325704266
2686.8448560443
2522.2730544048
2371.6595607017
2233.666030168
2106.7704110422
1990.0209097287
1882.2881860223
1782.6780518148
1690.4537975861
1604.8612503853
1525.389125223
1451.3924659236
1382.4047405359
1317.9660019018
1257.7162825309
1201.3193719332
1148.4380386262
1098.7824675657
1052.0962300662
1008.1584839747
966.75705014331
927.69223124531
890.80333707986
855.96977911749
822.97461227241
829.72517806694
3207.5568941991
4718.2340337712
4994.9077241253
5161.5206183404
5280.1806136842
5316.391875311
5232.6681711412
5122.1284325291
5007.6896950213
4907.571740511
4840.0529402708
4819.8553576261
4845.9374189345
4909.5078813959
5001.3699873767
5117.5629522527
5240.6382448017
5386.0975153227
5535.6075259829
5681.0329523708
5816.0925609268
5937.4907698655
6043.5276184728
6137.4454592647
6223.2833937628
6304.5267085951
6382.8625010741
6458.066508303
6527.960939451
6590.8212589861
6644.9569766356
6688.0916701129
6717.7579568049
6732.0598899282
6726.8508424165
6704.2682021786
6677.2092611399
6654.3757713388
6625.1209186047
6581.0649601154
6532.6330287961
6485.1796357122
6419.1086985055
6387.8453237724
6376.3483366867
6357.9183598732
6353.2956997979
6354.4119089497
6340.9928553661
6335.6246329289
6323.0625512824
6303.3538085502
6282.5449681625
6240.9424548623
6205.2687896682
6146.5669030112
6097.8368662183
6040.0659285215
5989.9505518149
5937.0190379523
5891.1216947626
5855.694285944
5834.4643601777
5789.8308055064
5854.5490532881
5908.1797368939
5954.2322405071
6041.4674580221
6121.556795109
6212.4949398952
6412.4241394241
8226.1158652631
9999.1908597568
45949.031660144
59959.016807366
68462.099017771
73670.485347187
76023.182542652
76038.636001283
74599.263847703
72093.537481227
68700.17052292
64610.824492457
59972.20013135
54951.274872406
49744.286743466
44563.312515375
39594.627654
34961.394455372
30751.993751073
27001.16776551
23705.925114528
20838.1877429
18359.599780718
16223.268337488
14389.24451622
12806.729245432
11436.045257139
10254.635729513
9230.3593969001
8338.4142117483
7556.6175452579
6873.1144701998
6271.8846570984
5740.1407952102
5268.4311206821
4849.5643935969
4475.8341197359
4141.0579546023
3840.3934452078
3569.830831296
3325.3145184785
3103.7571744967
2902.5972990029
2719.5248283351
2552.4511490346
2399.5610455195
2259.4808209854
2130.7555700534
2012.2913567559
1902.9314753208
1801.908546778
1708.3814169386
1621.6273046716
1541.0380655261
1466.0110781774
1396.1246987836
1330.8737853108
1269.8630737644
1212.7293696436
1159.1655310446
1108.9006832219
1061.6554171881
1017.1916725129
975.30246006258
935.80874669945
898.52749755503
863.26710682719
829.9127451707
801.9387006745
2186.2766514737
4553.0353039731
4926.7511937155
5109.3310388727
5237.6106155404
5304.8553316781
5236.8490259314
5128.893633069
5013.2126248426
4907.464536907
4829.6527502362
4795.8159935062
4810.3614683683
4865.5548690505
4952.611413609
5066.1620535242
5225.0397320548
5373.573953924
5525.6576748661
5673.2237838716
5809.892386324
5932.752767746
6040.0634808066
6134.8983734485
6221.1282000609
6302.0281116635
6378.7434916356
6451.1080620213
6517.4271313171
6576.5450698845
6627.2033752221
6667.3223507102
6694.4698274435
6706.4482699031
6698.0444627694
6674.9883332521
6634.9997461083
6614.8922587868
6586.5760483328
6543.0479775363
6500.6616356176
6457.2190573425
6391.1827069499
6362.9842839435
6354.5806861917
6342.0166922804
6343.743477088
6349.8659662956
6336.5298729963
6332.6634063089
6319.8842352945
6298.8380078099
6281.0290057353
6242.7417038399
6207.6200424554
6151.4688566996
6105.0371702231
6050.2130474745
5999.663501887
5947.8249779356
5903.7896824635
5870.6415441152
5851.8193793107
5812.3751339862
5869.47809723
5917.7157489948
5957.8793960872
6041.8714536637
6117.712017305
6199.4097817297
6358.5947115439
7951.6734279434
7870.123999659
14610.09858437
25010.820638626
33623.890360083
40357.875526716
45280.608371866
48587.87338149
50540.315824713
50733.243654824
50036.690128901
48538.634272448
46286.780838216
43486.37815394
40274.836153633
36836.226032307
33350.881958806
29957.641768895
26754.317267212
23811.248340929
21158.131825776
18796.624473315
16714.887436595
14890.718636782
13296.523085731
11906.554110142
10696.375345066
9639.4935080214
8711.0552187498
7898.6601435457
7184.958255716
6556.1457083537
5998.4854753479
5503.8059509302
5063.976700664
4671.3584185389
4319.1932214638
4003.1244518793
3718.7174007109
3461.9240837713
3229.1694856509
3017.8065086633
2825.6302342726
2650.3467755376
2490.0140432041
2343.0325162737
2208.1394727021
2084.0431777292
1969.5859027109
1863.8296141644
1766.0083045163
1675.3615801735
1591.2089004056
1512.9176142031
1440.0019150737
1371.9923570195
1308.4734635818
1249.0459771987
1193.3472818717
1141.0867508932
1091.9994504793
1045.8410461608
1002.381703898
961.41557078984
922.75663110668
886.25224138089
851.74607178641
819.08386867905
816.30666841758
3036.9240782667
4656.3946657649
4942.3375056136
5107.022873634
5221.0030368356
5249.6508917071
5157.8455090554
5044.1338770483
4928.3120817229
4826.9543245283
4757.5098464183
4734.4614698575
4758.4319273919
4824.2114872256
4924.1729064484
5051.7658534142
5186.6294559275
5342.4956532693
5500.4847443834
5652.7603750029
5793.0812558884
5919.1115489909
6029.1477671862
6125.7612896874
6212.8030639676
6292.7579075585
6366.0218440192
6432.9297543667
6492.6512015103
6544.7021312479
6588.1267498989
6621.3392068746
6642.4903974737
6649.0865669377
6634.533470522
6610.2634177827
6574.0741079437
6559.5392343866
6531.2180432762
6485.4124061454
6446.8123783981
6418.1999597525
6362.4250409282
6323.251824762
6306.2956409817
6321.6726250952
6330.3457790166
6337.7180766087
6324.038024129
6321.6166389444
6305.4796317017
6282.4775524982
6268.2012859502
6234.0823555722
6201.1303659487
6153.3042198643
6110.3990882377
6059.8278246022
6010.5324486045
5960.6610708346
5918.584982461
5889.5982404798
5876.3992557579
5851.2531016312
5893.06424044
5929.9364146629
5961.9520355965
6033.4283943346
6098.9165863308
6163.8012005658
6270.4314682775
7543.8765022545
7627.2734284084
8375.5703156746
12923.738057931
18386.367386495
23421.78587843
27710.769653688
31192.282248631
33792.650075177
35599.561279601
36503.058298358
36495.318663335
35857.889082882
34600.919812577
32875.717659939
30767.128037376
28447.76930374
26039.097580369
23650.290407049
21361.790490273
19226.060033195
17271.85063994
15507.631029156
13930.468009178
12529.438038363
11289.333228722
10194.88766937
9229.1342811157
8376.7887761983
7624.1512218779
6956.5284600471
6363.6876625461
5837.3108558957
5368.1201908177
4949.3408191029
4573.0338798065
4234.9246124736
3930.7340974079
3656.1894115469
3407.5127624745
3181.5166665268
2976.2591633869
2789.1474269281
2618.1862987389
2461.4355127188
2317.7112808119
2185.5754002158
2063.8619209408
1951.4570357272
1847.4882327387
1751.2755777883
1662.039355574
1579.1155925903
1501.9093408097
1429.9669753996
1362.8300595061
1300.0797483907
1241.3364812391
1186.2648547898
1134.5848873243
1086.0188191285
1040.3207323821
997.2763974622
956.68610734804
918.38328143315
882.20873965934
847.99855247761
815.59812499708
806.08501108822
2889.434311258
4608.15563021
4900.9589659295
5061.5350257184
5167.3531461044
5187.4342798312
5089.5332532573
4972.8127484941
4855.5878411618
4753.065487171
4682.1770027476
4657.6025262733
4681.5814836709
4751.1483837367
4858.9353798697
4996.3098559957
5140.3600411732
5304.957844536
5470.157241527
5628.302061776
5773.0254431793
5901.729493324
6013.265889494
6110.9568370618
6198.6892298432
6277.5043517777
6347.4210601775
6409.3299517341
6463.4688057099
6509.4413544693
6546.3928743429
6573.1226746595
6588.6258574299
6590.2800196125
6570.2586221677
6544.3081922568
6517.1191811043
6507.6349509227
6478.4421276528
6424.3362484067
6392.8739702875
6384.8018012203
6351.0131936524
6278.2303363702
6240.7876754982
6303.9159893201
6318.9057165986
6318.0766549984
6302.1880652254
6304.448826686
6286.234578941
6262.3442612732
6247.5127610473
6213.68401248
6181.0592787573
6139.3335640113
6097.0740817155
6051.2430487062
6005.790180349
5960.8973537014
5921.6710094989
5895.3382287538
5885.7614338114
5873.9187826252
5899.2520232494
5918.3890883091
5977.6866433394
6037.9457414965
6100.389446636
6157.7255209455
6199.1493069284
6998.5003673446
6954.9279894646
6937.5317288929
8391.7885627249
11554.21102561
15031.11717707
18300.543199131
21211.967981359
23659.065210032
25609.161786899
26977.930305832
27713.299752251
27779.543664851
27470.941025895
26652.575820024
25471.604431191
24012.524230186
22385.860734032
20671.142615224
18949.792707247
17280.950793333
15705.368575958
14246.536871262
12912.758683603
11705.30302517
10619.438101124
9647.0180819171
8778.9241602521
8004.7128331648
7314.0663384026
6697.8049019059
6147.4990912611
5655.2525685656
5213.3619802731
4816.2932961252
4459.3659441434
4137.6332484088
3847.0387002842
3583.1279860932
3343.5198129158
3125.8855445384
2927.4503685226
2746.26784394
2580.0433628153
2427.7129062771
2287.7345673167
2158.8567418294
2039.9048510341
1929.8619237121
1828.108126945
1733.7761238292
1646.2156820197
1564.7213454408
1488.8142325818
1418.0463512272
1351.9400215267
1290.1118764497
1232.177386639
1177.8370387443
1126.8347598722
1078.8854046984
1033.7533482666
991.20793206666
951.06177946669
913.17351506716
877.374131203
843.5139435616
811.42709211107
795.79456444119
2721.6411536052
4560.2473267453
4859.2145418769
5011.777858858
5104.0285533145
5113.4640968023
5009.3536049544
4887.4915081551
4767.7926619597
4663.6177330123
4591.4241102401
4566.3078416549
4592.0576727413
4667.4567729178
4784.8150833369
4933.4072389643
5087.4491158049
5261.8302075996
5435.251096584
5600.3096090317
5750.3962647286
5882.2921493112
5995.0096316148
6092.7312946508
6179.5936964909
6256.4666616874
6323.1132730734
6381.0349720483
6430.7487606179
6471.7163649596
6503.2284335093
6524.6068300259
6536.1462719515
6534.2601498426
6510.7326215223
6481.8196161587
6468.5046398846
6457.9925638673
6426.5102979208
6359.7948714885
6333.1035183183
6344.2461020945
6323.7143288861
6240.7204174091
6184.8368811473
6263.8048946098
6286.5965521817
6276.7507420061
6259.7903245158
6261.0078672243
6243.0009927416
6228.9080926092
6218.8961566189
6196.8659778007
6170.9979232406
6141.8482123633
6100.9320644848
6060.5940021233
6020.4680458715
5985.4500598833
5956.2241516762
5936.196490007
5932.1826226495
5930.2578727523
5942.4008782755
5959.5173283819
5996.1945551278
6037.5279336648
6089.4829803512
6113.6429136089
6139.2342807652
7042.6961051599
6316.3669391042
6315.7458728236
6543.7411291568
8129.7259376197
10446.209033826
12839.771982901
15127.599892069
17190.284730237
18938.716771662
20332.609369943
21277.019340975
21869.358767327
21990.453209678
21701.00479954
21098.840298956
20236.719961355
19158.950157839
17960.712131969
16696.943314667
15422.061564834
14178.84606037
12994.377552128
11885.084891169
10860.662880594
9923.7376909316
9072.1757980869
8301.8495907576
7607.1337528427
6981.3304884426
6417.8378507261
5910.5289834764
5453.5982588833
5041.7370793237
4669.9973273981
4333.6647425538
4028.6169089272
3751.9857944687
3500.6075798898
3271.7440476553
3063.1625899783
2872.1219632519
2697.0478179071
2536.6309627785
2389.1804806624
2253.5018065353
2128.1619760207
2012.2838846887
1905.1617385659
1805.8577201292
1713.7298609474
1627.9754194724
1548.1572404524
1473.7727393669
1404.3254178355
1339.4147961966
1278.6046361447
1221.605033905
1168.1408638586
1117.90187334
1070.6531708308
1026.142500433
984.17441506523
944.57384425608
907.16172054829
871.79425020792
838.31259835549
806.5438274675
786.64756017154
2550.4926316847
4520.8740661551
4824.445280641
4963.7506149636
5036.8845304488
5032.3245853459
4922.2383163073
4791.7412475223
4667.6245880613
4560.993395215
4487.7511937573
4463.3831118382
4492.8703407525
4575.9813406828
4704.3876007504
4865.366556131
5029.9661825035
5214.8711961875
5396.9731136763
5569.3855126474
5725.5471107662
5861.0005746234
5975.1410111446
6072.3740099801
6157.3109964887
6231.2708588322
6294.4076717371
6348.8162062783
6394.6929835961
6431.6010269672
6459.2568288761
6477.3681805208
6486.2727946675
6483.0835817935
6457.5641017085
6424.566431688
6426.4866806616
6408.8920208272
6368.3662740049
6293.7685917918
6281.3834757303
6302.0718806117
6274.0664858497
6205.4173479406
6148.3405220643
6216.4749689369
6253.4428087835
6258.079590123
6241.6975606709
6255.1416778975
6224.3265081703
6218.237213978
6200.1760683877
6181.6264022632
6150.3287874726
6127.3612615515
6086.0645085588
6056.6372693292
6024.5383243595
5996.8019758358
5976.9250878826
5957.6803228979
5958.5638343636
5952.4523958508
5971.2520359649
5970.462279241
6008.7815624469
6032.6540019906
6071.3388328311
6093.3388410622
6117.5212322047
7471.9040008972
5788.4221395051
5777.0727249905
5735.7038885931
6327.2037619628
7766.5992441248
9496.9305070882
11255.321415165
12923.235178463
14407.576831731
15661.256107328
16665.13169635
17364.46222357
17704.925284539
17739.738222887
17531.081568227
17062.31488729
16378.984309131
15568.164835226
14657.639607819
13700.970928047
12733.990232717
11786.160484555
10878.012963711
10021.656432921
9223.8575213407
8487.1026284102
7810.9291189043
7193.7678308308
6632.260918995
6122.1246516114
5659.0756950973
5238.8782364069
4857.5697922672
4511.3189043825
4196.4827604349
3909.9526870381
3648.9500506953
3410.6710895314
3192.6675852735
2993.259494297
2810.5176206521
2642.8227987723
2488.6808358436
2346.3199144627
2214.9608166619
2093.7189745704
1981.4932223774
1877.5370414248
1780.9818411177
1691.0863887496
1607.5141506501
1529.5981217651
1456.895461004
1388.9180562603
1325.2515803627
1265.6394130521
1209.7274409238
1157.2159973672
1107.8518347097
1061.3453384945
1017.542248764
976.23968102938
937.23494231813
900.36514267901
865.46498657798
832.39361120351
801.04529375676
778.79910421554
2401.309067409
4503.1271575596
4806.4284148144
4925.728261156
4973.9880766063
4951.3829108413