/*--------------------------------*- C++ -*----------------------------------*\
| =========                 |                                                 |
| \\      /  F ield         | OpenFOAM: The Open Source CFD Toolbox           |
|  \\    /   O peration     | Version:  2312                                  |
|   \\  /    A nd           | Website:  www.openfoam.com                      |
|    \\/     M anipulation  |                                                 |
\*---------------------------------------------------------------------------*/
FoamFile
{
    version     2.0;
    format      ascii;
    arch        "LSB;label=32;scalar=64";
    class       volScalarField;
    location    "6e-05";
    object      rho;
}
// * * * * * * * * * * * * * * * * * * * * * * * * * * * * * * * * * * * * * //

dimensions      [1 -3 0 0 0 0 0];

internalField   nonuniform List<scalar> 
109340
(
662.47279176744
662.46812694381
662.45884458097
662.44753176595
662.43500130113
662.42193226795
662.40857569826
662.39499669024
662.38126543394
662.36696169346
662.35138193823
662.33385679742
662.31360140371
662.28967654993
662.26097126842
662.22617691153
662.18373679957
662.13178647823
662.06806595639
661.9898048823
661.89355925189
661.77501797115
661.6287327123
661.44775237499
661.22310426613
660.94306769124
660.59209940972
660.14920459769
659.58535173149
658.8591852594
657.90952203434
656.64137998689
654.8982129237
652.40360839175
648.63231228991
642.50704001163
662.47367060122
662.46755284799
662.45708605696
662.44498317785
662.43208093386
662.41896909501
662.40579790056
662.39247697017
662.37871966577
662.36411934048
662.34810256863
662.32998080585
662.30892847018
662.28396230565
662.25392220832
662.21743605284
662.17288123089
662.11830506528
662.05133261846
661.96904223123
661.86779666572
661.74303124106
661.58896405405
661.39819883568
661.1611619359
660.86530396693
660.4939151396
660.02430640504
659.42489504818
658.65030465035
657.63264351881
656.26486870513
654.36649105922
651.60819913123
647.32562186499
640.08037485058
662.47652438134
662.4693728565
662.45780787366
662.44540865853
662.43261838058
662.4196966301
662.4065989212
662.39324791528
662.37945409755
662.36482520176
662.34880143746
662.33069077267
662.3096631749
662.28473323033
662.25474131678
662.21832057709
662.17384781904
662.11937277468
662.05252120706
661.97037316746
661.8692896183
661.74470456088
661.59083363576
661.40027622108
661.16345198537
660.86780141677
660.49660099329
660.02714636014
659.42783732
658.6532704323
657.635494263
656.26716679452
654.36575311924
651.59103338953
647.22476428154
639.52955357881
662.48050008147
662.47178794865
662.45961769538
662.44685506605
662.43380734741
662.42060579512
662.40728651039
662.39379245059
662.37990976208
662.36523890413
662.34922008738
662.33115552105
662.31020741144
662.28538405248
662.25551836364
662.21923551998
662.17490541148
662.12056949085
662.05383946584
661.97178123771
661.87072419382
661.74606499178
661.59196528274
661.40094554327
661.16331937757
660.8663730292
660.49316714497
660.02069144668
659.41691023592
658.63577493863
657.60832575938
656.22549963699
654.29983582776
651.47294689132
646.9392664322
638.40352676605
662.48677042393
662.47531056794
662.46129644688
662.44763230495
662.43421748165
662.42088213148
662.40752344861
662.39405845762
662.38023932409
662.3656507456
662.34973590077
662.33179016128
662.31095926655
662.28622762236
662.25639258373
662.22002913274
662.17543919358
662.12057158845
662.05286574216
661.96923880986
661.86573713564
661.73740411849
661.5779121896
661.37909847945
661.13035062656
660.81766112012
660.42229792283
659.9187411854
659.27139561689
658.4290494261
657.31488097611
655.80805001228
653.69851695436
650.57719234387
645.46434546084
634.91519875329
662.49846125834
662.47713887926
662.46161845319
662.44762521789
662.43416101273
662.42082485029
662.407464736
662.39390264537
662.37978796155
662.36454814786
662.3474147555
662.3274076604
662.30332502088
662.27371656056
662.23684089174
662.19060360602
662.13247306748
662.05940057876
661.96774162198
661.85229435841
661.70681222617
661.52326436113
661.2912816469
660.99739611914
660.62398740137
660.14776507643
659.53757476483
658.75105422299
657.72931320843
656.38797030887
654.60055059022
652.17154711449
648.75783229977
643.69195843365
635.32998098311
616.75014175967
631.99592969811
614.40140559279
587.43139323725
550.83794665202
506.27676550791
455.4970880807
400.62365428095
344.0892095487
288.48093034207
236.35962297316
188.98678822345
149.19596537078
116.6569663933
90.573236352144
70.463305488222
55.027098771596
43.282867234579
34.355513115426
27.537405404773
22.3164553355
18.292844216738
15.147903567212
12.669745217875
10.700822055625
9.1102680065218
7.8194781001295
6.7898149369257
5.9005651041106
5.180875210849
4.5769014501882
4.0516435960026
3.62701148264
3.2394219913075
2.9279020514934
2.6371448149442
2.402196397876
2.1801311421582
1.9991616756308
1.826681682396
1.6846070004754
1.549218673423
1.4351382955907
1.3286512898209
1.2346208611429
1.1503324358057
1.0713835553558
1.0031673348044
0.93755087659125
0.88087758235221
0.82741584287625
0.77852720012266
0.73375258303001
0.69250156915346
0.65451016496314
0.61938762492765
0.58687853707025
0.5567076180752
0.52867278874857
0.50257827941841
0.47825658978289
0.45554733946277
0.4343117769533
0.41443254065883
0.39580514898311
0.37833028027587
0.36190369605453
0.3464449052301
0.33488557035365
0.93421390724863
1.8121233761946
1.8984314832826
1.9020448796257
1.8697820512791
1.8121748093734
1.7780786167716
1.7449210764993
1.7079830998975
1.6737384602928
1.6488009109955
1.6386941495047
1.6455299475962
1.6646706437036
1.6922644216364
1.7265142767091
1.7766420363809
1.8207816207214
1.8686300218407
1.9160276818863
1.9598516950411
1.9993862344436
2.0338076095736
2.0646150580155
2.0935397794839
2.1219050802808
2.1503496833304
2.1785822731896
2.2056995664854
2.2310595189838
2.2538250818426
2.2727952144893
2.2867827915093
2.2950399363133
2.297047799771
2.293535270978
2.2841587951868
2.2731678302472
2.2616620442568
2.245444236471
2.2273835413911
2.2047846475453
2.1908778260827
2.1699671022925
2.1517188654472
2.1471472445497
2.1498514364067
2.1526962120648
2.1429710591229
2.1342684063534
2.1288279794373
2.1220320695831
2.1151981010254
2.0994578083876
2.0846944564815
2.0629979299683
2.0435397361605
2.0217229880585
2.0036672093465
1.9846465703761
1.9687944437379
1.9555454598773
1.9503206602379
1.9393712458553
1.9455302149235
1.9700359275982
1.9998717131883
2.029942221328
2.0596029489566
2.107701881137
2.2061592421269
1.8983825920883
626.88840055597
604.37312829812
571.0127178618
528.38713872361
478.85848208003
424.48221030839
368.20613440196
312.53301217905
259.85982738561
211.93410854791
169.84440759733
134.08563481239
105.41052969343
82.558119216478
64.625052365417
50.812336658994
40.206337582855
32.083177297843
25.855044081178
21.051004390766
17.317736580875
14.393661479512
12.079952654911
10.230463037066
8.7389840063406
7.5245835590868
6.5266769124263
5.7011808867447
5.0098639243489
4.4299562227014
3.937319166156
3.5180016729178
3.1576191291387
2.8463415679094
2.5762351585191
2.3403573958992
2.1336795309857
1.9515525927003
1.7905337175575
1.6475901487099
1.5200733801625
1.4062660729258
1.3038359574256
1.2119825611101
1.1287120531909
1.0536497207058
0.98519949617561
0.9230767799539
0.86624123466626
0.81429378130352
0.76661514573766
0.72274595642797
0.68237551205626
0.64511109441247
0.61068155287305
0.57878209396765
0.54918085718849
0.52166225511661
0.49603941422417
0.47214216712613
0.44982227198852
0.42895015639646
0.40940360494498
0.39107346884829
0.3738632944156
0.35770079563199
0.34249340127484
0.34623257335939
1.3162138048932
1.8449508218562
1.8955385049125
1.8901236497586
1.8527537120874
1.7979401295588
1.7685722343145
1.7340816340265
1.6974693604302
1.6651763050263
1.6437221643148
1.63809023963
1.6483147667573
1.6700404061073
1.6996468581577
1.7357955577573
1.7709320001321
1.8166426982978
1.8643879503804
1.9117612478451
1.9557689054601
1.9955430187097
2.030301636953
2.0614680055507
2.0906427607783
2.1190068926074
2.1471564555359
2.1747847983386
2.2011958485297
2.2257487077989
2.2476213161521
2.2656485038113
2.2786615464026
2.2858977308903
2.287088331675
2.282027835367
2.2715652606968
2.2610493553207
2.2478032982208
2.2349903071447
2.2129673756788
2.1940337373388
2.1793572553795
2.1599956287972
2.1460334283092
2.1425993365413
2.1456950310695
2.1457753368191
2.137117843779
2.1306625689234
2.1266040362634
2.1200818533286
2.1131154143451
2.0977979682095
2.0837084362358
2.0629439070356
2.0441090754781
2.02311833593
2.0055155866717
1.9868350427117
1.9707963598357
1.95759380895
1.9508772924478
1.9398297039874
1.9484010085822
1.9703574767003
1.9980363300682
2.0264781550168
2.0550682875376
2.1011036979818
2.2021652528565
1.9161787194065
624.09643975466
595.70668473212
555.05089802034
504.10243199296
449.02500745048
392.16212936112
336.13029461338
283.23596356839
235.00277360937
191.74554066642
155.19863781802
124.13883035608
98.597846310742
78.013541353113
61.667617883543
48.858382749815
38.915037565004
31.23345671687
25.288843563312
20.661134489667
17.04352570577
14.199705803189
11.939400312949
10.126327137364
8.6618783052818
7.4666411503015
6.4818624044658
5.6657441293015
4.9835377156292
4.4078634836932
3.9204358015067
3.5035640672304
3.1462044222204
2.8367214458967
2.5684449461947
2.3337015560534
2.1282501337188
1.9468483944294
1.7867085005894
1.6441346535774
1.5173819406854
1.403685876939
1.3018825123438
1.2100442610269
1.1272293916757
1.0521757659764
0.98397531049989
0.92195814131
0.86522413188052
0.81341428459477
0.76579378157048
0.7220759110248
0.68175724091712
0.64454945583248
0.61015773518981
0.57830005909604
0.54874391725627
0.52126485623359
0.49567659558559
0.47180879148978
0.44951654595553
0.42866990062891
0.40914621257824
0.3908358942929
0.37364305790196
0.35749970269453
0.34230186656101
0.34543394982328
1.3105293286038
1.8427511515262
1.893667427807
1.8883767757113
1.8511015440988
1.7962116798389
1.766644751906
1.7322754436649
1.6958027301257
1.6636625803902
1.6423276501342
1.6367876108758
1.6469538888421
1.6687829612297
1.6986301167553
1.7353947563913
1.7736280114546
1.8203923757017
1.8692215565734
1.9172938221635
1.9620017045822
2.0021684586138
2.0373033727373
2.0686662614182
2.0978323542272
2.1260181379288
2.1539950249453
2.1814557466667
2.2077072797514
2.2320279369724
2.2535831085608
2.2711540549473
2.2836132982898
2.2903378426868
2.2910327004674
2.28527111042
2.2745706082188
2.2648394535729
2.254137553089
2.2386079723753
2.21907259064
2.2022391287653
2.1840087367229
2.164450340622
2.1536146496275
2.1502001974465
2.1510940821292
2.1487672780375
2.1405527977177
2.1360707971146
2.1319268075275
2.1249309709331
2.11728967091
2.1015355975927
2.0883379622978
2.0669201351419
2.0488920900494
2.0276512118901
2.0104775224772
1.991616452267
1.9752772094243
1.9621178697785
1.9541458914426
1.9403844957365
1.9579049783203
1.9756507114158
2.0012982446052
2.0294847495892
2.058289962965
2.0948308377885
2.1738065028485
2.0243648240437
617.84382780664
576.05928584319
520.44817450749
457.76166401971
396.36243258075
339.53540686475
287.82703256873
242.02540293729
201.75755766842
166.10652857043
137.07297245913
111.59222535167
90.044727414034
72.277482997449
57.826706618849
46.318041421578
37.235222158564
30.099537408839
24.510993284583
20.132146829946
16.678954169017
13.932430865109
11.745170785133
9.9855724596693
8.5553581762314
7.3845904343642
6.4197854763048
5.6170095918332
4.9447487300074
4.3773878821722
3.8955364520901
3.4835628357305
3.1293639912891
2.8232374465423
2.556874716956
2.3243764073499
2.1201788400619
1.9402626845624
1.780931252413
1.6394232915299
1.5131869464075
1.4001767648058
1.2987943079053
1.2073788512643
1.1249133538231
1.0500845012087
0.98222097440661
0.92032165845856
0.86383505946882
0.81211652339306
0.76465480333491
0.72105361688819
0.68084776339478
0.64374440095527
0.60941426973623
0.57762382423851
0.5481247676714
0.52069920297365
0.49516042084375
0.47133898840672
0.44908810542564
0.42827649596307
0.40878432022876
0.39050323572268
0.37333899155994
0.35722192239348
0.34204004474326
0.34446733293065
1.3007305279703
1.8391736754739
1.8909706016831
1.8859347977294
1.8489198014221
1.7940877465381
1.7640581206037
1.7298250113542
1.6935143078622
1.6615357415215
1.640287501608
1.6347989343419
1.6447992711017
1.6666886839088
1.6969221363291
1.7344153154486
1.7728781209282
1.8201928527309
1.8692907374151
1.9174105791976
1.9621870144479
2.0025063313073
2.0378389562685
2.0693926316699
2.098662427174
2.1268402315603
2.1546295667413
2.1817829377329
2.2075970738384
2.2313424102346
2.2522335459877
2.2691468656507
2.2809919406224
2.2872046109239
2.2872377956246
2.2809303887705
2.2703269357872
2.2615305120512
2.2511755958794
2.2354282115351
2.2167921665645
2.200780480752
2.1804697801163
2.1636546237881
2.1554305212736
2.1523344191996
2.1505130183382
2.1478750187948
2.1413954385835
2.1382244681368
2.1337743560693
2.1266730070917
2.1189342093013
2.1036331876893
2.0907421569688
2.0698187717709
2.0521401522163
2.0315405674924
2.0144015380067
1.9959909083485
1.9796821391837
1.9668492354974
1.9585487666749
1.9446416990893
1.964199880888
1.9819958388465
2.0024058399846
2.0319500807724
2.0600845202994
2.0945151517259
2.1651485647336
1.9956676799663
596.90059316835
520.14780853125
438.5669160552
369.11441893591
312.93595911271
266.51206364784
227.89818577242
194.94894151743
165.98357232547
140.53749145184
117.84833550505
97.813074063494
80.44488416972
65.70233852068
53.420969529895
43.345427226972
35.219999194925
28.735828544137
23.57692586604
19.475044283754
16.211511728989
13.606635706542
11.504211628163
9.8042747292239
8.4197273773836
7.2826931310838
6.3400622227846
5.554626054626
4.8954645942881
4.3382614894573
3.8636917414658
3.4578367371605
3.1081208786552
2.805609180104
2.5422585827623
2.3121803665495
2.1098784019211
1.9316076943464
1.773580976423
1.6331773149789
1.5077685460176
1.3956003230205
1.2947465647532
1.2039252695731
1.1218233066794
1.0474268379019
0.97984080914926
0.9182087136361
0.86196796553243
0.81042628885296
0.76316767025657
0.71969009669812
0.67963587040834
0.64265802557052
0.60843836003164
0.57673665530477
0.5473088418345
0.51995353117047
0.49448057525261
0.4707202877862
0.44852237065508
0.42775711843007
0.40830816534692
0.39006695078024
0.37293964854976
0.35685453105803
0.34169805065974
0.34324303042324
1.2874784088306
1.8344386885704
1.887449190403
1.8828151597873
1.8462288101712
1.7915755998019
1.7607032340072
1.7265445187414
1.690353613127
1.6584790232723
1.6372399774423
1.6316986182715
1.6415378661876
1.6634883053698
1.6942273225654
1.7325890273219
1.772368791504
1.820358422396
1.8698797543047
1.9182156934085
1.9631865945499
2.0036574233665
2.0391415865343
2.070814160521
2.10007895634
2.128120614431
2.1555579121504
2.1822531178684
2.2074401191175
2.2304202013438
2.2504238496796
2.2664652540879
2.2776451349976
2.2834159952974
2.2828890725571
2.2760963752305
2.2663256015148
2.2581396350211
2.2479615654271
2.2327908842498
2.2151185374293
2.1985031740315
2.177504584432
2.1634676018607
2.1580101952524
2.152076808873
2.149692041139
2.1488774886309
2.1436248798306
2.1410726835777
2.1366464866774
2.1295861631913
2.1220250548649
2.1070208378913
2.094444733978
2.0738944282621
2.0567277734917
2.0366416036011
2.0195664622921
2.0013477715732
1.9852205313815
1.9726728909391
1.9648000337535
1.9500295864095
1.9704908177345
1.9883536055691
2.0059229490766
2.0357548785878
2.0632112462678
2.0952129668729
2.1597433751012
1.9626653799507
448.69493155154
324.91586067113
272.66946507863
240.82028187282
214.7024217406
191.62096379946
170.34100867337
151.13833185897
132.75474426911
115.34562227338
99.050475287179
84.146297002334
70.701357885271
58.851759893434
48.665142399668
40.089428403093
32.989505279436
27.191805316562
22.500952438824
18.719126384511
15.671408766417
13.210581652546
11.219352307677
9.5922608593012
8.2577844062389
7.1580067472561
6.2451367349367
5.4799512850519
4.8356705850648
4.2904184739159
3.8255770560673
3.4263134730011
3.0823917969344
2.7843027240785
2.5246046984031
2.2972108313576
2.0974677004204
1.9210543233896
1.7646320271187
1.6254823412519
1.5012434672398
1.3899320333078
1.2898289458566
1.199651794563
1.1180762501887
1.0441522533432
0.97689719677213
0.91563337277836
0.85965178206059
0.80836768605213
0.76130996536032
0.71800995214535
0.67813324745433
0.6413002585126
0.60722219641438
0.57562874162315
0.54629917629753
0.51903418393632
0.49363976427667
0.46994928064574
0.44781576555439
0.42711189255543
0.40771852804112
0.38952534118461
0.37244185081474
0.35639597742593
0.34127996771717
0.34178639714644
1.2709687493784
1.8287538030224
1.8831812702665
1.879073569488
1.8430324041622
1.7885737751396
1.7563664805451
1.7221551455622
1.6860155459264
1.6541773663483
1.6328899920059
1.6271986779095
1.6368484179058
1.6589282176599
1.690343941699
1.729761069047
1.7706581071174
1.8195878722186
1.8697606731083
1.9184846049404
1.9637215301959
2.0044614952973
2.0401926606469
2.0720335556311
2.101313898868
2.1291695714406
2.1561279959785
2.1820844369382
2.2062715915159
2.2280707824197
2.2468902728326
2.2619490436232
2.2724028798825
2.2776041838521
2.2761430607024
2.2687558457188
2.2597656842758
2.2521740982671
2.2423711693539
2.2275591569522
2.2112510495621
2.1952306739525
2.1729202738362
2.1622937734326
2.1581890318515
2.1517792826043
2.1500196083965
2.1501726631367
2.145429904645
2.1433709366923
2.1388808890739
2.1319912314647
2.124712672448
2.1104654355691
2.0981987697976
2.0781999578405
2.0615574616667
2.0418717015352
2.0247655024799
2.0067040974581
1.9910161405353
1.9788169362375
1.9714101622901
1.9562281876352
1.9776432809333
1.99540327114
2.0106748290572
2.0397320776136
2.0664371407758
2.0966288225676
2.1543567076177
1.9201210623564
15.110724278777
103.52733761858
127.35244681374
136.34571150301
137.90621930116
133.90568842678
126.24955703121
116.80037037476
106.43797351504
95.621463311786
84.704568448724
73.997299079175
63.794042023234
54.340000857284
45.837154736964
38.403642194296
32.047111430089
26.714379297622
22.301019910061
18.678852351084
15.717974121281
13.301279500301
11.324961568364
9.706932721155
8.3715178396144
7.2616801291166
6.3393222851876
5.566451127216
4.9144081559844
4.3596989449253
3.8874358694413
3.4823154673163
3.1323993309779
2.8287579601702
2.5645299713489
2.3332549997294
2.1298096799915
1.9501760168675
1.79107328908
1.6494601979952
1.5229733788139
1.4096831758283
1.3078923346257
1.2161346142185
1.1331429545758
1.0579450752854
0.98957572743054
0.9272915422514
0.87035937448911
0.81825250705183
0.77044544563459
0.72648041917835
0.68597822723547
0.64857361847638
0.61399711313371
0.5819550764665
0.55221026078727
0.52455049707888
0.49879335813788
0.47477940304152
0.4523507213251
0.43137206815384
0.41172557059283
0.39330882426606
0.37602062451187
0.35975987075019
0.34445960140036
0.33143807340015
0.87212107296547
1.7757040320287
1.8725166583928
1.879189202986
1.8505291739276
1.7977144595164
1.758682407718
1.7253833011006
1.6891170520083
1.6556107071253
1.6310534140157
1.6209460198197
1.6268815046537
1.6463076702782
1.6762768932428
1.7149756421632
1.7681420674249
1.8181762867945
1.8692327201877
1.9186095642719
1.9642089683152
2.0051624951634
2.0410143874383
2.072903635148
2.1021236250478
2.1297546869513
2.1561286791484
2.1811463932829
2.2041908955077
2.2248289020323
2.2425853745209
2.2567264311322
2.266414925507
2.2709029166499
2.2684201177604
2.2609151322923
2.2487243223689
2.2421068729219
2.2326808870948
2.2181115099336
2.2038757423778
2.1892345445773
2.1669730661194
2.1574209793046
2.1543680429267
2.1499814032837
2.1503995100653
2.1522633728994
2.1475557981626
2.1460309894491
2.1414924718497
2.1341772133873
2.1279375397528
2.1148214938472
2.1027598982924
2.0836234162458
2.06776899142
2.0490791979379
2.0318434783013
2.0141622923592
1.9991144057633
1.9877051098805
1.9811335869705
1.9676948691454
1.9866197891835
2.0026069559174
2.0159157456432
2.0439371149955
2.069234907661
2.0965051599164
2.1412369157591
1.8447599611738
6.7468500187954
18.148132949153
32.420859250822
44.344480051982
53.353733957636
59.379171877946
62.590046800998
63.417185474478
61.735672937419
58.779010361392
54.834597121162
50.149340429837
45.092988233727
39.908396436839
34.848337553876
30.118153355666
25.840872960846
22.070910575638
18.819217192501
16.05581836932
13.727972443767
11.777779607695
10.147489226586
8.7836352393493
7.6413252593599
6.6827402848175
5.8739408791785
5.186338250917
4.6020232354165
4.1025554098216
3.6735576518406
3.3022613123978
2.980169061148
2.6996794756754
2.4541622841176
2.2380316947535
2.0473834044565
1.8786051187837
1.7285541997901
1.5945521448589
1.4745541275398
1.3668692691793
1.2698788396168
1.1822220022267
1.1027845937334
1.0306656937706
0.96500783098451
0.90505523340085
0.85019084244009
0.79990601483579
0.75371684576696
0.71119992311085
0.67196788538708
0.63571630735229
0.60215955427708
0.57104658940221
0.54214410816328
0.51524165700023
0.49016799057943
0.46676812977897
0.44490133919991
0.42443764934563
0.40526116341949
0.38726826812394
0.37037204428418
0.35448608177295
0.33952827233075
0.33633662195026
1.2043335434942
1.8068202950666
1.8668395728229
1.864463342819
1.8295824088362
1.7744443278948
1.7355994937103
1.7002954629704
1.6639733568152
1.6319696627988
1.6102993336472
1.6039583762017
1.6132525399507
1.6364691382188
1.6710362648437
1.7147394624285
1.7601343045034
1.8129252635874
1.866209184832
1.9173197614978
1.9641677872856
2.0060151003916
2.0423804042486
2.0742834594649
2.1031989848641
2.130077460194
2.1549813471151
2.177986227592
2.1987724679145
2.2171003418284
2.2325707560177
2.2445551091397
2.252376845427
2.2551744141978
2.2507249292692
2.2429248527652
2.232120389369
2.2274656163289
2.2181115708428
2.202796115882
2.1898128407722
2.1801347656567
2.1612554338107
2.1479219511571
2.1419565979993
2.1469632494755
2.1497004066716
2.151951699722
2.1470939819659
2.146054566124
2.1403902374468
2.132432068857
2.1274121264272
2.1157301548888
2.1044476962872
2.088145621469
2.0735226351507
2.0563092022715
2.0395331811652
2.0225565536988
2.0081989278913
1.9982355632561
1.9935912519266
1.984921658064
1.9987525907002
2.0109064410622
2.0213863679141
2.0450796462668
2.0666858385696
2.0882600700785
2.1162313435706
1.8092690151335
5.3867388681898
7.9698120905536
12.922298907583
18.911452606151
24.526750178128
29.323411021413
33.077327693166
35.65138321438
37.10663841147
37.352035190734
36.514620410342
34.936834177693
32.707099857672
30.065596165582
27.171926732347
24.230200729928
21.377080027005
18.715260772425
16.304474730351
14.168702905141
12.307194872439
10.701896610253
9.3269083027875
8.1533097534605
7.1525433326307
6.2993104310227
5.5703474219139
4.9460427151797
4.4099428663541
3.9468795645313
3.5457314317094
3.1975606967922
2.8938335885016
2.6281200928262
2.39397273708
2.1873468410426
2.0045465067659
1.8421762331778
1.697333182861
1.5676103991405
1.45136666412
1.3467668890792
1.2523708126943
1.166853329644
1.0893137141207
1.0187899324413
0.9544945901192
0.89570544387736
0.84184470342324
0.7924484975322
0.74703248395488
0.70518327087947
0.66653658062101
0.63080450403952
0.59770876601054
0.56699993890141
0.53845409099855
0.51187510665066
0.48709711186174
0.46396097653872
0.44232643987493
0.42207082283444
0.40308177004307
0.38526426320187
0.36852871439612
0.35278682444028
0.33795542726191
0.33215350116249
1.1465174461322
1.7897745711588
1.8541481916704
1.8523321886327
1.8168487819923
1.7597140384578
1.7150217010079
1.6779924433549
1.641166995346
1.6088270512153
1.5867882886481
1.5801187586818
1.5896622136416
1.6144571164374
1.6520137053206
1.6993997064391
1.7483742887571
1.8044896550494
1.860547425588
1.9139299807072
1.9624812368802
2.0053484546776
2.0422081189897
2.0742895978574
2.1030821352311
2.1291273579758
2.1525748512033
2.1736695941455
2.1923796369477
2.208551037554
2.2218207797181
2.2316973103894
2.237713103693
2.2389454158756
2.2327496618227
2.2244720646984
2.2167490147553
2.2138062940837
2.2040842779587
2.185804467676
2.1750385366608
2.1720996702548
2.1604416826132
2.1355668504731
2.1226737032601
2.1437277682872
2.1485410791912
2.1479678385507
2.1422998488673
2.1427620111158
2.1362584014243
2.1278172779697
2.1223884512968
2.1105012530109
2.0990016697721
2.0843949929239
2.069569416482
2.0535105160882
2.0375297385235
2.0216845585329
2.0076399988033
1.9978248824954
1.9934706972101
1.9881168495011
1.9949445347796
1.9993120021032
2.0166735962924
2.0338370646467
2.0511354216525
2.0661869209526
2.0788447993248
2.656824428249
4.308207153899
5.6464524430992
7.1651461959135
10.141360648139
13.460937247925
16.625792087456
19.455935965778
21.775812225253
23.518306534241
24.606738128497
24.960151741998
24.616561749599
23.872260147182
22.633181409738
21.077493911831
19.324813164558
17.498402174607
15.681958936757
13.950096132188
12.348275176384
10.900244187909
9.6127430473437
8.4802041630516
7.4914928110372
6.632211055633
5.8870231822575
5.2414519500371
4.6817057153963
4.195455424346
3.7722352785198
3.4030172870812
3.0799203212298
2.7958974175691
2.5456423678556
2.3247540745389
2.1290675414948
1.9551880548574
1.799781238118
1.6607652994214
1.5362329462827
1.4241969404244
1.3231882243105
1.2316650031366
1.1487494213486
1.0733964346272
1.0047504578509
0.94203648870801
0.88459086992062
0.83196034974368
0.78360491923072
0.73910457362614
0.69803420887014
0.6600856148303
0.62497703094826
0.59242560125852
0.56219936861318
0.53407512468309
0.50787381397594
0.4834414408556
0.46061717725421
0.43926614491049
0.41925986372142
0.40049210011018
0.38287876201512
0.36632694305949
0.35075447688991
0.33607482215239
0.32791748051998
1.0806744326611
1.773002683731
1.8417687077427
1.8395554722678
1.8020694447737
1.7416839538347
1.6901216082163
1.6499729278227
1.612013017837
1.5790504789136
1.5566372345367
1.5499651920865
1.5603846964953
1.5875104755289
1.6287283708606
1.6803726446383
1.7332576783231
1.793122820133
1.8523479557009
1.9083848215641
1.9589991457465
2.0031130439322
2.040457790893
2.0725447344217
2.1009126906359
2.1260804285889
2.1481552467142
2.1677770822165
2.1849143239217
2.1993273376538
2.2107312440012
2.2188259921327
2.2235774294669
2.2236671915712
2.2163045435164
2.207034478796
2.2037901101272
2.2001996763736
2.1893954538596
2.1665672526616
2.1572316933763
2.1605972230543
2.1531658658366
2.1244837773545
2.1048437193676
2.1305920321297
2.1371311811756
2.132368582248
2.1249740343083
2.123437812748
2.11516017455
2.1079368716458
2.1018326216791
2.0914550144598
2.0795682681442
2.0663703579021
2.0490234286598
2.0316943200872
2.0141207984979
1.9979447720062
1.983121599358
1.9707926607708
1.9628174764532
1.9545911064794
1.9494767006394
1.9445022835188
1.9440011511835
1.9430945460267
1.9436045666395
1.9335289417811
1.9292328547281
2.9220905295544
3.5062541490718
4.6167808972562
5.0105523152081
6.3888901331814
8.3682651292945
10.439614184905
12.438119471166
14.235286831192
15.726748761847
16.860196143286
17.555943529361
17.865553314218
17.729987806812
17.228465991118
16.442220770774
15.441130139988
14.28785162242
13.075422519636
11.857843737365
10.680994125903
9.5775982679369
8.5644602995527
7.6480115421341
6.8290437017532
6.1029264511033
5.4621085494449
4.8983155750509
4.4030401567148
3.9678623121449
3.5851258496567
3.2481059406983
2.9508403140731
2.688133086925
2.4554033295032
2.2485588413529
2.0641195940667
1.8994908058623
1.7521297788603
1.6198788176582
1.5009683117421
1.393498946254
1.296239662804
1.2081608511818
1.1281175137257
1.0552563878163
0.98865876624243
0.92770700906416
0.87189177490502
0.82062623398073
0.77348161486423
0.72997767303255
0.68981511946586
0.65268015881959
0.61827447008974
0.58635225429702
0.55666207903799
0.52902432096293
0.50327228242077
0.47923048568284
0.45676109371733
0.43572348055783
0.4160054102391
0.39750652132
0.3801276126201
0.36378732510456
0.34839966985335
0.33387699650995
0.32411576354725
1.0134674976509
1.7595589778648
1.832438274952
1.8284455510786
1.7876254962827
1.7225530491673
1.6629404298149
1.6176279327234
1.577496612987
1.5434672150919
1.5206926343042
1.5144565923638
1.5264788872733
1.5566774145495
1.6021898469488
1.6586315785243
1.7157053507525
1.7796751897851
1.8422847056026
1.9011377498385
1.9540353014985
1.9994776181466
2.0373379317771
2.0692309708284
2.0968715745436
2.1209585300931
2.1417459319656
2.1601275147765
2.1760186871895
2.1891118719822
2.1992915867258
2.2063530423064
2.2102099432268
2.2098141300924
2.2016993425434
2.1909641744925
2.1921058884524
2.1857461780765
2.1713845330066
2.1451278640547
2.1396008512053
2.1447695385484
2.1329314603331
2.1068160111172
2.0838855090415
2.1024076787591
2.1094735423845
2.104593870668
2.0917027267714
2.0875717001542
2.0677598319634
2.0550003586406
2.0373556290923
2.0185371285804
1.9947820471563
1.9730961638019
1.9449852276751
1.9201970977267
1.893805241568
1.8679844950066
1.8433573604457
1.8175512380569
1.7959078076616
1.7702661689212
1.7494785921477
1.7207582725512
1.7004536587009
1.6737761269362
1.6490136004911
1.6180789285661
1.5942695685289
2.5980119538005
2.8861359054728
3.8986313170239
4.0470901240799
4.5782484718036
5.7210670799805
7.0960542066779
8.5035320130002
9.8464374383876
11.033898900097
12.013403502182
12.765272408847
13.237904509768
13.383181861794
13.260912704083
12.934853529772
12.393908080078
11.688150563284
10.896956818953
10.05274735257
9.2013228715942
8.371654814564
7.5852743853158
6.8551724487625
6.1868567285478
5.5816621748967
5.0376857845742
4.5511245868446
4.1176850638668
3.7323340198704
3.3898633431377
3.0854402843803
2.8146224701161
2.5734512708476
2.3583355728158
2.1660433827338
1.9938453797309
1.8393718865096
1.7004046334814
1.5750430875997
1.4618795338429
1.3594768041576
1.2666315082909
1.182266593707
1.1052376087096
1.0349157441128
0.97066044332423
0.91176540869053
0.85771795672064
0.8079748530432
0.76207392136193
0.71975245492318
0.68061414734747
0.64437782568703
0.61075310949526
0.57949301720295
0.55042763554327
0.52335152076756
0.4980899666276
0.47449395389845