/*--------------------------------*- C++ -*----------------------------------*\
| =========                 |                                                 |
| \\      /  F ield         | OpenFOAM: The Open Source CFD Toolbox           |
|  \\    /   O peration     | Version:  2312                                  |
|   \\  /    A nd           | Website:  www.openfoam.com                      |
|    \\/     M anipulation  |                                                 |
\*---------------------------------------------------------------------------*/
FoamFile
{
    version     2.0;
    format      ascii;
    arch        "LSB;label=32;scalar=64";
    class       volScalarField;
    location    "6e-05";
    object      rhoHat;
}
// * * * * * * * * * * * * * * * * * * * * * * * * * * * * * * * * * * * * * //

dimensions      [1 -3 0 0 0 0 0];

internalField   nonuniform List<scalar> 
109340
(
661.21312832394
661.20864039562
661.19965869188
661.18862013257
661.17627520233
661.16326664905
661.14981811799
661.13588868856
661.12131454269
661.10529513691
661.08660163162
661.06390377158
661.03561574319
660.99984625251
660.95436269261
660.89653747592
660.82325409912
660.73078675861
660.61462728137
660.46925483936
660.28781466228
660.06172517421
659.78014303628
659.42924166443
658.99119105285
658.44272557991
657.75303293826
656.88055877625
655.76795006996
654.33369055028
652.45750691037
649.95329642673
646.51557676526
641.60782280675
634.21840643875
622.29908876957
661.21397196694
661.2080868826
661.19794944277
661.18611935081
661.17338020799
661.16029807397
661.14699768881
661.13326182773
661.11852642895
661.10196624763
661.08245015283
661.05859420293
661.02873471864
660.99089539181
660.94274774133
660.88154362857
660.80403257988
660.70631437253
660.58365396385
660.43023193799
660.23880867157
660.00029775097
659.70319255092
659.3327835093
658.87005054871
658.29009053932
657.55979021504
656.63426145886
655.45114411958
653.92105351127
651.91063283954
649.21035299305
645.46844917951
640.04675409648
631.66865559906
617.60996610138
661.21670714561
661.20984077921
661.19865131946
661.18653720516
661.1739135157
661.16102804494
661.14781660002
661.13408133466
661.11935729591
661.10283207837
661.08338646342
661.05963075401
661.02989443929
660.99219692913
660.94420873157
660.88318726767
660.80588192223
660.70839694798
660.58600036331
660.43287739669
660.24178746612
660.003642038
659.70693014538
659.33693373031
658.87461999363
658.29506607661
657.56513148146
656.63989756018
655.45696950179
653.92691067276
651.91625026473
649.21488800344
645.46711401679
640.01363627938
631.47382288753
616.5531718406
661.22050688482
661.21216409738
661.20040934723
661.18795662138
661.17509247934
661.16193938347
661.14851999167
661.13467126096
661.11990855259
661.10341143488
661.08405891978
661.06045359573
661.03091512633
660.99345442446
660.94573152323
660.88499167203
660.80797193632
660.71076132353
660.58860275309
660.43565241841
660.24461131983
660.00631424584
659.70914107608
659.33821593619
658.8742925687
658.29214098557
657.55819112537
656.6269173457
655.43506442122
653.89192862024
651.86207011684
649.13205373574
645.33668982208
639.78167588152
630.91851829735
614.39153343591
661.22647432121
661.21554455636
661.20203768466
661.18871862365
661.17549887919
661.16221626512
661.14876400377
661.13496873075
661.1203218577
661.10398890766
661.08484777621
661.06148396637
661.03218347799
660.99490880903
660.94724781214
660.88634344707
660.80879302819
660.71049594813
660.58637295285
660.43025981861
660.23430893279
659.98864346889
659.68066462714
659.29413381153
658.80795641276
658.19432958323
657.41612501758
656.42285071157
655.1442337803
653.47944131242
651.27771281215
648.30280568553
644.14629208554
638.01746680479
628.03838494593
607.69427563406
661.23751791528
661.21729661169
661.20235158806
661.18871331425
661.17544379454
661.16215842484
661.14869292348
661.13471575936
661.11950259758
661.10190018616
661.08035834577
661.05290890774
661.01714050938
660.97014435976
660.90842861811
660.82779473364
660.7231686215
660.58842417925
660.41621910874
660.19637770399
659.91637991549
659.56020855002
659.10721460488
658.53061117215
657.79540575932
656.85543423158
655.64908860486
654.09283899708
652.07098199461
649.41846477437
645.88926419897
641.10552540823
634.40968893236
624.5354665789
608.40507009927
573.33091764386
602.09220058848
568.98770265082
520.03368694392
457.11835957468
385.9808238946
312.25688532647
241.38041323887
177.90676139219
124.92025535277
83.756547449144
53.472963387675
33.274437632706
20.309208580136
12.221035797754
7.3833113421269
4.4946099964313
2.7758388773734
1.7458188605424
1.1197557759924
0.73422556061854
0.49257914388062
0.33727432202425
0.23562022390041
0.16787037086813
0.12154192309099
0.089407316719448
0.067338368295708
0.050836454785656
0.039106577963318
0.030521269594638
0.023883723935705
0.019131127260642
0.015245996384015
0.0124458741414
0.010089605926537
0.0083655407073162
0.0068859550981308
0.0057864508904564
0.0048275716730917
0.0041040145119982
0.0034676773143469
0.0029753201244065
0.0025470484091989
0.0021997650763146
0.0019076168050702
0.0016549494630602
0.0014497950805634
0.0012659696385156
0.0011169896647726
0.00098493801906385
0.00087171734612257
0.0007739937131831
0.00068915142770942
0.00061537226767794
0.00055089799466523
0.00049440732581552
0.00044472406405449
0.00040092301092753
0.00036220068005477
0.00032788501486741
0.0002973910917245
0.00027022692094442
0.00024598040642415
0.00022429840253113
0.00020487034444516
0.00018741343867107
0.00017169652213256
0.00016043846945557
0.0012587176795045
0.0046852038147687
0.0051292587648006
0.0051352786349008
0.004945924365729
0.0046273406463644
0.004450776472944
0.0042863870111169
0.0041069697179912
0.0039441517549657
0.0038278677500543
0.0037815544680591
0.0038135183512422
0.0039029965256152
0.0040335837093644
0.0041986950353941
0.0044463325206909
0.0046702487747812
0.0049191107072395
0.005171976610858
0.0054114867289365
0.0056321746052104
0.0058278553569413
0.0060057152441244
0.006175036970582
0.0063433692933845
0.0065145013207037
0.0066867043349759
0.0068542533606455
0.0070128347536076
0.0071567604174256
0.0072778402166014
0.0073678149346326
0.0074212689803663
0.007434431785633
0.0074118929113132
0.0073516395381699
0.0072811717898986
0.007207423729505
0.0071046373196206
0.006991334669987
0.0068496614268407
0.0067637366970335
0.0066353789058473
0.0065240200568555
0.0064960096968245
0.0065124822652991
0.0065300113403279
0.0064711900972387
0.0064185638324412
0.0063857212748069
0.0063448839261238
0.006303930739644
0.0062102888415527
0.0061230470955698
0.0059960224553368
0.0058832400064817
0.0057580647567255
0.0056554941744744
0.0055483237911138
0.005459792714658
0.0053863746467382
0.0053574546757356
0.0052974887726285
0.0053311408584622
0.0054662862229893
0.0056330420978215
0.0058036506030441
0.005974413496137
0.0062564937992899
0.0068526919188332
0.0049621561519457
592.39783561303
550.54293176959
491.31711823481
420.53350170595
345.21168246883
271.08509810992
203.80707463278
146.69489215836
101.30253283197
67.296799370595
43.159894990963
26.85771152982
16.57110220046
10.147334815893
6.2067797823512
3.8302912193293
2.3939865572624
1.5217608857
0.98665987878628
0.65303772218867
0.44128908804965
0.30441475314608
0.21412513060786
0.15338128863005
0.11178445927857
0.082781984089108
0.062211719551152
0.04742211044259
0.036583368612574
0.028576930743184
0.022555746034234
0.017991241083831
0.014483200576503
0.011758878335543
0.0096264687174652
0.0079384760692367
0.0065941748412413
0.0055126915625467
0.0046379002096431
0.0039244366569489
0.0033387259319655
0.0028558204161238
0.0024537194881009
0.0021190348942184
0.0018369587734453
0.0015999830230773
0.0013981794497978
0.0012268887226972
0.0010799621870377
0.00095393288041068
0.00084513234633554
0.00075088194903439
0.0006690786828053
0.00059777077032819
0.00053547121659292
0.00048081775006803
0.00043274261172999
0.00039032768498015
0.00035280797089282
0.00031952891645748
0.00028994023441958
0.00026357583191439
0.00024002908134357
0.00021895199600941
0.00020004711753357
0.00018307211551077
0.00016779221053531
0.00017176679604336
0.0024867035773968
0.0048527937044458
0.0051106345943144
0.0050673295284072
0.0048516688226001
0.0045524595154083
0.004403436766087
0.0042334963069917
0.0040568052386274
0.0039041961883055
0.0038046649321593
0.0037790946606568
0.0038267757938679
0.0039285100020168
0.0040691723818544
0.0042443202497469
0.0044180451168658
0.0046492639465672
0.0048970214470552
0.0051491986902958
0.0053891793756113
0.0056107564775993
0.0058079835017568
0.0059876367389404
0.006158208638722
0.0063263446237158
0.0064954946702303
0.0066637568105898
0.0068266557084273
0.0069798782700521
0.0071178383369612
0.0072325959763364
0.0073160582739451
0.0073627573094104
0.0073705980699179
0.0073381787989817
0.0072712230698149
0.0072039793904457
0.0071200924399664
0.007039014654429
0.0069010919703167
0.0067831243666632
0.0066929288363533
0.0065745338557983
0.0064896177624716
0.0064686800290095
0.0064874283207357
0.0064881544153716
0.0064358567779599
0.0063968989887417
0.0063724246158956
0.0063332664427138
0.0062915709620488
0.0062005303962973
0.0061173092426023
0.0059957789033511
0.0058865948991862
0.0057661036733907
0.0056660248700175
0.0055607335928243
0.005471133268278
0.0053979178313779
0.0053607765511563
0.005300252036839
0.0053471268740812
0.0054682840191964
0.0056229630314919
0.0057841240439078
0.0059483875247066
0.0062176494665169
0.0068280124453657
0.0051128693202249
587.14218021896
534.85981146822
464.19054271481
382.70476673545
303.45500678699
231.29244908081
169.77094467503
120.42178724923
82.805106945806
55.056238943727
36.01817262498
23.009271177351
14.491830064789
9.0573075828247
5.6497336288679
3.5403166052905
2.2421128285596
1.4419123504422
0.94374893537682
0.62897704001325
0.42737018001109
0.29623368327782
0.20915241307711
0.15026311530445
0.10981257582379
0.08150587289609
0.06135848263659
0.046831398352045
0.036198457707967
0.0282921136511
0.022361435202465
0.017843982380509
0.0143778641099
0.011679691198357
0.009567860662294
0.0078935303234116
0.0065603678716815
0.0054862573637033
0.0046179153163022
0.0039080516450969
0.0033267921368763
0.0028453509203927
0.0024463196951467
0.0021122389267305
0.0018321423444538
0.001595488377617
0.0013947401583025
0.0012238936540235
0.0010774413570461
0.00095186053782503
0.00084332512422292
0.00074948791061002
0.00066786347263648
0.00059673035741048
0.00053455121735702
0.0004800164990475
0.00043205335233676
0.00038973256973651
0.00035229144132859
0.00031907736845443
0.00028954584739255
0.00026323121598781
0.00023972708729619
0.00021868583454498
0.00019981123935098
0.00018286606876028
0.00016760470171118
0.00017096595269617
0.0024656032603614
0.0048412883642295
0.0051006137199461
0.005058088439198
0.0048432358942669
0.0045439449398166
0.0043940427335645
0.0042249413319286
0.0040491461054981
0.003897431961956
0.0037985596593375
0.0037734515997627
0.0038208364345691
0.0039229934754426
0.0040647274009611
0.0042427947619539
0.0044318919792514
0.0046688759365083
0.0049228595273945
0.0051794622177663
0.0054239849453939
0.0056484733669775
0.0058485229227481
0.0060299594818227
0.0062011081163922
0.0063687798311283
0.0065374729366328
0.0067052644084145
0.0068677050355221
0.0070199646690625
0.0071563450360128
0.0072685336771467
0.0073486609596891
0.007392148395684
0.0073967879750869
0.0073597348890315
0.0072910380257465
0.0072287001046769
0.0071605586321151
0.0070623335612625
0.0069395817407853
0.0068344692458799
0.0067220547857154
0.0066020312645216
0.0065359523854887
0.0065151150570979
0.0065207324441015
0.0065066468895632
0.0064568679266408
0.0064297034969676
0.0064046903528374
0.0063626021571679
0.0063167777957558
0.0062229493327424
0.0061448250633358
0.0060192553318061
0.0059145167148817
0.005792340057166
0.005694483961411
0.0055879318300718
0.0054964695019954
0.0054233416453331
0.0053792255268879
0.0053036999726943
0.0053998311633856
0.0054980999586209
0.0056417148918864
0.0058016541065822
0.0059674332354214
0.0061810763072465
0.0066535892383115
0.005733055840822
575.45019019641
500.12889645802
408.02946394501
315.46962818166
236.32780708602
173.26631961776
124.39001149871
87.857879784084
60.98374853403
41.283891904634
28.075002391827
18.580387342239
12.0791884444
7.7702063543134
4.9655845314268
3.1804886944156
2.0520398945694
1.3387389767175
0.88637331496269
0.59706104378002
0.4092108892215
0.28514458251438
0.20237652428788
0.14609895829317
0.10711827191725
0.079717294376588
0.060184015180197
0.046026856539336
0.035634431868666
0.027901121995324
0.022077085060181
0.017640131258246
0.014223824654362
0.011568489924919
0.0094815885985446
0.0078303225362006
0.0065105487604371
0.0054490675422993
0.0045879940858942
0.0038856258081266
0.0033083408343535
0.002831127582821
0.0024346616349542
0.0021029444475966
0.0018245729678537
0.0015891482437178
0.0013897439493454
0.0012195427543221
0.0010739770468108
0.00094881454296969
0.00084081593777985
0.000747359003193
0.00066608071496443
0.00059523674207962
0.00053324636140628
0.00047889235728438
0.00043107679667931
0.00038888555788685
0.00035155664440362
0.00031844106923512
0.00028899317277453
0.00026274747608102
0.00023930250069992
0.00021831313779347
0.00019948555268562
0.000182581609591
0.00016734757136461
0.00017000421453967
0.0024293765334586
0.0048225868226617
0.0050861884226623
0.0050451854338005
0.0048321288923394
0.0045335563867124
0.0043814653280256
0.0042133549707906
0.0040386353634669
0.0038879157296452
0.0037895862047608
0.0037647660560336
0.0038113435077263
0.0039136803968922
0.0040571197835886
0.0042385900389075
0.0044286976025036
0.0046684062381714
0.0049237661499963
0.0051806161699357
0.0054255190676584
0.0056508698463977
0.0058520908511621
0.0060347041766522
0.0062065599125058
0.0063742913954652
0.0065419604981574
0.0067079559103442
0.0068677446151786
0.007016426494594
0.0071485868162497
0.0072565311647632
0.0073326514051568
0.0073727845881324
0.0073731400796753
0.00733261033613
0.0072645560410289
0.0072082798978945
0.0071424422547883
0.0070429170099651
0.0069258381870569
0.0068261108488792
0.0067008164626783
0.0065976016820155
0.0065475046043688
0.0065287288082119
0.0065177963638461
0.0065016831969276
0.0064623440388258
0.0064430903934083
0.006416236834256
0.0063734864820741
0.0063270365642709
0.0062358376755531
0.00615946009354
0.0060365984301285
0.0059337164857909
0.0058150208256413
0.0057171534290132
0.0056129435122023
0.005521450364788
0.0054499834256998
0.0054039893715947
0.0053274831273962
0.0054351045654211
0.0055339798660647
0.0056485261170487
0.0058163126934629
0.0059784236922171
0.0061798698999995
0.0066016275546095
0.0055542784121254
537.10307039871
407.63520512396
289.56127570388
204.93182822533
147.15738472033
106.63182508114
77.892923409209
56.937474836338
41.228744715253
29.521385605271
20.732234869461
14.262803081328
9.6335346971722
6.4165093401686
4.2353380631174
2.7839937879863
1.8351736432177
1.2197517190121
0.81986063427915
0.5585800380616
0.38651276416155
0.27191429341691
0.19412726638339
0.14082227621478
0.10373647963621
0.077524380463168
0.05869280941081
0.045006501354307
0.034925177797387
0.027402543867353
0.021716512734294
0.017379431453886
0.014030826497339
0.011423851728869
0.0093732093188579
0.0077480044149776
0.0064472853334188
0.0054003418740336
0.0045501123790612
0.003855937037436
0.0032846333291854
0.0028125679441986
0.00241946627184
0.0020908877774599
0.0018145253570916
0.0015810959012301
0.0013829860050545
0.0012139403207091
0.0010693180986046
0.00094486123992643
0.00083753779439177
0.00074452719046936
0.00066370600176857
0.00059322282706964
0.00053153586102106
0.00047741829196624
0.00042979108299945
0.00038776973926058
0.00035058955037731
0.00031760362661443
0.00028826382270364
0.00026210917569591
0.0002387441362518
0.00021782453950825
0.00019905801761128
0.00018220551161585
0.00016701145629361
0.0001687856227986
0.0023805948752817
0.0047978817486609
0.0050673810660575
0.0050287214724778
0.0048184418639237
0.0045213314821013
0.0043651558580242
0.0041978015572259
0.0040240315666304
0.0038741053596647
0.0037760106923477
0.0037510119483994
0.0037967808638655
0.0038992433565961
0.00404487443659
0.0042303353496165
0.0044268198239363
0.004669918450694
0.0049275157352693
0.0051855815844726
0.0054316321997323
0.0056579055802117
0.005860095159866
0.0060435200629971
0.0062154847978317
0.0063825460839682
0.0065482194474242
0.0067115149645591
0.0068674866417262
0.0070113888112449
0.0071378992171791
0.0072401873164578
0.0073119290769057
0.0073491380631037
0.0073458699507856
0.0073022570887646
0.0072396213102714
0.0071873299910243
0.0071226932819015
0.0070269080058409
0.0069160099924899
0.0068125792371276
0.0066830132402496
0.0065969163059099
0.0065637929424205
0.0065278665636108
0.0065132780419419
0.0065081871843344
0.0064762553570477
0.0064607820024292
0.0064340449786568
0.0063914627435167
0.0063460342269659
0.0062564426208009
0.0061818030979954
0.0060608977443906
0.005960778533868
0.0058447651720397
0.0057469998863797
0.0056436340205896
0.0055528955979347
0.0054828258062827
0.0054390856303277
0.0053575626918445
0.0054705201588559
0.0055701454180639
0.0056690314113941
0.0058387849375445
0.0059972890165909
0.0061847472942866
0.0065699748675923
0.0053672008085923
303.33966956547
158.81742344789
111.72865377007
87.072767738263
69.147935364361
55.031292566629
43.448061832404
34.171924598064
26.338071258167
19.861812991089
14.629415288945
10.544983696558
7.4346328424091
5.1442268231926
3.5124507396156
2.3800852403685
1.6093035249484
1.0917415683943
0.74647284095438
0.51590376610552
0.36109369116183
0.25625834031953
0.18459676887507
0.13477542766895
0.099769740047023
0.074883095294392
0.05694203468464
0.04380007205415
0.034074325671498
0.026799275182056
0.021288678239437
0.017062888858472
0.013798673772387
0.011250411230943
0.0092430211910743
0.0076476731111299
0.0063713948160249
0.0053412933645656
0.0045041588141874
0.0038195569932398
0.0032561779795872
0.0027896775824903
0.0024010712111209
0.0020760084625748
0.001802390690969
0.0015711857204714
0.0013746631640522
0.0012071178488297
0.0010635580743462
0.00094005488187099
0.00083344985245648
0.00074104626713478
0.00066076462787024
0.0005907116041689
0.00052940703555593
0.00047558015372617
0.00042820243567376
0.00038639573914534
0.00034939500644182
0.00031656124814
0.00028735390049722
0.0002613170228486
0.00023805335777044
0.00021721853810253
0.00019852556462918
0.00018173650650549
0.00016660038796851
0.00016733931899288
0.0023203156101652
0.0047683120287154
0.0050446284812991
0.0050090053923642
0.0048021878160016
0.0045067473470826
0.0043440457254282
0.0041768977558136
0.0040038479705711
0.0038544952113764
0.0037564397016843
0.0037308334517541
0.0037756306352101
0.0038784572709851
0.0040269782870332
0.0042172158281002
0.0044189913566279
0.004666702378977
0.0049276224315864
0.0051877451368159
0.0054352554033918
0.0056630537695272
0.0058666913190253
0.0060511682258655
0.0062233294822618
0.0063893963988
0.0065522831555755
0.0067111385761893
0.0068609300979205
0.0069973738677902
0.0071162579494657
0.0072121094322846
0.0072790426553455
0.0073125069421875
0.0073032467364169
0.0072559009122228
0.0071983629248686
0.0071499854773491
0.0070878727218657
0.006994563293933
0.0068924444615965
0.0067928652133222
0.0066553465360291
0.0065901262815746
0.0065654188850948
0.0065265237375374
0.0065156843289573
0.0065164560568824
0.0064876101942737
0.0064750864894534
0.0064479369065777
0.0064063464250794
0.0063625897946582
0.006277340654659
0.0062044330690791
0.0060865869407785
0.0059893221366982
0.0058753519634047
0.0057771450207524
0.0056744047703337
0.0055858938276039
0.0055175664203186
0.0054762707356433
0.005392185207425
0.0055108599979492
0.0056102854233009
0.0056965226988925
0.005862256705178
0.0060167188330098
0.0061938188381436
0.0065383691412766
0.0051310999021223
0.3403937391127
16.060766438644
24.298858323466
27.840418609925
28.467004774003
26.823013692476
23.827249739001
20.378535163901
16.908906170177
13.63443292092
10.688240685764
8.1480154990353
6.0488364404393
4.3833729656835
3.1148173564705
2.1834779539629
1.5183661311014
1.0536107040392
0.73322221819037
0.5136811524471
0.3632529694173
0.25980371202818
0.18810310300737
0.13802934387769
0.10254760791414
0.077076580818357
0.05867952470981
0.045199121880018
0.035197302500577
0.027675214837185
0.021985385861695
0.017627421168597
0.014251735181069
0.011613951493735
0.0095387780998171
0.0078904730847404
0.0065701260651903
0.0055050846424674
0.0046406456731649
0.003933499595812
0.003351467699614
0.0028698189146588
0.0024690371412788
0.0021336526440987
0.0018514707986637
0.0016131148172003
0.0014107056201994
0.0012381587923893
0.0010903125710786
0.00096326601440289
0.00085364202268157
0.00075869558259178
0.00067619401664398
0.00060423393966036
0.00054132713209687
0.00048612718569696
0.00043755099185272
0.00039468079472271
0.00035675353130432
0.00032312422019043
0.00029322324741132
0.00026657357984206
0.00024277116214344
0.00022147258954353
0.00020237207913137
0.00018519534033168
0.0001697308611936
0.00015712605392398
0.0010972130987685
0.0044994623981682
0.0049906920322789
0.0050135883153626
0.0048462311433393
0.0045564065089085
0.0043558370132879
0.0041928281761905
0.0040188818078988
0.0038614682434488
0.0037482730603
0.0037025298955251
0.003730149288405
0.003820109729016
0.0039607405570525
0.0041460046375095
0.0044071388689479
0.0046602043082078
0.0049256083539673
0.0051891970709088
0.0054386982978456
0.0056677084101757
0.0058720454288492
0.0060568306985909
0.0062286836667509
0.0063934767162119
0.0065528872288652
0.0067060041993838
0.0068486515371413
0.0069776891682607
0.0070896752090435
0.007179501740525
0.0072413888734406
0.0072701963659902
0.0072544077419217
0.0072064047317375
0.007128943381594
0.0070869304191663
0.0070274528564882
0.0069360028257326
0.0068472318647652
0.0067565128793023
0.0066194946857077
0.0065609639754864
0.0065428470800186
0.0065161110261229
0.0065184170423587
0.0065295955404956
0.0065009873230122
0.006491686158888
0.0064642275266666
0.0064200447297984
0.006382481274485
0.0063038752638063
0.0062320520689414
0.0061190257283621
0.0060260912922532
0.0059175415622876
0.0058182449913953
0.0057172903618157
0.005632063724696
0.0055678876372098
0.0055310761923386
0.0054562116249925
0.0055616573208914
0.005651505103998
0.00572685560567
0.0058870737504932
0.006033646889291
0.0061937354290906
0.0064595814107471
0.0047286495992798
0.06715086984666
0.48960065757033
1.5640081870632
2.9273808878047
4.2385408148256
5.2499290940562
5.8319059701476
5.9848246382812
5.6687970157446
5.1356098747957
4.4661807303805
3.7324330671599
3.0149034471333
2.3590628725643
1.796787158585
1.340554393032
0.98563911329409
0.71814054972112
0.52147573132467
0.37910668310092
0.27681146050036
0.20351002128069
0.1508967033693
0.11293582214866
0.085380579244513
0.065236220406958
0.050351642181164
0.039216598893906
0.030850084971711
0.024495985852259
0.019624682973781
0.01584561856977
0.012895558136957
0.010574686942267
0.0087326785665058
0.0072574294077548
0.0060697338042703
0.0051070874646928
0.0043212518441074
0.0036751164431068
0.003141044227277
0.0026975793766311
0.002327123053226
0.002015931855158
0.0017532652490153
0.0015307283385002
0.0013412996195377
0.0011792945961184
0.001040204913175
0.00092041273637644
0.00081685660758635
0.00072701146109999
0.00064876699428029
0.00058043860177759
0.00052058867913962
0.00046801641140393
0.00042169374800483
0.00038075299637497
0.00034448329462672
0.00031227770976683
0.00028361527822029
0.00025804574950183
0.00023518455154503
0.00021470147515956
0.00019631892402766
0.00017978854368234
0.00016489052561891
0.00016199530428074
0.0020844033094141
0.0046550641737826
0.0049579740569932
0.0049323516696906
0.0047337898756388
0.004437778389786
0.0042429366087731
0.0040724946553774
0.0039008471965649
0.0037527264604158
0.0036542666919537
0.0036261101409589
0.0036687464455372
0.0037755146531286
0.0039370793484468
0.0041460509793145
0.0043685581127333
0.0046346783871789
0.0049111291270989
0.0051837403242014
0.0054400214007986
0.0056740896911367
0.0058813943525302
0.0060662698994896
0.0062363432575627
0.006396671387622
0.0065471706563449
0.0066878483069366
0.0068162796884543
0.0069305513185514
0.0070277592406538
0.0071035255389797
0.0071531988948559
0.0071710446195388
0.00714281241908
0.0070931925333722
0.0070249112741703
0.0069955251257063
0.006936852104233
0.0068412935348254
0.0067607976544841
0.0067010394685423
0.0065851573635811
0.0065039439000634
0.0064682021364444
0.0064981599496043
0.0065144326050919
0.0065280556370317
0.006498578388094
0.0064921757044409
0.0064579116312116
0.006409867226397
0.0063796871235442
0.006309672623384
0.0062423935985456
0.0061459591894719
0.0060600022840362
0.005959671595956
0.0058626551241008
0.0057652932105063
0.005683588283417
0.0056272380949829
0.0056010295978024
0.0055523172231502
0.0056298618864048
0.0056984088020871
0.0057577484087776
0.0058933603083124
0.0060183646436656
0.0061445010309966
0.0063093045728166
0.0045590197188627
0.042574907227187
0.093922543689933
0.24721326756153
0.52985331175563
0.89166172234407
1.2749259209008
1.6224606991737
1.8847363547552
2.0413401335686
2.0676977321659
1.9750835480082
1.8070771650384
1.5826532819286
1.3362474329135
1.090451926551
0.86628676922252
0.67359803359841
0.51574515931402
0.39100774837623
0.29495492514215
0.22229948211165
0.16790845320297
0.1273993057663
0.097255097494601
0.074770773879692
0.057939915414017
0.045263947658118
0.035654552218889
0.028319865446127
0.022665947539163
0.018278151007831
0.014853411335922
0.012156719812021
0.010019654619153
0.0083081674202989
0.0069313492096659
0.0058175591193361
0.0049102853448895
0.0041660453499157
0.0035515691948276
0.0030427133732194
0.0026185566481971
0.00226319137747
0.0019636886998959
0.0017105580760493
0.001495543031593
0.0013121411837117
0.0011549784911216
0.0010198179588268
0.00090327845482874
0.00080238695970125
0.00071472550407381
0.00063828988563053
0.00057147659997481
0.00051289851720471
0.00046138675277141
0.00041595600104194
0.00037577890278506
0.0003401678270144
0.0003085220375828
0.00028033239939901
0.00025516760978661
0.00023265459475819
0.00021247874243574
0.00019436415431906
0.00017806390614089
0.00016336211823098
0.0001579511873307
0.00189015714376
0.004567942154972
0.0048912262909684
0.0048691548945847
0.0046692931542713
0.0043658311128265
0.0041434710925248
0.0039667254963944
0.0037950142952541
0.0036474225999965
0.0035487271594348
0.0035195464745064
0.0035627427653047
0.0036752639545654
0.003848727565559
0.00407310891683
0.0043114127165105
0.0045927886526695
0.0048826158827158
0.0051667645852993
0.0054321038159872
0.0056718018848598
0.0058819060058113
0.0060677829370417
0.0062370773770573
0.0063923371358303
0.0065338876671768
0.0066626669248078
0.0067779546714162
0.0068784231007988
0.0069614337970898
0.0070235394380251
0.0070614900659312
0.0070692595543513
0.0070301567027755
0.0069778234595765
0.0069292065978774
0.0069107310969843
0.0068500267556932
0.0067366400599811
0.006670208294401
0.0066519510195011
0.0065804317927713
0.006429683089427
0.0063521595391767
0.0064786074762058
0.0065074007158752
0.0065038371056492
0.0064694512770185
0.006472028242408
0.0064326757995734
0.0063816456323122
0.0063488639702238
0.0062777717345259
0.0062092391539834
0.0061228529358792
0.0060357723542563
0.0059421509162014
0.0058496412299829
0.0057586329839201
0.0056785260044423
0.0056227670667361
0.0055978684499618
0.0055673446006714
0.0056050734815887
0.0056289324107111
0.0057263700516059
0.0058233090931563
0.005921554326815
0.0060073838917409
0.006079641076405
0.0099223483831561
0.027114565230978
0.046961928297367
0.075717782663944
0.15180138477886
0.26759914904086
0.40839789279611
0.55943875361191
0.70090439171798
0.81756296950593
0.89486774610054
0.92048378217356
0.89498487749252
0.84125351889228
0.75575275941231
0.65497542273766
0.55015016625822
0.45068919184501
0.36164839338869
0.28591108858499
0.22380489161024
0.17422314712404
0.13536440227284
0.10524518319157
0.082056448916562
0.064252280376351
0.050578978710409
0.040059002491875
0.031932718301392
0.025622951664029
0.020697793954592
0.016831480003448
0.013776930834455
0.011345058006372
0.0093985574568389
0.0078330884363411
0.0065656945176569
0.0055336453563959
0.004686143593398
0.003987888627585
0.0034103549922062
0.0029294920606355
0.0025273750490133
0.0021887331033399
0.0019030330729048
0.0016607732583005
0.0014544770539473
0.0012780043367341
0.0011264026391336
0.00099593633257855
0.00088316744861183
0.00078539461521443
0.00070026326588346
0.00062595711305502
0.00056093511478039
0.00050384435978068
0.00045358404457307
0.0004091981064922
0.00036990986545982
0.00033506633303199
0.00030407817719935
0.00027645570104468
0.00025177044915575
0.00022966612566966
0.00020984815690511
0.00019204216514701
0.0001760127757624
0.00016154426605158
0.00015389799773774
0.0016801736963064
0.0044830101571383
0.0048266331221714
0.0048031399879505
0.0045950535436212
0.0042783740733263
0.0040245082737449
0.0038355267690158
0.0036615035164074
0.0035137829168705
0.0034152935490532
0.0033866975781376
0.0034330108448248
0.0035540280414734
0.0037415657319393
0.0039831186264325
0.0042380186536051
0.0045360575146893
0.0048407216757635
0.0051380059735187
0.0054140697652723
0.0056604511216893
0.0058731488235888
0.0060589048327215
0.0062255286145159
0.0063753398493946
0.0065083109006734
0.0066277758470212
0.0067330218950974
0.00682220476601
0.0068931924671025
0.0069437845671478
0.0069735029810154
0.0069739985542108
0.0069277958730849
0.0068695281874089
0.0068489394190174
0.0068264685782422
0.006759275852374
0.0066187119998746
0.0065613383641914
0.0065815845958412
0.0065360371361822
0.0063627229192686
0.0062452306724436
0.0063983484500394
0.0064370891968335
0.0064080675916367
0.0063631174489687
0.0063532644063273
0.0063030898894567
0.0062592733006865
0.0062221569131782
0.0061598818158304
0.0060889177801613
0.00601069468786
0.0059090152264729
0.0058082643285426