/*--------------------------------*- C++ -*----------------------------------*\
| =========                 |                                                 |
| \\      /  F ield         | OpenFOAM: The Open Source CFD Toolbox           |
|  \\    /   O peration     | Version:  2312                                  |
|   \\  /    A nd           | Website:  www.openfoam.com                      |
|    \\/     M anipulation  |                                                 |
\*---------------------------------------------------------------------------*/
FoamFile
{
    version     2.0;
    format      ascii;
    arch        "LSB;label=32;scalar=64";
    class       volScalarField;
    location    "6e-05";
    object      T;
}
// * * * * * * * * * * * * * * * * * * * * * * * * * * * * * * * * * * * * * //

dimensions      [0 0 0 1 0 0 0];

internalField   nonuniform List<scalar> 
109340
(
372.99992964555
372.99881521159
372.99677158686
372.9941344869
372.99130306726
372.98847144183
372.9857118255
372.98305829541
372.98047213825
372.97787763025
372.97527956202
372.97267990256
372.97007501341
372.96745685723
372.96481471572
372.96213477591
372.95939959196
372.95658736542
372.95367050432
372.95061439222
372.94737596057
372.94390268764
372.9401295533
372.93597442621
372.93133255421
372.92606840382
372.92000434251
372.91290388438
372.90444554857
372.89418085385
372.88146293069
372.86531868683
372.84420791103
372.81555207597
372.77472972831
372.71302930344
372.99976663399
372.99824791911
372.99586884524
372.9931732494
372.99040600776
372.98766319408
372.98496470465
372.98230090897
372.97966588338
372.97704697087
372.97443578994
372.97182707634
372.96921391369
372.96658709684
372.96393480357
372.96124233245
372.95849175619
372.95565992077
372.95271750156
372.9496280195
372.94634640572
372.94281746401
372.93897267419
372.93472510036
372.92996338969
372.92454290455
372.91827339257
372.91090030717
372.90207559669
372.8913100412
372.87789093438
372.86073051414
372.83807006713
372.80687682507
372.7614297769
372.69033665535
372.99980978065
372.9979917094
372.99551176998
372.99286086308
372.990146594
372.98742221254
372.98469946914
372.981994423
372.97931931868
372.97667040389
372.97403845049
372.97141566289
372.96879364999
372.96616254925
372.96351053382
372.96082318181
372.95808247506
372.95526557968
372.95234336626
372.94927974462
372.9460296629
372.94253848289
372.93873825529
372.93454211933
372.92983864479
372.92448297331
372.91828474645
372.91098926697
372.90224824388
372.89157197396
372.87824680562
372.86118047136
372.83858712879
372.8073189475
372.76118606871
372.686588972
372.99977315081
372.99763999464
372.99502497545
372.99228062579
372.98950207391
372.98671514833
372.98393596834
372.98117859714
372.97845363591
372.97576436975
372.97310639027
372.97047281836
372.96785486515
372.96524297049
372.96262726022
372.95999375684
372.95732550299
372.95460039582
372.95178971945
372.94885923197
372.9457643348
372.94245052217
372.93884880672
372.93487103193
372.93040356106
372.92529901438
372.91936385064
372.91233946339
372.90387250585
372.89346603074
372.88039540943
372.86355033606
372.84108593625
372.80966404427
372.76231982875
372.68131616262
372.9995608349
372.99667067397
372.99342771084
372.99026365288
372.9871828218
372.98418262748
372.98127468144
372.97848648377
372.97583623684
372.97331791687
372.97093495626
372.96868531852
372.96656208949
372.96455643493
372.96265867394
372.96085631871
372.95913381656
372.95747071491
372.95583657584
372.95419959796
372.95247975038
372.95059820913
372.94846730609
372.94598186152
372.94301200239
372.93939084501
372.93489991609
372.92925047684
372.92204759906
372.91273646804
372.90050635883
372.88412897053
372.86152462558
372.82886203995
372.77760952691
372.68146343068
373.0034456576
373.01791822311
373.03349430825
373.04896089248
373.06388458768
373.0780271223
373.09126042093
373.10352849852
373.11481858744
373.12513827703
373.13451042231
373.14296132964
373.15051688515
373.1571998264
373.16302728808
373.16801221239
373.17215901973
373.17547105779
373.17800074735
373.17986390112
373.1810476234
373.18149693299
373.18113116024
373.17983800195
373.17745450775
373.17378814628
373.16853904867
373.16130984981
373.15154530984
373.13845132168
373.12084655635
373.09694278556
373.06363778857
373.0151454959
372.93804606114
372.78265538698
372.61509291025
372.46078568223
372.22470656082
371.88732578966
371.43807115501
370.86648686808
370.15892266518
369.30250289121
368.28533783708
367.10235365858
365.75269421626
364.2506961875
362.64078486183
360.9470273219
359.21077117461
357.46588078604
355.7411847681
354.05874309123
352.43307864477
350.87378618139
349.38630890814
347.97135085553
346.6281248786
345.35457536873
344.14638956716
342.99941300716
341.91473017717
340.88047977052
339.89622483069
338.96363029155
338.06781099532
337.22047383045
336.4027003641
335.62749993193
334.8775206719
334.1647743376
333.47345213161
332.815291792
332.17495303325
331.56464002629
330.96938100569
330.40076611637
329.84629321535
329.31370017181
328.79635543851
328.29482362738
327.81026710223
327.3370689633
326.88074710253
326.43508676247
326.00264422775
325.58175909977
325.17216784301
324.77317922002
324.38433685242
324.00512921478
323.63512293752
323.273918203
322.92114741138
322.57645689201
322.23950700676
321.90999016876
321.58758060766
321.27203794726
320.96311423768
320.66054324742
320.36405128734
320.11462653931
321.47029135198
320.36891937634
318.70693606934
316.60285459779
313.89113497023
310.18296119688
308.80990106914
308.81384689801
308.82664846892
308.83153871941
308.83774051443
308.85221139833
308.87832536656
308.91253960734
308.95229131243
308.99693503077
309.06117040789
309.1095159546
309.15684903904
309.20272353369
309.24523760566
309.28429817536
309.31960724137
309.35235817973
309.38366022266
309.41423055897
309.44425232045
309.47313567911
309.49989539391
309.52385296241
309.54425798186
309.56057090029
309.57204318631
309.57780153856
309.57785668912
309.57268616757
309.55982697607
309.54655886681
309.53018798281
309.51113152863
309.48625996874
309.46130620865
309.43688776633
309.40911330059
309.38294689278
309.36317989158
309.34747857684
309.32847381798
309.30581413955
309.28301534211
309.26029635781
309.23698149833
309.21106469686
309.18200008284
309.15004054187
309.11562947181
309.07979962768
309.04338733788
309.00779013785
308.97166125966
308.93730698545
308.90563521122
308.87668113182
308.84507459308
308.82941478976
308.82343274566
308.82023723264
308.81750000665
308.81948139358
308.85489136443
309.88751259312
377.41820977044
372.57196442345
372.37960124668
372.08656978324
371.68068816891
371.1559769556
370.50301105209
369.71404195916
368.78096117768
367.69915554492
366.46887893623
365.09440944915
363.59113198071
361.98911949608
360.32020522928
358.61352752389
356.90007142702
355.20694993505
353.55486167694
351.95855871611
350.42708230424
348.96518137379
347.57438620735
346.25372672588
345.00076774738
343.81267158639
342.68515992097
341.61446122923
340.5970890231
339.62862448772
338.70646446748
337.82668810056
336.98663251306
336.18335494911
335.41410749286
334.67688990018
333.96914271978
333.28928998544
332.63514656172
332.0054014493
331.39825876937
330.81249475986
330.24681132999
329.6998645164
329.17088648851
328.65844351569
328.1621357251
327.68051061049
327.2133545893
326.75939436081
326.31837123058
325.889296783
325.47176697641
325.06525010289
324.66916644405
324.2831051684
323.90653143911
323.53906125717
323.18027123515
322.82980727248
322.48730749195
322.15244540265
321.82492810135
321.50447158748
321.19079592507
320.88361919554
320.58271493721
320.2876615083
320.21562045852
321.3070942422
319.99602169703
318.23219310077
316.00798335043
313.09270867226
309.47974180563
308.83946058984
308.87164018175
308.89336023838
308.9069471463
308.92132105046
308.94312746936
308.9734916837
309.00927812066
309.04839859263
309.09112164787
309.10984909131
309.15568500121
309.19982269194
309.24247177684
309.28213464897
309.31882038514
309.35233492634
309.38378096464
309.41414370859
309.44397712783
309.47337123316
309.50168816143
309.52800322078
309.55154420525
309.57153996998
309.58739879745
309.59836994884
309.60329509722
309.60279076558
309.59664566728
309.58274719974
309.56874209748
309.55166646072
309.5320206115
309.5066996739
309.48230172111
309.45690515731
309.42954195121
309.40481576102
309.38408857513
309.36656713804
309.34581142935
309.32227355542
309.29963530572
309.27683942645
309.25304150807
309.22662847211
309.19696354202
309.1647365406
309.1298924699
309.0938573941
309.05680510517
309.02100289857
308.98452536267
308.94939131128
308.91714113418
308.8869691432
308.85379976003
308.83846184505
308.8314122885
308.82706525191
308.82336056794
308.82415258288
308.8573486737
309.88403900429
377.99353217235
372.5525500496
372.31872272152
371.9613126811
371.47226795964
370.86283755148
370.12778968573
369.26785683093
368.28188346323
367.16978501302
365.93130033155
364.57394736753
363.11030744942
361.55632313891
359.93720872678
358.28104651811
356.61480885823
354.9640518051
353.34925202428
351.78478623315
350.27968428357
348.83931816757
347.4663789087
346.16027752484
344.91917198401
343.74058431878
342.62121224057
341.55759683062
340.5460125593
339.58307989459
338.66497944016
337.78919215638
336.95226356516
336.15192063514
335.38523072332
334.6502514556
333.94454263432
333.26647491302
332.61397021418
331.98569947798
331.37982711705
330.79539494764
330.23064117862
329.68492385685
329.15663945513
328.64529218406
328.14953779995
327.66879099287
327.20218809886
326.74889135853
326.30844508921
325.87992229827
325.46298897637
325.05688415699
324.66123525103
324.2755346741
323.89933365435
323.53221524356
323.1737596204
322.82360457414
322.48139314847
322.14680338056
321.81954557931
321.49933032925
321.18587708859
320.878907027
320.57820110296
320.28333562711
320.20366078171
321.30647327001
320.00123289176
318.24319698804
316.02858383297
313.13655046841
309.55442877344
308.9016427378
308.95302024237
308.99209743192
309.01945146279
309.04408621144
309.073235657
309.10786804913
309.14522673015
309.18319382808
309.22195471854
309.22095274868
309.26043458112
309.29773704625
309.33321813414
309.36624697626
309.39699358048
309.4256738051
309.45336513918
309.48097524082
309.5088722677
309.53699894907
309.56451698861
309.59029251265
309.61335480538
309.63286358496
309.64804141578
309.65817745176
309.66190687827
309.66052083693
309.65258786531
309.63719745722
309.62165647185
309.60439909891
309.58227931655
309.55575724476
309.53059410651
309.50296867713
309.47260040583
309.44929072747
309.42663638223
309.40639849229
309.38407482963
309.35756543386
309.33422483121
309.31072371611
309.28494029829
309.25831483094
309.22605988594
309.19421373915
309.15643263144
309.12043627927
309.0818232696
309.04576000213
309.00818761954
308.97153796841
308.93823374733
308.90701662349
308.86507356254
308.86038156347
308.84728917866
308.8420007517
308.83775480423
308.83380306432
308.84766315186
309.73946148218
374.19415850879
372.51347613234
372.18461672841
371.68858677138
371.04957531232
370.2995345872
369.44960192245
368.50804160451
367.47814207414
366.35709864092
365.14047085328
363.83634756065
362.4415632779
360.96464581939
359.42290540133
357.83895095237
356.23816712442
354.6441041167
353.07753577713
351.55373822034
350.08300188917
348.67162163441
347.32170046731
346.03500723504
344.81023436087
343.64497298294
342.5365306145
341.48208560866
340.4784227891
339.52217774018
338.61013920885
337.73925942043
336.90688449825
336.11023000375
335.34712753719
334.6149999627
333.91215294214
333.2363491626
332.5861505582
331.95967671277
331.35574251713
330.77272837255
330.20957022284
329.66503963318
329.13805023952
328.62773645867
328.13298068108
327.65323360017
327.18738207922
326.73498986783
326.29515091148
325.86738737334
325.45105941116
325.04558662575
324.65050360845
324.26529198761
323.88957468562
323.52289841017
323.16486868591
322.81511451706
322.47328654408
322.1390531381
321.81213006224
321.49223075034
321.1790701732
320.87238302287
320.57194570962
320.27731164861
320.18878237532
321.30605208961
320.00841449311
318.25859804103
316.05718449344
313.19597364565
309.66250998054
308.98783672124
309.06158097976
309.12117404584
309.16444493694
309.20135973857
309.23981256304
309.28113282614
309.32282004098
309.36252465661
309.39990390132
309.38574590687
309.41771110792
309.44595428855
309.47099829889
309.49339749555
309.51425815187
309.53445716952
309.55537957794
309.57791617054
309.60224812099
309.62797744835
309.65396519072
309.67876547101
309.70108460044
309.7199238484
309.73426300743
309.74307492475
309.74574255158
309.74288276602
309.73295232764
309.71499088511
309.69790619
309.67883967401
309.65447232271
309.62652239209
309.5994147755
309.56807793974
309.53741293937
309.51253626244
309.48822278404
309.46361607244
309.43810159671
309.4097134041
309.38432233878
309.35817716715
309.32995345366
309.3011897974
309.26707912525
309.23364749494
309.19420226801
309.15659622201
309.11646563136
309.0786930741
309.03980683816
309.00128424206
308.96625679914
308.93344263966
308.8880825337
308.88306894747
308.86935670182
308.85724667842
308.85381657635
308.84749207184
308.8561831866
309.71363644906
375.39693952536
372.40877028011
371.8043756209
371.00441868001
370.13181155921
369.23312120797
368.30552146367
367.34432769731
366.3364714605
365.26656152845
364.12689242169
362.90734115345
361.60655788022
360.2272984662
358.78155781735
357.28820297008
355.76901904513
354.2460585348
352.73988844237
351.26671112343
349.83807863929
348.46145602731
347.14157626357
345.87889711323
344.67408108324
343.52577641752
342.43172911151
341.3890716541
340.39526466436
339.44757303191
338.54289488575
337.67827070697
336.85135674456
336.05948972704
335.3004811666
334.57212852941
333.87251297271
333.19968267011
332.55207666164
331.9280168655
331.32617613888
330.74508596185
330.18372159474
329.64072425971
329.11526221642
328.60618647428
328.11275335297
327.6340388679
327.16926508507
326.71780600661
326.27884500264
325.85192950394
325.43631953005
325.03159857531
324.63718121921
324.25261117396
323.87746492759
323.51131795218
323.15379974606
322.80453265072
322.46316659507
322.129360054
321.80284232839
321.48333523396
321.17052802255
320.8641789095
320.56406638542
320.26972002466
320.17002414061
321.30598457973
320.01762812381
318.27803378208
316.09267754552
313.26724319397
309.79933873916
309.09090561045
309.18286970416
309.26062624372
309.31750827518
309.36501706868
309.41192855285
309.46023161503
309.50772965131
309.55206783961
309.59238069541
309.57813027807
309.60701297275
309.62935076729
309.64499500914
309.6555434542
309.66378590465
309.67208850091
309.68285062242
309.69737504494
309.7157629469
309.73727521427
309.76036033299
309.78329170222
309.80424509131
309.82182496278
309.83483590661
309.84190106133
309.84351276047
309.83873685536
309.82636486636
309.80600763485
309.78708167856
309.76613658116
309.73989999513
309.70999398711
309.67958058052
309.64464697285
309.61281429209
309.58454877623
309.55564711213
309.52767862512
309.50016333154
309.46906843306
309.4404491428
309.41077014285
309.37936635688
309.34767160424
309.31078800709
309.27481464924
309.23296814018
309.19313901906
309.15085630302
309.11061857065
309.0693364412
309.02846567395
308.99126302802
308.95612808675
308.90634370794
308.89935335496
308.88463012119
308.86465676751
308.85928064337
308.8488224438
308.85290267149
309.6891738757
376.21399472615
371.80293418603
370.25930151728
369.2057495705
368.3321332234
367.49589352828
366.66032688271
365.80200876183
364.90880401123
363.95713887895
362.93268260527
361.82666160215
360.63947789981
359.37308770863
358.0359883435
356.64377942683
355.21677902149
353.77541099365
352.33910325904
350.92519172074
349.54616348739
348.21096696505
346.92508887451
345.69183848634
344.51120438427
343.38286529488
342.30573064594
341.27770455491
340.29606654983
339.35861212359
338.46280523875
337.60603077896
336.78559866141
335.99957067501
335.24560501733
334.52173488271
333.82595765595
333.15672226408
332.51219131908
331.89094469204
331.29155434084
330.71280609357
330.15341751424
329.61231271302
329.08852191805
328.58101637706
328.08900402395
327.61154046774
327.1480215954
326.697616313
326.25971967401
325.83370842862
325.41899136473
325.01510667345
324.6214614661
324.23763536677
323.86314956579
323.49763818329
323.14071451019
322.79200161849
322.4511566914
322.11784953
321.79181021252
321.47276236016
321.1603582091
320.85439164269
320.55466730033
320.26068255444
320.14772924227
321.30616948804
320.02882651212
318.30124740484
316.13412259025
313.34712718636
309.95782382907
309.20208630856
309.30214037852
309.39320277368
309.46020829372
309.51577155388
309.56933087013
309.62347597081
309.6764168967
309.7260071282
309.77108580259
309.76436811867
309.79502658077
309.81686246224
309.82895818607
309.83252231839
309.83065726157
309.82716407273
309.82562431425
309.82959771404
309.83947094722
309.85461970298
309.87290795419
309.89217501377
309.91032657539
309.92542507171
309.93611343243
309.941493072
309.9409873624
309.93344741652
309.91816725709
309.89486689322
309.87465263686
309.8514559303
309.82220656384
309.78965710644
309.75572693088
309.71630652064
309.68192329795
309.64984592798
309.61544162358
309.58445896777
309.55460754713
309.52106448311
309.48938824661
309.45596001862
309.42074561107
309.38540288373
309.34509376581
309.30551217793
309.26025224909
309.21705736696
309.1714930676
309.12754981104
309.08281110421
309.03822949897
308.99790035893
308.95925474527
308.90493425191
308.89370224575
308.87410154928
308.84667309382
308.83468554787
308.81392228271
308.81034648436
309.61968559629
377.00831873156
363.00669051676
366.59962325654
366.34117648348
365.92384062172
365.43761076235
364.86522731657
364.21460633981
363.49117473635
362.69948768938
361.83505338196
360.88531170181
359.84671646507
358.72341108422
357.52086304175
356.25079073245
354.93112366049
353.5817688096
352.22175763829
350.86892207422
349.53817455688
348.24010037175
346.98257688377
345.77001285165
344.60512776354
343.48853719772
342.41893638388
341.39609860513
340.4179890957
339.48268916074
338.58734549358
337.73038388237
336.90934145124
336.1219908582
335.36624955625
334.64047632813
333.94269837476
333.27118299142
332.62434680007
332.00083369736
331.39911921993
330.81799253505
330.25628449413
329.71296075324
329.18692331261
328.67724332108
328.18308641668
327.70359351363
327.23805576832
326.7856742193
326.34590658586
325.91807397988
325.50162263043
325.09601304607
324.70071753739
324.31532951675
323.93934207671
323.57236373137
323.21399287428
322.86388739473
322.52171367077
322.18714057393
321.85984142053
321.53953169292
321.226005357
320.91899821159
320.61819833678
320.32334464821
320.03747671583
321.43094514216
320.40783442104
318.79475135162
316.76343926024
314.19611161457
310.8571427297
309.33766505772
309.38101652219
309.48906444128
309.56911054404
309.63324866815
309.69214237649
309.75141234124
309.80952769487
309.86485770805
309.91589541941
309.92971887838
309.96407485938
309.98857382197
310.00170412019
310.00360428591
309.99656141113
309.9847863998
309.97267373737
309.96505143417
309.96484342711
309.97189624647
309.98342057509
309.99742992318
310.01154895862
310.02325408664
310.03129181438
310.03415867244
310.03080757684
310.02001353023
310.00131990383
310.0134762673
309.98705413192
309.95716765234
309.920867619
309.88306639239
309.84401497309
309.79932656246
309.7590830763
309.72156344594
309.68244903319
309.64644234451
309.61147120601
309.57257281836
309.53417449889
309.49320265083
309.44978372055
309.40703332893
309.35928176105
309.31177960032
309.25920128559
309.20824305476
309.15535913635
309.10246597096
309.04970732211
308.99668266833
308.9479202854
308.89916486922
308.83616135188
308.8083138297
308.77111664419
308.72520541088
308.69271577818
308.65382064291
308.60867381708
309.36765906822
378.54148992901
353.85758414816
359.06190607727
359.8918052548
360.28592548777
360.44873580657
360.42683301239
360.22326095663
359.86672378184
359.37977458714
358.7802942878
358.07406217995
357.27076626797
356.37565036872
355.39143809325
354.32836933163
353.20267141577
352.03194540149
350.83426416717
349.62678317151
348.42477735725
347.24029019911
346.08229247351
344.95670068383
343.86743076253
342.81676788876
341.80547875144
340.83366345896
339.89989099315
339.00376252041
338.14368745294
337.31790900772
336.52447572822
335.7618275088
335.02853992662
334.32284251625
333.64306994994
332.98792229871
332.3561061603
331.74621061163
331.15694333918
330.58719723559
330.03604524816
329.50240121967
328.98532320733
328.48391153615
327.99744267062
327.52512283669
327.066207914
326.62005971697
326.18609315181
325.7637420511
325.35243448549
324.95165052475
324.56094244943
324.1798530355
323.80797486047
323.44488032943
323.09019366566
322.74357836763
322.40471260486
322.07329135737
321.74902848731
321.43164543459
321.12082598511
320.8163667445
320.51808749642
320.22565435535
320.0651443084
321.30456736209
320.07392604345
318.39238360757
316.2903384408
313.62595268468
310.49609296639
309.53302475474
309.59049630139
309.70330589959
309.79224256129
309.86643701103
309.9356660822
310.00381111861
310.07006924208
310.13297543545
310.19074157299
310.20519488548
310.24583848648
310.27525187406
310.29205845715
310.29604726114
310.28836281526
310.27165461297
310.24943004601
310.22650789576
310.20799857462
310.19667367117
310.19231328854
310.19290186237
310.19565681667
310.19816993144
310.19780604649
310.19259139684
310.18130784747
310.1616394065
310.13502198005
310.12247194495
310.08757486593
310.04737304427
310.00041596216
309.95297661142
309.90401069738
309.84709837609
309.78858940038
309.73053733978
309.68030290799
309.62689164333
309.57104588763
309.51067494616
309.45004678162
309.38569788017
309.31900977789
309.25354946059
309.18307933169
309.11237556473
309.03775135668
308.96226999182
308.88437365618
308.80477206822
308.72444344231
308.64295206935
308.56193963939
308.4780815739
308.38375438932
308.30066675629
308.2057812462
308.09918199386
307.99207264294
307.87222242659
307.70102977506
308.31415753475
375.98107018874
349.46373914864
354.04628300446
355.08201557734
355.73223935589
356.15551427673
356.42105322806
356.52297959596
356.47644838546
356.27764422731
355.94268804932
355.4869445478
354.92119722404
354.24438634399
353.47244116781
352.61505264423
351.68380592673
350.69281540642
349.65825683381
348.5966766508
347.52266311722
346.44898245336
345.38684126678
344.34415310424
343.32637869641
342.33721596843
341.37905947298
340.45310523272
339.55940862411
338.69793565185
337.86775870786
337.06775243208
336.29724323702
335.55487004333
334.83947886197
334.14942181222
333.483582178
332.84100904715
332.22034938656
331.62043377653
331.04004994609
330.47847025969
329.9345939608
329.40754445828
328.89635966962
328.40039918537
327.91886883471
327.45104445658
326.99623964039
326.55384408524
326.12336913255
325.70421373762
325.29585484107
324.89779793909
324.50962387155
324.13090508881
323.76121417398
323.40016375498
323.04739546196
322.7025870022
322.36541339667
322.0355727665
321.71282611867
321.39680453033
321.08730386634
320.78413847284
320.48707889942
320.19591066416
320.00316541104
321.29899663146
320.11317869307
318.47157787454
316.42404660181
313.8523389369
310.88037485136
309.74798039886
309.73261750248
309.8513951661
309.95682818867
310.04639658665
310.12867622054
310.20798644226
310.28406372586
310.35561557248
310.42045308993
310.44196802854
310.48627992937
310.51749526494
310.53460348432
310.53776814156
310.52827346244
310.50877320434
310.48210763397
310.45245977559
310.42414011117
310.40027622086
310.38192287503
310.36833100543
310.35798047319
310.34827374557
310.33628918723
310.31909695758
310.29538559554
310.26206122379
310.22248594981
310.18382746914
310.13309246101
310.07185665053
309.99946922159
309.92672472922
309.8515571005
309.76613619338
309.6681119309
309.56720047743
309.48792024355
309.39539541582
309.29420383195
309.18431514499
309.07059701204
308.9485748769
308.82168779539
308.69308572873
308.55771065861
308.42026342744
308.27860604996
308.13284273139
307.98356873141
307.82838719187
307.66938544388
307.50245769666
307.32871948271
307.14141014451
306.93425942935
306.70702898681
306.44917332207
306.16960689821
305.85661301681
305.51065030957
305.12857984336
304.20069689841
265.45026724083
346.7634369457
350.43285149954
351.45974278096
352.15337040097
352.66695417771
353.05072017911
353.30157787273
353.42202203107
353.4160206106
353.2770313605
353.00951154238
352.62505906114
352.14694580623
351.55918654539
350.87810129598
350.11852522723
349.29061521575
348.4079813507
347.48595111358
346.5383819738
345.57771768984
344.61443884723
343.65805448236
342.71576221264
341.79251020608
340.89172262654
340.0156276225
339.16564164159
338.34231926986
337.54567646289
336.77547918688
336.03124528265
335.3118868884
334.61654873217
333.94474417918
333.29525806329
332.6672333779
332.0594252481
331.47099209335
330.9012935436
330.34924778634
329.81405780514
329.29470216122
328.79067034878
328.30122261742
327.82561823627
327.36319741788
326.91329515211
326.47550755668
326.04922403835
325.63393457118
325.229104569
324.83433050408
324.44922350178
324.07333364523
323.70627529314
323.34766445351
322.99717699279
322.65452017985
322.31936389146
321.99142798017
321.67044473541
321.35605994059
321.04812224264
320.74646529621
320.45095340271
320.16104261481
319.9412354887
321.28875137762
320.1589656734
318.56704340912
316.58844375116
314.12701940129
311.29750365681
309.97600108472
309.8570684885
309.97242794894
310.09774244605
310.20795218565
310.30794861383
310.40187325064
310.48993958969
310.57087786719
310.64216960535
310.66720966731
310.71281497215
310.74313644761
310.7575092515
310.75658185623
310.74208232705
310.71615051908
310.68217001344
310.64450166388
310.60725239251
310.57337441098
310.54461981349
310.51891550478
310.49528126328
310.4713731778
310.44431322273
310.41132254614
310.37167813496
310.32259510431
310.26271550778
310.17159726761
310.0821407583
309.97536661568
309.85363856918
309.7284108098
309.59765342975
309.45040764764
309.27844278028
309.08946924925
308.91905198539
308.72264417396
308.50510340239
308.27231544584
308.0270355524
307.76470072534
307.48781642678
307.19964919643
306.90096987336
306.59325754249
306.28403063505
305.96588877353
305.64245441355
305.30428473971
304.95263288422
304.57361492627
304.16861305089
303.72055430876
303.23039491475
302.68949328504
302.09997431594
301.46035922069
300.76989668162
300.02994248455
299.2247550904
297.12722214409
215.29887307729
345.19736063294
347.56278170447
348.60134750577
349.26426217499
349.79640315766
350.21875899833
350.53788172394
350.75765616188
350.85130886056
350.84207933638
350.71747982023
350.47853451485
350.13313822044
349.70196551547
349.17594566752
348.56210913007
347.87514386426
347.12896925257
346.33499955917
345.50531737813
344.65246088824
343.78690182566
342.91738159594
342.05169580151
341.19598662998
340.3546607352
339.53093190752
338.72704391606
337.94438689932
337.18375177393
336.44543590178
335.72937235163
335.03529091652
334.36282013547
333.71126142071
333.0796892116
332.46767980044
331.87456090181
331.29941633445
330.7416877782
330.20037136032
329.67471098007
329.16434217962
328.66846821022
328.18648530837
327.71765520825
327.26139095035
326.81732765609
326.3848428948
325.96346149827
325.55260650139
325.15192437232
324.76103124562
324.37947875016
324.00689980356
323.64289026344
323.28713945174
322.93935914702
322.59920369643
322.26639272135
321.94066926984
321.62171369016
321.30928462316
321.00320167394
320.70327649664
320.40939803776
320.12087846803
319.88209208942
321.27833426126
320.20994913331
318.68027230608
316.78999670983
314.46291114371
311.77704439374
310.24500156219
309.9842814543
310.07811952368
310.22387886247
310.36019139999
310.48345160993
310.59631127303
310.69900619833
310.79015196666
310.86704287031
310.89312379072
310.93732325681
310.96372627646
310.97234849583
310.96450746027
310.94200142421
310.90700958503
310.86312182917
310.81457496192
310.76566089904
310.71952130622
310.67836218665
310.63981124872
310.60135196363
310.56097300333
310.51683805483
310.46627259074
310.40384260337
310.32377500287
310.22022519459
310.02631191664
309.86389056023
309.66926119027
309.44769710386
309.20634584479
308.94141927871
308.6411969443
308.30463150568
307.927027229
307.52973405761
307.09347085243
306.62825837261
306.13249159317
305.62902468061
305.09204451893
304.55111827694
303.98183090049
303.41907415032
302.83096028989
302.24134071941
301.6264272617
300.99160606423
300.32414759189
299.62355738903
298.8757767007
298.07493921536
297.2151353301
296.2876495238
295.27684172557
294.16301287615
292.97004496849
291.66321488445
290.28281326754
288.77330868744
285.19177375673
196.74566834986
344.43127072978
345.15333598453
346.24877285586
346.86859912699
347.38113079174
347.80877632332
348.15529903016
348.42232885454
348.58390471334
348.64541294831
348.6235483103
348.49173316663
348.25280933412
347.93168005261
347.53223649464
347.0463903986
346.47960440801
345.85090444889
345.17000847073
344.44874843647
343.695863201
342.92210080442
342.13663202593
341.3466603773
340.55856797524
339.77755514712
339.00738386325
338.25105376583
337.51066837685
336.78763267902
336.08283388453
335.39673210704
334.72949041722
334.08098332248
333.45091935027
332.83898804948
332.24475426062
331.66755690914
331.10668441651
330.56185583052
330.03248112002
329.51781990146
329.01746149896
328.5305253473
328.05660265069
327.59537308323
327.14620560084
326.70861467629
326.2820796005
325.86604498859
325.46031089437
325.0643769892
324.67784355653
324.30032779411
323.93145032404
323.570960112
323.21852114583
322.87379954634
322.5365123789
322.20634714738
321.88313647773
321.5665462626
321.25634457799
320.95238488702
320.65450018046
320.36235924834
320.07557598946
319.82482542282
321.2685790677
320.26471275665
318.8118432184
317.03283939588
314.86862555163
312.35173038181
310.60007961099
310.14218432343