/*--------------------------------*- C++ -*----------------------------------*\
| =========                 |                                                 |
| \\      /  F ield         | OpenFOAM: The Open Source CFD Toolbox           |
|  \\    /   O peration     | Version:  2312                                  |
|   \\  /    A nd           | Website:  www.openfoam.com                      |
|    \\/     M anipulation  |                                                 |
\*---------------------------------------------------------------------------*/
FoamFile
{
    version     2.0;
    format      ascii;
    arch        "LSB;label=32;scalar=64";
    class       volScalarField;
    location    "6e-05";
    object      TpSat;
}
// * * * * * * * * * * * * * * * * * * * * * * * * * * * * * * * * * * * * * //

dimensions      [0 0 0 1 0 0 0];

internalField   nonuniform List<scalar> 
109340
(
372.99992928829
372.9988151181
372.99677148685
372.99413437427
372.99130294784
372.98847131698
372.98571169536
372.98305817571
372.98047203244
372.9778775314
372.97527946927
372.97267981521
372.97007493082
372.96745677873
372.96481464079
372.96213470408
372.95939952283
372.95658729862
372.95367043954
372.9506143292
372.94737589907
372.94390262746
372.9401294942
372.935974368
372.93133249674
372.92606834692
372.92000428602
372.91290382812
372.90444549233
372.89418079738
372.88146287368
372.86531862889
372.84420785166
372.81555201454
372.7747296645
372.71302923596
372.99976647909
372.99824783786
372.9958687495
372.99317314684
372.99040590154
372.98766309006
372.98496461725
372.98230083084
372.97966581131
372.977046904
372.97443572758
372.97182701785
372.96921385836
372.96658704439
372.96393475367
372.96124228468
372.95849171025
372.95565987638
372.95271745849
372.94962797754
372.94634636468
372.94281742375
372.9389726345
372.93472506112
372.92996335079
372.92454286584
372.91827335394
372.91090026845
372.90207555771
372.89131000173
372.8778908941
372.86073047263
372.83807002388
372.80687677935
372.76142972803
372.690336602
372.99980964197
372.99799161286
372.99551167392
372.99286077343
372.99014651787
372.9874221471
372.98469941037
372.98199436946
372.97931926965
372.97667035857
372.9740384083
372.97141562333
372.9687936127
372.96616251385
372.96351050003
372.96082314939
372.95808244381
372.95526554941
372.95234333679
372.94927971581
372.94602963462
372.94253845502
372.93873822771
372.9345420919
372.92983861743
372.92448294594
372.91828471896
372.91098923924
372.90224821576
372.89157194523
372.878246776
372.86118044042
372.83858709597
372.80731891193
372.76118602946
372.68658892688
372.99977300344
372.99763992183
372.99502492888
372.99228058611
372.98950203911
372.98671511723
372.98393594009
372.98117857147
372.9784536125
372.97576434834
372.97310637057
372.9704728001
372.96785484805
372.96524295433
372.96262724479
372.95999374198
372.95732548854
372.95460038166
372.95178970547
372.94885921809
372.94576432094
372.94245050829
372.93884879279
372.93487101785
372.93040354673
372.92529899976
372.91936383566
372.91233944795
372.90387248982
372.89346601393
372.88039539157
372.86355031667
372.84108591474
372.80966401952
372.76231979902
372.68131612477
372.99956074694
372.99667067397
372.99342770412
372.99026364668
372.98718281621
372.98418262233
372.98127467412
372.97848648377
372.97583623684
372.97331791687
372.97093495626
372.96868531852
372.96656208949
372.96455643493
372.96265867394
372.96085631871
372.95913381656
372.95747071491
372.95583657584
372.95419959796
372.95247975038
372.95059820913
372.94846730134
372.94598185646
372.94301199692
372.93939083806
372.93489990774
372.92925046732
372.92204758857
372.91273645666
372.90050634664
372.88412895683
372.8615246099
372.82886202104
372.77760950215
372.68146339371
373.00344562775
373.01791822311
373.03349430825
373.04896089248
373.06388458768
373.0780271223
373.09126042093
373.10352849852
373.11481858744
373.12513827703
373.13451042231
373.14296132964
373.15051688515
373.1571998264
373.16302728808
373.16801221239
373.17215901973
373.17547105779
373.17800074735
373.17986390112
373.1810476234
373.18149693299
373.18113116024
373.17983800195
373.17745450775
373.17378814628
373.16853904867
373.16130984981
373.15154530984
373.13845132168
373.12084655116
373.09694277411
373.06363777876
373.01514548443
372.9380460449
372.78265535697
372.61509284323
372.4607856337
372.22470652411
371.88732587557
371.43807070887
370.86648632474
370.1589227273
369.30250285241
368.28533780688
367.10235292587
365.75269244105
364.2506940504
362.64078272958
360.94702541538
359.21076884424
357.46587772426
355.74118113419
354.05873835207
352.43307315644
350.87378072286
349.38630513182
347.97135552622
346.62813695806
345.35453621092
344.14624950609
342.99956346753
341.91481860735
340.87997702567
339.89688846644
338.9632571644
338.0680851522
337.22023532482
336.40274417328
335.62737049275
334.87744423915
334.16466996113
333.47339194836
332.81514364244
332.17503065373
331.56440542535
330.96970649506
330.40041733327
329.84701651242
329.31327518318
328.79687711251
328.29437700857
327.81027774839
327.33687819357
326.88059725482
326.4352530741
326.00260027297
325.581784639
325.17217552401
324.77320052621
324.38435297798
324.00515241856
323.63514696879
323.27394699628
322.92117984884
322.57649514734
322.23955089449
321.91004007404
321.58763725951
321.27210114677
320.9631827404
320.66061081023
320.36412691215
320.11405490994
321.46770953388
320.36888545226
318.70694489102
316.60286709098
313.89114594143
310.18290069397
308.80990000773
308.81384652628
308.82664942457
308.83154119692
308.8377433859
308.85221325757
308.87832616734
308.91254028247
308.95229210551
308.99693535895
309.06116932748
309.1095149344
309.15684823783
309.20272303267
309.24523760566
309.28429765785
309.31960588548
309.35235620705
309.38365818463
309.41422899196
309.44425152001
309.47313555756
309.49989592349
309.52385421335
309.54425992753
309.56057330467
309.57204563046
309.57780312994
309.57785630062
309.57268250765
309.55981733737
309.54654493915
309.53018067215
309.51111297595
309.48621748825
309.46128047881
309.43684804412
309.40906025674
309.38289801999
309.36314172882
309.34742889546
309.32840072706
309.30572968883
309.28293292461
309.2602159205
309.23690071474
309.21098525732
309.18192351807
309.14997014899
309.11556841111
309.0797464447
309.04334433846
309.00775347146
308.97164538338
308.93730726543
308.90564546197
308.87670112001
308.84508002824
308.82941414927
308.82341902904
308.8202171205
308.81747186352
308.81945149095
308.85487426534
309.88749945695
376.96997512397
372.57196437254
372.37960121353
372.08657002179
371.68069239854
371.15597724168
370.50301018002
369.71404189359
368.78096115619
367.6991550638
366.46887840429
365.09440856051
363.59113062372
361.98911822599
360.32020332183
358.61352495529
356.90006833073
355.20694623981
353.55485715403
351.95855351986
350.42707660282
348.96517539704
347.57437892518
346.25371961777
345.00076244494
343.8126628287
342.68513876266
341.614464423
340.59707488656
339.62860527838
338.70647631414
337.8266521342
336.986652296
336.18331844273
335.41412781732
334.67685494237
333.96916366709
333.28925471311
332.63517088198
332.00536226976
331.39828152052
330.81245126599
330.24682143286
329.69982937753
329.17088676533
328.65843603306
328.1621327313
327.68053503771
327.21334005887
326.75941858252
326.3183607329
325.88931789488
325.4717739284
325.0652639
324.66918540386
324.28312314528
323.90655480189
323.53908610675
323.18030117933
322.82984133567
322.4873477801
322.152491694
321.82497982713
321.50452817955
321.19085690958
320.88368501082
320.58279165557
320.28770385971
320.21216751552
321.30630180203
319.99600994432
318.23219999266
316.00799380095
313.0927138121
309.47971143965
308.83946005217
308.87164029571
308.89336182123
308.90695002945
308.92132382322
308.94312916439
308.97349236364
309.00927877556
309.0483990936
309.09112153416
309.10984787409
309.15568385202
309.19982181492
309.24247120125
309.28213447769
309.31881984331
309.35233365107
309.38377914164
309.41414183116
309.44397563432
309.47337039623
309.50168793997
309.52800355554
309.55154511099
309.5715412855
309.58740017476
309.59837083187
309.60329460039
309.60278786506
309.59663923287
309.58273505239
309.56873114943
309.5516439264
309.53200003947
309.50667016723
309.4822836636
309.45687114454
309.42950229045
309.40477958129
309.38405634424
309.36652636579
309.3457492114
309.32220624136
309.29956802274
309.27677195565
309.25297403565
309.22656191224
309.19689939472
309.16467927172
309.12984347808
309.09381603217
309.05677307398
309.02097742208
308.98451267064
308.94938754128
308.9171440319
308.88697979835
308.85379579256
308.83845399987
308.8313949224
308.82703965385
308.82332751374
308.82411769507
308.85732549067
309.88416715322
377.98220427353
372.55255000404
372.31872269596
371.96131259905
371.47226610113
370.86283954351
370.12779025307
369.26785685858
368.28188335887
367.16978442227
365.93130018216
364.57394655355
363.11030628052
361.55632123707
359.93720656853
358.28104390155
356.61480608429
354.96404856299
353.34924785353
351.78478156155
350.27967921028
348.83931210328
347.46637158038
346.16026832255
344.91916430046
343.74057834354
342.62120102312
341.55758074809
340.54601673768
339.58305796385
338.66497449062
337.78918086531
336.9522480969
336.15191853972
335.38521078288
334.65025260386
333.94452122636
333.26647571125
332.61395138831
331.9856976612
331.37981481514
330.79538724501
330.23064026948
329.68490738677
329.15664893767
328.64526809193
328.14954990374
327.66876971642
327.20219827764
326.74888761022
326.3084518536
325.87993266329
325.46299586916
325.05690276703
324.66124934929
324.27555483447
323.89935574701
323.53224053873
323.17378927403
322.8236387244
322.48143326419
322.14684946016
321.81959687152
321.49938651832
321.18593747154
320.87897304277
320.57827844835
320.28337563476
320.20027534212
321.30563595534
320.00121972654
318.24320343407
316.02859389298
313.13655564803
309.55439778083
308.9016423836
308.95302046469
308.99209902049
309.01945431508
309.04408900846
309.07323742212
309.10786889511
309.14522749908
309.18319434802
309.22195463348
309.22095140179
309.26043336679
309.29773608396
309.33321751685
309.36624666421
309.39699289612
309.42567244213
309.45336324199
309.48097325508
309.50887061709
309.53699792142
309.56451655209
309.59029251265
309.61335512634
309.63286391635
309.64804123553
309.65817624336
309.66190415703
309.66051548363
309.65257996711
309.63718635608
309.62164652879
309.6043864917
309.58226015907
309.55573580088
309.53057834282
309.50293416936
309.47256911935
309.4492598513
309.42660687185
309.40635051621
309.38401800169
309.35750840661
309.33416898372
309.31066512394
309.28488143403
309.25825709243
309.22600602022
309.19416709573
309.15639033138
309.12040135692
309.08179441839
309.04573537687
309.00817372412
308.97152914441
308.93822882223
308.90701457452
308.86506081763
308.86036540811
308.84726564132
308.84197520171
308.83772988793
308.8337732617
308.84763423914
309.73954447682
374.65885448902
372.51347609393
372.18461669251
371.68858669129
371.04955901642
370.29953262
369.44960225456
368.50804134733
367.47814190357
366.35709800815
365.14047017761
363.83634703006
362.44156225133
360.9646442102
359.42290333095
357.83894865882
356.23816439379
354.64410068597
353.07753128324
351.55373303564
350.08299603434
348.67161635471
347.32169315614
346.03499959471
344.81022515078
343.64496525473
342.53652376341
341.48207367229
340.47841320076
339.52217379207
338.6101203048
337.73925771433
336.90686408193
336.11022853272
335.3471090212
334.61499837454
333.91213450076
333.23634859149
332.58613182629
331.95967876327
331.35572311758
330.7727321149
330.20955201521
329.66504230357
329.13803796571
328.62773414705
328.13297928536
327.65322574456
327.18739111857
326.73498155335
326.29516514759
325.86738897414
325.45107375882
325.04559926851
324.6505186807
324.2653125145
323.88959564011
323.52292418992
323.1648979026
322.81514877932
322.47332637669
322.13909895287
321.81218079495
321.49228637276
321.17912994011
320.87244945031
320.57202197519
320.27735940234
320.1854272487
321.30514834847
320.00839935746
318.25860385875
316.05719405737
313.19597872224
309.66247863983
308.98783662452
309.06158136302
309.12117564892
309.16444776367
309.20136262643
309.23981459656
309.28113404736
309.32282112942
309.36252537178
309.39990397496
309.38574453109
309.41770985873
309.44595327471
309.47099772452
309.49339700565
309.51425728577
309.53445564251
309.55537754223
309.57791404094
309.60224627376
309.6279761325
309.65396431862
309.67876486136
309.70108401605
309.71992295516
309.73426125656
309.74307185931
309.74573788493
309.74287540885
309.73294264903
309.71498025169
309.69789698201
309.67882752679
309.65445540658
309.62650783021
309.59939801082
309.56804994523
309.53739206461
309.51251163607
309.48819140235
309.46356993787
309.43805621199
309.40967013455
309.38427931974
309.35812932284
309.32990499422
309.30114302411
309.26703441056
309.23360836411
309.19416939126
309.15657178971
309.11644624711
309.07867956817
309.0398015533
309.00128338356
308.96625766029
308.93344117667
308.88807299674
308.88305558966
308.86933753213
308.85721584359
308.85378724028
308.84746009527
308.85614813614
309.71360886462
375.40799074125
372.40877024783
371.80437556487
371.00441914692
370.13180670041
369.23312353356
368.30552206988
367.34432744818
366.33647142283
365.26656117977
364.12689168287
362.9073405521
361.60655712525
360.22729708212
358.78155582795
357.28820082548
355.76901648851
354.24605505844
352.73988402691
351.26670584708
349.83807290111
348.46144860813
347.14156917975
345.87888772023
344.67407271918
343.52576686394
342.4317212121
341.38906331397
340.3952528582
339.44756624683
338.54288357706
337.67825964603
336.85134791734
336.05947620589
335.30047482773
334.57211444567
333.87250700561
333.19966916198
332.55207078975
331.92800599306
331.32616932267
330.7450797116
330.18371257272
329.64072320969
329.11525080474
328.60618911252
328.1127430214
327.6340422611
327.16926217715
326.71780828544
326.27885246829
325.85193255983
325.43633392076
325.03160765279
324.63719932028
324.25262903202
323.87748646189
323.51134348604
323.15382875853
322.80456691417
322.46320611124
322.12940557051
321.80289248905
321.48339022871
321.17058734894
320.86424576989
320.56414252381
320.26978558861
320.16677190972
321.30501607533
320.01761053839
318.27803878393
316.09268650668
313.26724791721
309.7993076983
309.09090584891
309.18287028591
309.2606278503
309.31751105755
309.36502006331
309.4119309329
309.46023336553
309.50773123052
309.55206897067
309.59238117072
309.57812893039
309.60701174205
309.62934970149
309.64499445999
309.65554279212
309.66378480062
309.67208673529
309.6828483633
309.69737266827
309.71576082281
309.73727345597
309.76035886854
309.78329023307
309.80424334093
309.82182254187
309.83483255864
309.84189661921
309.843507086
309.83872879866
309.82635542123
309.8059984149
309.78707395205
309.76612666288
309.73988673851
309.70998176994
309.67956758275
309.6446318696
309.6128044328
309.58452766429
309.55561279121
309.52764475748
309.50013168903
309.4690391761
309.44041639756
309.41073213786
309.37932925234
309.34763402195
309.31075403099
309.27478551744
309.23294589482
309.193124996
309.15084659227
309.11061606079
309.06933823431
309.02847290585
308.99126991929
308.95612978745
308.90633925466
308.89934350728
308.88460971815
308.86462232228
308.85924812598
308.84878651458
308.85285916913
309.68920491269
376.20404119287
371.80293412377
370.25930137994
369.20574922189
368.33213095695
367.49589669782
366.66032836637
365.80200831249
364.90880385947
363.95713872555
362.93268193957
361.82666105823
360.63947728907
359.37308646009
358.03598643973
356.64377715327
355.21677637692
353.77540760497
352.3390989248
350.92518668103
349.54615796707
348.21096112157
346.92508178572
345.69183104619
344.51119450849
343.38285670723
342.30572107533
341.2776962922
340.29605627799
339.35860123443
338.46279690136
337.60601722845
336.78559076433
335.99955729944
335.24559799881
334.5217215129
333.82595062564
333.15670879133
332.51218555816
331.89093156284
331.29155041565
330.71279458425
330.15341527868
329.61230415417
329.0885190491
328.58101259469
328.08899960051
327.61154272786
327.14801797971
326.69762310026
326.25972101448
325.83371706628
325.41900103158
325.0151177585
324.62147874407
324.23765185623
323.86317221536
323.49766272309
323.1407438093
322.79203564893
322.4511959734
322.11789461455
321.79185983568
321.47281679933
321.16041714261
320.85445893781
320.55474188278
320.26077796318
320.14462421495
321.30513751998
320.02880569603
318.30125145936
316.13413086817
313.34713126512
309.95779383957
309.20208695866
309.30214116731
309.39320435563
309.4602109756
309.51577460717
309.56933362727
309.62347819374
309.67641891594
309.72600866441
309.77108672673
309.76436687896
309.79502547185
309.81686140987
309.82895761135
309.83252141675
309.8306558374
309.8271619889
309.8256217541
309.82959501717
309.83946840057
309.85461730816
309.87290543901
309.89217206283
309.91032293289
309.92542058522
309.93610809501
309.94148684764
309.94097992767
309.93343750872
309.91815713715
309.89485914845
309.8746469897
309.85144901232
309.82219711772
309.78964839493
309.75571776128
309.71630096349
309.68192847655
309.64983013257
309.615417886
309.58443836096
309.55459001106
309.52104874645
309.48937092607
309.45593805381
309.42072438002
309.38537853747
309.3450768257
309.30549842357
309.26024116823
309.2170525305
309.17149060107
309.12755542969
309.0828199237
309.03824274641
308.99791201989
308.95926207855
308.9049369584
308.89369611197
308.87408518215
308.84664103946
308.83465396844
308.81388621677
308.81029958827
309.61967639057
377.00757117095
363.00669124821
366.59962303336
366.34117689361
365.92384140729
365.43761112979
364.8652290181
364.21460657551
363.49117448848
362.69948712811
361.83505294748
360.88531125669
359.84671600605
358.72341018028
357.52086143916
356.25078860452
354.93112118817
353.58176573773
352.22175379401
350.86891718326
349.53816899076
348.24009479504
346.98257064627
345.77000577853
344.60512271024
343.48852956389
342.41892827407
341.39608952642
340.41798167135
339.48267950952
338.5873365266
337.73037286811
336.9093315359
336.12198001655
335.36623983946
334.64046613495
333.94268866296
333.27117235506
332.62433732818
332.00082262782
331.39911204485
330.81798182297
330.2562798108
329.71295173622
329.18692094457
328.67723734702
328.18308475299
327.70359272863
327.23805505555
326.78567925269
326.34590840953
325.91808300866
325.50163009641
325.09602480866
324.70073269854
324.31534593682
323.93936403531
323.57238693879
323.21402124583
322.86391980885
322.52175110399
322.18718362377
321.85989010677
321.53958582417
321.22606546709
320.9190614052
320.6182643168
320.32341491606
320.03718538687
321.42789051816
320.40776736835
318.79475262522
316.76344612909
314.19611859635
310.85709586271
309.33766605504
309.38101758078
309.4890657987
309.56911287482
309.63325167997
309.6921452816
309.75141499769
309.80953011753
309.86485968878
309.91589682731
309.92971768776
309.96407384215
309.98857279205
310.00170347754
310.00360317393
309.99655964738
309.98478393343
309.97267077554
309.96504827495
309.96484026765
309.9718929169
309.98341670354
309.99742525314
310.01154345613
310.02324778593
310.03128475773
310.03415079673
310.03079851101
310.02000226464
310.00130986179
310.01347275333
309.98705419086
309.95716742124
309.92086801296
309.88306632665
309.84401379894
309.79933876146
309.75910917519
309.72155920255
309.68244777759
309.64644843949
309.61147903197
309.57257980942
309.53417996468
309.49320256969
309.44978333265
309.40702986707
309.35928336802
309.31178216425
309.25920441881
309.2082527793
309.15536906443
309.10248303569
309.04972795159
308.99670593337
308.94794057237
308.89917864776
308.8361734449
308.80831377334
308.771105469
308.72518083896
308.69268766057
308.65378762432
308.60862474663
309.36765818594
378.54158145729
353.85758524501
359.0619064961
359.89180501129
360.28592424919
360.4487359857
360.42683324906
360.22326049939
359.86672353237
359.37977432767
358.78029405531
358.07406163322
357.27076568814
356.37564963755
355.39143683715
354.32836780289
353.2026688109
352.03194256222
350.83426055272
349.62677851964
348.42477213198
347.24028434491
346.08228617569
344.95669340116
343.86742309687
342.81676002414
341.80546865989
340.83365437481
339.89988061515
339.00375237404
338.14367682096
337.31789817738
336.52446587648
335.76181730024
335.02853085291
334.32283348025
333.64306112659
332.98791297852
332.35609720711
331.74620109551
331.15693452953
330.58718916277
330.03603608418
329.50239477034
328.98531539113
328.48390794973
327.99743932814
327.52512272392
327.06620996426
326.62006258874
326.18609977982
325.76374859508
325.35244537222
324.95166298243
324.56095790625
324.17987241913
323.80799607585
323.44490625751
323.09022284236
322.7436124816
322.40475160221
322.07333513361
321.74907726845
321.43169828624
321.12088496103
320.81643463331
320.5181617679
320.22572898698
320.06245163621
321.30332656433
320.07389183835
318.3923843735
316.29034421672
313.62595398336
310.49606878718
309.53302719946
309.59049820334
309.70330768574
309.79224497816
309.8664400112
309.93566932298
310.00381410206
310.07007187047
310.13297753755
310.19074319276
310.20519354173
310.24583738185
310.27525060348
310.29205743731
310.29604552416
310.28836025139
310.27165120747
310.24942603619
310.22650352541
310.20799376094
310.196667948
310.19230619438
310.19289334548
310.19564702832
310.19815906063
310.19779439655
310.19257918273
310.18129476438
310.16162529898
310.13501262211
310.12247422764
310.08758195088
310.04738168306
310.00042841513
309.95299171603
309.90402913125
309.84713158191
309.78863154479
309.73055313026
309.68033171917
309.62693299206
309.5710812628
309.51070520408
309.45007663955
309.38572081259
309.31903260892
309.25356458285
309.18309686338
309.11239682229
309.03777015608
308.96229518849
308.88440007947
308.80480441996
308.72448164291
308.6429928605
308.56197676523
308.47811103559
308.38377915263
308.30068299991
308.20578902052
308.09919083739
307.99206919953
307.87220649048
307.70099577892
308.31412803571
375.98112016101
349.4637403648
354.04628528646
355.08201609133
355.73224115732
356.15551451421
356.42105472388
356.52297980657
356.476448439
356.27764493521
355.94268935598
355.48695130815
354.92118794517
354.24438072581
353.47244413998
352.6150492249
351.6838031254
350.69281319994
349.65825352399
348.59667222521
347.52265763722
346.44897622449
345.38683479582
344.3441461696
343.3263710919
342.3372080045
341.37905128509
340.45309676579
339.5593992662
338.69792612048
337.86774806658
337.06774187225
336.29723240041
335.55485944669
334.83946827802
334.1494117693
333.48357249266
332.84099970965
332.22034094846
331.62042547489
331.04004203212
330.47846206018
329.93458674639
329.4075366587
328.896353907
328.40039443439
327.91886656414
327.45104432837
326.99624128036
326.55384821826
326.12337405459
325.70422162171
325.29586464955
324.89781048477
324.50964006267
324.13092368166
323.76123685525
323.40018955208
323.04742532578
322.70262143962
322.36545212811
322.03561665943
321.71287480887
321.39685766997
321.0873641211
320.78420636258
320.48715548151
320.19597927334
320.00082920149
321.29747573698
320.11313440222
318.47157604597
316.42405049452
313.8523389282
310.88035495526
309.74798593704
309.73262100998
309.85139769507
309.95683072022
310.04639950665
310.12867944219
310.20798937834
310.28406619321
310.35561748928
310.42045450262
310.44196625915
310.48627840806
310.51749358962
310.53460164956
310.53776535096
310.52826955492
310.50876827799
310.48210204646
310.45245371825
310.42413320189
310.40026785586
310.38191245781
310.36831869649
310.35796646558
310.34825835807
310.33627307466
310.31908068336
310.29536982068
310.26204607661
310.22247938659
310.18383790388
310.13310717003
310.07187595545
309.99949712251
309.92675975656
309.85159857833
309.76618808613
309.66816119289
309.5672495103
309.48796906756
309.39545535958
309.29425762631
309.18436325977
309.07064522834
308.94861428351
308.82173315592
308.69313014481
308.55774742356
308.42030406546
308.2786442061
308.13288044561
307.98360763208
307.8284329511
307.66943664078
307.50251002166
307.32876858114
307.14145303139
306.93429811549
306.70705817472
306.44919518763
306.16960850855
305.85660074571
305.51063483556
305.12855811572
304.20066897723
265.45029056091
346.76343835371
350.43285350064
351.45974599479
352.15337223167
352.66695542138
353.05072143137
353.30157893821
353.42202356884
353.41602263102
353.27703866075
353.00952772108
352.62506118888
352.14697564737
351.55919222644
350.87810094407
350.11851946968
349.29060985256
348.40797868105
347.48594832839
346.53837925727
345.57771340331
344.61443228378
343.6580469015
342.71575464666
341.79250226635
340.89171430794
340.01561908111
339.16563254734
338.34230943454
337.54566604777
336.77546907056
336.03123507419
335.31187744623
334.61653898984
333.94473480177
333.2952488511
332.66722449932
332.05941586058
331.47098349792
330.90128482774
330.34923922352
329.81404983083
329.29469556438
328.79066474666
328.30121896702
327.82561706952
327.36319805604
326.91329830146
326.47551176406
326.04923022544
325.63394228349
325.22911473831
324.83434370932
324.44923918957
324.07335304826
323.70629775111
323.34769060772
322.99720720685
322.65455447179
322.31940283093
321.99147172143
321.67049350751
321.35611455477
321.04818319058
320.7465329711
320.45102790023
320.16110657279
319.93940647607
321.28690760698
320.15891083865
318.56703865173
316.58844598747
314.1270193885
311.29748777719
309.97601107167
309.85707467915
309.97243201696
310.0977454902
310.20795503273
310.30795153635
310.40187574532
310.48994150541
310.57087915233
310.64217020021
310.66720731747
310.71281264129
310.74313417604
310.7575061167
310.75657748369
310.74207659249
310.7161435744
310.68216234789
310.64449339733
310.60724297553
310.57336321123
310.5446063205
310.51889988521
310.49526368111
310.47135418109
310.44429386468
310.41130468622
310.37166220331
310.32258138781
310.26271531781
310.17161776527
310.08216473082
309.97539858845
309.85367973194
309.72846665898
309.59770964309
309.45046881691
309.27850692119
309.08953768252
308.91913018407
308.72272801509
308.50517080001
308.27237914365
308.02709062534
307.76474868482
307.48785926629
307.19968696969
306.9010015613
306.59329374489
306.28407018681
305.96592834437
305.64249428238
305.30433025315
304.95267865493
304.57365786741
304.16865308074
303.72058675425
303.23042676415
302.68951965501
302.09999630777
301.46037744804
300.7699125584
300.02995913674
299.22474813935
297.12719800714
215.29861205341
345.19736221922
347.5627854567
348.60135119087
349.26426414653
349.79640597513
350.21876007634
350.53788361077
350.75765816988
350.85131424375
350.84204254488
350.71753539851
350.47866835839
350.13320311708
349.70203579209
349.17590818966
348.56209234186
347.87514971508
347.12896430319
346.33499498387
345.50531272225
344.65245407529
343.78689628258
342.91737749835
342.0516899458
341.19597948084
340.35465216178
339.53092251152
338.72703499677
337.94437847588
337.18374300511
336.4454264818
335.72936227111
335.03528049844
334.36280990285
333.71125250384
333.07968114288
332.46767138703
331.87455273671
331.29940792221
330.74167970442
330.2003639867
329.67470412594
329.16433610656
328.66846321842
328.18648239668
327.71765320322
327.26139179767
326.81733063754
326.38484818862
325.96346835654
325.55261628847
325.15193618941
324.76104515101
324.37949591922
324.00691959963
323.64291320222
323.28716626979
322.93938972294
322.59923857585
322.26643214047
321.94071340824
321.62176310848
321.30934025184
321.00326352207
320.70334495509
320.40946822223
320.12094965168
319.88095789249
321.27616291485
320.20988109489
318.68026487779
316.78999777389
314.46291247748
311.77703347817
310.24501727789
309.98429187207
310.07812632214
310.22388309416
310.36019430883
310.48345404799
310.59631303999
310.69900724428
310.7901521727
310.86704195737
310.89312043021
310.93731959928
310.9637223372
310.97234342134
310.96450092737
310.94199330418
310.90700005591
310.863111469
310.8145639074
310.76564864799
310.71950729351
310.67834593608
310.63979286188
310.60133183967
310.56095220497
310.51681817368
310.46625613007
310.40382962903
310.32376512805
310.22023289201
310.02634003033
309.86392553761
309.66930236469
309.44774525796
309.20641097993
308.94149549689
308.64127744275
308.30470932765
307.92709593373
307.52981002238
307.09354712553
306.62831759159
306.13256361775
305.62908207301
305.0921007696
304.55116838976
303.98188119133
303.41911561801
302.83099995072
302.2413745638
301.62645742451
300.99163772542
300.3241753735
299.62358587344
298.87580397962
298.07496633758
297.21515909369
296.28767713473
295.27685844354
294.1630372234
292.97006079082
291.66323201661
290.28282789546
288.77330886421
285.19167214508
196.75569619996
344.43127268637
345.15333927626
346.24877587569
346.86860237042
347.38113535965
347.80877746922
348.15530172887
348.42233172771
348.58389883683
348.64545984045
348.62345881691
348.49160998729
348.25283416852
347.93179707416
347.53233003249
347.04639806449
346.47958565927
345.85089714019
345.17000346913
344.44874249196
343.69585883121
342.92209564035
342.13662606521
341.34665340934
340.55856065007
339.77754849978
339.00737650477
338.25104550684
337.51066008148
336.78762398229
336.08282433242
335.39672190063
334.72948008236
334.08097355447
333.45091043028
332.83897983987
332.24474579017
331.66754819721
331.10667528392
330.56184788293
330.0324738173
329.51781351999
329.01745569873
328.53052240924
328.05660069173
327.59537189325
327.14620590728
326.70861704079
326.28208421984
325.86605190007
325.46032133447
325.06438952957
324.67785952881
324.30034614775
323.93147118346
323.57098473477
323.21854916994
322.87383128199
322.5365483643
322.20638733141
321.88318170176
321.56659640213
321.2564008745
320.95244842726
320.65456937727
320.3624324215
320.07565788306
319.82393764001
321.26614006092
320.26463156401
318.81183401975
317.03283954232
314.86862935212
312.35172642948