/*--------------------------------*- C++ -*----------------------------------*\
| =========                 |                                                 |
| \\      /  F ield         | OpenFOAM: The Open Source CFD Toolbox           |
|  \\    /   O peration     | Version:  2312                                  |
|   \\  /    A nd           | Website:  www.openfoam.com                      |
|    \\/     M anipulation  |                                                 |
\*---------------------------------------------------------------------------*/
FoamFile
{
    version     2.0;
    format      ascii;
    arch        "LSB;label=32;scalar=64";
    class       volScalarField;
    location    "6e-05";
    object      Y.Liq;
}
// * * * * * * * * * * * * * * * * * * * * * * * * * * * * * * * * * * * * * //

dimensions      [0 0 0 0 0 0 0];

internalField   nonuniform List<scalar> 
109340
(
0.99999
0.99999
0.99999
0.99998999999999
0.9999899999996
0.99998999998949
0.99998999975556
0.99998999773321
0.99998999027216
0.99998997166909
0.99998993441509
0.99998986924642
0.99998976520294
0.99998960957726
0.9999893877467
0.9999890828789
0.99998867545138
0.99998814255784
0.99998745693484
0.99998658564246
0.99998548830166
0.99998411485653
0.99998240268238
0.99998027277023
0.99997762445409
0.99997432806783
0.99997021435933
0.99996505874183
0.99995855691414
0.99995028540692
0.99993963442745
0.99992568659509
0.99990698323883
0.99988104668425
0.99984334801634
0.99978494022976
0.99999
0.99999
0.99999
0.99998999999997
0.99998999999931
0.99998999998214
0.99998999961493
0.99998999694267
0.99998998777796
0.99998996595283
0.99998992348289
0.99998985066093
0.99998973608038
0.99998956655853
0.99998932694191
0.99998899976195
0.99998856472671
0.99998799796101
0.99998727094218
0.99998634907645
0.99998518983069
0.99998374033759
0.99998193431177
0.99997968793754
0.99997689415859
0.99997341466122
0.99996906824668
0.99996361336879
0.99995672082549
0.9999479290169
0.99993656660532
0.99992160994611
0.99990139932526
0.99987303415332
0.99983095608322
0.99976354121992
0.99999
0.99999
0.99999
0.99998999999998
0.99998999999964
0.9999899999911
0.99998999973412
0.99998999742652
0.99998998891066
0.99998996798634
0.99998992662565
0.99998985507925
0.99998974190194
0.99998957387801
0.99998933582922
0.99998901027935
0.99998857693935
0.99998801195375
0.99998728682633
0.9999863669938
0.99998520993195
0.99998376274962
0.99998195912174
0.99997971515722
0.99997692370221
0.99997344629819
0.99996910154682
0.99996364767393
0.99995675522422
0.99994796231989
0.99993659722608
0.99992163489531
0.99990140466804
0.99987294146302
0.99983035125292
0.99976021329766
0.99999
0.99999
0.99999
0.99999
0.99998999999991
0.99998999999781
0.99998999984978
0.99998999794885
0.99998999018547
0.99998997032625
0.99998993029301
0.99998986028936
0.99998974882735
0.99998958264864
0.99998934652479
0.9999890229158
0.99998859145119
0.99998802817446
0.99998730444361
0.9999863854893
0.99998522845889
0.99998377994733
0.99998197292289
0.99997972250625
0.99997692019417
0.99997342565563
0.99996905489643
0.99996356253153
0.99995661409763
0.99994774060163
0.99993625972485
0.99992112991014
0.99990064311593
0.99987171113415
0.99982789449225
0.99975252680609
0.99999
0.99999
0.99999
0.99999
0.99998999999999
0.99998999999989
0.9999899999161
0.99998999835174
0.99998999133979
0.99998997266717
0.99998993417814
0.99998986590853
0.99998975610751
0.99998959115688
0.99998935530663
0.99998903029098
0.99998859475351
0.99998802342326
0.99998728576543
0.99998634471892
0.99998515412883
0.99998365606677
0.99998177741824
0.99997942497232
0.99997647899133
0.99997278377539
0.99996813433326
0.9999622563927
0.99995477532235
0.99994516526958
0.99993266060892
0.99991609554186
0.99989355052777
0.99986150687219
0.99981228368217
0.99972251368162
0.99999
0.99999
0.99999
0.99999
0.99999
0.99998999999999
0.99998999976848
0.9999899969386
0.9999899858483
0.99998995792207
0.99998990191582
0.99998980399282
0.99998964764378
0.99998941343351
0.99998907854022
0.99998861605268
0.99998799397999
0.99998717406376
0.99998611072923
0.99998474433893
0.9999829990426
0.99998077944735
0.99997796389331
0.99997439614385
0.99996987428214
0.99996413500349
0.99995683125687
0.99994749884135
0.99993550442087
0.99991996006271
0.99989957230619
0.99987238285507
0.99983514149087
0.99978185214404
0.9996990353317
0.99954024866788
0.99968901250122
0.99953074303253
0.99928058558617
0.99891701862288
0.99842964909253
0.99780866629453
0.99704019019692
0.99611127360586
0.99501030512013
0.99373344969134
0.99228352718584
0.99067243673156
0.9889542131227
0.9871559222698
0.98532168940915
0.98348905657812
0.98168883670026
0.97994352505722
0.97826781209994
0.97667018862877
0.97515485032477
0.97372197240863
0.97236926858356
0.97109330791952
0.96988959126743
0.96875331321531
0.96768049798306
0.96666596606589
0.96570469011491
0.9647942828904
0.96392876586594
0.96310674058164
0.96232334460677
0.96157683752337
0.96086375602737
0.96018220648627
0.9595295562841
0.95890416602124
0.95830378418296
0.95772722004059
0.95717237007864
0.95663850268909
0.95612360395142
0.95562722477263
0.95514758374355
0.95468427819869
0.95423596525785
0.95380203399284
0.95338166101109
0.95297402418791
0.95257862701798
0.95219470528863
0.95182173946398
0.95145917258174
0.95110650512535
0.95076326154915
0.95042900627903
0.95010333074792
0.94978586153153
0.94947625125313
0.94917417547745
0.94887932227644
0.94859138656876
0.94831008166453
0.94803514448
0.9477662996944
0.94750329039739
0.94723168219265
0.94579433935064
0.94419211775741
0.94238300901889
0.9399969859772
0.93689870373292
0.93330055329689
0.93254686522106
0.93259960797639
0.93264682669012
0.93268792003797
0.93272529309248
0.9327600303659
0.93279255135565
0.93282310053488
0.93285226294556
0.93288089877085
0.93291771128008
0.93294213425777
0.93296481968221
0.93298661920949
0.93300769398714
0.93302816661974
0.93304810022839
0.93306750949585
0.93308637751282
0.93310467637695
0.93312230572182
0.93313905357467
0.93315469603938
0.93316899975627
0.93318176978442
0.93319284015086
0.93320204181052
0.93320903269198
0.93321347294717
0.93321531775146
0.93321484697752
0.93321308928453
0.93320994387798
0.93320528268467
0.93319914647667
0.933191472875
0.93318257722872
0.93317251974695
0.93316146263914
0.93314973894018
0.93313757408118
0.93312507160927
0.93311202912023
0.93309848439193
0.93308457686111
0.9330703608016
0.9330558865081
0.93304103838741
0.93302585998413
0.93301025511016
0.93299427114368
0.93297786822422
0.93296111165037
0.9329439871418
0.93292653583676
0.93290880042664
0.93289093542938
0.93287279470426
0.932854884784
0.93283695191651
0.93282036807677
0.93280383491417
0.93278857648572
0.93277231201553
0.93261670526021
0.91971582479756
0.99964699134054
0.99944731579974
0.99913400852158
0.99869426473541
0.99812394396413
0.99741507259637
0.99655917861603
0.99554870086211
0.99438021950373
0.9930558823134
0.99158190708999
0.98997711723962
0.98827335824999
0.98650755481344
0.98471181647343
0.98291873580305
0.98115771245249
0.97944957514502
0.97780875322072
0.97624368736053
0.97475815617052
0.97335248566997
0.97202471768637
0.97077149808499
0.96958890526766
0.96847201724024
0.96741628192791
0.96641731638135
0.96547083604156
0.96457290292573
0.96371987939185
0.96290831199834
0.96213518485973
0.96139757736739
0.96069299763348
0.96001901040701
0.95937353635952
0.95875456095746
0.95816034831009
0.95758922892074
0.95703975748502
0.95651053376899
0.95600033866976
0.95550799013184
0.95503244906378
0.95457273456367
0.95412795974612
0.95369730892425
0.95328000870334
0.95287536540179
0.95248270674594
0.95210143485008
0.95173096931395
0.95137078574918
0.95102038757793
0.9506793132514
0.95034713352894
0.95002344917076
0.9497078924878
0.94940011969322
0.94909980588137
0.94880663692267
0.94852031637678
0.94824057043126
0.94796714619344
0.94769978969384
0.94743827256008
0.94710096163509
0.94536372718382
0.9437895197625
0.94185655438358
0.93931013624947
0.93603068579814
0.93283180048203
0.93258612011079
0.93265004059812
0.93270378894268
0.93275034469328
0.9327917466966
0.93282907849723
0.93286292763399
0.9328937367286
0.93292238867453
0.93294956791331
0.93295625692738
0.93297997823321
0.93300179949479
0.9330228340702
0.93304329807666
0.93306337020318
0.93308314209218
0.93310262415926
0.93312175712332
0.93314048171324
0.93315867537353
0.93317606721554
0.93319238669919
0.9332073495281
0.9332207071847
0.93323226475219
0.93324183410256
0.93324904766822
0.93325358624207
0.9332552525602
0.93325450579782
0.93325243181167
0.9332489322384
0.93324394703604
0.93323728359237
0.93322913871227
0.93321970835732
0.93320903295976
0.9331974215915
0.93318527392464
0.93317274956835
0.9331598125726
0.93314631333393
0.93313237692391
0.93311811779895
0.9331035619404
0.93308874238842
0.93307354737951
0.93305807161765
0.93304219408127
0.93302599204213
0.9330094015665
0.93299250143812
0.93297525422433
0.93295771275818
0.93293990962369
0.93292203256761
0.93290374797703
0.9328860764652
0.93286840850873
0.93285198855048
0.93283562862727
0.9328204452841
0.93280416178016
0.93264964122909
0.91974635568713
0.99962948353445
0.99938610954094
0.9989996973399
0.99847043182484
0.99780794317725
0.9970096186462
0.99607722091207
0.99501028956487
0.9938101533639
0.99247844458248
0.99102354418795
0.98946187150712
0.9878116170591
0.98610096995622
0.98436054284789
0.98261933347549
0.98090464726766
0.97923686075863
0.97763032401013
0.97609374581078
0.9746315781235
0.97324512874818
0.97193318162124
0.97069292868575
0.96952075353909
0.96841268155993
0.96736469239
0.96637223903151
0.9654313846153
0.96453828273286
0.96368942181353
0.96288150611415
0.96211150568004
0.96137668806412
0.96067449084835
0.9600026454447
0.95935900871762
0.95874169601557
0.95814892116001
0.95757910159845
0.9570307472565
0.9565025229298
0.95599318913417
0.95550160347726
0.95502673414721
0.954567605988
0.95412336172946
0.95369316468729
0.95327627843049
0.9528719843933
0.95247963990689
0.95209863412861
0.95172840507631
0.95136842786274
0.95101821090694
0.95067729886476
0.9503452641578
0.95002171093632
0.94970627116215
0.94939860046977
0.94909837367697
0.94880527791609
0.94851902022525
0.94823932952908
0.94796595475257
0.94769864070352
0.94743716751063
0.94710186076799
0.94537005852364
0.94379855490159
0.94187165334866
0.93933571739756
0.93607591370931
0.93288190193174
0.93262998264329
0.93270915218467
0.93277571258324
0.93283207420034
0.93288048873688
0.93292233989134
0.93295847942633
0.9329896017208
0.93301678494994
0.93304113770329
0.93303670843861
0.93305746198915
0.93307642154296
0.93309486977818
0.93311327961696
0.93313196357285
0.93315105942953
0.93317057658247
0.93319029939241
0.93320999037992
0.93322943499041
0.93324821650702
0.93326596332664
0.93328229664793
0.9332968835422
0.93330947529164
0.93331985267483
0.93332762707522
0.93333250932486
0.9333340790109
0.93333301734772
0.93333056938917
0.93332665314134
0.93332114767433
0.93331386939163
0.93330510538848
0.9332949157337
0.93328335933747
0.93327085982617
0.93325796134789
0.93324467138493
0.93323091854835
0.93321664053683
0.9332020168195
0.93318710725609
0.93317192320566
0.93315647433049
0.93314068130723
0.93312468129425
0.9331083365504
0.93309174965799
0.93307481926324
0.93305764145202
0.9330401529967
0.93302242943352
0.93300449065117
0.93298659722422
0.93296831230073
0.93295086384775
0.93293371869273
0.93291763226022
0.93290163721237
0.93288693761452
0.93287132098065
0.93273638388868
0.92150438205601
0.99959086100135
0.99924480187828
0.99870659146158
0.99801376996388
0.99719869284181
0.99627660705411
0.99525690192706
0.99414436494883
0.99293712545881
0.99163151845222
0.99023504040456
0.98874892444116
0.98718291051848
0.98555655374965
0.98389507020666
0.98222454872556
0.98057076055127
0.97895501811592
0.97739223438849
0.9758922203672
0.97446048204902
0.97309905030871
0.97180770627644
0.97058452842622
0.96942652343405
0.96833020297722
0.96729184080829
0.96630778978205
0.9653740997404
0.96448717942897
0.9636436379815
0.96284037289066
0.96207444164113
0.96134320604271
0.96064418741473
0.95997515729295
0.95933403999899
0.95871897986747
0.95812824053513
0.95756025908518
0.95701356308952
0.95648684180795
0.95597885462792
0.95548849824963
0.95501472902911
0.95455661466826
0.95411328042973
0.95368391997052
0.95326778789098
0.95286417857388
0.95247245554297
0.9520920086712
0.95172228643582
0.95136276440578
0.95101296099008
0.95067242476045
0.9503407340805
0.95001749683032
0.94970234580303
0.94939493671888
0.94909494441329
0.94880205813682
0.94851598861377
0.94823646756632
0.94796324593999
0.94769607209215
0.94743473628737
0.94710243548023
0.9453787052026
0.94381074792618
0.94189275706955
0.9393713990271
0.9361378969097
0.93295683998432
0.93269221352481
0.93279082962042
0.93287323932006
0.93294140466199
0.93299831155277
0.93304590845868
0.93308532424454
0.93311737460144
0.93314301997935
0.933163353071
0.93314738450694
0.93316210287941
0.9331749160548
0.93318744143823
0.93320078712974
0.93321563298216
0.93323223047753
0.93325051977665
0.93327021422377
0.9332908269133
0.93331185154961
0.93333256493107
0.93335229889841
0.93337052284223
0.93338681272065
0.93340084770587
0.93341237381789
0.93342105425132
0.93342658261618
0.93342844588631
0.93342728741719
0.93342467710573
0.93342058288897
0.93341486131185
0.93340735835512
0.93339838017854
0.93338782311405
0.93337577496514
0.93336272582295
0.93334933358136
0.93333545919923
0.93332114847269
0.93330638381192
0.93329132441503
0.93327597689718
0.93326035072328
0.93324445904335
0.93322826314143
0.93321192198036
0.93319530345866
0.93317851305721
0.93316142068292
0.93314412903106
0.9331265548361
0.93310878822543
0.93309081597635
0.93307308656778
0.93305515484469
0.93303795943203
0.93302138408107
0.9330059437439
0.93299068885701
0.9329768236217
0.93296220355782
0.9328331102633
0.9213806770391
0.99946281829414
0.99881896754064
0.99795874524314
0.99701923964599
0.99604745584095
0.99504498919846
0.99400581885654
0.99291820295359
0.9917672235578
0.99054542962809
0.98924325202641
0.98786096429962
0.98640211867299
0.98488035891389
0.9833166409872
0.98173471359253
0.98015719589924
0.97860566106906
0.97709667286566
0.97564141617449
0.9742467393235
0.97291612691146
0.97165037124462
0.97044842559462
0.96930808828546
0.9682265361571
0.96720060492771
0.96622688382066
0.96530207294747
0.9644227295824
0.9635857280739
0.96278810730344
0.96202711049585
0.96130017507156
0.96060496368079
0.95993929066243
0.95930117541651
0.95868878192173
0.95810044838319
0.95753462344804
0.95698989346999
0.95646494901991
0.9559585896636
0.95546971513136
0.95499730693336
0.95454044455506
0.95409826001242
0.95366996402668
0.95325480620645
0.95285210035796
0.95246120583984
0.95208152575652
0.95171250879493
0.95135363552074
0.9510044307183
0.95066444732408
0.95033327083126
0.95001051131974
0.94969580294978
0.94938880144543
0.94908918209364
0.9487966369189
0.94851088000881
0.94823164544767
0.94795868683464
0.94769175692129
0.94743065803254
0.94710226790098
0.94538965541947
0.94382598247834
0.94191931803728
0.9394158608547
0.93621299437289
0.93305539583457
0.93276810948744
0.93288522967395
0.93298243760653
0.93306138208956
0.93312637307458
0.93318006799573
0.93322391180855
0.93325868884621
0.93328505346241
0.93330366510475
0.93328036562582
0.93328790806069
0.93329223204698
0.93329530191465
0.93329939916822
0.93330630586226
0.93331689520112
0.93333119157338
0.93334873006723
0.93336894669216
0.93339084771185
0.93341337542658
0.93343529213326
0.93345569536745
0.93347397755518
0.93348971705113
0.93350261633666
0.93351241727218
0.93351880574944
0.933521361662
0.93352021148113
0.93351775031699
0.93351396101477
0.93350863773759
0.93350160390312
0.93349310807669
0.93348295869936
0.93347128964121
0.93345857311037
0.93344536514236
0.93343159803519
0.93341744016948
0.93340287661992
0.93338801939615
0.93337282440002
0.93335727428624
0.93334137774735
0.93332514735809
0.93330877976624
0.93329216496838
0.93327543855164
0.93325842756661
0.933241267636
0.93322384263757
0.93320628073319
0.93318854265919
0.93317115084605
0.93315385502032
0.93313741619377
0.93312189426803
0.93310779390164
0.9330939528668
0.93308133741834
0.93306797426348
0.93294224365724
0.92113980977773
0.99859456682653
0.99703333104523
0.99595830396927
0.99504482137508
0.99415892312682
0.9932680636526
0.99234845564846
0.99138824269367
0.99036689340055
0.98927119015987
0.98809408008253
0.98683631867561
0.98550069449341
0.98409692148042
0.98264237054273
0.9811592101028
0.97966902762746
0.97819235348452
0.97674619093017
0.97534324948475
0.97399206201809
0.97269751911646
0.97146178052295
0.97028496836298
0.969165703167
0.9681018252104
0.96709075622131
0.96612963718633
0.9652155732624
0.96434537920006
0.96351623253634
0.96272539473832
0.96197028905198
0.96124849522193
0.9605577954719
0.95989611115655
0.95926152923306
0.95865227549535
0.95806673539931
0.95750340661567
0.95696092788785
0.95643802409536
0.9559335285266
0.95544634910009
0.95497549786571
0.95452005911126
0.95407918887844
0.95365210190019
0.95323806178712
0.95283639298641
0.95244645914576
0.95206767512703
0.95169948899826
0.95134139015863
0.95099290586059
0.95065359549902
0.95032304947313
0.95000088022612
0.94968672402816
0.94938023695891
0.94908109501172
0.94878899338652
0.948503649173
0.94822479871322
0.94795219766826
0.94768560303154
0.94742482423773
0.9471011528654
0.9454027304263
0.94384410721279
0.94195091461038
0.93946798021187
0.93629814009423
0.93317402930869
0.9328506745819
0.93298070200349
0.93308945685971
0.93317719326838
0.93324934533919
0.93330906165431
0.93335797924873
0.93339687085022
0.93342620379589
0.93344643104211
0.93342326945949
0.93342721933044
0.93342488038424
0.93341831416589
0.93341085279899
0.93340585898104
0.93340598968427
0.93341241043569
0.93342477319176
0.93344204075009
0.93346295201859
0.93348609465713
0.93350980501525
0.93353242165526
0.93355288583207
0.93357055156457
0.93358500543792
0.93359606786674
0.93360338438696
0.9336066490989
0.93360507664123
0.93360364883852
0.93360074001847
0.9335962815581
0.93359015486305
0.93358256543062
0.93357326216386
0.93356248319702
0.93355054384454
0.93353792258182
0.9335246716059
0.93351101234302
0.93349692231083
0.93348250108476
0.93346768644469
0.93345243166845
0.93343669917388
0.9334205460461
0.93340419871814
0.93338759632472
0.93337096735349
0.93335408005355
0.93333715315152
0.93331999561737
0.93330283248549
0.933285449685
0.93326870803888
0.93325227879972
0.93323701232012
0.9332230489399
0.9332098666222
0.93319678359993
0.93318419952279
0.93317065758489
0.93304754993195
0.92087533881949
0.98755246666111
0.99285473480313
0.99273537316213
0.99237184094783
0.99189644343083
0.99130788189968
0.99062862258265
0.98986739225009
0.9890272336118
0.98810731333597
0.98709818768239
0.98599914041579
0.98481627276525
0.98355622180196
0.98223159755322
0.98086159617988
0.97946765382095
0.97806965674955
0.97668674160406
0.97533332722495
0.97401998507637
0.97275386286537
0.97153902913236
0.97037731051079
0.96926886339157
0.96821250796844
0.96720636025656
0.96624820642148
0.96533568970361
0.96446597743506
0.96363642208332
0.96284453519096
0.96208790577682
0.96136425027233
0.9606714372632
0.96000748880706
0.95937055043795
0.95875889126354
0.95817091135278
0.95760514028113
0.95706023463892
0.95653495347237
0.95602814449346
0.95553871911759
0.95506568426804
0.95460812254051
0.95416519429864
0.95373611345242
0.95332014970084
0.95291662448658
0.95252490335471
0.9521444000879
0.95177455967515
0.95141486820163
0.95106484702386
0.950724053388
0.95039207551704
0.95006852417752
0.94975303313461
0.94944525573888
0.94914486676552
0.94885156105534
0.94856504900374
0.94828505833425
0.94801133466414
0.94774364412994
0.9474817359789
0.94721501672027
0.9458604618122
0.94426427088104
0.94250587226754
0.94020321873101
0.93723887359022
0.93385230981309
0.93291537918934
0.93303523644408
0.93315958056442
0.93325970812961
0.93334209397182
0.93341075920558
0.93346781096387
0.93351420351136
0.93355034545744
0.93357654828117
0.93356254276284
0.93356690996097
0.93356286186762
0.93355150125624
0.93353525416499
0.93351803708462
0.93350492822999
0.9334997314903
0.93350283690012
0.93351407368532
0.93353169289968
0.9335535664518
0.93357759529311
0.93360184709855
0.93362432466866
0.93364393050127
0.9336600222244
0.93367238853941
0.93368061991403
0.93368430835294
0.93372446343243
0.93372350534417
0.93372132791606
0.93371769681552
0.93371233494849
0.93370526056908
0.93369625728089
0.9336858476778
0.93367390650701
0.9336610390024
0.93364751152119
0.93363352002411
0.93361906704279
0.9336042052359
0.93358892427084
0.93357325380668
0.93355722392695
0.9335408628564
0.93352427672143
0.9335074525166
0.93349056760652
0.9334734944858
0.93345634841309
0.93343899410986
0.9334215414816
0.93340394260951
0.93338640801005
0.93336879752453
0.93335148663684
0.93333412665459
0.93331664198078
0.93329935523488
0.93328208045584
0.93326403323573
0.93314670619732
0.92065072389253
0.97720071303489
0.98475996265686
0.98574823764732
0.98626876842521
0.9865048163056
0.98652696083951
0.98634852896341
0.98598979449584
0.9854929656458
0.98487352217881
0.98413755153918
0.98329631083034
0.98236031128121
0.98133582757255
0.98023459808533
0.97907381054895
0.9778721942414
0.97664848872246
0.97542003515946
0.97420307982453
0.97300978865625
0.97184857118444
0.97072510227658
0.969642769235
0.96860322273511
0.96760694107831
0.9666532950649
0.96574121702453
0.96486916199196
0.96403524129019
0.96323744908644
0.96247381482784
0.96174242797674
0.96104140212384
0.96036892276149
0.95972329592546
0.9591029327901
0.95850631090495
0.95793201373581
0.95737871702518
0.95684520805561
0.95633037955525
0.95583319214555
0.95535265252605
0.95488782933373
0.95443787459283
0.95400200644369
0.95357949627624
0.95316965995266
0.95277186040916
0.95238550935458
0.95201005291576
0.95164496838099
0.95128976097356
0.95094397167954
0.95060717537615
0.95027897524182
0.9499589999889
0.9496468990966
0.94934234149051
0.94904501262307
0.94875462014928
0.94847088991211
0.94819356193065
0.94792239344681
0.94765716023769
0.94739764141929
0.94709138773424
0.94545330320439
0.94391411047827
0.94207357608276
0.93966574585996
0.93660358182955
0.93360105107399
0.93308804537638
0.93321253175579
0.93334211715942
0.93344934331952
0.93353968232092
0.93361688598975
0.933682751443
0.93373788582738
0.93378231311831
0.93381592229655
0.93380974481465
0.93382024688963
0.93381998313935
0.93380915599062
0.93378915731488
0.93376205379098
0.93373136232282
0.93370263843805
0.93368234337433
0.93367485923421
0.93367813998574
0.93369050086905
0.93370980375182
0.93373303049707
0.93375742812101
0.93377975113372
0.93379824828607
0.93381237198216
0.93382189614934
0.93382715634224
0.93386532754819
0.93386521173226
0.93386345893795
0.933858926652
0.93385126064272
0.93384085289317
0.93382776327122
0.93381263182427
0.93379562284048
0.93377770415171
0.93375920102556
0.93374021732148
0.93372075627838
0.93370107478205
0.93368147362471
0.93366186317534
0.93364240411195
0.93362290253012
0.93360333733979
0.93358365907329
0.93356374337416
0.93354362603952
0.93352307796102
0.9335021571666
0.93348049884862
0.93345806092737
0.93343433618671
0.93340877867292
0.93338077249739
0.93335007611331
0.93331557453635
0.93327746097518
0.93323493659074
0.93318738485325
0.93306559543997
0.92271993446855
0.97191927617859
0.97950864539078
0.98070065907199
0.98144255307798
0.98195036976025
0.98228355463708
0.98242899699917
0.98240715429608
0.98222375765662
0.98188191019189
0.98142161745432
0.98084376661899
0.98014773251535
0.97935016101751
0.97846789150626
0.97751271930671
0.97650066199555
0.97544892203369
0.97437432544061
0.97329144465174
0.97221349625923
0.97115167086918
0.97011371597758
0.96910497167778
0.96812872195874
0.96718675034752
0.96627998854779
0.96540832680331
0.96457109343085
0.96376733422453
0.96299580921179
0.96225509814054
0.96154377480181
0.96086039444334
0.96020351818898
0.95957171996226
0.95896365632671
0.95837804382219
0.95781362065969
0.95726920460756
0.95674368684854
0.95623604010889
0.95574532694704
0.95527065385927
0.95481115689416
0.95436604081463
0.95393458127844
0.95351609964618
0.95310995198477
0.95271553190253
0.95233228115267
0.95195968344158
0.95159724781948
0.9512445025124
0.95090100085232
0.95056632611361
0.95024009252573
0.94992194253533
0.94961154331124
0.94930858054797
0.94901275320992
0.94872377665564
0.9484413838679
0.94816531651115
0.9478953320494
0.94763121792414
0.94737272606061
0.94707905377934
0.94549426462818
0.94397212633645
0.94217808675699
0.93983533355527
0.93685904570334
0.93391879669314
0.9332259872953
0.93330986962429
0.93344242515357
0.93355809697658
0.93365867140703
0.9337476763493
0.93382657215013
0.93389540557444
0.93395348872803
0.93399993328729
0.93400918215188
0.93402925086411
0.9340363684652
0.93403085158467
0.93401368871787
0.93398636386573
0.93395153834608
0.9339132814513
0.93387816882163
0.93385295170617
0.93384218191017
0.93384369078914
0.93385322414334
0.93386978236889
0.93389054392754
0.93391234909742
0.93393097033947
0.93394527011234
0.93395503040318
0.93396026410143
0.93399417016645
0.93399120684458
0.93398311772192
0.93396917885058
0.93395030298785
0.93392772096017
0.93390273972749
0.93387633948519
0.93384900257095
0.93382116536523
0.93379238550637
0.93376227295918
0.93373052181521
0.93369678400479
0.93366087927486
0.93362257300273
0.93358227795701
0.93354013963728
0.93349607906301
0.93345032921719
0.93340215796119
0.93335205696592
0.93329843919809
0.93324195376124
0.93317972956486
0.93311152630228
0.9330333740145
0.93294264062182
0.93283522460564
0.93270865314819
0.93256059592357
0.9323888064154
0.93219070557612
0.93196848749037
0.93172150349251
0.93093458016888
0.96768278603189
0.9757109830292
0.9769668650249
0.97773746679616
0.97832084060311
0.97875508874403
0.97906254848738
0.97921584809374
0.97922464433089
0.97910876822286
0.97883820307669
0.97845664175357
0.97797618603423
0.9773818000221
0.97668786542727
0.97591352816943
0.97507324822419
0.97418015515446
0.97325103802875
0.97230017737169
0.97133982760769
0.97038040204239
0.96943163568351
0.96850027551957
0.96759123476133
0.96670774309287
0.9658517336133
0.96502423780988
0.96422557740589
0.96345555817014
0.9627136176564
0.96199894541565
0.96131061299919
0.96064755355802
0.96000867385441
0.9593928746245
0.95879903749002
0.95822612449773
0.9576731065689
0.95713895589131
0.95662271337807
0.95612346345531
0.95564036275077
0.95517261506366
0.95471944630914
0.95428011636501
0.95385395055146
0.9534403265158
0.95303864032698
0.95264831917798
0.9522688303305
0.95189968617971
0.95154043235584
0.95119063211485
0.95084986466623
0.9505177309532
0.95019385781407
0.94987789982242
0.94956953869251
0.94926847786011
0.94897443370293
0.94868713313135
0.94840631524657
0.94813172728551
0.94786313284828
0.94760031722623
0.94734304273356
0.94706104805003
0.94553757593858
0.94403662112319
0.94230079393183
0.94004228169872
0.93717418651723
0.93427280869243
0.93335575683211
0.93336468016518
0.93348668758674
0.93360600836456
0.93371557641672
0.93381756660873
0.93391247269165
0.93399913254661
0.93407545452588
0.93413918547211
0.93416619941173
0.93419868694338
0.9342150808809
0.93421574778253
0.93420241121192
0.93417631858601
0.93414021366357
0.93409796524791
0.93405514403912
0.93401960488324
0.93399713154773
0.93399147937256
0.93399519693744
0.9340062467602
0.93402266852081
0.93404170116299
0.93405882190998
0.93407133512144
0.93407865097989
0.93408000059119
0.93409635880657
0.93407659009414
0.93404989897323
0.93401819717283
0.93398216303638
0.93394164768638
0.93389586048914
0.93384327561796
0.93378166599096
0.93371181812359
0.93363232741073
0.93354227320469
0.93344080754388
0.93332707547688
0.93320150997919
0.93306341522377
0.93291383603623
0.93275375125488
0.93258273567932
0.93240298500635
0.93221280957472
0.93201313739191
0.9317965556553
0.93156387137554
0.93130228691396
0.9310121569105
0.93067605694003
0.93029355203761
0.9298420725219
0.92932194877476
0.92871774757941
0.92802790682941
0.92724845312222
0.9263814804138
0.9253854321429
0.92211854643408
0.9637299265534
0.97269065801906
0.97402156876231
0.97478806206067
0.97537728192392
0.97584458937593
0.976206511246
0.97645428398999
0.97657852582519
0.97658540623353
0.97648358940673
0.97624129578919
0.97589929021578
0.97547530692441
0.97494949397694
0.97433086682481
0.97363809897669
0.97288773064797
0.97209247603599
0.97126369752408
0.97041470355773
0.96955627763786
0.96869670113923
0.96784416971555
0.96700435961178
0.96618143228214
0.96537841904137
0.9645974350964
0.96383973449341
0.96310582018525
0.96239574300647
0.96170930297336
0.96104604630999
0.96040532333819
0.95978639152832
0.95918843830917
0.95861057842756
0.95805197104216
0.95751179819357
0.95698922842564
0.95648344715868
0.95599367109882
0.95551915800621
0.95505922460144
0.95461320667084
0.95418044498234
0.95376031185421
0.95335222832008
0.9529556539023
0.95257005659548
0.95219492973794
0.95182980581158
0.95147426264325
0.95112790012709
0.95079032566453
0.95046116379243
0.95014006270914
0.94982669076366
0.94952073946888
0.9492219234096
0.94892997549545
0.9486446391356
0.94836566122216
0.94809279802779
0.94782582432713
0.94756451951446
0.94730867887017
0.94703602530491
0.94557885836764
0.94410361823825
0.94244071618339
0.94029216112393
0.93756432190054
0.93469596966665
0.93349875459223
0.93338751014839
0.93347818010313
0.93359315959858
0.93370947609675
0.9338262456516
0.93394189312149
0.93405295406757
0.93415476860505
0.93424270418398
0.93429135809081
0.93434035587158
0.93436812256455
0.93437512440218
0.93436457573075
0.93433802913452
0.93429891556424
0.93425186171634
0.93420280011849
0.9341604480083
0.93413110764302
0.93412025973247
0.93412207934531
0.93413097085095
0.93414577739232
0.9341629761145
0.93417603014293
0.93418244939804
0.93418143424988
0.9341715237336
0.93414284865178
0.93409652520125
0.9340370504934
0.93396175998818
0.93386817732183
0.93375324536619
0.93361589986119
0.93345383727461
0.93325747822631
0.93302717837313
0.93275984197631
0.93245237780071
0.93210226716448
0.93170959486119