/*--------------------------------*- C++ -*----------------------------------*\
| =========                 |                                                 |
| \\      /  F ield         | OpenFOAM: The Open Source CFD Toolbox           |
|  \\    /   O peration     | Version:  2312                                  |
|   \\  /    A nd           | Website:  www.openfoam.com                      |
|    \\/     M anipulation  |                                                 |
\*---------------------------------------------------------------------------*/
FoamFile
{
    version     2.0;
    format      ascii;
    arch        "LSB;label=32;scalar=64";
    class       volScalarField;
    location    "6e-05";
    object      Ybar.Liq;
}
// * * * * * * * * * * * * * * * * * * * * * * * * * * * * * * * * * * * * * //

dimensions      [0 0 0 0 0 0 0];

internalField   nonuniform List<scalar> 
109340
(
0.99908441667967
0.99908102738248
0.99907424411847
0.99906590753696
0.99905658413217
0.99904675925402
0.99903660166655
0.99902607962101
0.99901506755598
0.99900295784102
0.99898881821163
0.99897163884107
0.9989502158725
0.99892311360966
0.998888637258
0.99884479207728
0.99878921193567
0.99871906765088
0.99863093519438
0.99852062019238
0.99838291296662
0.99821128850335
0.99799749751119
0.99773101408656
0.99739825361026
0.99698147260316
0.99645714400413
0.99579349246074
0.99494658464585
0.99385384436863
0.99242270276545
0.99050946347992
0.98787728478145
0.98410788181049
0.9784060725491
0.96914028613779
0.99908505423775
0.99908060987191
0.9990729538384
0.99906401930503
0.99905439797312
0.9990445173736
0.99903447155381
0.9990240954217
0.99901296070698
0.9990004407991
0.99898567702205
0.99896761875455
0.99894500305776
0.99891632971547
0.99887983114921
0.99883342108879
0.99877463159456
0.99870050090443
0.99860743246266
0.99849100471234
0.99834571493895
0.99816465343453
0.99793906499361
0.99765774948652
0.99730621236735
0.99686545618858
0.99631018864299
0.99560607141899
0.9947053124367
0.99353925474886
0.99200518567329
0.98994117714635
0.98707420490296
0.98290602895369
0.97643131122911
0.96547176199487
0.99908712059327
0.99908193523452
0.99907348452709
0.99906433536465
0.99905480120056
0.99904506917137
0.99903509063777
0.99902471519281
0.99901358943921
0.9990010964415
0.99898638650484
0.99896840464354
0.99894588274233
0.99891731733761
0.99888094007975
0.99883466890256
0.99877603577082
0.99870208232775
0.9986092143632
0.99849301387217
0.99834797745699
0.99816719384421
0.99794190459113
0.99766090319136
0.99730968553647
0.99686923931256
0.996314251655
0.99561036118577
0.99470974960135
0.99354372053599
0.99200947442456
0.98994464654636
0.98707318604884
0.98288055339615
0.97628041872426
0.96464379627903
0.9990899913026
0.99908369090225
0.99907481329113
0.99906540842698
0.99905569268322
0.99904575854257
0.99903562302641
0.99902516212415
0.99901400759326
0.99900153641117
0.99898689751776
0.99896903007706
0.99894665853318
0.99891827298617
0.9988820971514
0.99883603974224
0.99877762338333
0.99870387815818
0.99861119082701
0.99849512134295
0.99835012198142
0.99816922320708
0.99794358358933
0.99766187654146
0.99730943532002
0.99686701330239
0.99630896927291
0.99560047674179
0.99469305599111
0.99351703283328
0.99196808116616
0.98988123757855
0.98697307740294
0.98270181704601
0.9758498640169
0.96294759280901
0.99909449987599
0.99908624595429
0.99907604537691
0.99906598649499
0.99905600244907
0.9990459707091
0.9990358105445
0.99902539023786
0.99901432351603
0.99900197676758
0.99898749804323
0.99896981351156
0.99894762205111
0.99891937700208
0.99888324727768
0.99883706392211
0.99877824342749
0.99870367184887
0.99860949135301
0.99849101824436
0.99834228788718
0.99815578940957
0.99792193632062
0.99762836362237
0.99725899418413
0.99679261507542
0.99620085992973
0.99544508834944
0.99447141254168
0.99320231729987
0.99152155208934
0.98924624844557
0.98605884362352
0.98134094326646
0.9736123280353
0.95767046621321
0.99910283855664
0.99908754465824
0.99907623546739
0.9990659135391
0.99905587074322
0.99904581679067
0.99903562759586
0.99902505155344
0.99901353856883
0.99900021297022
0.99898389777547
0.99896309878047
0.99893598539614
0.99890034940935
0.99885353983835
0.99879236878821
0.99871298283584
0.9986107282019
0.99848002478536
0.9983131381471
0.9981005445723
0.99783005188873
0.99748592830676
0.99704774291683
0.99648876863724
0.99577368327518
0.99485524356166
0.99366921873392
0.992126332789
0.99009869274756
0.98739468499653
0.98371800320742
0.97854925831964
0.97087829637816
0.9582188345888
0.93011480681331
0.95323017012916
0.92658105577357
0.8857139460984
0.83025830954973
0.76273912198512
0.6858266639443
0.60275723246809
0.5172323552857
0.43317789040048
0.35447125295969
0.28302344565244
0.22307895417828
0.17413002248052
0.13495434409178
0.1047986159239
0.081690710337761
0.064139698881642
0.050821084308816
0.040666357655503
0.032902913041618
0.026929066484609
0.022266730208397
0.018598161248164
0.015687956475007
0.013340551800757
0.01143519075791
0.0099185509498854
0.0086134554686587
0.0075509092639949
0.0066676287000402
0.0058955835216396
0.005274257440295
0.0047064425495989
0.0042506909648271
0.0038258092681057
0.0034824075411588
0.0031584024784608
0.0028943454210708
0.0026428529524019
0.0024360308625172
0.0022385779813282
0.0020729983657941
0.0019174946580625
0.0017815224516822
0.0016585938152482
0.0015444783137798
0.0014452436922967
0.0013502088855553
0.0012679977172851
0.0011904352453887
0.0011196939807003
0.0010548554776602
0.00099516886384523
0.00094021234024382
0.00088943116376249
0.0008424440576175
0.00079885477124375
0.00075836596635237
0.00072069356411437
0.00068559278039642
0.00065283069011793
0.00062220522210446
0.00059354536937054
0.00056669915677553
0.00054152220899063
0.0005178639860234
0.0004956054022964
0.00047901317090999
0.0013406847742061
0.0025843976961218
0.0027015132421206
0.0026996831202827
0.0026450844807872
0.0025535754641938
0.0025033780675403
0.0024567814220244
0.0024048753131259
0.0023567753435926
0.0023218199392054
0.0023077742882297
0.0023175473816869
0.0023446167863652
0.0023835544845071
0.0024318867403449
0.0025026243688935
0.0025648995193484
0.0026323818748876
0.0026992238911631
0.0027610470375418
0.0028168148217713
0.0028653602867636
0.002908785631352
0.0029495346110866
0.0029894958111004
0.0030295813593867
0.0030693892511742
0.0031076321422408
0.0031433999459913
0.0031755140194508
0.003202282316933
0.0032220319744168
0.0032337109729293
0.0032365851533565
0.0032316784945225
0.0032185153344187
0.0032030500138487
0.0031867822459081
0.0031639692006617
0.0031386285972919
0.003106652426943
0.0030870908387039
0.0030576417991448
0.0030318578338021
0.0030253234107022
0.003029137123308
0.0030331907931803
0.0030194776680732
0.0030071531053299
0.002999427489817
0.0029897986257245
0.0029801111639309
0.0029578708936384
0.0029369976910813
0.002906349403209
0.002878861609982
0.0028480459197989
0.0028225401019672
0.0027956434478908
0.0027732238302321
0.0027544888592879
0.0027470581805497
0.0027316146179925
0.0027402508877427
0.002774739793276
0.0028167202679267
0.0028590319128738
0.0029007644131693
0.0029684279812117
0.0031063802517668
0.0026247831887805
0.94550516277447
0.91140097431414
0.86084886059923
0.7962526236388
0.72122296693423
0.63888941361445
0.55372800653394
0.46954211597217
0.38996242174607
0.31762967199991
0.25418050228572
0.20034828635889
0.15723660501938
0.12293244753383
0.096056997362195
0.075390551294981
0.05954885681485
0.047436031430351
0.038164159704429
0.031023739553317
0.025483365001368
0.021150248554265
0.017726410845328
0.014993180889282
0.012791878527655
0.011001753921772
0.0095322170245088
0.0083181076051604
0.0073023688362979
0.0064510176205567
0.0057287182249648
0.0051141917614813
0.004586747191755
0.0041313256323958
0.0037366399141186
0.0033920665984288
0.0030905118576478
0.0028248299277858
0.0025902217125098
0.0023819674498308
0.0021964093764398
0.0020308067934263
0.0018819154947557
0.0017484177261016
0.0016274891070678
0.0015185246589586
0.0014192037027907
0.0013291320864761
0.0012467377102064
0.0011714879640523
0.0011024326590688
0.0010389362038477
0.00098052215012875
0.00092662544429813
0.00087684982139756
0.00083074887400089
0.00078798637482413
0.00074824672878074
0.00071125845647574
0.00067677324807185
0.00064457561707818
0.00061447690169393
0.00058629930946344
0.00055988401579973
0.0005350906375125
0.00051181293796157
0.00048992131205532
0.00049560167809364
0.0018839776448038
0.0026296543322329
0.0026958529702455
0.0026807854318111
0.0026185488939925
0.0025321966941144
0.0024900814425197
0.0024416427555337
0.0023902157588266
0.0023448856627811
0.0023148544540982
0.002307108619321
0.002321659483458
0.0023523562285833
0.0023941361386019
0.0024451537091873
0.0024947021924288
0.0025591823019564
0.0026265167298831
0.0026933255890707
0.0027554027337763
0.0028115066771882
0.0028605245079935
0.0029044587889393
0.0029455684925039
0.0029855385599083
0.0030252173950655
0.0030641785586932
0.0031014321016795
0.0031360694086501
0.0031669331430919
0.0031923802502678
0.0032107634401173
0.003221006852092
0.0032227292950137
0.0032156368679668
0.003200931831564
0.0031860930101976
0.0031674825676619
0.0031493882775297
0.0031183700303044
0.0030915889981042
0.0030709503248241
0.0030436499802531
0.0030239116583369
0.0030190100862867
0.0030233617484068
0.0030235100849727
0.0030112782995307
0.0030021281671668
0.0029963568534672
0.0029871132720225
0.0029772405971825
0.002955597489124
0.0029356718515021
0.0029063400491331
0.0028797312057702
0.0028500814228721
0.0028252141684157
0.0027988150131338
0.0027761488009906
0.0027574846821142
0.0027479554523779
0.0027323722433031
0.0027444021234055
0.0027752935515549
0.0028142468589697
0.0028542668230615
0.0028944887268576
0.0029592491880319
0.0031008362755719
0.0026643881325111
0.94129341475214
0.89829836458515
0.83669076756554
0.75951078627535
0.676091307671
0.59001832744064
0.50525862341033
0.42530685531624
0.35246575089984
0.28721102942795
0.23213511903799
0.18539148079066
0.14700710742722
0.11611833139477
0.091628912549793
0.072469635616039
0.057621615288747
0.046169749982875
0.037321636528556
0.030444520527901
0.025076629423395
0.020862961583543
0.017518545104161
0.014839397114543
0.012678107517308
0.010916293326917
0.0094663722603458
0.0082659459418468
0.0072637034758467
0.0064186746951263
0.0057038994477062
0.0050931482295128
0.0045699809941408
0.0041173469008116
0.0037252120693257
0.0033824217270799
0.0030825562343384
0.0028180302248277
0.0025846196675456
0.0023769772392557
0.0021924702232312
0.0020270724466597
0.00187906867903
0.0017456059985891
0.0016253492718369
0.0015163862074327
0.0014174537340963
0.0013275059014195
0.0012452793863708
0.0011702127321995
0.0011012515560346
0.0010379698326508
0.00097963000467952
0.00092581756694815
0.00087609524243196
0.00083005552124113
0.00078735781830698
0.00074767542558209
0.00071073700597399
0.00067629434709077
0.00064413660027392
0.00061407463251476
0.00058592996979178
0.00055954324868801
0.00053477474620859
0.00051152452901263
0.00048964720832601
0.00049444522890557
0.0018759738840063
0.0026265477491927
0.0026932302139534
0.0026783762752367
0.0026163352042444
0.0025298951849697
0.0024874821577234
0.0024392514496809
0.0023880500285051
0.0023429556517433
0.0023131059424246
0.0023055001786885
0.0023199753870973
0.0023508242550079
0.0023929486598666
0.0024448336776636
0.0024987157861259
0.0025646803526367
0.0026335416078547
0.0027013326273814
0.0027643894501178
0.0028210439807245
0.0028705944107522
0.0029148113688676
0.00295591865522
0.0029956461029238
0.0030350918854662
0.0030738254022861
0.0031108650271056
0.0031451879119534
0.0031756172316308
0.0032004337090303
0.0032180437564094
0.0032275648998288
0.0032285860611118
0.0032204921045053
0.0032054248503995
0.0031916882419846
0.0031766027980415
0.0031547308296078
0.0031271820970624
0.0031033938823705
0.0030777488410823
0.0030501294716234
0.0030348067068297
0.0030299443767654
0.0030312288387526
0.0030279309667582
0.0030163032304047
0.0030099281956395
0.0030040439291932
0.0029941329484085
0.0029833068208958
0.0029610422375778
0.0029423716808107
0.0029121274481114
0.0028866544092989
0.0028566581695104
0.0028323992212291
0.0028057488061802
0.002782665802803
0.0027640663971283
0.0027527750563567
0.0027333553614609
0.0027579898041976
0.0027829467768406
0.0028190346379619
0.0028586898594294
0.002899222126535
0.0029506392368597
0.0030611173529064
0.0028240657455743
0.93185615634338
0.86858227531265
0.7843303401976
0.68941649078532
0.59646267851668
0.51048442337068
0.4323110111531
0.36312117205934
0.30234654404744
0.24860118796184
0.20486485748672
0.16653655060684
0.13417069393377
0.10752213246666
0.085881826975913
0.068674404950595
0.055115766388614
0.044480912970128
0.036164962644522
0.02965899203036
0.024535935409098
0.020467216886595
0.017231326095594
0.014631519710953
0.012521003053781
0.010795395974303
0.0093749842034987
0.0081943632964868
0.0072066784544564
0.0063739995946961
0.0056673835301975
0.0050638645576317
0.004545347194923
0.0040976284528117
0.0037083208820195
0.0033688039919338
0.0030707897132515
0.0028084295034153
0.0025762049894957
0.0023701242085497
0.0021863621935107
0.0020219831245742
0.0018745719355159
0.0017417492759464
0.0016219781331051
0.0015133616342599
0.0014149052284087
0.0013251377890223
0.0012432702833249
0.0011683341046359
0.0010996079059594
0.0010364910293836
0.00097831851831539
0.00092465544408095
0.00087502290012266
0.00082908089295954
0.00078646563273268
0.00074686087028906
0.00070999394629322
0.00067561838763769
0.00064352039962462
0.0006135090968987
0.00058540993332737
0.00055906540511343
0.00053433797671608
0.00051112583300376
0.00048927084556198
0.0004930527226302
0.0018621497057966
0.0026214866632745
0.0026894491515125
0.0026750085517349
0.0026134197207981
0.002527102583423
0.0024840020539137
0.0024360106866319
0.0023850727226606
0.0023402300919939
0.002310517439417
0.0023029971549813
0.0023172484106364
0.0023481922633221
0.0023908692578473
0.0024437812208443
0.0024979625595628
0.0025646944548015
0.0026339224395227
0.0027017669047137
0.0027649094000043
0.0028217682931228
0.0028715942418269
0.0029160823000446
0.0029573438696833
0.0029970713638451
0.0030362669969526
0.0030745807230426
0.0031110174102789
0.0031445433502324
0.0031740478532428
0.0031979462430133
0.0032146953432192
0.0032234956731022
0.0032235829471937
0.0032147140723071
0.0031997594547458
0.0031873372492173
0.0031727410510557
0.0031505489480109
0.0031242400217495
0.0031016502263978
0.0030730355266757
0.0030492566924511
0.0030376366801623
0.0030332565144797
0.0030306934372676
0.0030269218349346
0.0030177268538357
0.003013203874676
0.0030068935024535
0.0029968345931605
0.0029858688948378
0.0029642458469362
0.0029460110038072
0.0029164554535464
0.0028914702012063
0.0028623781939706
0.0028381628133018
0.0028121511307677
0.0027891110189205
0.0027709752685027
0.0027592318876643
0.0027396044274596
0.0027671122164237
0.0027921436606455
0.0028208692613781
0.0028624355260586
0.0029020304349052
0.0029504949421138
0.0030492991471021
0.0027794942446973
0.90021462371561
0.78399531572014
0.66048229739076
0.5553817125516
0.47039924009259
0.40022188227612
0.34188497916209
0.2921412779282
0.24845205144621
0.21010860149247
0.17595982771179
0.14584447427167
0.11977335295162
0.097674753684015
0.079292613735864
0.064235343760223
0.052111089643889
0.042450630410304
0.03477636551737
0.028683626128236
0.023843139329409
0.019984879355414
0.016875118774627
0.01436386074804
0.012321019265669
0.010645308920098
0.0092576762433327
0.0081026868146209
0.0071343330998057
0.0063165824469169
0.0056207435393055
0.0050261703579842
0.0045142940355318
0.0040718411660042
0.0036869909492714
0.0033509871248444
0.0030557815823057
0.0027958008998479
0.0025655103757937
0.0023610206809717
0.0021784875442762
0.0020153216204654
0.0018686931929517
0.0017367321609623
0.0016174912887797
0.0015095098628517
0.0014114498188053
0.0013220808860322
0.0012405622639892
0.0011658902304921
0.0010974558014259
0.001034519813557
0.00097656801359071
0.00092308547638495
0.00087361446164834
0.0008278004664962
0.00078528884594996
0.00074578589795247
0.0007090142852063
0.00067472725609121
0.00064270589912259
0.00061276169406318
0.00058472499965911
0.00055843803086291
0.00053376379960146
0.00051059797415121
0.00048877820598102
0.00049128241264308
0.0018433696766949
0.0026147844504246
0.0026845098825002
0.0026707033520262
0.0026098201982287
0.002523825776673
0.0024794749835121
0.0024316328451228
0.0023808953472805
0.0023362195914123
0.0023065328525539
0.0022989510326814
0.0023129882650126
0.0023440339122222
0.0023874393287313
0.0024415831559501
0.0024976100574303
0.0025652818789217
0.002635089948405
0.002703216768849
0.002766612021677
0.0028236608427349
0.0028736870790354
0.002918337013547
0.0029595932846876
0.0029991362657055
0.0030378470954998
0.0030755288353189
0.0031110967348597
0.003143557147459
0.0031718218021524
0.0031944943695885
0.0032103043432788
0.0032184791719779
0.0032177745109002
0.0032082126921735
0.0031944218333343
0.0031828602810464
0.0031685096766676
0.0031471238294277
0.0031221796551145
0.0030987312572642
0.0030691064743436
0.003049253920367
0.0030415685070477
0.0030332118889109
0.003029798473302
0.0030285913520285
0.0030211290542972
0.0030174939207758
0.0030112193558209
0.0030012134459146
0.0029905032782543
0.0029692930515719
0.0029515023379687
0.0029224708735108
0.0028982066198947
0.0028698385018997
0.0028457094479402
0.0028199756552654
0.002797187866936
0.002779457296678
0.0027683226692943
0.0027474728161835
0.0027762608223281
0.002801403188861
0.0028261389934979
0.0028681186138623
0.0029067683965629
0.002951826363193
0.0030421582221599
0.0027319245040418
0.67622845255169
0.48892128446768
0.40986274227793
0.36165838034494
0.32214692593657
0.28725990244403
0.25512597271728
0.22614888337108
0.19843962435347
0.17222890130512
0.14772436689256
0.12533883953475
0.10517174392916
0.087421967174965
0.072184711053063
0.059375756552176
0.048786834877373
0.040152893507747
0.033177485892312
0.027561921629693
0.023042778310912
0.019398843860381
0.016454078938994
0.014050907824458
0.012082268711108
0.010461720568122
0.0091180387738836
0.0079929490249989
0.0070465785962736
0.006246415729967
0.0055649012087961
0.0049800258789291
0.0044766598979403
0.0040407046645854
0.0036612067745785
0.0033291452937738
0.003037681074697
0.0027804211648638
0.0025524776288646
0.0023498182080351
0.0021689979890312
0.0020070757598811
0.0018615515345876
0.0017305205128932
0.0016120553712636
0.001504755669966
0.0014071823255399
0.0013183482312619
0.0012372056975275
0.0011629115502187
0.0010947657925262
0.0010320911306945
0.0009743950216759
0.00092112370207735
0.00087185801094365
0.00082620064915832
0.00078383196255023
0.00074445968045866
0.00070780199310068
0.00067361608944843
0.00064168800509135
0.00061183258778494
0.00058387625409319
0.00055765868086681
0.0005330476328066
0.00050993875171245
0.0004881748201273
0.00048917274347328
0.0018198945561017
0.0026067394190087
0.0026785211897583
0.0026655364632307
0.0026055327547131
0.0025199115284822
0.0024735812769611
0.0024256945047727
0.0023750525025529
0.0023304433359313
0.0023006987210583
0.0022929169549742
0.0023067019682479
0.0023379501665103
0.0023823314032762
0.0024379798823804
0.0024955909185776
0.0025645889631027
0.00263530489179
0.0027039579649622
0.0027676990183878
0.0028250950468199
0.0028754404187404
0.0029203093727323
0.0029615803459037
0.0030008621657077
0.0030389063289768
0.0030755618013091
0.0031097347983815
0.0031405422692137
0.0031671431521201
0.0031884316215929
0.0032032176134654
0.0032105913463867
0.0032085704472457
0.0031981588773716
0.0031854506707654
0.0031747262086801
0.0031609017227273
0.0031400193540307
0.003117003280976
0.0030943923607732
0.003062894822498
0.0030478327653536
0.0030420947170162
0.0030330499497836
0.0030305088737353
0.0030306663195235
0.0030239284305584
0.0030209851479308
0.0030146213562537
0.0030048588002055
0.0029945542687236
0.0029743998225571
0.0029570507370972
0.0029288073811975
0.0029052860248717
0.0028774852624894
0.0028533095714363
0.0028277984744696
0.0028056318182489
0.0027883938125076
0.0027779147526634
0.002756481467489
0.0027866268785043
0.0028116313468276
0.0028331382501776
0.0028740361872882
0.0029116338636263
0.0029541531345472
0.0030350036840285
0.0026707747032083
0.022527330826179
0.15515398582188
0.1908300515464
0.20422664488701
0.20646270729833
0.20035303909599
0.18876897232067
0.17450729872688
0.15889159118871
0.14261332206591
0.12620405418339
0.11012978116188
0.094831961129465
0.080676245096847
0.067961948412483
0.056861929216082
0.047383527205391
0.039442990867439
0.032880702767084
0.027502346890528
0.023111901927852
0.019533140003775
0.016610271412206
0.014220188258892
0.012249966070468
0.010614442744054
0.009256655928817
0.0081200967294905
0.0071621976283724
0.0063480733838108
0.0056555801810447
0.0050620508413639
0.0045498362949212
0.0041057167613681
0.0037195403067332
0.0033817751816486
0.0030848664854818
0.0028228866945625
0.0025910025557273
0.0023847360836236
0.0022006200498295
0.0020358039134086
0.0018878078194119
0.0017544660899049
0.0016339334481998
0.0015247717526285
0.0014255745554755
0.0013352498780087
0.0012527241698732
0.0011772302808614
0.0011079934731747
0.0010443512838349
0.0009857445820039
0.00093164290704781
0.00088165196413563
0.00083534267082472
0.000792370794143
0.00075242536146902
0.00071524146954117
0.00068058622678801
0.00064822998381533
0.00061797595701758
0.00058965259783821
0.00056311068699199
0.00053820359874596
0.00051478420289869
0.00049275470334804
0.00047403841207065
0.0012517661714771
0.0025327479986123
0.0026649460957815
0.0026677961527937
0.0026187647236952
0.0025346735503086
0.0024770214193572
0.0024303865237175
0.0023795963254272
0.0023326530351498
0.0022983101939153
0.0022843268821109
0.002292900972802
0.0023204427577555
0.0023628138300694
0.002417476467843
0.0024924270920718
0.0025629938526221
0.0026349602311091
0.0027045284619271
0.0027687591411795
0.0028264248531486
0.0028769039114468
0.0029218113418844
0.0029629772638521
0.0030019353800931
0.0030391576979244
0.003074495618851
0.0031070631594741
0.0031362378131175
0.0031613426201647
0.0031813401248488
0.0031950497590754
0.0032014198997077
0.003197955917498
0.0031873641852593
0.0031702555828788
0.0031608986746348
0.0031476031851355
0.0031270499520205
0.0031069658968222
0.0030863036838595
0.003054834670148
0.0030412822510056
0.0030370611507339
0.0030308289402567
0.0030313434157257
0.0030339189906835
0.0030272421861851
0.0030250519473308
0.0030186229694425
0.0030082641593757
0.0029994250928301
0.0029808716805987
0.0029638156666268
0.0029367901706561
0.0029143770737426
0.0028879828817386
0.0028636241023245
0.0028386453295695
0.0028173822131872
0.0028012583351087
0.0027919568897572
0.0027729717219175
0.0027996126299793
0.0028221096368028
0.002840834296943
0.0028802721582288
0.0029158806434053
0.0029542820620195
0.003016823863803
0.0025635798564837
0.0099531748968999
0.026979084241868
0.048243974121515
0.066020316366309
0.079450757975201
0.088424266370865
0.093188181231277
0.094384895342726
0.091836021046876
0.087383093478829
0.081458725473929
0.074435520140119
0.066867427592024
0.059118260277395
0.051565233768542
0.044513755478644
0.038145646614462
0.032540147929733
0.027711449505968
0.023613073920065
0.020165007644006
0.017279876636288
0.014870895217935
0.012857943124768
0.01117385152875
0.0097621368069731
0.0085722294383049
0.0075616664848169
0.0067037084733612
0.0059710014110207
0.0053422200885404
0.0047984760183214
0.0043271724930151
0.0039170581570331
0.0035583482149591
0.0032428026582413
0.0029646535083831
0.0027185733340303
0.0024999391752056
0.0023048099859824
0.0021301781677838
0.0019735562621394
0.0018325654571445
0.0017052139920656
0.0015898619958277
0.0014851921706098
0.0013899449967858
0.0013030166964406
0.0012235035290466
0.0011506592452447
0.0010837785356733
0.0010222401028866
0.00096548079507943
0.00091305429967956
0.00086454406378008
0.00081958432828288
0.00077783404534146
0.00073898758693112
0.00070279464582779
0.00066902975555968
0.00063748791905508
0.00060797996953001
0.00058033742869606
0.0005544091787218
0.00053006860262487
0.00050719088974509
0.00048565628771548
0.00048129603400906
0.0017249447482061
0.0025756935809912
0.0026555888038021
0.0026453399485281
0.002587331523085
0.0025011252449627
0.0024449347015386
0.0023954834806447
0.0023446199461469
0.0022998066224605
0.0022695457654099
0.0022608785150953
0.0022742114855688
0.0023071341784689
0.0023560371922455
0.0024177987562297
0.0024818209277492
0.0025563104606495
0.0026314455582535
0.0027034777621051
0.0027694710730527
0.002828383729574
0.0028795409367857
0.0029244035856509
0.0029650822560047
0.0030029426179654
0.0030380688740717
0.0030705549199396
0.003099929753378
0.0031258450273108
0.0031477313565186
0.0031646915503307
0.0031757687438613
0.0031797518208873
0.0031735026411042
0.0031624695932877
0.0031472757198114
0.0031406860742141
0.003127484804597
0.0031058614898618
0.003087522939679
0.0030738305883963
0.0030471155064649
0.0030282432401674
0.0030198838712064
0.0030268403844292
0.0030305981626364
0.0030337347630912
0.0030268464109125
0.0030253233808185
0.0030172980309872
0.0030060220772606
0.0029989060618071
0.0029823739810206
0.0029664003571559
0.002943367600558
0.0029226814740079
0.0028983553848946
0.0028746364275751
0.0028506352045992
0.0028303312879743
0.0028162321595248
0.002809630995668
0.0027973487365935
0.0028167732871153
0.0028338232140651
0.0028484876918048
0.0028817792808636
0.0029121159415807
0.002942400511894
0.0029814012031433
0.0025200131052759
0.0079038448032164
0.011785089344979
0.019131426573972
0.028019032636972
0.036356951584526
0.043481387551782
0.049054641323051
0.052870511698233
0.055018084628307
0.055362527055311
0.054095800517886
0.051728703319696
0.048392980227017
0.044448446512124
0.040134807617853
0.035755035776969
0.031512467798441
0.02755917323543
0.023982947376773
0.020818376851051
0.018063348816618
0.015690206601614
0.013659799570305
0.011928660629678
0.010454016318092
0.0091980414774783
0.0081260509081817
0.0072088401383816
0.0064219308921827
0.005742836735501
0.0051550425842871
0.0046452877950981
0.0042009509655432
0.0038125175629203
0.0034704839108932
0.0031688654804705
0.002902204972139
0.002665500675123
0.0024544822268861
0.0022656089442256
0.0020964593955699
0.0019443391742391
0.0018071348518496
0.0016829015251526
0.0015703163264243
0.0014679685621363
0.0013747055900909
0.0012894704203506
0.0012114166684401
0.0011398650842801
0.0010741068013867
0.0010135390227612
0.00095762923100267
0.00090595659709313
0.00085811543874701
0.00081374131253786
0.00077250839771025
0.00073413044286002
0.00069836573437963
0.00066498269062529
0.00063377694889562
0.00060457008591178
0.00057719860291229
0.00055152372045588
0.00052741552258658
0.00050474550702159
0.00048339388532532
0.00047524738135374
0.0016426410780835
0.0025515552465757
0.0026377984860709
0.0026285749229183
0.0025699946476498
0.0024811882129423
0.0024162846204561
0.002364294301364
0.0023127192773879
0.0022674414621579
0.002236673915295
0.0022275648618041
0.0022412872888382
0.0022764887670594
0.0023296639613231
0.0023966712069124
0.0024657973427464
0.0025450155753262
0.0026240984552231
0.0026993667103606
0.0027677865138029
0.0028281519453796
0.0028800045234367
0.0029250970012496
0.0029655665739217
0.0030022102625118
0.0030352510245405
0.0030650191929165
0.0030914391590654
0.0031142944713013
0.0031330650715695
0.0031470464846228
0.0031555688751113
0.0031573286724197
0.003148600981581
0.0031368688280438
0.0031259788586777
0.0031218039598673
0.0031080495105092
0.0030821961881992
0.003066930753616
0.0030626939375455
0.0030461446904671
0.0030110089760321
0.0029927585706231
0.0030223545120274
0.0030290170778368
0.0030281392803657
0.0030200729959506
0.0030206204420279
0.0030113658956983
0.0029993367103862
0.0029915592961163
0.0029746965117604
0.0029583458966388
0.0029376235098901
0.002916584406832
0.0028937993752898
0.0028711034215304
0.0028485962497803
0.0028286203010452
0.0028145965446167
0.0028082411653725
0.0028004391949437
0.0028097515490484
0.0028155355184917
0.0028395756123575
0.0028632474756322
0.0028869944306857
0.0029074971711175
0.0029245478679167
0.003734888355569
0.0062938424113484
0.0083172440724658
0.010567789582777
0.014969038098918
0.019880514567236
0.024565360864178
0.028755818609232
0.03218939257482
0.034765297575794
0.036369652702729
0.036881445584159
0.036359949363784
0.035242969069759
0.03339390704139
0.03107678115526
0.028470321029237
0.025757502115813
0.023062690795667
0.020496303608911
0.018125213758294
0.015984065948203
0.01408226638717
0.012411080542439
0.010953595215773
0.0096881588251877
0.008591800615344
0.0076428862819998
0.0068208685478175
0.0061074094466259
0.005486956315461
0.0049461105761566
0.0044731979310978
0.0040577964778368
0.0036920545851896
0.003369457577654
0.0030838617095185
0.0028302589500164
0.0026037477465704
0.0024012514697683
0.0022199599870749
0.0020569546745352
0.0019100749064706
0.0017770618743351
0.0016566216552914
0.0015472219319406
0.0014476089032091
0.0013566483229466
0.001273368387547
0.001197103801499
0.0011270647874299
0.001062637343839
0.0010032007904281
0.00094830443087918
0.00089753671431857
0.00085048479896211
0.00080681065519702
0.00076618878314286
0.00072835810913509
0.00069309398250545
0.00066016231630407
0.00062936679999263
0.00060052058768081
0.00057346897224045
0.00054808935335564
0.00052424677494327
0.00050182183447265
0.00048068931508144
0.00046910567241891
0.0015487480329649
0.0025278095111499
0.0026204935391011
0.0026109820160866
0.0025499095187599
0.0024566744586727
0.0023815097824898
0.0023249340101588
0.0022717270385463
0.0022255714670569
0.0021942873614359
0.0021852007221157
0.0022002028009313
0.0022387501827114
0.0022971512058701
0.0023702233721987
0.002444923916357
0.0025294768623991
0.0026130654017245
0.0026921091869006
0.002763466423852
0.0028256068599183
0.0028781494637056
0.0029232442882488
0.0029630994919545
0.0029984827361674
0.0030295549073736