/*--------------------------------*- C++ -*----------------------------------*\
| =========                 |                                                 |
| \\      /  F ield         | OpenFOAM: The Open Source CFD Toolbox           |
|  \\    /   O peration     | Version:  2312                                  |
|   \\  /    A nd           | Website:  www.openfoam.com                      |
|    \\/     M anipulation  |                                                 |
\*---------------------------------------------------------------------------*/
FoamFile
{
    version     2.0;
    format      ascii;
    arch        "LSB;label=32;scalar=64";
    class       volScalarField;
    location    "6e-05";
    object      yPlus;
}
// * * * * * * * * * * * * * * * * * * * * * * * * * * * * * * * * * * * * * //

dimensions      [0 0 0 0 0 0 0];

internalField   uniform 0;

boundaryField
{
    inlet
    {
        type            calculated;
        value           uniform 0;
    }
    outlet
    {
        type            calculated;
        value           uniform 0;
    }
    nozzleWalls
    {
        type            calculated;
        value           nonuniform List<scalar> 
144
(
35.164422268873
34.749917362836
34.318790031814
33.89350967924
33.480464318723
33.081784430689
32.69822492794
32.329722868865
31.976295971804
31.637937731509
31.314751829397
31.006944592548
30.714820899745
30.438791646956
30.179374949128
29.937169235042
29.712800640961
29.506251045342
29.314531923316
29.135520466967
28.968960675412
28.814877664023
28.673356176354
28.544518816613
28.428635257202
28.326164682109
28.237867425909
28.164962690983
28.109397375888
28.074359713692
28.065552518527
28.09192210956
28.172803652939
28.355545375421
28.807379214768
30.96091062303
35.403742240744
35.065605956456
34.642321174422
34.211540135161
33.788984697946
33.379399721734
32.984462915143
32.604694275299
32.239953859039
31.890291617737
31.555712428461
31.236348050132
30.93242910033
30.644285996876
30.372357894693
30.117185122773
29.879381974999
29.659545948045
29.457062938348
29.268608933905
29.092713597977
28.929267616704
28.778315697531
28.639949575017
28.514319710671
28.401736266938
28.302723578571
28.218137250952
28.149347918507
28.09854977415
28.069386621235
28.068355149387
28.105907030198
28.20585803352
28.430205687441
29.029577142697
35.256290852341
34.856807373764
34.42646644362
33.998815296787
33.58243161074
33.180044018861
32.792684702979
32.420437933902
32.063241380483
31.721110803379
31.394116244813
31.082439666956
30.78636081815
30.506262993699
30.242640163298
29.996072089503
29.767190998758
29.556343828164
29.361240892579
29.179104938995
29.009433294469
28.852224704596
28.707553928673
28.575526562848
28.456371078246
28.35048929318
28.258556246402
28.181655299082
28.121517045543
28.080948306394
28.064920414629
28.08123933441
28.145706852126
28.295249878431
28.645834843053
29.913486177696
35.338821372933
34.962395742703
34.534417509103
34.104849413171
33.685281045692
33.279255131152
32.888090386692
32.512096894735
32.151127290029
31.805229407151
31.474437607968
31.15890919424
30.858899224653
30.574764297531
30.30697099536
30.056080822126
29.822720089273
29.607404486494
29.408744271314
29.223467391513
29.050684416575
28.890355198413
28.742540635816
28.60733819519
28.484935003501
28.375683916085
28.280181573634
28.199390657141
28.134851090443
28.089041724066
28.066122121784
28.073490940585
28.123647237131
28.246110830041
28.524231045832
29.364555047818
)
;
    }
    tipWalls
    {
        type            calculated;
        value           nonuniform List<scalar> 
304
(
9.196550296947
2.9728171534158
4.5152093511465
4.8396825682624
4.7299093744173
4.4504103958975
4.0505631735568
3.415066215453
2.4374183546442
1.364580072018
0.4596890288318
0.54053268978907
0.56513174677109
0.51168821880013
0.44912647025748
0.39852131213159
0.3586617125443
0.32804352836023
0.30296828997388
0.28132476665598
0.26212596248441
0.24487687853294
0.22940787105373
0.21583951947118
0.20421286867233
0.19450321033208
0.18661271874827
0.18037399567447
0.17557048395923
0.17197332668319
0.16935862010236
0.16751477381602
0.1662704787484
0.16549721353444
0.1651040169455
0.16501277995226
0.16516830686595
0.16553474469062
0.16605185525544
0.1666651659332
0.16732441875695
0.16798107831359
0.16860291198859
0.16917835780359
0.16972384359939
0.17026981240207
0.17084818795292
0.17147058265205
0.17211524574863
0.17274106048739
0.17330333631102
0.17376745168364
0.17412836004778
0.17440133202512
0.17462078856386
0.17482558661184
0.17504422789387
0.17528686916969
0.17554071182659
0.17577517247094
0.1759593127616
0.17608370879789
0.17621005549543
0.17670753049806
0.18132759920477
0.34388880927388
0.34730457624232
0.34798084749501
0.34788990761856
0.34730888791652
0.34644713307282
0.34543922032584
0.34444798469031
0.34381570022797
0.34422337291781
0.348135607908
0.36268127874316
0.63108636459644
0.63439610474573
0.63529350459841
0.63517782131257
0.63385528292586
0.63145631247201
0.62819358945995
0.6243542671397
0.62015385653725
0.61582156425243
0.61140894339856
0.60703520813916
0.60265624398604
0.59831653902542
0.59399330060835
0.58981675215482
0.58544202682609
0.58203600369934
0.58093173765748
0.56614722914786
1.6231370832479
3.9917402873638
4.7628063122797
4.8144904850056
4.6033909054154
4.2691014183342
3.7723372923906
2.9648314394794
1.8747702525445
0.92230428070547
0.40248899662242
0.57484263900367
0.54241180129215
0.47951970620002
0.42208270084197
0.37703348903025
0.34255739750246
0.31502104197038
0.29179680528898
0.27145155219286
0.25326855012884
0.23690999448386
0.22238315754104
0.20978456948061
0.19912191434081
0.19033922949764
0.18330021670417
0.177806930734
0.17363535075128
0.17055686354289
0.16835240974298
0.16682629099063
0.16583190863244
0.16525639205307
0.16502454291696
0.16506220347237
0.1653268131168
0.16577830533248
0.16634946565173
0.1669922494489
0.16765553912126
0.16829761333478
0.16889608428136
0.16945299534502
0.16999479503335
0.17055341577986
0.17115442454238
0.17179289839812
0.17243327679
0.17303268057239
0.17354903950986
0.173960276675
0.17427394605052
0.17451527181015
0.17472283490827
0.17493204524306
0.17516279983085
0.17541411834323
0.17566247135162
0.17587503161101
0.17602759627211
0.17613693445694
0.17635178840165
0.17775903171031
0.18431288951863
0.3465449410977
0.34776638953082
0.34802486524076
0.34765129940452
0.34690309529771
0.34595464452255
0.34492537955467
0.3440593221846
0.3437881068944
0.34546384487796
0.35285978001329
0.36452430769765
22.587199434495
2.0969484145997
4.2931026875482
4.8170982767218
4.778407996887
4.5298958458112
4.1659460791035
3.6045420172811
2.7085541614766
1.6062955569126
0.69748206977972
0.48562255792654
0.5730374844202
0.52898494039082
0.46347717026244
0.41026480785119
0.36753582559047
0.33510814817729
0.30887341099687
0.28648517269792
0.26672880974799
0.24901776944826
0.2330989737697
0.2190502676856
0.20693849717161
0.19675464010629
0.18842252655704
0.18179050080997
0.17664921406054
0.17277193075796
0.16993211923051
0.16791381426009
0.16653284701469
0.16565235278951
0.16516978173501
0.16501062246584
0.16510852777406
0.16542533264716
0.16591159409987
0.16650546433264
0.16715808871401
0.16781924459737
0.16845175700067
0.16903840560207
0.16958864570474
0.1701314875527
0.17069934247886
0.17131143726521
0.17195437563014
0.17258884661649
0.17317089243051
0.17366163373504
0.17404736396258
0.1743396252394
0.17456876401919
0.17477391029272
0.17498734523375
0.17522426592312
0.17547775898007
0.17572020679524
0.17591922268167
0.17605673499005
0.17616890163365
0.17648553462582
0.17896568982648
3.2887906856383
3.5798983286421
4.6652330698613
4.8359861897877
4.6706338733797
4.3642069756517
3.9204083026417
3.2021639730724
2.1520096642494
1.1429914320461
0.29522526182404
0.5675368965922
0.55362128865158
0.49548047802894
0.43546942820656
0.38723571195376
0.35036797021843
0.32139120617621
0.29728184402285
0.27631442588296
0.25763782228802
0.24083804685827
0.22583606874366
0.21275124284048
0.20160758026086
0.19236543480842
0.18490647088444
0.17904732226021
0.17456705128297
0.17123612440807
0.16883308481436
0.16715296920198
0.16603736373126
0.16536560738587
0.16505607390628
0.16503008686971
0.16524088569002
0.16565266839506
0.16619802579326
0.16682769564507
0.1674904308555
0.16814063956588
0.16875100655597
0.16931639487747
0.16985907105255
0.17041031587801
0.17099992572503
0.17163132459236
0.172275131296
0.17288921532544
0.17342952712694
0.17386693019514
0.17420371096918
0.17445967261843
0.17467195360288
0.17487819841204
0.17510273230882
0.17535029860799
0.17560246428781
0.17582691257352
0.17599533271181
0.17610962650315
0.17626718772908
0.17708713380671
0.18624801313351
)
;
    }
    wedge1
    {
        type            wedge;
    }
    wedge2
    {
        type            wedge;
    }
    defaultFaces
    {
        type            empty;
    }
}


// ************************************************************************* //
