/*--------------------------------*- C++ -*----------------------------------*\
| =========                 |                                                 |
| \\      /  F ield         | OpenFOAM: The Open Source CFD Toolbox           |
|  \\    /   O peration     | Version:  2312                                  |
|   \\  /    A nd           | Website:  www.openfoam.com                      |
|    \\/     M anipulation  |                                                 |
\*---------------------------------------------------------------------------*/
FoamFile
{
    version     2.0;
    format      ascii;
    arch        "LSB;label=32;scalar=64";
    class       volScalarField;
    location    "0.0002";
    object      cSound;
}
// * * * * * * * * * * * * * * * * * * * * * * * * * * * * * * * * * * * * * //

dimensions      [0 1 -1 0 0 0 0];

internalField   nonuniform List<scalar> 
800
(
1507.95
1507.95
1507.95
1507.95
1507.95
1507.95
1507.95
1507.95
1507.95
1507.95
1507.95
1507.95
1507.95
1507.95
1507.95
1507.95
1507.95
1507.95
1507.95
1507.95
1507.95
1507.95
1507.95
1507.95
1507.95
1507.95
1507.95
1507.95
1507.95
1507.95
1507.95
1507.95
1507.95
1507.95
1507.95
1507.95
1507.95
1507.95
1507.95
1507.95
1507.95
1507.95
1507.95
1507.95
1507.95
1507.95
1507.95
1507.95
1507.95
1507.95
1507.95
1507.95
1507.95
1507.95
1507.95
1507.95
1507.95
1507.95
1507.95
1507.95
1507.95
1507.95
1507.95
1507.95
1507.95
1507.95
1507.95
1507.95
1507.95
1507.95
1507.95
1507.95
1507.95
1507.95
1507.95
1507.95
1507.95
1507.95
1507.95
1507.95
1507.95
1507.95
1507.95
1507.95
1507.95
1507.95
1507.95
1507.95
1507.95
1507.95
1507.95
1507.95
1507.95
1507.95
1507.95
1507.95
1507.95
1507.95
1507.95
1507.95
1507.95
1507.95
1507.95
1507.95
1507.95
1507.95
1507.95
1507.95
1507.95
1507.95
1507.95
1507.95
1507.95
1507.95
1507.95
1507.95
1507.95
1507.95
1507.95
1507.95
1507.95
1507.95
1507.95
1507.95
1507.95
1507.95
1507.95
1507.95
1507.95
1507.95
1507.95
1507.95
1507.95
1507.95
1507.95
1507.95
1507.95
1507.95
1507.95
1507.94
1507.94
1507.93
1507.92
1507.91
1507.9
1507.89
1507.87
1507.85
1507.84
1507.8
1507.78
1507.72
1507.64
1507.6
1507.56
1507.47
1507.41
1507.3
1507.23
1507.08
1506.89
1506.81
1506.72
1506.53
1506.44
1506.35
1506.17
1506.08
1505.93
1505.86
1505.74
1505.69
1505.64
1505.55
1505.51
1505.44
1505.41
1505.35
1505.33
1505.31
1505.27
1505.26
1505.25
1505.23
1505.22
1505.21
1505.21
1505.21
1505.21
1505.2
1505.2
1505.2
1505.19
1505.19
1505.19
1505.19
1505.19
1505.19
1505.19
1505.19
1505.19
1505.19
1505.19
1505.18
1505.18
1505.18
1505.18
1505.18
1505.18
1505.18
1505.18
1505.18
1505.18
1505.18
1505.18
1505.18
1505.18
1505.19
1505.19
1505.19
1505.19
1505.19
1505.19
1505.19
1505.2
1505.2
1505.2
1505.2
1505.2
1505.2
1505.2
1505.2
1505.19
1505.19
1505.19
1505.18
1505.18
1505.18
1505.18
1505.18
1505.18
1505.18
1505.18
1505.18
1505.18
1505.18
1505.18
1505.18
1505.18
1505.19
1505.19
1505.19
1505.19
1505.19
1505.19
1505.19
1505.19
1505.19
1505.19
1505.19
1505.19
1505.19
1505.19
1505.19
1505.19
1505.19
1505.19
1505.19
1505.19
1505.19
1505.19
1505.19
1505.19
1505.19
1505.19
1505.19
1505.19
1505.19
1505.19
1505.19
1505.19
1505.19
1505.19
1505.19
1505.19
1505.19
1505.19
1505.19
1505.19
1505.19
1505.19
1505.19
1505.19
1505.19
1505.19
1505.19
1505.19
1505.19
1505.19
1505.19
1505.19
1505.19
1505.19
1505.19
1505.19
1505.19
1505.19
1505.19
1505.19
1505.19
1505.19
1505.19
1505.19
1505.19
1505.19
1505.19
1505.19
1505.19
1505.19
1505.19
1505.18
1505.18
1505.18
1505.18
1505.18
1505.18
1505.18
1505.18
1505.18
1505.18
1505.18
1505.19
1505.19
1505.19
1505.19
1505.19
1505.19
1505.19
1505.19
1505.19
1505.19
1505.19
1505.19
1505.19
1505.19
1505.19
1505.19
1505.19
1505.19
1505.19
1505.19
1505.19
1505.19
1505.19
1505.19
1505.19
1505.19
1505.19
1505.19
1505.19
1505.19
1505.19
1505.19
1505.2
1505.2
1505.21
1505.21
1505.22
1505.22
1505.23
1505.24
1505.25
1505.27
1505.28
1505.31
1505.32
1505.34
1505.38
1505.4
1505.46
1505.5
1505.54
1505.62
1505.68
1505.73
1505.83
1505.89
1505.94
1506.13
1506.32
1506.39
1506.46
1506.53
1506.74
1507.02
1507.18
1507.31
1507.44
1507.7
1507.84
1507.98
1508.11
1508.38
1508.51
1508.63
1508.86
1508.97
1509.08
1509.29
1509.39
1509.48
1509.66
1509.74
1509.9
1509.97
1510.03
1510.15
1510.21
1510.3
1510.35
1510.39
1510.45
1510.48
1510.53
1510.56
1510.6
1510.61
1510.63
1510.64
1510.66
1510.67
1510.68
1510.69
1510.69
1510.7
1510.7
1510.71
1510.71
1510.71
1510.71
1510.71
1510.71
1510.71
1510.72
1510.72
1510.72
1510.72
1510.72
1510.72
1510.72
1510.72
1510.72
1510.72
1510.72
1510.72
1510.72
1510.72
1510.72
1510.72
1510.72
1510.72
1510.72
1510.72
1510.72
1510.72
1510.72
1510.72
1510.72
1510.72
1510.72
1510.72
1510.72
1510.72
1510.72
1510.72
1510.72
1510.72
1510.72
1510.72
1510.72
1510.72
1510.72
1510.72
1510.72
1510.72
1510.72
1510.72
1510.72
1510.72
1510.72
1510.72
1510.72
1510.72
1510.72
1510.72
1510.72
1510.72
1510.72
1510.72
1510.71
1510.71
1510.71
1510.71
1510.71
1510.71
1510.71
1510.71
1510.71
1510.71
1510.71
1510.71
1510.72
1510.72
1510.72
1510.72
1510.72
1510.72
1510.72
1510.72
1510.72
1510.72
1510.72
1510.72
1510.72
1510.72
1510.72
1510.72
1510.72
1510.72
1510.72
1510.72
1510.72
1510.72
1510.72
1510.72
1510.72
1510.72
1510.72
1510.72
1510.72
1510.72
1510.72
1510.72
1510.72
1510.72
1510.72
1510.72
1510.72
1510.72
1510.72
1510.72
1510.72
1510.72
1510.72
1510.72
1510.72
1510.72
1510.72
1510.72
1510.72
1510.72
1510.72
1510.72
1510.72
1510.72
1510.72
1510.72
1510.72
1510.72
1510.72
1510.72
1510.72
1510.72
1510.72
1510.72
1510.72
1510.72
1510.72
1510.72
1510.72
1510.72
1510.72
1510.72
1510.72
1510.72
1510.72
1510.72
1510.72
1510.72
1510.72
1510.72
1510.72
1510.72
1510.71
1510.71
1510.71
1510.72
1510.72
1510.72
1510.72
1510.72
1510.72
1510.72
1510.72
1510.72
1510.72
1510.72
1510.72
1510.72
1510.72
1510.71
1510.71
1510.7
1510.7
1510.69
1510.69
1510.68
1510.67
1510.65
1510.64
1510.63
1510.61
1510.57
1510.55
1510.53
1510.5
1510.42
1510.38
1510.29
1510.19
1510.11
1510.04
1509.9
1509.82
1509.65
1509.55
1509.44
1509.26
1509.16
1508.97
1508.87
1508.71
1508.62
1508.55
1508.42
1508.37
1508.27
1508.23
1508.19
1508.13
1508.1
1508.08
1508.04
1508.03
1508.02
1508
1507.99
1507.98
1507.97
1507.97
1507.97
1507.96
1507.96
1507.96
1507.96
1507.96
1507.96
1507.96
1507.96
1507.96
1507.96
1507.96
1507.95
1507.95
1507.95
1507.95
1507.95
1507.95
1507.95
1507.95
1507.95
1507.95
1507.95
1507.95
1507.95
1507.95
1507.95
1507.95
1507.95
1507.95
1507.95
1507.95
1507.95
1507.95
1507.95
1507.95
1507.95
1507.95
1507.95
1507.95
1507.95
1507.95
1507.95
1507.95
1507.95
1507.95
1507.95
1507.95
1507.95
1507.95
1507.95
1507.95
1507.95
1507.95
1507.95
1507.95
1507.95
1507.95
1507.95
1507.95
1507.95
1507.95
1507.95
1507.95
1507.95
1507.95
1507.95
1507.95
1507.95
1507.95
1507.95
1507.95
1507.95
1507.95
1507.95
1507.95
1507.95
1507.95
1507.95
1507.95
1507.95
1507.95
1507.95
1507.95
1507.95
1507.95
1507.95
1507.95
1507.95
1507.95
1507.95
1507.95
1507.95
1507.95
1507.95
1507.95
1507.95
1507.95
1507.95
1507.95
1507.95
1507.95
1507.95
1507.95
1507.95
1507.95
1507.95
1507.95
1507.95
1507.95
1507.95
1507.95
1507.95
1507.95
1507.95
1507.95
1507.95
1507.95
1507.95
1507.95
1507.95
1507.95
1507.95
1507.95
1507.95
1507.95
1507.95
1507.95
1507.95
1507.95
1507.95
1507.95
1507.95
1507.95
1507.95
1507.95
1507.95
1507.95
1507.95
1507.95
)
;

boundaryField
{
    sides
    {
        type            calculated;
        value           nonuniform List<scalar> 2(1507.95 1507.95);
    }
    empty1
    {
        type            empty;
    }
    empty2
    {
        type            empty;
    }
}


// ************************************************************************* //
