/*--------------------------------*- C++ -*----------------------------------*\
| =========                 |                                                 |
| \\      /  F ield         | OpenFOAM: The Open Source CFD Toolbox           |
|  \\    /   O peration     | Version:  2312                                  |
|   \\  /    A nd           | Website:  www.openfoam.com                      |
|    \\/     M anipulation  |                                                 |
\*---------------------------------------------------------------------------*/
FoamFile
{
    version     2.0;
    format      ascii;
    arch        "LSB;label=32;scalar=64";
    class       volScalarField;
    location    "0.0002";
    object      p;
}
// * * * * * * * * * * * * * * * * * * * * * * * * * * * * * * * * * * * * * //

dimensions      [1 -1 -2 0 0 0 0];

internalField   nonuniform List<scalar> 
800
(
1e+07
1e+07
1e+07
1e+07
1e+07
1e+07
1e+07
1e+07
1e+07
1e+07
1e+07
1e+07
1e+07
1e+07
1e+07
1e+07
1e+07
1e+07
1e+07
1e+07
1e+07
1e+07
1e+07
1e+07
1e+07
1e+07
1e+07
1e+07
1e+07
1e+07
1e+07
1e+07
1e+07
1e+07
1e+07
1e+07
1e+07
1e+07
1e+07
1e+07
1e+07
1e+07
1e+07
1e+07
1e+07
1e+07
1e+07
1e+07
1e+07
1e+07
1e+07
1e+07
1e+07
1e+07
1e+07
1e+07
1e+07
1e+07
1e+07
1e+07
1e+07
1e+07
1e+07
1e+07
1e+07
1e+07
1e+07
1e+07
1e+07
1e+07
1e+07
1e+07
1e+07
1e+07
1e+07
1e+07
1e+07
1e+07
1e+07
1e+07
1e+07
1e+07
1e+07
1e+07
1e+07
1e+07
1e+07
1e+07
1e+07
1e+07
1e+07
1e+07
1e+07
1e+07
1e+07
1e+07
1e+07
1e+07
1e+07
1e+07
1e+07
1e+07
1e+07
1e+07
1e+07
1e+07
1e+07
1e+07
1e+07
1e+07
1e+07
1e+07
1e+07
1e+07
1e+07
1e+07
9.99999e+06
9.99999e+06
9.99998e+06
9.99998e+06
9.99997e+06
9.99995e+06
9.99993e+06
9.9999e+06
9.99985e+06
9.99978e+06
9.99969e+06
9.99955e+06
9.99937e+06
9.99911e+06
9.99875e+06
9.99825e+06
9.99758e+06
9.99666e+06
9.99543e+06
9.99378e+06
9.99157e+06
9.98867e+06
9.98486e+06
9.97987e+06
9.97344e+06
9.96516e+06
9.95459e+06
9.94124e+06
9.9245e+06
9.90363e+06
9.87773e+06
9.84616e+06
9.80773e+06
9.76127e+06
9.70609e+06
9.64049e+06
9.56365e+06
9.47465e+06
9.372e+06
9.25473e+06
9.12322e+06
8.97581e+06
8.81323e+06
8.63571e+06
8.44383e+06
8.23941e+06
8.02374e+06
7.80291e+06
7.5875e+06
7.37929e+06
7.17941e+06
6.99103e+06
6.81322e+06
6.64938e+06
6.4981e+06
6.36046e+06
6.23671e+06
6.1258e+06
6.02798e+06
5.94171e+06
5.86721e+06
5.80292e+06
5.74786e+06
5.70125e+06
5.66208e+06
5.6296e+06
5.60278e+06
5.58065e+06
5.56271e+06
5.54824e+06
5.53673e+06
5.52762e+06
5.52039e+06
5.51466e+06
5.51028e+06
5.50693e+06
5.50436e+06
5.50237e+06
5.50086e+06
5.49973e+06
5.49891e+06
5.49831e+06
5.49782e+06
5.49743e+06
5.49712e+06
5.49692e+06
5.49679e+06
5.49669e+06
5.49662e+06
5.49656e+06
5.49653e+06
5.49651e+06
5.49648e+06
5.49645e+06
5.49642e+06
5.49639e+06
5.49636e+06
5.49633e+06
5.4963e+06
5.49628e+06
5.49625e+06
5.49624e+06
5.49622e+06
5.4962e+06
5.49618e+06
5.49617e+06
5.49615e+06
5.49614e+06
5.49612e+06
5.49611e+06
5.4961e+06
5.49608e+06
5.49606e+06
5.49604e+06
5.49603e+06
5.49602e+06
5.496e+06
5.49599e+06
5.49598e+06
5.49598e+06
5.49597e+06
5.49597e+06
5.49596e+06
5.49595e+06
5.49594e+06
5.49592e+06
5.4959e+06
5.49588e+06
5.49586e+06
5.49584e+06
5.49583e+06
5.49582e+06
5.49581e+06
5.4958e+06
5.4958e+06
5.49579e+06
5.49578e+06
5.49578e+06
5.49577e+06
5.49577e+06
5.49576e+06
5.49575e+06
5.49575e+06
5.49575e+06
5.49575e+06
5.49574e+06
5.49574e+06
5.49574e+06
5.49573e+06
5.49572e+06
5.49572e+06
5.49571e+06
5.4957e+06
5.4957e+06
5.49569e+06
5.49568e+06
5.49567e+06
5.49566e+06
5.49565e+06
5.49565e+06
5.49564e+06
5.49563e+06
5.49562e+06
5.49562e+06
5.49561e+06
5.4956e+06
5.49559e+06
5.49559e+06
5.49558e+06
5.49558e+06
5.49558e+06
5.49557e+06
5.49557e+06
5.49557e+06
5.49557e+06
5.49557e+06
5.49557e+06
5.49557e+06
5.49557e+06
5.49557e+06
5.49557e+06
5.49557e+06
5.49557e+06
5.49557e+06
5.49557e+06
5.49557e+06
5.49556e+06
5.49556e+06
5.49556e+06
5.49555e+06
5.49555e+06
5.49554e+06
5.49553e+06
5.49553e+06
5.49552e+06
5.49551e+06
5.49551e+06
5.4955e+06
5.4955e+06
5.49549e+06
5.49549e+06
5.49548e+06
5.49548e+06
5.49547e+06
5.49547e+06
5.49547e+06
5.49546e+06
5.49546e+06
5.49546e+06
5.49545e+06
5.49544e+06
5.49544e+06
5.49543e+06
5.49542e+06
5.49541e+06
5.4954e+06
5.49539e+06
5.49538e+06
5.49537e+06
5.49537e+06
5.49536e+06
5.49536e+06
5.49536e+06
5.49536e+06
5.49536e+06
5.49537e+06
5.49537e+06
5.49537e+06
5.49538e+06
5.49538e+06
5.49538e+06
5.49538e+06
5.49538e+06
5.49537e+06
5.49537e+06
5.49537e+06
5.49537e+06
5.49537e+06
5.49536e+06
5.49536e+06
5.49536e+06
5.49536e+06
5.49536e+06
5.49536e+06
5.49536e+06
5.49536e+06
5.49536e+06
5.49536e+06
5.49536e+06
5.49536e+06
5.49535e+06
5.49536e+06
5.49535e+06
5.49533e+06
5.49534e+06
5.49532e+06
5.49533e+06
5.4953e+06
5.49532e+06
5.4953e+06
5.49526e+06
5.4953e+06
5.49525e+06
5.49533e+06
5.49532e+06
5.49529e+06
5.49541e+06
5.49532e+06
5.49523e+06
5.49538e+06
5.49529e+06
5.49519e+06
5.49523e+06
5.49525e+06
5.49519e+06
5.49522e+06
5.49524e+06
5.49537e+06
5.49555e+06
5.49523e+06
5.49528e+06
5.49514e+06
5.4955e+06
5.49528e+06
5.49521e+06
5.49501e+06
5.49539e+06
5.49518e+06
5.49499e+06
5.49536e+06
5.49521e+06
5.49507e+06
5.49539e+06
5.49524e+06
5.49511e+06
5.49534e+06
5.49512e+06
5.49531e+06
5.49519e+06
5.4951e+06
5.49525e+06
5.4951e+06
5.49524e+06
5.49517e+06
5.49513e+06
5.49522e+06
5.49514e+06
5.4952e+06
5.49514e+06
5.49518e+06
5.49516e+06
5.49515e+06
5.49513e+06
5.49515e+06
5.49513e+06
5.49514e+06
5.49513e+06
5.49512e+06
5.49513e+06
5.49512e+06
5.49513e+06
5.49512e+06
5.49512e+06
5.49512e+06
5.49512e+06
5.49511e+06
5.49511e+06
5.49511e+06
5.4951e+06
5.4951e+06
5.4951e+06
5.4951e+06
5.4951e+06
5.4951e+06
5.4951e+06
5.4951e+06
5.4951e+06
5.4951e+06
5.4951e+06
5.4951e+06
5.4951e+06
5.4951e+06
5.4951e+06
5.4951e+06
5.4951e+06
5.4951e+06
5.49509e+06
5.49509e+06
5.49509e+06
5.49509e+06
5.49509e+06
5.49509e+06
5.49509e+06
5.49509e+06
5.49509e+06
5.49508e+06
5.49508e+06
5.49507e+06
5.49507e+06
5.49506e+06
5.49505e+06
5.49504e+06
5.49503e+06
5.49503e+06
5.49502e+06
5.49501e+06
5.495e+06
5.495e+06
5.49499e+06
5.49498e+06
5.49497e+06
5.49497e+06
5.49496e+06
5.49495e+06
5.49494e+06
5.49493e+06
5.49493e+06
5.49492e+06
5.49491e+06
5.49491e+06
5.49491e+06
5.4949e+06
5.4949e+06
5.4949e+06
5.49489e+06
5.49489e+06
5.49488e+06
5.49488e+06
5.49488e+06
5.49488e+06
5.49488e+06
5.49487e+06
5.49488e+06
5.49488e+06
5.49488e+06
5.49488e+06
5.49488e+06
5.49488e+06
5.49487e+06
5.49487e+06
5.49487e+06
5.49486e+06
5.49486e+06
5.49485e+06
5.49485e+06
5.49485e+06
5.49485e+06
5.49484e+06
5.49484e+06
5.49484e+06
5.49483e+06
5.49483e+06
5.49482e+06
5.49481e+06
5.4948e+06
5.49479e+06
5.49479e+06
5.49478e+06
5.49477e+06
5.49476e+06
5.49475e+06
5.49474e+06
5.49472e+06
5.49471e+06
5.4947e+06
5.4947e+06
5.49469e+06
5.49468e+06
5.49467e+06
5.49467e+06
5.49466e+06
5.49465e+06
5.49464e+06
5.49463e+06
5.49462e+06
5.4946e+06
5.49459e+06
5.49458e+06
5.49457e+06
5.49456e+06
5.49454e+06
5.49453e+06
5.49452e+06
5.4945e+06
5.49449e+06
5.49448e+06
5.49446e+06
5.49445e+06
5.49445e+06
5.49444e+06
5.49444e+06
5.49444e+06
5.49444e+06
5.49443e+06
5.49442e+06
5.49442e+06
5.49441e+06
5.49439e+06
5.49438e+06
5.49436e+06
5.49434e+06
5.49432e+06
5.4943e+06
5.49428e+06
5.49426e+06
5.49425e+06
5.49423e+06
5.49422e+06
5.49421e+06
5.49419e+06
5.49415e+06
5.49412e+06
5.49408e+06
5.49405e+06
5.49403e+06
5.49401e+06
5.49397e+06
5.49392e+06
5.49386e+06
5.4938e+06
5.49374e+06
5.49366e+06
5.49356e+06
5.49342e+06
5.49326e+06
5.49305e+06
5.49275e+06
5.49232e+06
5.49173e+06
5.49098e+06
5.49001e+06
5.4887e+06
5.4869e+06
5.48454e+06
5.48149e+06
5.47753e+06
5.47239e+06
5.46572e+06
5.45717e+06
5.44645e+06
5.4329e+06
5.41593e+06
5.39481e+06
5.36889e+06
5.33715e+06
5.29882e+06
5.25272e+06
5.19779e+06
5.13292e+06
5.05709e+06
4.96887e+06
4.86765e+06
4.75199e+06
4.62155e+06
4.47599e+06
4.31466e+06
4.13809e+06
3.94738e+06
3.74239e+06
3.52601e+06
3.2998e+06
3.06499e+06
2.82977e+06
2.60575e+06
2.39701e+06
2.20463e+06
2.03001e+06
1.87338e+06
1.73436e+06
1.6126e+06
1.5069e+06
1.41621e+06
1.33916e+06
1.27426e+06
1.22016e+06
1.17547e+06
1.13883e+06
1.10908e+06
1.08512e+06
1.06596e+06
1.05078e+06
1.03883e+06
1.0295e+06
1.02227e+06
1.0167e+06
1.01245e+06
1.00922e+06
1.00679e+06
1.00497e+06
1.00361e+06
1.00261e+06
1.00188e+06
1.00134e+06
1.00096e+06
1.00068e+06
1.00047e+06
1.00033e+06
1.00023e+06
1.00016e+06
1.00011e+06
1.00008e+06
1.00005e+06
1.00003e+06
1.00002e+06
1.00002e+06
1.00001e+06
1.00001e+06
1e+06
1e+06
1e+06
1e+06
1e+06
1e+06
1e+06
1e+06
1e+06
1e+06
1e+06
1e+06
1e+06
1e+06
1e+06
1e+06
1e+06
1e+06
1e+06
1e+06
1e+06
1e+06
1e+06
1e+06
1e+06
1e+06
1e+06
1e+06
1e+06
1e+06
1e+06
1e+06
1e+06
1e+06
1e+06
1e+06
1e+06
1e+06
1e+06
1e+06
1e+06
1e+06
1e+06
1e+06
1e+06
1e+06
1e+06
1e+06
1e+06
1e+06
1e+06
1e+06
1e+06
1e+06
1e+06
1e+06
1e+06
1e+06
1e+06
1e+06
1e+06
1e+06
1e+06
1e+06
1e+06
1e+06
1e+06
1e+06
1e+06
1e+06
1e+06
1e+06
1e+06
1e+06
1e+06
1e+06
1e+06
1e+06
1e+06
1e+06
1e+06
1e+06
1e+06
1e+06
1e+06
1e+06
1e+06
1e+06
1e+06
1e+06
1e+06
1e+06
1e+06
1e+06
1e+06
1e+06
1e+06
1e+06
1e+06
1e+06
1e+06
1e+06
1e+06
1e+06
1e+06
1e+06
1e+06
1e+06
1e+06
1e+06
1e+06
1e+06
1e+06
1e+06
1e+06
1e+06
1e+06
)
;

boundaryField
{
    sides
    {
        type            zeroGradient;
    }
    empty1
    {
        type            empty;
    }
    empty2
    {
        type            empty;
    }
}


// ************************************************************************* //
