/*--------------------------------*- C++ -*----------------------------------*\
| =========                 |                                                 |
| \\      /  F ield         | OpenFOAM: The Open Source CFD Toolbox           |
|  \\    /   O peration     | Version:  2312                                  |
|   \\  /    A nd           | Website:  www.openfoam.com                      |
|    \\/     M anipulation  |                                                 |
\*---------------------------------------------------------------------------*/
FoamFile
{
    version     2.0;
    format      ascii;
    arch        "LSB;label=32;scalar=64";
    class       surfaceScalarField;
    location    "0.0002";
    object      phi;
}
// * * * * * * * * * * * * * * * * * * * * * * * * * * * * * * * * * * * * * //

dimensions      [1 0 -1 0 0 0 0];

oriented        oriented;

internalField   nonuniform List<scalar> 
799
(
5.68434e-14
-3.97904e-13
0
1.19371e-12
1.53477e-12
1.25056e-12
1.19371e-12
2.10321e-12
2.27374e-13
-1.02318e-12
-1.7053e-12
-3.75167e-12
-1.47793e-12
-3.97904e-13
1.08002e-12
2.89901e-12
2.6148e-12
1.36424e-12
2.55795e-12
4.94538e-12
4.37694e-12
3.29692e-12
2.78533e-12
9.09495e-13
7.38964e-13
3.97904e-13
5.68434e-14
9.09495e-13
1.87583e-12
3.06954e-12
5.74119e-12
5.51381e-12
4.37694e-12
4.03588e-12
5.28644e-12
6.30962e-12
6.99174e-12
7.90124e-12
7.61702e-12
9.49285e-12
9.83391e-12
4.83169e-12
1.42109e-12
1.47793e-12
1.98952e-12
2.33058e-12
3.29692e-12
3.75167e-12
1.81899e-12
2.21689e-12
9.09495e-13
9.66338e-13
2.27374e-12
3.52429e-12
3.97904e-12
4.54747e-12
4.20641e-12
3.29692e-12
5.57066e-12
5.79803e-12
5.34328e-12
4.60432e-12
3.58114e-12
2.27374e-12
1.81899e-12
1.7053e-12
1.08002e-12
1.93268e-12
2.21689e-12
1.08002e-12
1.08002e-12
2.27374e-13
-1.42109e-12
-2.44427e-12
-5.00222e-12
-4.3201e-12
-3.75167e-12
-2.21689e-12
-1.87583e-12
-3.06954e-12
-3.80851e-12
-4.09273e-12
-1.64846e-12
-1.98952e-12
-6.25278e-13
1.81899e-12
1.76215e-12
2.89901e-12
5.51381e-12
1.16529e-11
1.83604e-11
2.72848e-11
4.41673e-11
6.24141e-11
9.05516e-11
1.45178e-10
2.36582e-10
3.92788e-10
6.57906e-10
1.09134e-09
1.79887e-09
2.94523e-09
4.77991e-09
7.68699e-09
1.22841e-08
1.95047e-08
3.0807e-08
4.83768e-08
7.56216e-08
1.17637e-07
1.82159e-07
2.80818e-07
4.30838e-07
6.57894e-07
9.99833e-07
1.51228e-06
2.27619e-06
3.40926e-06
5.07987e-06
7.53107e-06
1.11125e-05
1.63113e-05
2.38066e-05
3.45729e-05
4.99548e-05
7.17862e-05
0.000102599
0.000145834
0.000206147
0.00028977
0.000405023
0.000562847
0.000777603
0.00106791
0.00145792
0.0019787
0.0026687
0.00357697
0.00476509
0.00630771
0.00829643
0.0108429
0.0140707
0.0181353
0.0232197
0.029534
0.0372969
0.0467635
0.0582197
0.071958
0.0882846
0.107503
0.129911
0.15582
0.185495
0.219109
0.256821
0.298723
0.344697
0.394633
0.448183
0.505012
0.564466
0.623927
0.681506
0.736884
0.789619
0.839265
0.885547
0.928288
0.967332
1.00266
1.03436
1.06251
1.08727
1.10888
1.12759
1.14363
1.15722
1.16867
1.17827
1.18622
1.19275
1.19805
1.20234
1.20579
1.20855
1.21073
1.21242
1.21374
1.21477
1.21556
1.21616
1.21661
1.21695
1.21721
1.21741
1.21755
1.21764
1.21771
1.21776
1.2178
1.21784
1.21786
1.21788
1.2179
1.21792
1.21793
1.21794
1.21795
1.21796
1.21796
1.21797
1.21797
1.21798
1.21798
1.21799
1.218
1.218
1.21801
1.21802
1.21802
1.21803
1.21804
1.21804
1.21805
1.21805
1.21805
1.21805
1.21805
1.21805
1.21805
1.21806
1.21806
1.21806
1.21806
1.21807
1.21807
1.21807
1.21808
1.21808
1.21808
1.21808
1.21808
1.21808
1.21808
1.21808
1.21808
1.21809
1.21809
1.21809
1.2181
1.2181
1.2181
1.2181
1.21811
1.21811
1.21811
1.21811
1.21812
1.21812
1.21812
1.21812
1.21812
1.21812
1.21812
1.21812
1.21812
1.21812
1.21812
1.21812
1.21812
1.21812
1.21812
1.21812
1.21812
1.21813
1.21813
1.21813
1.21813
1.21814
1.21814
1.21814
1.21815
1.21815
1.21815
1.21815
1.21815
1.21815
1.21816
1.21816
1.21816
1.21816
1.21816
1.21816
1.21816
1.21816
1.21816
1.21816
1.21816
1.21816
1.21816
1.21816
1.21816
1.21816
1.21816
1.21816
1.21816
1.21816
1.21816
1.21816
1.21816
1.21816
1.21816
1.21816
1.21816
1.21816
1.21816
1.21816
1.21817
1.21817
1.21817
1.21817
1.21817
1.21817
1.21818
1.21818
1.21818
1.21818
1.21818
1.21818
1.21818
1.21818
1.21818
1.21818
1.21818
1.21818
1.21818
1.21818
1.21818
1.21817
1.21817
1.21817
1.21817
1.21817
1.21817
1.21818
1.21818
1.21818
1.21818
1.21818
1.21818
1.21818
1.21818
1.21818
1.21818
1.21818
1.21818
1.21818
1.21818
1.21818
1.21818
1.21818
1.21818
1.21818
1.21818
1.21819
1.21819
1.21819
1.21819
1.21819
1.2182
1.2182
1.2182
1.2182
1.21821
1.21821
1.21821
1.2182
1.2182
1.2182
1.21821
1.21822
1.21822
1.21822
1.21823
1.21824
1.21826
1.21827
1.21828
1.21827
1.21826
1.21823
1.21824
1.21829
1.21828
1.21831
1.21833
1.21833
1.21831
1.2183
1.21829
1.21828
1.21827
1.21827
1.21826
1.21826
1.21826
1.21826
1.21826
1.21825
1.21824
1.21824
1.21823
1.21822
1.21821
1.2182
1.2182
1.21819
1.21819
1.21819
1.21818
1.21818
1.21818
1.21817
1.21817
1.21817
1.21817
1.21816
1.21816
1.21816
1.21816
1.21816
1.21815
1.21815
1.21815
1.21815
1.21815
1.21815
1.21815
1.21815
1.21815
1.21815
1.21815
1.21815
1.21815
1.21815
1.21815
1.21815
1.21815
1.21815
1.21815
1.21815
1.21815
1.21816
1.21816
1.21816
1.21816
1.21816
1.21816
1.21816
1.21816
1.21816
1.21816
1.21816
1.21816
1.21816
1.21816
1.21816
1.21815
1.21815
1.21815
1.21815
1.21815
1.21815
1.21815
1.21815
1.21815
1.21814
1.21814
1.21814
1.21814
1.21813
1.21813
1.21813
1.21813
1.21813
1.21813
1.21813
1.21813
1.21812
1.21812
1.21812
1.21812
1.21812
1.21812
1.21812
1.21812
1.21812
1.21812
1.21812
1.21812
1.21812
1.21812
1.21812
1.21812
1.21812
1.21812
1.21812
1.21812
1.21811
1.21811
1.21811
1.21811
1.21811
1.21811
1.21811
1.21811
1.21811
1.21811
1.21811
1.21811
1.21811
1.21811
1.21811
1.21811
1.2181
1.2181
1.2181
1.2181
1.2181
1.21809
1.21809
1.21809
1.21808
1.21808
1.21808
1.21808
1.21808
1.21808
1.21808
1.21807
1.21807
1.21807
1.21807
1.21807
1.21806
1.21806
1.21806
1.21806
1.21806
1.21806
1.21805
1.21805
1.21805
1.21804
1.21804
1.21804
1.21803
1.21803
1.21803
1.21803
1.21802
1.21802
1.21802
1.21801
1.21801
1.21801
1.218
1.218
1.21799
1.21799
1.21799
1.21799
1.21798
1.21798
1.21798
1.21798
1.21798
1.21797
1.21797
1.21796
1.21796
1.21795
1.21794
1.21794
1.21793
1.21793
1.21793
1.21792
1.2179
1.21789
1.21788
1.21787
1.21786
1.21785
1.21782
1.2178
1.21777
1.21773
1.21767
1.21759
1.2175
1.21738
1.21722
1.21699
1.21668
1.21628
1.21575
1.21505
1.21412
1.21291
1.21135
1.20936
1.2068
1.20356
1.19949
1.19444
1.18819
1.18052
1.17117
1.15988
1.14636
1.13031
1.11139
1.08931
1.06378
1.03453
1.00132
0.963998
0.922428
0.876669
0.826771
0.773013
0.715752
0.655441
0.592569
0.528063
0.46572
0.407076
0.352708
0.302978
0.258067
0.217993
0.182644
0.151805
0.125183
0.102436
0.0831884
0.0670552
0.0536568
0.0426272
0.0336253
0.0263403
0.0204923
0.0158349
0.0121549
0.00926886
0.00702235
0.00528646
0.00395462
0.00293991
0.0021722
0.00159528
0.00116455
0.000845083
0.000609688
0.00043733
0.000311909
0.000221205
0.000156006
0.00010942
7.63266e-05
5.29549e-05
3.65447e-05
2.50869e-05
1.7132e-05
1.16395e-05
7.86759e-06
5.29116e-06
3.54061e-06
2.35734e-06
1.56179e-06
1.02967e-06
6.75529e-07
4.41043e-07
2.86626e-07
1.85399e-07
1.1933e-07
7.63947e-08
4.86681e-08
3.08702e-08
1.95122e-08
1.2237e-08
7.66647e-09
4.7749e-09
2.91351e-09
1.83525e-09
1.20741e-09
7.91488e-10
5.53257e-10
4.0103e-10
2.77112e-10
1.99009e-10
1.39607e-10
8.60609e-11
3.45608e-11
2.67733e-11
1.79625e-11
1.11982e-11
-1.64277e-11
-3.00133e-11
-1.64846e-11
-4.26326e-12
-2.77396e-11
-4.55316e-11
-6.04246e-11
-7.19638e-11
-5.42855e-11
-3.5584e-11
-1.3074e-11
-1.03455e-11
-1.00044e-11
-1.56888e-11
-2.04068e-11
-1.83036e-11
-1.57456e-11
-8.07177e-12
1.76783e-11
1.23919e-11
1.10276e-11
3.63798e-12
-3.80851e-12
-6.76437e-12
1.98952e-12
4.88853e-12
5.17275e-12
5.17275e-12
3.46745e-12
1.02318e-11
4.3201e-12
-1.72804e-11
-3.08091e-11
-3.78009e-11
-4.61e-11
-4.67253e-11
-5.47402e-11
-4.30873e-11
-5.0477e-11
-5.18412e-11
-5.77529e-11
-5.75824e-11
-6.38352e-11
-6.92353e-11
-7.38964e-11
-9.04379e-11
-8.60041e-11
-7.21911e-11
-4.71232e-11
-2.49543e-11
-7.21911e-12
3.75167e-12
6.42331e-12
9.49285e-12
5.22959e-12
-4.37694e-12
-5.74119e-12
-1.01181e-11
-9.20863e-12
-8.58336e-12
1.02318e-12
1.59162e-12
1.14255e-11
2.49543e-11
4.96811e-11
5.74119e-11
5.50813e-11
6.01972e-11
6.99174e-11
6.23004e-11
6.53131e-11
7.29869e-11
9.39622e-11
9.37348e-11
6.28688e-11
5.30918e-11
4.54179e-11
5.67866e-11
5.87761e-11
7.14522e-11
6.4631e-11
6.21867e-11
5.61045e-11
2.85922e-11
1.17097e-11
1.08002e-12
2.78533e-12
2.78533e-12
-1.18803e-11
)
;

boundaryField
{
    sides
    {
        type            calculated;
        value           uniform 0;
    }
    empty1
    {
        type            empty;
        value           nonuniform List<scalar> 0();
    }
    empty2
    {
        type            empty;
        value           nonuniform List<scalar> 0();
    }
}


// ************************************************************************* //
