/*--------------------------------*- C++ -*----------------------------------*\
| =========                 |                                                 |
| \\      /  F ield         | OpenFOAM: The Open Source CFD Toolbox           |
|  \\    /   O peration     | Version:  2312                                  |
|   \\  /    A nd           | Website:  www.openfoam.com                      |
|    \\/     M anipulation  |                                                 |
\*---------------------------------------------------------------------------*/
FoamFile
{
    version     2.0;
    format      ascii;
    arch        "LSB;label=32;scalar=64";
    class       volScalarField;
    location    "0.0002";
    object      T;
}
// * * * * * * * * * * * * * * * * * * * * * * * * * * * * * * * * * * * * * //

dimensions      [0 0 0 1 0 0 0];

internalField   nonuniform List<scalar> 
800
(
293
293
293
293
293
293
293
293
293
293
293
293
293
293
293
293
293
293
293
293
293
293
293
293
293
293
293
293
293
293
293
293
293
293
293
293
293
293
293
293
293
293
293
293
293
293
293
293
293
293
293
293
293
293
293
293
293
293
293
293
293
293
293
293
293
293
293
293
293
293
293
293
293
293
293
293
293
293
293
293
293
293
293
293
293
293
293
293
293
293
293
293
293
293
293
293
293
293
293
293
293
293
293
293
293
293
293
293
293
293
293
293
293
293
293
293
293
293
293
293
293
293
293
293
293
293
293
293
293
293
293
293
292.999
292.999
292.999
292.998
292.998
292.997
292.996
292.995
292.994
292.991
292.987
292.984
292.98
292.976
292.967
292.961
292.954
292.939
292.931
292.908
292.878
292.864
292.847
292.81
292.788
292.745
292.72
292.662
292.586
292.555
292.52
292.448
292.412
292.375
292.305
292.273
292.214
292.188
292.14
292.12
292.102
292.067
292.052
292.024
292.012
291.99
291.981
291.973
291.959
291.954
291.949
291.943
291.94
291.936
291.934
291.933
291.933
291.932
291.931
291.929
291.928
291.927
291.926
291.926
291.927
291.927
291.927
291.926
291.926
291.925
291.925
291.924
291.924
291.923
291.923
291.923
291.923
291.923
291.923
291.923
291.923
291.923
291.924
291.924
291.924
291.925
291.925
291.926
291.926
291.927
291.927
291.928
291.929
291.929
291.93
291.93
291.93
291.929
291.929
291.929
291.927
291.926
291.925
291.924
291.924
291.923
291.923
291.923
291.923
291.923
291.923
291.924
291.924
291.924
291.924
291.924
291.925
291.925
291.925
291.925
291.925
291.926
291.926
291.926
291.926
291.926
291.926
291.926
291.926
291.926
291.926
291.926
291.926
291.926
291.926
291.926
291.926
291.925
291.925
291.925
291.925
291.925
291.925
291.925
291.925
291.925
291.925
291.925
291.925
291.925
291.925
291.925
291.925
291.925
291.925
291.925
291.925
291.925
291.925
291.925
291.925
291.925
291.925
291.925
291.925
291.925
291.925
291.925
291.925
291.925
291.925
291.926
291.926
291.926
291.926
291.926
291.926
291.926
291.926
291.926
291.926
291.926
291.925
291.925
291.925
291.925
291.925
291.925
291.925
291.924
291.924
291.924
291.924
291.924
291.924
291.924
291.924
291.925
291.925
291.925
291.925
291.925
291.925
291.925
291.925
291.926
291.926
291.926
291.926
291.926
291.926
291.926
291.926
291.926
291.926
291.926
291.926
291.926
291.926
291.926
291.926
291.926
291.926
291.926
291.926
291.927
291.927
291.927
291.927
291.928
291.928
291.93
291.932
291.933
291.934
291.937
291.939
291.941
291.946
291.949
291.957
291.961
291.972
291.978
291.985
292.001
292.01
292.031
292.048
292.061
292.094
292.115
292.135
292.176
292.197
292.22
292.29
292.365
292.392
292.42
292.448
292.526
292.636
292.697
292.751
292.799
292.901
292.954
293.008
293.062
293.166
293.215
293.263
293.353
293.396
293.438
293.519
293.558
293.595
293.663
293.695
293.755
293.783
293.808
293.855
293.876
293.914
293.93
293.945
293.972
293.983
294.004
294.012
294.027
294.034
294.04
294.044
294.052
294.055
294.061
294.063
294.065
294.067
294.068
294.07
294.071
294.072
294.072
294.073
294.073
294.074
294.074
294.074
294.074
294.074
294.074
294.074
294.074
294.074
294.074
294.074
294.074
294.075
294.075
294.075
294.075
294.075
294.075
294.075
294.075
294.075
294.075
294.075
294.075
294.075
294.075
294.075
294.075
294.075
294.076
294.076
294.075
294.075
294.075
294.075
294.075
294.075
294.075
294.075
294.075
294.075
294.075
294.075
294.075
294.075
294.075
294.075
294.074
294.074
294.074
294.074
294.074
294.074
294.074
294.074
294.074
294.074
294.074
294.074
294.073
294.073
294.073
294.073
294.073
294.073
294.073
294.073
294.073
294.073
294.074
294.074
294.074
294.074
294.075
294.075
294.075
294.075
294.075
294.076
294.076
294.076
294.076
294.076
294.076
294.076
294.076
294.076
294.076
294.076
294.076
294.076
294.076
294.076
294.076
294.076
294.075
294.075
294.075
294.075
294.075
294.075
294.075
294.075
294.075
294.075
294.075
294.075
294.075
294.075
294.075
294.075
294.075
294.075
294.074
294.074
294.074
294.074
294.074
294.074
294.074
294.074
294.074
294.074
294.074
294.074
294.074
294.074
294.074
294.074
294.074
294.074
294.074
294.074
294.074
294.074
294.074
294.074
294.074
294.074
294.075
294.075
294.075
294.075
294.075
294.075
294.075
294.074
294.074
294.074
294.074
294.074
294.074
294.073
294.073
294.074
294.074
294.075
294.075
294.075
294.076
294.076
294.076
294.076
294.075
294.075
294.075
294.074
294.074
294.073
294.07
294.069
294.068
294.065
294.064
294.06
294.057
294.049
294.044
294.039
294.033
294.018
294.01
294.001
293.99
293.96
293.945
293.91
293.868
293.837
293.812
293.755
293.725
293.66
293.62
293.578
293.509
293.468
293.393
293.358
293.292
293.26
293.232
293.183
293.161
293.124
293.107
293.092
293.068
293.057
293.048
293.034
293.029
293.024
293.016
293.013
293.011
293.007
293.006
293.005
293.003
293.003
293.002
293.001
293.001
293.001
293.001
293
293
293
293
293
293
293
293
293
293
293
293
293
293
293
293
293
293
293
293
293
293
293
293
293
293
293
293
293
293
293
293
293
293
293
293
293
293
293
293
293
293
293
293
293
293
293
293
293
293
293
293
293
293
293
293
293
293
293
293
293
293
293
293
293
293
293
293
293
293
293
293
293
293
293
293
293
293
293
293
293
293
293
293
293
293
293
293
293
293
293
293
293
293
293
293
293
293
293
293
293
293
293
293
293
293
293
293
293
293
293
293
293
293
293
293
293
293
293
293
293
293
293
293
293
293
293
293
293
293
293
293
)
;

boundaryField
{
    sides
    {
        type            zeroGradient;
    }
    empty1
    {
        type            empty;
    }
    empty2
    {
        type            empty;
    }
}


// ************************************************************************* //
