/*--------------------------------*- C++ -*----------------------------------*\
| =========                 |                                                 |
| \\      /  F ield         | OpenFOAM: The Open Source CFD Toolbox           |
|  \\    /   O peration     | Version:  2312                                  |
|   \\  /    A nd           | Website:  www.openfoam.com                      |
|    \\/     M anipulation  |                                                 |
\*---------------------------------------------------------------------------*/
FoamFile
{
    version     2.0;
    format      ascii;
    arch        "LSB;label=32;scalar=64";
    class       volVectorField;
    location    "0.0002";
    object      U;
}
// * * * * * * * * * * * * * * * * * * * * * * * * * * * * * * * * * * * * * //

dimensions      [0 1 -1 0 0 0 0];

internalField   nonuniform List<vector> 
800
(
(-9.20603e-11 0 0)
(-3.91767e-11 0 0)
(3.36226e-11 0 0)
(2.05022e-11 0 0)
(-2.97778e-11 0 0)
(-6.73664e-12 0 0)
(2.41618e-11 0 0)
(1.62389e-11 0 0)
(9.60674e-12 0 0)
(-8.4439e-12 0 0)
(3.16513e-12 0 0)
(-5.10788e-12 0 0)
(-3.02413e-11 0 0)
(1.09624e-11 0 0)
(-1.48212e-11 0 0)
(9.19906e-12 0 0)
(2.4836e-11 0 0)
(-4.65418e-12 0 0)
(-1.00127e-11 0 0)
(1.4551e-11 0 0)
(4.4094e-11 0 0)
(-5.31448e-12 0 0)
(-3.38933e-12 0 0)
(3.35873e-13 0 0)
(1.89824e-11 0 0)
(1.80048e-11 0 0)
(-4.31284e-11 0 0)
(-9.9545e-12 0 0)
(4.55588e-11 0 0)
(7.24085e-12 0 0)
(-2.02673e-11 0 0)
(4.89821e-11 0 0)
(5.50331e-11 0 0)
(-2.81002e-11 0 0)
(-1.87082e-11 0 0)
(5.58241e-11 0 0)
(5.77114e-11 0 0)
(-9.12523e-12 0 0)
(-4.42e-12 0 0)
(2.79279e-11 0 0)
(3.86703e-11 0 0)
(1.83235e-11 0 0)
(1.77672e-12 0 0)
(-3.69315e-12 0 0)
(1.71365e-11 0 0)
(-2.51497e-12 0 0)
(1.28097e-11 0 0)
(4.30358e-11 0 0)
(-3.10543e-11 0 0)
(-1.48723e-11 0 0)
(1.87165e-11 0 0)
(8.94119e-12 0 0)
(-6.03439e-12 0 0)
(8.91619e-12 0 0)
(3.04239e-11 0 0)
(-1.1732e-11 0 0)
(-1.92865e-12 0 0)
(1.58228e-11 0 0)
(3.3879e-11 0 0)
(2.06171e-11 0 0)
(-7.32693e-12 0 0)
(-9.32072e-12 0 0)
(-1.30678e-12 0 0)
(1.59534e-11 0 0)
(1.83545e-11 0 0)
(2.63616e-11 0 0)
(-1.50256e-11 0 0)
(-1.52752e-11 0 0)
(3.62339e-11 0 0)
(1.86013e-11 0 0)
(-1.00064e-11 0 0)
(-7.95314e-12 0 0)
(-2.22013e-12 0 0)
(1.15678e-11 0 0)
(-1.80476e-11 0 0)
(-4.43889e-11 0 0)
(1.942e-11 0 0)
(1.81258e-11 0 0)
(-3.64781e-11 0 0)
(-1.34361e-11 0 0)
(2.72347e-12 0 0)
(1.95431e-12 0 0)
(-1.71896e-12 0 0)
(-1.86629e-11 0 0)
(2.00841e-13 0 0)
(5.98021e-12 0 0)
(-2.10587e-12 0 0)
(1.71569e-11 0 0)
(-5.59306e-12 0 0)
(-1.62734e-12 0 0)
(2.32364e-11 0 0)
(2.95393e-11 0 0)
(1.1606e-10 0 0)
(1.59184e-10 0 0)
(1.44901e-10 0 0)
(2.61833e-10 0 0)
(4.50198e-10 0 0)
(7.10389e-10 0 0)
(1.23244e-09 0 0)
(1.95818e-09 0 0)
(3.46456e-09 0 0)
(5.56483e-09 0 0)
(8.9912e-09 0 0)
(1.47103e-08 0 0)
(2.35049e-08 0 0)
(3.76633e-08 0 0)
(5.93647e-08 0 0)
(9.3708e-08 0 0)
(1.46685e-07 0 0)
(2.29287e-07 0 0)
(3.5553e-07 0 0)
(5.50005e-07 0 0)
(8.46785e-07 0 0)
(1.2958e-06 0 0)
(1.97675e-06 0 0)
(2.99676e-06 0 0)
(4.52723e-06 0 0)
(6.79711e-06 0 0)
(1.01661e-05 0 0)
(1.51063e-05 0 0)
(2.23623e-05 0 0)
(3.29487e-05 0 0)
(4.8238e-05 0 0)
(7.02355e-05 0 0)
(0.000101859 0 0)
(0.000146917 0 0)
(0.000210527 0 0)
(0.00030044 0 0)
(0.000425859 0 0)
(0.000600988 0 0)
(0.00084239 0 0)
(0.0011754 0 0)
(0.0016287 0 0)
(0.00224604 0 0)
(0.00307452 0 0)
(0.00418921 0 0)
(0.00567374 0 0)
(0.00762528 0 0)
(0.0101999 0 0)
(0.013557 0 0)
(0.0178853 0 0)
(0.0234727 0 0)
(0.0305817 0 0)
(0.0395625 0 0)
(0.0508458 0 0)
(0.0649384 0 0)
(0.0823764 0 0)
(0.103629 0 0)
(0.129581 0 0)
(0.160877 0 0)
(0.198094 0 0)
(0.242372 0 0)
(0.294091 0 0)
(0.354063 0 0)
(0.423403 0 0)
(0.502424 0 0)
(0.591217 0 0)
(0.690684 0 0)
(0.800508 0 0)
(0.920561 0 0)
(1.04998 0 0)
(1.18797 0 0)
(1.33409 0 0)
(1.48303 0 0)
(1.6286 0 0)
(1.76977 0 0)
(1.90447 0 0)
(2.03273 0 0)
(2.15209 0 0)
(2.26378 0 0)
(2.36598 0 0)
(2.45889 0 0)
(2.54309 0 0)
(2.61798 0 0)
(2.6845 0 0)
(2.74249 0 0)
(2.79325 0 0)
(2.83696 0 0)
(2.87413 0 0)
(2.90569 0 0)
(2.93218 0 0)
(2.95429 0 0)
(2.97261 0 0)
(2.98749 0 0)
(2.99961 0 0)
(3.00938 0 0)
(3.01725 0 0)
(3.02352 0 0)
(3.02842 0 0)
(3.0322 0 0)
(3.03519 0 0)
(3.03751 0 0)
(3.03929 0 0)
(3.04062 0 0)
(3.04161 0 0)
(3.04238 0 0)
(3.04296 0 0)
(3.0434 0 0)
(3.0437 0 0)
(3.04391 0 0)
(3.04405 0 0)
(3.04417 0 0)
(3.04427 0 0)
(3.04435 0 0)
(3.04441 0 0)
(3.04446 0 0)
(3.04451 0 0)
(3.04455 0 0)
(3.04458 0 0)
(3.0446 0 0)
(3.04461 0 0)
(3.04463 0 0)
(3.04464 0 0)
(3.04465 0 0)
(3.04467 0 0)
(3.04468 0 0)
(3.04469 0 0)
(3.04471 0 0)
(3.04473 0 0)
(3.04474 0 0)
(3.04476 0 0)
(3.04478 0 0)
(3.04479 0 0)
(3.04481 0 0)
(3.04482 0 0)
(3.04484 0 0)
(3.04485 0 0)
(3.04485 0 0)
(3.04486 0 0)
(3.04486 0 0)
(3.04486 0 0)
(3.04487 0 0)
(3.04487 0 0)
(3.04487 0 0)
(3.04488 0 0)
(3.04488 0 0)
(3.04489 0 0)
(3.0449 0 0)
(3.04491 0 0)
(3.04492 0 0)
(3.04492 0 0)
(3.04492 0 0)
(3.04492 0 0)
(3.04492 0 0)
(3.04492 0 0)
(3.04493 0 0)
(3.04493 0 0)
(3.04493 0 0)
(3.04494 0 0)
(3.04495 0 0)
(3.04496 0 0)
(3.04497 0 0)
(3.04497 0 0)
(3.04498 0 0)
(3.04499 0 0)
(3.04499 0 0)
(3.045 0 0)
(3.045 0 0)
(3.04501 0 0)
(3.04502 0 0)
(3.04502 0 0)
(3.04503 0 0)
(3.04503 0 0)
(3.04503 0 0)
(3.04504 0 0)
(3.04504 0 0)
(3.04504 0 0)
(3.04504 0 0)
(3.04504 0 0)
(3.04504 0 0)
(3.04504 0 0)
(3.04504 0 0)
(3.04504 0 0)
(3.04504 0 0)
(3.04504 0 0)
(3.04504 0 0)
(3.04504 0 0)
(3.04505 0 0)
(3.04505 0 0)
(3.04506 0 0)
(3.04507 0 0)
(3.04508 0 0)
(3.04508 0 0)
(3.04509 0 0)
(3.0451 0 0)
(3.0451 0 0)
(3.04511 0 0)
(3.04511 0 0)
(3.04512 0 0)
(3.04512 0 0)
(3.04512 0 0)
(3.04512 0 0)
(3.04513 0 0)
(3.04513 0 0)
(3.04513 0 0)
(3.04513 0 0)
(3.04513 0 0)
(3.04513 0 0)
(3.04513 0 0)
(3.04513 0 0)
(3.04513 0 0)
(3.04513 0 0)
(3.04513 0 0)
(3.04513 0 0)
(3.04513 0 0)
(3.04513 0 0)
(3.04512 0 0)
(3.04512 0 0)
(3.04512 0 0)
(3.04512 0 0)
(3.04512 0 0)
(3.04512 0 0)
(3.04512 0 0)
(3.04513 0 0)
(3.04513 0 0)
(3.04513 0 0)
(3.04513 0 0)
(3.04514 0 0)
(3.04514 0 0)
(3.04514 0 0)
(3.04515 0 0)
(3.04515 0 0)
(3.04516 0 0)
(3.04516 0 0)
(3.04516 0 0)
(3.04517 0 0)
(3.04517 0 0)
(3.04518 0 0)
(3.04518 0 0)
(3.04518 0 0)
(3.04519 0 0)
(3.04519 0 0)
(3.04519 0 0)
(3.04519 0 0)
(3.04518 0 0)
(3.04518 0 0)
(3.04518 0 0)
(3.04518 0 0)
(3.04517 0 0)
(3.04517 0 0)
(3.04517 0 0)
(3.04517 0 0)
(3.04516 0 0)
(3.04516 0 0)
(3.04516 0 0)
(3.04517 0 0)
(3.04517 0 0)
(3.04517 0 0)
(3.04518 0 0)
(3.04518 0 0)
(3.04518 0 0)
(3.04518 0 0)
(3.04518 0 0)
(3.04518 0 0)
(3.04518 0 0)
(3.04518 0 0)
(3.04518 0 0)
(3.04518 0 0)
(3.04517 0 0)
(3.04517 0 0)
(3.04517 0 0)
(3.04517 0 0)
(3.04517 0 0)
(3.04517 0 0)
(3.04518 0 0)
(3.04519 0 0)
(3.04519 0 0)
(3.04519 0 0)
(3.0452 0 0)
(3.0452 0 0)
(3.0452 0 0)
(3.0452 0 0)
(3.04521 0 0)
(3.04521 0 0)
(3.04522 0 0)
(3.04525 0 0)
(3.04523 0 0)
(3.04523 0 0)
(3.04523 0 0)
(3.04521 0 0)
(3.04524 0 0)
(3.04521 0 0)
(3.04523 0 0)
(3.04529 0 0)
(3.04523 0 0)
(3.04524 0 0)
(3.04534 0 0)
(3.04527 0 0)
(3.04522 0 0)
(3.04534 0 0)
(3.04543 0 0)
(3.04542 0 0)
(3.04529 0 0)
(3.04511 0 0)
(3.04522 0 0)
(3.0454 0 0)
(3.0455 0 0)
(3.04539 0 0)
(3.0454 0 0)
(3.04556 0 0)
(3.04553 0 0)
(3.04533 0 0)
(3.04531 0 0)
(3.04549 0 0)
(3.0453 0 0)
(3.04529 0 0)
(3.04546 0 0)
(3.04531 0 0)
(3.04531 0 0)
(3.04545 0 0)
(3.04531 0 0)
(3.04528 0 0)
(3.04527 0 0)
(3.04526 0 0)
(3.04535 0 0)
(3.04524 0 0)
(3.04522 0 0)
(3.04522 0 0)
(3.04521 0 0)
(3.04527 0 0)
(3.04521 0 0)
(3.0452 0 0)
(3.0452 0 0)
(3.0452 0 0)
(3.0452 0 0)
(3.04519 0 0)
(3.04521 0 0)
(3.0452 0 0)
(3.04518 0 0)
(3.04518 0 0)
(3.04518 0 0)
(3.04517 0 0)
(3.04518 0 0)
(3.04517 0 0)
(3.04517 0 0)
(3.04517 0 0)
(3.04516 0 0)
(3.04516 0 0)
(3.04516 0 0)
(3.04516 0 0)
(3.04516 0 0)
(3.04516 0 0)
(3.04516 0 0)
(3.04516 0 0)
(3.04516 0 0)
(3.04516 0 0)
(3.04516 0 0)
(3.04516 0 0)
(3.04516 0 0)
(3.04516 0 0)
(3.04517 0 0)
(3.04517 0 0)
(3.04517 0 0)
(3.04517 0 0)
(3.04517 0 0)
(3.04518 0 0)
(3.04518 0 0)
(3.04518 0 0)
(3.04518 0 0)
(3.04518 0 0)
(3.04518 0 0)
(3.04519 0 0)
(3.04519 0 0)
(3.04519 0 0)
(3.04519 0 0)
(3.04518 0 0)
(3.04518 0 0)
(3.04518 0 0)
(3.04518 0 0)
(3.04517 0 0)
(3.04517 0 0)
(3.04517 0 0)
(3.04517 0 0)
(3.04516 0 0)
(3.04516 0 0)
(3.04516 0 0)
(3.04516 0 0)
(3.04515 0 0)
(3.04515 0 0)
(3.04514 0 0)
(3.04514 0 0)
(3.04513 0 0)
(3.04513 0 0)
(3.04512 0 0)
(3.04512 0 0)
(3.04511 0 0)
(3.04511 0 0)
(3.04511 0 0)
(3.04511 0 0)
(3.0451 0 0)
(3.0451 0 0)
(3.0451 0 0)
(3.0451 0 0)
(3.04509 0 0)
(3.04509 0 0)
(3.04509 0 0)
(3.04509 0 0)
(3.04509 0 0)
(3.04509 0 0)
(3.04508 0 0)
(3.04509 0 0)
(3.04509 0 0)
(3.04509 0 0)
(3.04509 0 0)
(3.04509 0 0)
(3.04509 0 0)
(3.04508 0 0)
(3.04508 0 0)
(3.04508 0 0)
(3.04508 0 0)
(3.04507 0 0)
(3.04507 0 0)
(3.04507 0 0)
(3.04507 0 0)
(3.04507 0 0)
(3.04507 0 0)
(3.04507 0 0)
(3.04507 0 0)
(3.04507 0 0)
(3.04507 0 0)
(3.04507 0 0)
(3.04507 0 0)
(3.04507 0 0)
(3.04507 0 0)
(3.04506 0 0)
(3.04506 0 0)
(3.04505 0 0)
(3.04505 0 0)
(3.04504 0 0)
(3.04504 0 0)
(3.04503 0 0)
(3.04502 0 0)
(3.04502 0 0)
(3.04501 0 0)
(3.045 0 0)
(3.045 0 0)
(3.04499 0 0)
(3.04499 0 0)
(3.04499 0 0)
(3.04498 0 0)
(3.04498 0 0)
(3.04498 0 0)
(3.04497 0 0)
(3.04497 0 0)
(3.04496 0 0)
(3.04496 0 0)
(3.04495 0 0)
(3.04495 0 0)
(3.04494 0 0)
(3.04494 0 0)
(3.04494 0 0)
(3.04493 0 0)
(3.04493 0 0)
(3.04492 0 0)
(3.04491 0 0)
(3.0449 0 0)
(3.04489 0 0)
(3.04489 0 0)
(3.04488 0 0)
(3.04487 0 0)
(3.04487 0 0)
(3.04486 0 0)
(3.04485 0 0)
(3.04485 0 0)
(3.04484 0 0)
(3.04483 0 0)
(3.04482 0 0)
(3.04481 0 0)
(3.0448 0 0)
(3.04479 0 0)
(3.04478 0 0)
(3.04477 0 0)
(3.04476 0 0)
(3.04476 0 0)
(3.04475 0 0)
(3.04475 0 0)
(3.04474 0 0)
(3.04474 0 0)
(3.04473 0 0)
(3.04473 0 0)
(3.04472 0 0)
(3.0447 0 0)
(3.04469 0 0)
(3.04467 0 0)
(3.04465 0 0)
(3.04464 0 0)
(3.04463 0 0)
(3.04462 0 0)
(3.04461 0 0)
(3.04459 0 0)
(3.04456 0 0)
(3.04454 0 0)
(3.04451 0 0)
(3.04448 0 0)
(3.04446 0 0)
(3.04443 0 0)
(3.04437 0 0)
(3.04431 0 0)
(3.04424 0 0)
(3.04416 0 0)
(3.04403 0 0)
(3.04385 0 0)
(3.04364 0 0)
(3.04337 0 0)
(3.04302 0 0)
(3.04253 0 0)
(3.04183 0 0)
(3.04092 0 0)
(3.03976 0 0)
(3.03821 0 0)
(3.03615 0 0)
(3.03343 0 0)
(3.02992 0 0)
(3.02544 0 0)
(3.01973 0 0)
(3.01239 0 0)
(3.00318 0 0)
(2.9917 0 0)
(2.9775 0 0)
(2.95995 0 0)
(2.93861 0 0)
(2.91269 0 0)
(2.88155 0 0)
(2.84446 0 0)
(2.80065 0 0)
(2.74928 0 0)
(2.68974 0 0)
(2.62109 0 0)
(2.54308 0 0)
(2.45495 0 0)
(2.3562 0 0)
(2.24736 0 0)
(2.128 0 0)
(1.99842 0 0)
(1.86021 0 0)
(1.71339 0 0)
(1.56013 0 0)
(1.40148 0 0)
(1.24174 0 0)
(1.08981 0 0)
(0.948234 0 0)
(0.817752 0 0)
(0.699225 0 0)
(0.592953 0 0)
(0.49861 0 0)
(0.415954 0 0)
(0.344201 0 0)
(0.282609 0 0)
(0.230301 0 0)
(0.186238 0 0)
(0.149493 0 0)
(0.119146 0 0)
(0.0942693 0 0)
(0.0740623 0 0)
(0.0577935 0 0)
(0.0447852 0 0)
(0.0344718 0 0)
(0.026362 0 0)
(0.020026 0 0)
(0.0151149 0 0)
(0.0113375 0 0)
(0.00844985 0 0)
(0.00625864 0 0)
(0.00460799 0 0)
(0.00337218 0 0)
(0.00245285 0 0)
(0.0017737 0 0)
(0.00127533 0 0)
(0.000911601 0 0)
(0.000647998 0 0)
(0.000457981 0 0)
(0.000321929 0 0)
(0.000225053 0 0)
(0.000156458 0 0)
(0.000108205 0 0)
(7.44298e-05 0 0)
(5.09291e-05 0 0)
(3.46677e-05 0 0)
(2.34829e-05 0 0)
(1.58198e-05 0 0)
(1.06099e-05 0 0)
(7.07607e-06 0 0)
(4.69608e-06 0 0)
(3.10298e-06 0 0)
(2.03937e-06 0 0)
(1.3333e-06 0 0)
(8.68712e-07 0 0)
(5.6305e-07 0 0)
(3.61952e-07 0 0)
(2.32913e-07 0 0)
(1.49492e-07 0 0)
(9.32983e-08 0 0)
(5.90991e-08 0 0)
(3.86381e-08 0 0)
(2.32165e-08 0 0)
(1.42304e-08 0 0)
(9.79339e-09 0 0)
(4.80074e-09 0 0)
(3.25344e-09 0 0)
(2.3504e-09 0 0)
(1.32305e-09 0 0)
(9.41999e-10 0 0)
(1.12527e-09 0 0)
(5.24912e-10 0 0)
(8.11332e-11 0 0)
(2.4372e-10 0 0)
(3.36775e-11 0 0)
(3.33272e-10 0 0)
(-2.2699e-11 0 0)
(-2.9109e-10 0 0)
(2.30538e-10 0 0)
(-7.73295e-11 0 0)
(-3.27346e-10 0 0)
(2.28737e-10 0 0)
(-4.75683e-10 0 0)
(5.79308e-11 0 0)
(4.47225e-10 0 0)
(-1.92524e-10 0 0)
(-2.17566e-10 0 0)
(-1.50299e-10 0 0)
(-2.24073e-10 0 0)
(-2.61994e-10 0 0)
(3.63734e-10 0 0)
(4.272e-10 0 0)
(-4.81845e-10 0 0)
(-1.96441e-10 0 0)
(2.5269e-10 0 0)
(-2.77918e-10 0 0)
(-1.57425e-10 0 0)
(2.64867e-10 0 0)
(1.77262e-10 0 0)
(-8.49374e-11 0 0)
(-2.31261e-10 0 0)
(-2.41843e-10 0 0)
(2.81816e-11 0 0)
(2.68652e-10 0 0)
(7.38573e-11 0 0)
(-1.48096e-10 0 0)
(3.04943e-11 0 0)
(-7.11053e-11 0 0)
(2.7702e-11 0 0)
(3.25643e-10 0 0)
(-3.12072e-10 0 0)
(-4.16443e-10 0 0)
(3.2088e-10 0 0)
(2.68196e-10 0 0)
(-4.85053e-10 0 0)
(-3.57521e-10 0 0)
(-1.08296e-10 0 0)
(-1.91786e-10 0 0)
(1.222e-10 0 0)
(-5.25245e-11 0 0)
(-4.203e-10 0 0)
(6.9713e-11 0 0)
(1.2271e-10 0 0)
(-1.85463e-10 0 0)
(-5.77637e-10 0 0)
(-2.85154e-10 0 0)
(-9.25906e-11 0 0)
(-7.64775e-11 0 0)
(-6.99087e-11 0 0)
(-2.29385e-10 0 0)
(2.79653e-10 0 0)
(-2.52462e-10 0 0)
(-3.25885e-10 0 0)
(2.79552e-10 0 0)
(-1.08305e-10 0 0)
(-2.05483e-10 0 0)
(1.63135e-10 0 0)
(2.10356e-10 0 0)
(-1.07499e-10 0 0)
(-1.77648e-10 0 0)
(3.61551e-11 0 0)
(1.87096e-10 0 0)
(4.02815e-11 0 0)
(9.28083e-13 0 0)
(1.65527e-10 0 0)
(3.79046e-10 0 0)
(-2.37764e-10 0 0)
(-3.74919e-10 0 0)
(8.31186e-10 0 0)
(4.41209e-10 0 0)
(5.13286e-11 0 0)
(-4.25059e-11 0 0)
(2.37636e-10 0 0)
(4.3324e-10 0 0)
(-1.89269e-10 0 0)
(-2.08062e-10 0 0)
(1.86443e-10 0 0)
(4.74306e-10 0 0)
(2.24718e-10 0 0)
(-1.41104e-10 0 0)
(4.22711e-10 0 0)
(6.83691e-10 0 0)
(2.4651e-11 0 0)
(-2.10473e-10 0 0)
(-1.47402e-10 0 0)
(3.03898e-10 0 0)
(9.78152e-11 0 0)
(-3.4431e-10 0 0)
)
;

boundaryField
{
    sides
    {
        type            fixedValue;
        value           uniform (0 0 0);
    }
    empty1
    {
        type            empty;
    }
    empty2
    {
        type            empty;
    }
}


// ************************************************************************* //
