/*--------------------------------*- C++ -*----------------------------------*\
| =========                 |                                                 |
| \\      /  F ield         | OpenFOAM: The Open Source CFD Toolbox           |
|  \\    /   O peration     | Version:  2312                                  |
|   \\  /    A nd           | Website:  www.openfoam.com                      |
|    \\/     M anipulation  |                                                 |
\*---------------------------------------------------------------------------*/
FoamFile
{
    version     2.0;
    format      ascii;
    arch        "LSB;label=32;scalar=64";
    class       volScalarField;
    location    "0.0006";
    object      cSound;
}
// * * * * * * * * * * * * * * * * * * * * * * * * * * * * * * * * * * * * * //

dimensions      [0 1 -1 0 0 0 0];

internalField   nonuniform List<scalar> 
28800
(
265.85267831239
265.44789205459
265.15552845037
264.85179589962
264.5243157939
264.16488155668
263.7673503535
263.32710454603
262.84055997266
262.30499704293
261.71891170952
261.0824147696
260.39739873517
259.6672509348
258.89623127001
258.08860469085
257.24800190948
256.37713653898
255.4779842458
254.55216561383
253.6011984936
252.62631644655
251.6316400151
250.62235127235
249.61336483998
248.58783541505
247.55989856446
246.51092652668
245.45882475766
244.38535756572
243.31046866013
242.21447045957
241.11953353335
240.00527664898
238.89446476224
237.76709023355
236.64534334108
235.51089439862
234.38157975969
233.24544237472
232.11211357401
230.97881822488
229.84627687464
228.71479369821
227.58643094064
226.4610246846
225.33977500281
224.22215408192
223.10823785584
221.99841504765
220.89546002674
219.79928013558
218.71164601185
217.6323054723
216.56254792902
215.50185616189
214.44980726985
213.40724877863
212.37396901793
211.34917652269
210.33447132845
209.32967018327
208.33563271685
207.35344797818
206.38205570844
205.42142562481
204.47082445249
203.53159889261
202.60197161021
201.67831358402
200.7655907296
199.86526669518
198.97619322499
198.08446598282
197.2025315418
196.33572258902
195.4805815433
194.6350748362
193.79181345317
192.95945872457
192.14071401632
191.33409287734
190.53818312582
189.73714261281
188.94289075959
188.15756758016
187.37994081208
186.61302373985
185.8566222776
185.11238580132
184.37158271252
183.64003249662
182.9213002571
182.2136465108
181.51442788154
180.81763973655
180.12434489468
179.43956676375
178.75930235282
178.08884159936
177.42111224861
176.7612058331
176.10493660832
175.45834051586
174.81621579845
174.1818624946
173.55664116408
173.00737940098
173.01926568232
175.72134287964
188.46882788291
229.71141814545
272.49849680589
281.72885257243
282.28014549727
283.13588457465
283.85884620916
284.31630277816
284.59824735734
284.7666561586
284.83291683738
284.80066464716
284.66655639727
284.43554517242
284.0851456078
283.58249314456
282.89979360516
282.06196677547
281.13239498982
280.20300107724
279.29002888438
277.28433896967
270.73515774997
270.3684340569
269.76475720822
269.00417855783
268.14422684416
267.24367628954
266.35686891292
265.52653232669
264.76580332143
264.08364970537
263.4874651355
262.97699958269
262.54008654649
262.15946611797
261.81565179294
261.53645482032
261.33616972838
261.1765469505
261.06645347068
261.00801021437
261.01611962162
261.1025527802
261.27407789264
261.52908493462
261.8587661474
262.25106867368
262.68298055817
263.13604458389
263.59126069988
264.03333328351
264.45304028504
264.83975568425
265.18459637931
265.64418599139
265.73523993764
265.83243144621
265.9027577838
265.92799307509
265.90097583566
265.82021686351
265.68488490714
265.50082376721
265.27844724298
265.08684910817
264.47055272506
264.04643014709
263.5772653484
263.06694761038
262.52287511837
261.94817417952
261.34191173413
260.7045075138
260.03225932395
259.32307574819
258.5663588097
257.76025367905
256.90693749429
255.99191892735
255.03492204645
254.02188356347
253.01273646343
252.11928690653
251.3103812006
250.55673042675
249.8335462822
249.10262105229
248.34929909006
247.57738655744
246.78046972709
245.9614877066
245.12567712859
244.27431232899
243.41294631938
242.54540785429
241.6731761526
240.8004548572
239.92079313133
239.04635644925
238.16605272269
237.29348830516
236.4125531304
235.54312023319
234.67526634484
233.81624387908
232.964646824
232.12317569227
231.29180134249
230.47351247298
229.66740159013
228.87561646187
228.09812107522
227.33673579881
226.59063003466
225.86141004491
225.14780589395
224.45171750501
223.77112726447
223.10836346487
222.46095401407
221.83106900264
221.21823572016
220.62155313373
220.03787785009
219.47579564585
218.90631703421
218.35706012613
217.78530311064
217.52387740888
265.85208806415
265.44665731577
265.15357897233
264.84894996596
264.52038678401
264.15971279331
263.76077025189
263.31881759717
262.83017441009
262.29216620267
261.70345233824
261.06434056078
260.37695131877
259.64473828977
258.87187187051
258.0623160057
257.21944847973
256.34580508968
255.44344209518
254.51415990123
253.55972027267
252.58167511765
251.5846256807
250.57313402735
249.561338816
248.53035102739
247.49697882978
246.44182001038
245.383758448
244.30415535193
243.22426997337
242.12327704204
241.02407946158
239.90633281747
238.79299746686
237.66400295122
236.54161896836
235.40671178405
234.278115153
233.14435584445
232.01363042987
230.88366123698
229.75470929033
228.62708610356
227.50258077914
226.38132266552
225.26430048764
224.15115582099
223.04347642286
221.94110135878
220.84505715924
219.75536103778
218.67285234944
217.59759182635
216.52989569822
215.47135924423
214.42092255133
213.3799359336
212.35071613731
211.32999483273
210.31933997028
209.31870644731
208.32792373725
207.34668430576
206.37527034699
205.41378785654
204.46301778023
203.52179109449
202.58946580159
201.66787386966
200.75710200409
199.8539152171
198.95756323641
198.07400641492
197.20280662132
196.33786358615
195.47924584304
194.62962396093
193.78861607692
192.95702595654
192.13589342216
191.32024329352
190.51029189412
189.71096749457
188.92536777958
188.14974380364
187.38413702232
186.62593917975
185.87083843635
185.1228779006
184.38674304739
183.65802639568
182.9341544117
182.2175705148
181.5044760763
180.80340605758
180.10598545362
179.42020048987
178.74247779363
178.07164144564
177.40571549213
176.74734120695
176.09138986799
175.44597217694
174.80394798093
174.16821011121
173.54203925498
172.99017531584
172.99763164921
175.68309299847
188.35109301753
229.40016248835
272.20397612352
281.5787156043
282.16976609696
283.03847020726
283.74000463541
284.16104336839
284.39392578117
284.5019037913
284.51083232855
284.42742390969
284.25857296828
284.01264787963
283.65993320165
283.1840638877
282.55744786443
281.80621733188
280.99123509202
280.19718483843
279.49584183233
277.54828938664
271.16917935425
270.83758593792
270.29982507403
269.62684216688
268.86148219809
268.03389657853
267.18045946513
266.33051677269
265.50501011909
264.72773286653
264.03019325208
263.43504628955
262.94723238387
262.55794106076
262.23388732059
261.98013509024
261.80207566219
261.65639797056
261.54738426929
261.48088003235
261.4686770268
261.52615210088
261.66266625656
261.87860312063
262.16869726355
262.52282954502
262.91917855941
263.33837632248
263.76605454343
264.1834880957
264.58359097701
264.94593187887
265.38675726769
265.59230823078
265.70670650476
265.80323914223
265.85806320189
265.86115862114
265.8090578652
265.70077221817
265.53737144266
265.32196471369
265.06467359286
264.84067891111
264.20458604403
263.74782695449
263.24404717885
262.69868792772
262.11851444097
261.50649057981
260.86395070551
260.19244674804
259.48922515607
258.75106821841
257.96728272654
257.13877004899
256.26179505526
255.3317785675
254.35730267165
253.33251729238
252.30997039014
251.41218983224
250.59867551488
249.8427564858
249.10883384532
248.35933550651
247.58741833832
246.79779991091
245.98323260958
245.14778897425
244.2963714461
243.43214889946
242.55952923033
241.68164343893
240.80009282918
239.91909500249
239.03251638484
238.15250127821
237.26842777035
236.39392533141
235.51397491705
234.64750329725
233.78705641677
232.93717610369
232.09782014878
231.27152494007
230.45854942693
229.66122431405
228.87853046702
228.11194423055
227.36125886017
226.62758468946
225.91028646495
225.21019914708
224.52672453748
223.86077041988
223.21129554451
222.57930979792
221.96338789084
221.3642358668
220.78223138848
220.21515301629
219.66191599098
219.12782215252
218.58640484004
218.06351814368
217.51574165507
217.27486965026
265.85091732558
265.44424756882
265.14982039829
264.84352320638
264.51295984152
264.14998122753
263.74841240221
263.3033259772
262.81081963567
262.2682373865
261.67461529282
261.03073723368
260.33911425119
259.60316416931
258.82678652655
258.01336760713
257.16600898756
256.28705704229
255.37896492618
254.44376557827
253.4837007398
252.50127174591
251.50135412724
250.4865207885
249.46973092502
248.43125465208
247.39018822822
246.32761755645
245.26298772979
244.17734794097
243.092862493
241.98825660851
240.88675887689
239.76760956316
238.65450273677
237.52684053782
236.40700021918
235.27429027513
234.14878042943
233.01817421795
231.89079534141
230.76385113787
229.63817193091
228.51359868333
227.3919379881
226.27245444714
225.15692754766
224.04531745053
222.93921710589
221.83836218336
220.74395770514
219.65584797674
218.57539009531
217.50270381982
216.43792105979
215.38227613116
214.33435997288
213.29587693986
212.26847702831
211.24910442209
210.23972213492
209.24009337214
208.2500625889
207.27009448509
206.29976254663
205.33959270688
204.38890883909
203.44803152146
202.5169581313
201.59597646427
200.68323130095
199.77997563452
198.88670842219
198.00431007017
197.1295939496
196.26160535068
195.40298635836
194.55545746472
193.71758231525
192.88860397379
192.06545840867
191.25208941692
190.44874379296
189.65611609264
188.87082985088
188.0916838266
187.31854024227
186.55594796356
185.80250709206
185.05785300856
184.32024119938
183.5904942325
182.86743808894
182.15368157268
181.44676620445
180.74906017392
180.05581488116
179.37201402565
178.69026151785
178.01793242594
177.34962967052
176.69017073676
176.03241613277
175.38250086347
174.73516158918
174.09475915542
173.46297411011
172.90856569065
172.92409283709
175.62869721006
188.35198287317
229.51925596743
272.31622698744
281.61043178246
282.20400443376
283.05742409863
283.69788680662
284.05366888249
284.22355272352
284.26500041297
284.21017882721
284.07463916122
283.86471435286
283.58776885233
283.22479836653
282.76758403142
282.19300000123
281.5251710353
280.8203381467
280.12278465047
279.51021821021
278.15752807834
271.69136797407
271.32430097093
270.78619680924
270.1774138546
269.50462535563
268.77520278669
268.0139277691
267.22454420992
266.41967978195
265.61707388324
264.85170982363
264.16463533131
263.58750513888
263.14116907302
262.81636565104
262.57265199487
262.40747602152
262.2678498238
262.15162905268
262.06731990281
262.02358836153
262.03862719234
262.12577923737
262.2883075285
262.52522765826
262.83173348159
263.18822645885
263.57359309716
263.97905596457
264.36635516088
264.75050452916
265.17060611229
265.44654651241
265.59845311737
265.72277508919
265.80695321974
265.84215785253
265.82215669101
265.74560937092
265.61064944078
265.42126063707
265.17611846603
264.88418552567
264.62453650463
263.98223350718
263.49202276153
262.95229167179
262.37285018789
261.75705084646
261.10707217831
260.42809859646
259.72267392711
258.9893885195
258.22187251736
257.41131380788
256.56015500876
255.65905959868
254.71418572852
253.71834207795
252.67194846519
251.66049713474
250.76078738475
249.94058767603
249.1712407427
248.40131518357
247.62118308826
246.82212391617
246.0063948179
245.17039213666
244.31615641401
243.44815768984
242.56988633896
241.68572684304
240.79878148433
239.91079348716
239.02474523741
238.13463898748
237.25457155777
236.37333418458
235.50532804124
234.63783885303
233.7860808486
232.94526749266
232.11785610707
231.30439856088
230.50677965013
229.72489054235
228.95979037076
228.21048685698
227.47724746938
226.75988117398
226.05866863871
225.37337269474
224.70441992179
224.05200025332
223.41646963141
222.79765109904
222.19561044883
221.60981044351
221.03981109391
220.48649818773
219.94688312237
219.42125409703
218.91175160892
218.39643163434
217.89840676206
217.37208149866
217.1470344628
265.84910200984
265.44049177676
265.14391401039
264.83497219831
264.50132143148
264.1348708914
263.72918698184
263.27897825786
262.78024924518
262.23063215917
261.62986985048
260.97939723235
260.28216680051
259.54126545498
258.76019893917
257.94148532184
257.08824952754
256.20253720166
255.28782550204
254.34594806199
253.38031733251
252.39384267417
251.39201912415
250.37448863267
249.35061035799
248.30609798182
247.25715652384
246.18908278659
245.11951392842
244.03097515639
242.94583868746
241.84175959271
240.74212890584
239.62520897742
238.51416849774
237.38671270414
236.26581604941
235.1341288958
234.00654315374
232.87710209138
231.74827804463
230.62055782412
229.49394757267
228.36898714471
227.24715101749
226.12865845379
225.01462783889
223.90520661719
222.80131463398
221.70317339731
220.6115414306
219.52668863735
218.44925033091
217.37979079627
216.31787851673
215.26555954529
214.22092525731
213.18560615447
212.1612656378
211.14516572707
210.13893291709
209.14254664645
208.15571229323
207.17867073032
206.21106170185
205.25317412897
204.30439040758
203.36541458868
202.43536040303
201.51512648304
200.60433290165
199.70325379386
198.81096673367
197.92794384597
197.05446570127
196.19072591121
195.33558801505
194.49004974102
193.65324769108
192.82550639647
192.00571324955
191.19590428976
190.39371942087
189.6009705351
188.81617503743
188.04048958153
187.27164205388
186.51287343051
185.76166252587
185.01929166809
184.28381788595
183.55717777021
182.8353852355
182.12381289752
181.41728502786
180.71960754715
180.02708691973
179.34282781464
178.66119474361
177.98923461106
177.31933100425
176.65854768199
175.99867767819
175.34707651623
174.69706043202
174.05423935781
173.41946010542
172.86157313468
172.88487716402
175.58966341946
188.29474105878
229.38415770899
272.18702840245
281.54915165568
282.20142800616
283.03408416464
283.59607613651
283.89136613895
284.00682058368
283.9890005199
283.8712991928
283.67713864193
283.41506297865
283.09405271327
282.71414753325
282.27420367871
281.7615085525
281.19357464143
280.5884962513
279.98055443566
279.41170338134
278.85187143759
272.53711585506
272.08638661006
271.44167869817
270.81504579831
270.14954272241
269.50158143348
268.8481979765
268.1537820946
267.41703429297
266.65179913237
265.8871345149
265.15825324672
264.50107619518
263.95582307007
263.59171194364
263.33493458851
263.16522108597
263.0229532431
262.88906325744
262.77225400923
262.68495300416
262.64250560841
262.66368594027
262.76181722884
262.93428197748
263.18868119907
263.50864409172
263.86455815947
264.26610577267
264.57431168784
265.05634292879
265.29597594006
265.49648089438
265.65116880101
265.76232152448
265.82385840305
265.83250472613
265.78352109178
265.67730737444
265.50993327195
265.29054258321
265.01276797566
264.6824366709
264.38279799836
263.74513314423
263.2266784784
262.65827078632
262.04570358142
261.3932138395
260.70311926904
259.98450403749
259.242939157
258.47684644537
257.67672229575
256.83833818099
255.95912433404
255.03392407379
254.06428248773
253.04035919339
251.99131576432
251.01250865279
250.11002028372
249.26487731092
248.43495416188
247.62010305576
246.80422898059
245.97653805993
245.13643955764
244.28122131544
243.4121191399
242.53321412913
241.64781160093
240.76008898812
239.87311474937
238.9858592567
238.10458216697
237.22141991507
236.35359284184
235.48982831155
234.64100084394
233.80188335296
232.97753514055
232.16803217124
231.37466700691
230.59747613409
229.83685034302
229.09251570703
228.36363704152
227.64971445428
226.95007862208
226.26466425352
225.59386495779
224.93786570763
224.29740151082
223.67323374674
223.06568208624
222.4749768593
221.90073113469
221.34280096817
220.8001453968
220.27228132714
219.76119314421
219.25687270429
218.77224259395
218.27645178409
217.81160884075
217.30459243008
217.09152769115
265.84674706864
265.43546161098
265.1357882006
264.82322282419
264.48554885065
264.11461839824
263.70343911507
263.24610133927
262.73876803696
262.17986466526
261.57022666232
260.91185688351
260.20784234393
259.46052984859
258.67296412977
257.8468727478
256.98586971888
256.0918884155
255.16969531712
254.22091424828
253.25013154728
252.25929246582
251.25463429754
250.23574711201
249.20385144854
248.15441484857
247.10046146972
246.03222044309
244.96118835538
243.87089418988
242.78335939098
241.67656727181
240.57504039445
239.45613482717
238.34423572658
237.21624738984
236.09636597208
234.96387082992
233.83766671109
232.70757844258
231.57971364431
230.45225712088
229.32641537314
228.20197212696
227.08142128526
225.96404073144
224.85172536886
223.74386873462
222.64206400473
221.54592692002
220.45678034859
219.3744724969
218.29980569945
217.23331003611
216.17457211164
215.12533357609
214.08349992123
213.05090580051
212.02910785076
211.01524430103
210.0110674495
209.01640316021
208.03111732698
207.05553696257
206.08928253197
205.13265426449
204.18526612396
203.24751770754
202.31910751605
201.40023832681
200.49064420461
199.59065567137
198.69998316484
197.81873614285
196.94685519041
196.08457336518
195.23177770152
194.38896677194
193.55537723981
192.73105087612
191.9152785141
191.10888650394
190.31110720342
189.52184641137
188.74089945351
187.96839287624
187.20378554642
186.44761824186
185.69929515946
184.95888708496
184.22562200298
183.50016068625
182.78157956133
182.07082076206
181.36622812161
180.66795876201
179.97642591734
179.29146368462
178.60818370094
177.93445761314
177.26348195809
176.60337234477
175.94033320608
175.28687981132
174.63589207943
173.99884173079
173.3753272027
172.83570108944
172.88032629984
175.57878098709
188.20915363274
229.01900550383
271.85013020167
281.41073407148
282.13253288115
282.90453926156
283.38272943426
283.62415633612
283.67971280284
283.59963363946
283.41812266513
283.16686896176
282.8582414463
282.49795558201
282.09212662823
281.66850590113
281.22692885951
280.75019815401
280.24885993741
279.75096141146
279.30375851335
278.98057886393
273.73448253376
273.04085160001
272.2217586316
271.65895383272
270.93351105637
270.28433905766
269.69801146878
269.10885787045
268.46027827287
267.76401901558
267.04484994494
266.33757670334
265.66086082131
265.05046205236
264.57834561098
264.27693170982
264.08142813531
263.92267829294
263.76048363589
263.60181343633
263.46051676751
263.35255951457
263.2912767137
263.31787168398
263.45395393598
263.68442222075
263.99409253497
264.26964436894
264.66055531757
264.96615445746
265.21624035307
265.43445619517
265.61571979852
265.74574903779
265.82668917304
265.85289425279
265.82506836867
265.73760214573
265.59254736953
265.38339063533
265.12536300255
264.80628431222
264.42662528534
264.07303306443
263.43783685995
262.88265183888
262.27705217492
261.63869959845
260.96060119151
260.25151798972
259.51298095812
258.73430836825
257.92935826837
257.09405599822
256.22607001505
255.3075333067
254.36029785953
253.37300565619
252.33587335256
251.30146099449
250.34009223954
249.41159627181
248.49746574895
247.61918533416
246.76342549459
245.91739623476
245.0670771905
244.20786556571
243.33972662522
242.46380627726
241.58354569336
240.70172572959
239.82252903128
238.94757003008
238.07448372565
237.21296848364
236.35355348687
235.51124091228
234.68063421071
233.86366824182
233.05974545594
232.27057591116
231.49847928587
230.74276697186
230.00433385859
229.28015549557
228.57035513035
227.87341384395
227.18917651597
226.5174455575
225.85840818806
225.21301403988
224.58164509453
223.96582339608
223.36641611792
222.78434287301
222.21934509145
221.67122933247
221.13849742888
220.62397558536
220.11609120497
219.63379360119
219.14507841015
218.68947565491
218.20833067649
217.77649385316
217.28964167798
217.09225098219
265.8438271682
265.42901220889
265.12514048192
264.80829192779
264.46608246243
264.0893696922
263.67032060613
263.20310665927
262.68470214499
262.11475498957
261.49515549874
260.82793885628
260.11586954374
259.36025603639
258.56397525146
257.72845529971
256.85815459307
255.95533808093
255.02535142807
254.07061459633
253.09527868807
252.10088575091
251.0930656477
250.07228230912
249.03716940109
247.98495702089
246.92251785853
245.85051144469
244.77422722542
243.67900031646
242.5886297254
241.47898722212
240.37601244392
239.25514872693
238.14231596861
237.01289584756
235.8912288246
234.75939014926
233.63124618836
232.50233695769
231.37364317842
230.24620931422
229.12050924031
227.99732954532
226.87797405634
225.76279039792
224.6524020983
223.54721716687
222.44786394908
221.35476368065
220.26862634808
219.18972825716
218.11864718961
217.05583692613
216.00084882508
214.95524423114
213.9173752188
212.88847140895
211.8704959776
210.86000504271
209.85922717505
208.86747986383
207.885208597
206.91215173959
205.94864031784
204.99427449802
204.04941899795
203.11382829886
202.18774257869
201.27068190224
200.36329140815
199.46502478235
198.57650059068
197.69686376157
196.82690125578
195.96633668214
195.11561013273
194.27394668887
193.44166247122
192.61856838646
191.80468838151
190.99980948123
190.20386908326
189.41651925747
188.63761286406
187.86706946111
187.10471410423
186.3502591478
185.60351061774
184.86425709653
184.13240298016
183.40768882876
182.69015186752
181.97916384259
181.27493003626
180.57624868728
179.88568577276
179.20004447246
178.51474260363
177.83784877129
177.16133798338
176.49551139165
175.83198819001
175.185708638
174.54618290277
173.9237237461
173.31169590915
172.78796420597
172.84180777826
175.50382037365
187.94789736811
228.17649450441
271.24337097883
281.18273559239
282.00300385341
282.67063551111
283.05685617547
283.19732309286
283.1615737739
282.99363269179
282.73648827954
282.42791300164
282.08552474013
281.71894964402
281.33196381117
280.93615281271
280.54787843039
280.15029257624
279.74853430628
279.35900460833
279.01880737231
278.80386520964
274.66337623666
273.87362282834
273.19769869947
272.66259048592
271.70775608556
271.1155643244
270.6459979409
270.14239847737
269.58714016966
268.95227522004
268.2618267974
267.61700622245
266.99452581383
266.39128375625
265.82707768144
265.46559227999
265.22191227747
265.02335718612
264.81726820781
264.60456042052
264.40371272136
264.22140391676
264.10436892629
264.09339067406
264.17396553263
264.29445994173
264.58400756976
264.79120856288
265.01296886971
265.23975674554
265.45021505943
265.63047209133
265.77511329685
265.86433002875
265.90301220436
265.88333561849
265.80909699713
265.67485232146
265.48249578884
265.22372501847
264.92062980458
264.55256722425
264.11573817664
263.69643566824
263.05738316912
262.45785475729
261.80533915603
261.13571617436
260.42423659437
259.68982958902
258.93108882205
258.14842203925
257.33112715372
256.46520328881
255.57598211466
254.64246115301
253.68675649699
252.68016028886
251.63866917318
250.63130184661
249.65359327889
248.66803729123
247.72183833423
246.8069796235
245.91427007557
245.03517540891
244.16002359968
243.28171323666
242.40191223556
241.52220253774
240.64861689663
239.78120573246
238.9238367629
238.07574273986
237.23306270136
236.40395267407
235.5836467377
234.776508144
233.98243442549
233.20113904242
232.43351002242
231.67534465121
230.94104167971
230.22025133868
229.51803151352
228.8237202258
228.13876640751
227.46460767733
226.80161137825
226.15073167677
225.51218985285
224.88751399129
224.27705257162
223.68321755647
223.10664541608
222.54908135328
222.00884125409
221.48920598448
220.97701861279
220.49411046643
220.00133670071
219.54779225707
219.0734584394
218.64756471863
218.18111710028
217.78442658041
217.30818624119
217.1392536578
265.84056370504
265.42100873641
265.11149416456
264.78985355521
264.44257298478
264.05856128397
263.62899936755
263.14904495344
262.61755756124
262.03565191227
261.40531050523
260.72820888762
260.00581623634
259.2393950975
258.4316113871
257.58488693479
256.70412883346
255.79255527494
254.85484994454
253.89506791687
252.91607440891
251.92022179987
250.91098202517
249.88392116351
248.84150994142
247.78115892258
246.71325308229
245.63598700009
244.55663040251
243.45651150601
242.36260179349
241.24889912211
240.14221182114
239.01962849158
237.90221116481
236.77393538578
235.64874351891
234.5175629964
233.38834110847
232.25880917267
231.1305698472
230.00331092439
228.87907444016
227.75750463879
226.64057304771
225.5274634921
224.42004678935
223.31741089574
222.22168934594
221.13185616069
220.04998875743
218.9750465436
217.90862778518
216.85009248703
215.79980536651
214.75853896169
213.72501232341
212.70050374897
211.686775915
210.68071666165
209.68389428496
208.6962161483
207.71781945951
206.74870865276
205.78895977322
204.83855951332
203.89757156629
202.96595545374
202.04371762457
201.13088778799
200.2274643686
199.33364636355
198.44924348152
197.57456993041
196.70925749967
195.85378655712
195.00762513878
194.17096205713
193.34360002817
192.52580672539
191.7169662172
190.91738482833
190.12627316885
189.34391364761
188.56953482323
187.80352367802
187.04498354666
186.29440476832
185.55069483144
184.81425092544
184.08381489958
183.36023272566
182.6427527868
181.93177911352
181.22596201124
180.52742378211
179.83466226995
179.14852186532
178.46570394196
177.7913421001
177.12295155605
176.47388476927
175.82880516599
175.20336796176
174.57869805511
173.98069680641
173.3904687942
172.89005985469
172.95574891389
175.53475816357
187.63361330406
226.9372526938
270.49970859351
280.95649322339
281.83095297481
282.26453097852
282.48596100645
282.4925358768
282.34730762849
282.09676996432
281.78732223267
281.44475591682
281.08604491415
280.72077160965
280.35700866046
280.00054430584
279.66554331836
279.34650543017
279.04027164301
278.75456341197
278.50690944711
278.34067596082
275.33906500954
274.52259763609
273.80506930649
273.1731710445
272.51335014835
271.96026502232
271.49169065239
271.06877117564
270.60473000815
270.0665917112
269.30692828764
268.77155508765
268.2701345711
267.79861348589
267.32464529272
266.91027943413
266.60359024849
266.32969050277
266.04672536066
265.74859730367
265.46651843617
265.19894554811
264.98437151364
264.87412468391
264.87591588701
264.92454561062
265.0557176714
265.20096895063
265.36606086655
265.54369233634
265.70840022039
265.83946833465
265.9382924245
265.97781600427
265.9682955545
265.89566602857
265.76828772471
265.5816012604
265.33517777151
265.02063321688
264.66778651547
264.2454848057
263.76037134727
263.28867382152
262.6523393377
262.01782611249
261.33454214399
260.63996923765
259.91160407674
259.15200612366
258.36689333091
257.56634915538
256.73968578944
255.86654668938
254.95977375023
254.02019583866
253.04459487685
252.02500865948
250.99769553629
249.99528407553
248.9779343075
247.98919818615
247.02367576179
246.0792514161
245.14987042561
244.23259193724
243.32841796039
242.4352092038
241.55535772473
240.68969144228
239.83974843405
239.00348679454
238.18486596945
237.38008636942
236.57984699587
235.79099837539
235.00785525818
234.23190611316
233.46273477341
232.70275603651
231.95597967431
231.21921092793
230.50155755449
229.79436841179
229.0998347203
228.41792671511
227.74762344878
227.0918059588
226.44619611284
225.81506529416
225.19507876504
224.59183161813
224.00083819041
223.43056853852
222.87549267856
222.34943995697
221.8305697073
221.34939674821
220.85199452713
220.40136029578
219.92425617696
219.50136350276
219.04231055871
218.64812744
218.19877238429
217.83866112397
217.37236882182
217.22415251611
265.83700615532
265.41085003036
265.09525998181
264.76983883789
264.41594490731
264.02068976767
263.57708813712
263.08243731892
262.53752138484
261.94345199375
261.30178820009
260.61225348404
259.87715635926
259.09654626678
258.27547640695
257.4161251644
256.52491171306
255.60470222511
254.66044243933
253.69571822861
252.71631323061
251.7163662314
250.69851013064
249.66114990063
248.61231724448
247.54538079121
246.4739659566
245.39031828738
244.30604287463
243.20074542915
242.10069160323
240.98443193091
239.87179613425
238.74760685636
237.62684821107
236.49607199444
235.37079164928
234.23664068935
233.10990812441
231.97806219295
230.85349118383
229.72502883994
228.60370795857
227.48477535227
226.37059690993
225.26046820083
224.15603575862
223.05693495005
221.96474814424
220.87941847254
219.80159461381
218.73147747923
217.66921038297
216.61535107741
215.56893311855
214.53202107594
213.50203143017
212.48083330107
211.47013839655
210.46677710814
209.47231669705
208.48692629109
207.51035727832
206.54299553232
205.58467257186
204.63582650711
203.69613078836
202.76600573538
201.84509867543
200.93381867787
200.0318477438
199.13941768794
198.2562923062
197.38272639894
196.51839098896
195.66363368296
194.81810189779
193.98206738304
193.15520938792
192.33780539685
191.52937463658
190.73021334346
189.93947526369
189.15765563084
188.38392128751
187.61891963471
186.86051645869
186.11049865117
185.36806592875
184.63438131081
183.90221430126
183.18115888125
182.4597878668
181.74887677588
181.03730840352
180.33726160818
179.6405088338
178.95824551491
178.27994988957
177.62093863518
176.96406497211
176.33419006387
175.69500961713
175.08989162639
174.48254891068
173.9172898343
173.36166848577
172.88304976429
172.9663226377
175.39858815416
186.85779038634
224.68078501629
269.4777830571
280.47747003862
281.33176907227
281.4756974453
281.54760919003
281.4373735132
281.19660571209
280.87262535162
280.5129874586
280.14371067256
279.78438598795
279.43839050658
279.11435956984
278.81051535047
278.53558754118
278.28992953803
278.07393330688
277.88295848165
277.7230256734
277.58558507518
275.58315651766
274.86393022858
274.1862360814
273.56432038189
272.97643430381
272.44866057208
271.9789493732
271.54246718047
271.1022280706
270.6346649727
270.13012773437
269.67976938459
269.26074844608
268.86325371468
268.47132439118
268.06854667898
267.71041390209
267.35763086625