/*--------------------------------*- C++ -*----------------------------------*\
| =========                 |                                                 |
| \\      /  F ield         | OpenFOAM: The Open Source CFD Toolbox           |
|  \\    /   O peration     | Version:  2312                                  |
|   \\  /    A nd           | Website:  www.openfoam.com                      |
|    \\/     M anipulation  |                                                 |
\*---------------------------------------------------------------------------*/
FoamFile
{
    version     2.0;
    format      ascii;
    arch        "LSB;label=32;scalar=64";
    class       volScalarField;
    location    "0.0006";
    object      p;
}
// * * * * * * * * * * * * * * * * * * * * * * * * * * * * * * * * * * * * * //

dimensions      [1 -1 -2 0 0 0 0];

internalField   nonuniform List<scalar> 
28800
(
270328.5067841
266689.56824156
264641.50489156
262591.41696241
260422.49586651
258073.37138865
255500.46278149
252674.5865561
249576.65036071
246194.91827894
242525.29021257
238575.22352029
234364.17356863
229923.48930659
225291.17965734
220507.26201695
215607.12908909
210619.83785945
205567.50489755
200468.36327104
195338.83683893
190194.22050927
185046.05601271
179937.62946271
174938.67331996
169992.21723748
165149.2374277
160347.30895983
155644.12072786
150983.39751797
146425.45818358
141914.51893357
137515.39364856
133170.88663312
128947.12232085
124787.17647604
120755.08436716
116799.11306439
112965.81181155
109221.30312564
105589.27999122
102057.96347577
98630.802697608
95303.436348539
92076.120112706
88954.994742312
85926.585321505
83004.473651087
80165.72198297
77426.100926532
74767.458753307
72214.61464746
69737.30992356
67366.770346893
65065.520803727
62869.683002742
60734.086807498
58697.271606041
56716.13999266
54827.880993968
52987.205466898
51238.700737897
49532.048090616
47919.851730293
46343.996209086
44845.710843347
43405.642692586
42021.057732871
40665.002100082
39373.200659709
38149.110998388
36976.237785251
35803.364952855
34669.880908907
33601.572336119
32602.811543054
31612.615885993
30639.491274701
29682.361878357
28803.717814825
27968.502883572
27166.153907484
26360.410229095
25571.205035332
24821.374228792
24125.978166411
23441.450949129
22763.77391019
22094.325009128
21466.645852466
20862.93193675
20291.761193544
19741.02583193
19208.512356633
18685.842067157
18182.46832127
17691.778974676
17225.984845567
16773.764352239
16335.717882851
15906.491338029
15488.9813101
15089.303456795
14696.851475095
14325.628232847
13958.887217838
13599.652542067
13290.680430818
12984.201510409
13293.360873476
15773.04241134
27130.822305499
70974.807913541
126712.43325261
127260.60751317
128386.52995496
131232.59206379
133112.68105224
134287.94516985
135433.45049362
136478.53650734
137421.26904225
138345.09594399
139263.38850965
140242.98345912
141160.26795751
141951.92783531
142768.09367257
143553.28592417
144231.35504145
144778.76279569
145190.85981643
144786.36716534
144117.74985165
143414.86011093
142691.37949508
141932.17404326
141159.24500841
140397.30391254
139634.44694362
138796.49567992
137924.80526694
137079.40016103
136278.49492092
135485.35847135
134699.38711347
134029.3553312
133650.44649514
133517.18193839
133524.3127085
133796.43192399
134313.96856562
135139.43867183
136311.45416838
137837.80225203
139703.73437894
141876.09255647
144264.33413239
146813.55853547
149460.11619647
152091.51704947
154708.42754902
157228.06826655
159572.64564046
161657.17612424
163659.23961943
165362.50286441
166836.86924592
168033.34805614
168938.48436786
169535.82033918
169863.91410064
169832.73673923
169534.78962197
168932.28113967
167892.94224332
166687.42146143
165175.36350585
163413.64893797
161407.17813637
159187.25952974
156784.40177279
154222.18553002
151503.6133555
148647.83068535
145614.79240015
142460.36288834
139088.47609727
135630.66335098
131946.65881681
128140.92976436
124253.47536864
120224.95599497
116654.34326464
113435.58402638
110464.05659674
107658.73802956
104969.02770475
102316.88018713
99729.857011527
97174.106233456
94656.913370637
92184.473361854
89761.219643504
87389.404946277
85087.491686756
82836.57911845
80664.080389687
78531.840377738
76481.069700689
74467.513197297
72533.602768721
70628.347567976
68802.049496972
67017.244507356
65300.127009523
63629.464627957
62024.861750378
60465.75780398
58972.331249094
57523.835958353
56136.754444371
54790.529262382
53504.552173477
52255.910547476
51064.132301274
49906.03102243
48802.78292588
47728.836540114
46709.799616852
45713.514948929
44774.72502817
43850.934573034
42993.796034723
42131.5795912
41344.793371129
40555.945171909
39788.132820594
39064.849449515
38270.483204742
270326.60796051
266683.08621129
264630.67235028
262575.12478344
260399.52994744
258042.65380061
255461.38328934
252626.06381282
249516.74528554
246121.67859672
242438.05172509
238474.69904287
234252.9051783
229805.18580575
225169.53354859
220384.62331419
215484.03481505
210495.80411137
205441.95185788
200342.04389752
195213.65797086
190073.42560378
184933.6015819
179840.10872872
174854.28716505
169912.579347
165074.75929527
160275.6608278
155577.14818566
150920.41740381
146370.97665806
141867.10204473
137477.81817059
133142.5911863
128930.56641633
124781.13335336
120759.63986527
116810.30906165
112985.20219331
109249.33540537
105626.00910603
102103.42378681
98685.058929707
95366.182585521
92147.894109899
89034.744350232
86014.658845711
83098.572293398
80268.544101961
77545.256089836
74901.03435436
72362.495866095
69896.799794483
67533.994451537
65237.888638846
63039.826553131
60909.90560497
58866.965410112
56893.532265882
55008.900098685
53176.327969043
51433.182519355
49736.590193439
48120.641976127
46549.453766648
45054.556815125
43595.333653894
42209.324668042
40865.43106867
39583.525666091
38328.124596502
37128.63924301
35979.370726105
34881.762644383
33808.059472008
32767.35337643
31766.132536309
30820.209811829
29903.158468275
29010.930570871
28135.614934895
27299.047646863
26499.126229893
25736.793649907
24992.713776473
24268.346363879
23567.872007053
22909.333959693
22269.525103275
21651.624145065
21046.066856439
20464.191246623
19891.652446007
19350.987128171
18820.35689893
18317.167155387
17824.672688073
17348.360354676
16889.985515279
16443.302812708
16016.851929929
15602.267445452
15202.252418829
14809.718497755
14436.226392092
14066.938743581
13703.589402017
13394.162127986
13082.70127224
13391.100734611
15869.222286541
27217.524757071
71034.848361375
127070.60001546
127603.19900156
128752.28378946
131529.56811007
133348.15118962
134496.80787372
135596.81200341
136588.73957598
137519.28959608
138454.50550601
139328.94636511
140293.83816599
141212.33501212
142047.05920169
142939.15262724
143845.58312819
144675.34144678
145396.33197102
145749.70183508
145117.76125438
144347.2901706
143550.03213444
142760.50367686
141964.27273057
141167.7865799
140382.49898491
139605.21506337
138771.80425466
137902.52661613
137054.5435834
136248.26726307
135456.14169591
134673.77077741
133994.57525412
133603.76361576
133452.83741491
133446.65015234
133705.36714947
134214.72817372
135025.16715636
136179.48017337
137688.86034371
139533.25582079
141683.08043429
144056.38081539
146589.26178278
149227.85013266
151864.24750873
154478.26512128
157003.29131078
159317.65482727
161455.72115823
163423.37073965
165121.78231572
166589.76270751
167783.40615725
168688.85230028
169287.6683387
169616.13241258
169589.75928934
169296.21361017
168694.92828823
167662.27924418
166467.22097969
164962.03379043
163211.46273417
161215.15125464
159008.74621948
156621.63620819
154073.2215995
151373.09637134
148527.86856423
145513.89221216
142360.17259121
139005.89242827
135547.57281844
131864.67652926
128076.12677668
124166.37642366
120166.07753017
116610.18813672
113378.89805869
110408.7094697
107606.94290471
104923.88905802
102278.25694405
99699.540536412
97151.96015678
94641.207661407
92175.385989788
89758.947252368
87394.808494759
85098.233634244
82852.958142442
80683.638984581
78555.350573096
76507.218562815
74497.458883682
72566.349099065
70665.949994287
68842.528383675
67063.979273173
65349.793628187
63684.027071756
62082.230667266
60527.601897887
59037.533506936
57593.099893037
56209.041612322
54866.116982414
53582.44562804
52336.021909909
51146.124768907
49989.695285608
48888.409838999
47816.444642126
46799.573079236
45805.9558217
44869.479364174
43948.34264002
43093.518993626
42233.912379665
41449.423879707
40661.960083664
39897.210177918
39173.560193023
38377.806451742
270322.70996555
266670.34767452
264609.64131706
262543.84490657
260355.90736295
257984.71855968
255387.69558295
252534.83593595
249404.64143939
245984.5857636
242273.96127752
238285.0629105
234042.73913223
229580.61407999
224935.55907225
220143.15854141
215234.15168701
210235.5288136
205169.85990147
200059.49177311
194923.11501341
189779.03584396
184648.17095926
179566.00609134
174584.99301193
169638.84432458
164793.55604454
159987.08015269
155282.80712709
150620.38132252
146068.67903295
141563.01815018
137174.09702863
132839.34137277
128630.48590446
124484.89136565
120468.85728844
116522.93787264
112702.71523013
108971.9251525
105354.34070192
101836.99031221
98424.606249727
95110.950783969
91897.137534689
88786.042091956
85767.107432329
82853.993069452
80026.955186122
77306.885528065
74665.819281543
72130.395525973
69667.812618093
67310.365275358
65020.614385456
62829.665001251
60705.740820932
58668.857902162
56700.58758764
54819.082124294
52989.81982965
51248.739315068
49553.727747111
47941.471329415
46371.594260593
44878.760205382
43425.325880281
42041.890055245
40695.295682364
39414.459497557
38165.98907444
36977.406289883
35819.480773275
34717.917140992
33643.342256188
32619.290670315
31621.052184714
30669.835225613
29741.756730961
28858.622580008
27995.907509227
27175.037160254
26372.456724118
25608.398184617
24861.764242166
24150.888422046
23455.275846335
22792.796151786
22143.75651815
21526.926591481
20922.244088964
20347.708213777
19783.867341019
19247.758411286
18721.108021134
18220.461380887
17728.268280498
17259.579467585
16800.542518381
16359.203944146
15930.679946341
15515.05094396
15114.233619305
14720.688954421
14346.60696824
13975.750018379
13614.530797167
13298.24173072
12991.771252405
13301.707360746
15778.875080775
27120.423847589
70889.178496747
126673.19718807
127404.91486017
128785.3305214
131579.60045637
133347.96519844
134551.14285886
135637.41320435
136607.06834756
137525.83261332
138456.02948418
139327.33132038
140253.52365238
141136.33201387
141957.8935333
142833.97884468
143709.36983371
144446.95988805
144982.84085572
145135.21727925
144663.70295013
143988.11320997
143242.85903917
142519.77121548
141777.0193294
141017.44028332
140254.95629284
139493.34811678
138695.60462104
137853.5116998
137015.39013245
136204.75729066
135414.91825864
134639.22285002
133961.88043336
133532.37081438
133358.57372607
133342.4622164
133584.77182422
134091.77698338
134885.95654867
136022.2980504
137518.08629705
139346.54259382
141481.76159039
143853.30281537
146386.56237249
149043.72933203
151718.72771793
154330.95439571
156833.29531174
159204.40213751
161375.02960939
163326.4239694
165035.26475525
166500.01947299
167693.29473832
168603.34642623
169206.23215675
169538.68888413
169514.98817315
169219.30984905
168612.05294797
167572.09439837
166371.24315698
164852.61704808
163095.55265415
161092.02744971
158881.95670184
156494.71112505
153944.20317841
151249.04204397
148402.70172185
145403.31630494
142241.97160242
138904.56038034
135428.94411013
131744.75643586
127967.1256975
124020.54608915
120073.19380731
116534.74947021
113280.58242331
110310.79420836
107514.33672398
104846.35509638
102217.30252361
99647.211717984
97114.732020963
94615.661840131
92161.085534846
89756.151824727
87402.875501381
85115.977953507
82881.377638575
80719.003652355
78595.741430636
76552.134526442
74546.802891551
72619.092614864
70726.835861684
68907.396578032
67137.714817085
65428.59461848
63770.457239395
62174.445878029
60628.127795452
59144.270847179
57706.80112728
56328.868282596
54991.366271604
53712.973878279
52470.385614506
51285.240744021
50132.073340072
49036.079011385
47968.019207071
46957.016437636
45968.495696839
45038.009815375
44122.537471494
43272.970958605
42419.29528696
41639.244350541
40855.785365429
40098.456101078
39376.042160524
38581.649401846
270316.61636091
266650.65592668
264576.64930092
262494.62986334
260287.04376937
257894.15612345
255273.20212349
252391.47028631
249226.08861363
245765.42106927
242013.10114266
237986.55835612
233715.2779087
229232.63895477
224573.47680003
219768.30230945
214845.97420035
209831.90819343
204751.92977261
199629.75540307
194487.72996437
189341.20035971
184231.86391963
179165.78151472
174185.09592325
169239.4083209
164385.06954884
159573.23546653
154862.67490376
150195.5872628
145643.30188516
141137.31599673
136751.75905254
132420.83115542
128217.96998497
124076.25754879
120063.88650756
116128.33715487
112311.72131528
108592.40683795
104979.91710939
101470.39510925
98064.667724929
94759.728188404
91553.621033896
88453.842965397
85445.664029008
82546.260074101
79731.255925375
77025.243040052
74396.972391801
71876.248902344
69426.876678699
67082.744241641
64805.481977198
62626.32899611
60516.003416812
58489.986553529
56533.290213662
54661.772847038
52843.07078009
51110.979394901
49425.53065857
47821.213044718
46259.350163175
44773.072055111
43324.685626126
41946.530762239
40603.918820267
39326.088832395
38081.016349593
36896.024068327
35740.942339838
34642.019481193
33569.990887573
32550.347587463
31554.849049637
30608.993512622
29683.750595166
28804.475862275
27943.47964579
27126.614641931
26326.373199914
25565.742683384
24820.063137847
24112.086105449
23417.624061239
22759.063072696
22113.070198854
21499.39959899
20896.701581574
20324.525794705
19761.928739759
19227.9958801
18702.979797965
18203.517980692
17712.145090974
17244.632973975
16784.438110563
16344.920953196
15915.741630763
15500.364422675
15098.732694059
14704.595180668
14329.224269428
13954.760772703
13595.520585811
13268.486778319
12967.624967245
13277.75664853
15747.939741613
27052.66616794
70648.821276524
126414.11313111
127442.10799516
129122.72173711
131822.22407582
133485.22312072
134659.47267922
135750.04290951
136708.44436264
137596.4294227
138464.20487981
139285.07548453
140162.91058787
141030.45849087
141834.53426015
142666.41272127
143502.24506162
144216.85373501
144681.14872722
144794.45700918
144393.71148086
143742.09553221
143027.3767055
142337.41431434
141596.32499032
140863.93402146
140127.12774271
139384.80739288
138619.32774027
137809.41787841
136982.82598731
136166.29146952
135378.04348766
134608.58076177
133936.90241231
133446.11573762
133236.37584039
133200.98648961
133413.03121369
133892.54685738
134659.92448974
135757.12364659
137227.5706897
139041.01551752
141159.25413989
143526.51229726
146062.17837871
148732.10713239
151427.5723957
154049.65384847
156639.57331145
159018.5674374
161205.96891933
163169.4871255
164888.01489115
166357.55520415
167553.44803932
168469.62713093
169072.82676567
169404.55379841
169382.80113924
169077.91850072
168461.18632968
167405.63145089
166195.31534615
164652.75785879
162876.8351885
160850.1327825
158630.89107144
156239.3084609
153692.18719676
151019.3365626
148179.95737854
145199.11624451
142032.57463305
138715.22960687
135215.90602058
131536.63722319
127766.91191164
123779.98294592
119944.85094126
116409.99439932
113147.73359234
110172.47163526
107390.85483927
104728.48935636
102116.44377458
99556.646349204
97038.045684819
94556.655200804
92118.446486472
89733.741293087
87400.105280703
85132.853316254
82911.352881534
80760.937277965
78645.439686614
76610.727810993
74616.96066206
72696.593316412
70821.385906071
69009.281971426
67252.593941718
65553.435214638
63909.082412082
62323.691859204
60790.697178776
59318.733589367
57892.140466674
56525.739432192
55196.99962295
53928.163834207
52692.345384857
51515.909096555
50368.932541326
49282.009006312
48220.532119712
47219.018905038
46238.155509517
45317.39826924
44410.056188182
43569.074645244
42723.130484528
41949.932746902
41169.735902074
40430.963638898
39709.234254227
38917.843632609
270308.55410992
266625.20733622
264531.62485333
262426.61355514
260192.71082711
257772.05773278
255120.40936987
252199.05995779
248984.16864404
245467.95929355
241662.49407913
237590.65654365
233285.72621612
228777.19556785
224097.56968467
219270.70950235
214327.5905016
209290.98867526
204194.67374892
199059.43341901
193916.28327456
188771.14306014
183678.83603168
178633.04824068
173647.42130997
168699.10528794
163834.07816188
159019.80039583
154300.07176889
149624.08327627
145066.55612307
140557.97128439
136176.92455141
131851.98296367
127659.80440988
123529.28694439
119532.75646377
115608.85876109
111809.53882975
108102.77104828
104506.40217292
101010.35753243
97619.06906283
94327.627735623
91136.367172336
88051.355229055
85058.615095624
82174.36286837
79374.881093943
76684.068993117
74070.986066684
71565.76740529
69131.55288648
66802.103771007
64539.984870854
62374.560634399
60277.453302096
58263.33476104
56318.329008627
54457.061205062
52648.291214978
50924.624886803
49247.449992373
47650.431265974
46095.704630803
44615.291837718
43173.668634587
41801.329574106
40464.313322775
39191.284220954
37950.656286893
36771.27277356
35620.239797203
34525.577946241
33456.674434277
32442.158123882
31450.962212919
30509.826977013
29589.078181107
28714.654074207
27858.690855853
27046.08559057
26250.201186679
25493.776656483
24752.377149976
24048.306834614
23357.76213061
22702.043148178
22058.523238357
21447.140277674
20846.732603944
20276.438368492
19715.997282221
19183.398650196
18659.698899219
18160.882793012
17670.054147101
17204.240925466
16743.200036327
16304.939299796
15872.750819245
15460.95566505
15056.233591906
14658.807617034
14281.07115177
13903.746348769
13553.783830546
13225.744889932
12946.814957691
13258.796108951
15714.935728561
26935.813697995
70107.076640918
126049.00866388
127535.10748675
129535.6983807
132048.10223221
133678.31152825
134864.89101808
135878.65000659
136776.79692012
137641.41228448
138427.87636375
139196.69832947
139996.06304944
140857.35905895
141707.88809674
142520.48689024
143337.0805067
144044.14968878
144452.97939361
144438.46688743
144151.09052028
143501.21453427
142780.42855183
142152.3026078
141501.66377387
140790.14553072
140044.1814167
139328.45272722
138587.18918439
137795.64606115
136973.74254959
136155.63948351
135364.89719841
134623.95023503
133936.86374067
133390.41979229
133127.50923165
133071.94034974
133246.9518261
133681.3365593
134403.27918196
135459.74611779
136873.45211813
138640.10083142
140728.8115396
143115.16979763
145666.15580089
148363.76512677
151104.11176699
153838.34711085
156396.77340385
158840.86743865
161047.26154888
163025.06905372
164752.8588436
166229.08641813
167431.43673728
168351.66039691
168954.35763041
169280.02389173
169259.32870036
168946.64239786
168315.09902025
167229.22640399
166004.58059606
164420.09904814
162615.70652208
160561.34085045
158324.78223477
155911.22003466
153343.94112936
150665.19896863
147851.63376766
144900.25499931
141746.59739683
138435.12118176
134920.35109191
131272.3394607
127455.74543158
123494.98082701
119747.60945905
116248.51867052
113011.39328704
110051.25084304
107251.83735472
104584.33103752
101985.50650383
99438.913251104
96935.352984007
94476.628490674
92060.897566447
89703.901838459
87397.452929563
85156.049252578
82953.156789717
80822.320038174
78722.820417467
76698.792869789
74722.553149114
72811.074008013
70955.451410281
69154.278735802
67415.273736124
65728.833880318
64102.008089846
62532.729175655
61015.583788923
59560.373827662
58146.821342477
56794.627865146
55476.497792997
54220.48413809
52993.501892763
51829.747369255
50691.277414619
49617.952898367
48565.681447893
47577.386652222
46606.377368383
45699.116982327
44799.219022143
43970.346604381
43132.573299396
42370.200065931
41592.487129686
40873.482698016
40158.454931901
39376.196015723
270298.24633242
266593.98100122
264472.43806608
262337.89458058
260075.03308511
257622.65968905
254927.19372663
251948.36253173
248666.29590278
245080.93273415
241214.65439165
237092.85039194
232749.79630002
228207.32364006
223496.99383243
218637.53213681
213665.67720962
208603.08457681
203490.55904392
198345.282425
193208.63814505
188071.06117037
182989.86393443
177955.2560147
172969.88174641
168008.3244307
163116.22698814
158295.04788347
153567.68709218
148885.8085611
144331.9873116
139827.97777737
135458.95974471
131145.4799929
126969.71587011
122854.14485115
118871.96597195
114967.30086079
111180.7698412
107492.98209024
103910.99849375
100431.23359586
97055.283288263
93782.568793139
90608.369910865
87543.384917241
84568.767289713
81704.156470725
78922.719531119
76250.847363826
73655.672160091
71168.777568622
68752.390352365
66441.137370542
64195.975065505
62047.458229548
59966.488480448
57968.197907303
56038.063377983
54190.774524337
52395.013452756
50683.359838134
49017.345498421
47430.605305232
45885.358846329
44414.213870684
42980.865744897
41616.880143455
40286.794600197
39021.550350674
37787.595131104
36614.119125011
35468.649836855
34379.831920274
33316.486970461
32306.891768314
31320.341941134
30383.456889341
29467.176905395
28597.519790899
27746.456692272
26938.32821382
26146.79004373
25395.223319677
24658.499546818
23958.986256161
23272.796986972
22620.909385905
21980.982616513
21372.822635014
20775.725925853
20207.939355254
19650.317404997
19119.709133086
18598.13979024
18101.660715879
17612.609970355
17149.87048468
16687.249219969
16249.467301862
15814.724383537
15398.33032001
14992.726524884
14598.492914547
14228.043177621
13857.90054914
13518.947706948
13195.773722734
12930.66627679
13240.040439183
15656.133332399
26693.330881189
68997.944235213
125648.48767323
127902.2601517
130202.39084317
132443.96670626
133971.42007997
135123.18294148
136043.65050147
136819.67862326
137583.29330117
138340.06081849
139122.45657685
139918.02547089
140740.24028146
141578.83506645
142378.52968978
143159.09478848
143864.15271247
144321.45988784
144375.78120941
144018.8700616
143412.39764658
142776.612406
142189.87321854
141473.11880307
140765.01119426
140070.76001631
139364.49139197
138643.28537479
137856.40578898
137054.77197493
136227.20786575
135413.71232098
134669.30714071
133950.65508249
133355.51265924
133037.9565874
132948.63503642
133079.44515076
133449.60436917
134105.71121641
135077.57812825
136406.44830444
138135.79617976
140221.12565281
142599.10491151
145141.23897305
147935.01402651
150718.1170315
153456.03646742
156106.63671373
158598.52634578
160834.16801141
162825.193485
164559.28042508
166047.17257342
167257.17354597
168178.57747957
168779.69086905
169088.70112922
169055.31817941
168721.6109049
168056.33706418
166935.93287892
165702.72885947
164068.13831905
162230.86937066
160149.29607368
157883.19118434
155445.74834527
152867.90868005
150195.47576729
147386.37556385
144440.65231576
141321.2352191
138012.55087596
134496.26112798
130860.29862213
127003.63363864
123086.29235282
119459.6180345
116058.15291292
112885.45105593
109922.82626569
107100.55340115
104409.87624226
101803.58330181
99264.17838968
96772.161995044
94340.804787919
91957.954116623
89640.866465315
87367.673535953
85158.818039171
82981.073293633
80876.226709991
78808.081129309
76803.364357991
74854.101186378
72958.925459417
71130.374763487
69344.548686826
67629.720934756
65961.626948555
64354.335591308
62808.106669652
61307.991939874
59873.399582229
58477.022603684
57142.810974472
55839.524333896
54600.358234812
53386.218783455
52239.620156969
51114.436956672
50057.304533979
49017.043702477
48045.869107823
47084.230564039
46197.804473913
45303.467902857
44491.107562816
43662.913663923
42913.242585989
42141.553052774
41441.031923471
40737.418364295
39979.575119113
270287.6588647
266558.10492519
264396.06467964
262224.45519383
259932.4825104
257443.07443063
254689.60787316
251633.37028603
248267.38435362
244605.49283384
240675.37193201
236502.04956989
232112.29248571
227524.69268977
222768.93882062
217867.10110985
212859.72068597
207772.89688294
202645.7650128
197496.81639991
192371.33995119
187245.6723546
182171.32599486
177118.56745925
172116.16289819
167136.46796189
162234.91505752
157408.33869643
152687.1061706
148006.72930571
143462.80965989
138965.9489729
134608.05840794
130310.22634985
126143.38742224
122051.04257363
118079.71844354
114195.9498788
110426.30861232
106756.26973356
103195.51146429
99735.260656295
96381.473398055
93131.861778993
89981.973568785
86939.700739438
83989.42104945
81146.872297405
78389.436177174
75739.327888156
73167.746058406
70702.284290664
68308.755882194
66017.956032062
63794.109024167
61664.963232896
59602.502481196
57622.550500917
55708.685704125
53878.292473288
52096.839256246
50399.326602804
48746.102432968
47171.700018229
45637.458162704
44177.248735868
42753.499285181
41399.243681131
40077.857043552
38821.76427374
37595.329348387
36430.462916282
35292.242448321
34212.036499792
33155.94247729
32153.934942374
31173.55092179
30243.684054293
29333.492974181
28470.732254745
27625.545643213
26824.118566734
26038.336818495
25292.89531693
24561.527559491
23867.383705872
23185.906445162
22538.763605725
21902.844791543
21298.667114015
20704.320340046
20139.292911321
19583.183336871
19054.764243606
18532.5268526
18037.564221042
17547.009696651
17082.38672737
16618.963232102
16179.201298574
15746.262178827
15337.219109635
14944.407972893
14563.701617378
14204.979959627
13849.915860374
13528.286306684
13212.748553635
12962.914326862
13262.98066924
15604.73789011
26364.521202158
67530.83037468
125179.58810738
128884.54796911
130999.15383527
132854.21887959
134219.33425397
135246.73667661
136176.58112542
136970.79993446
137722.57020589
138396.93726036
139091.787737
139800.3932599
140583.48304272
141418.84606182
142264.48787294
143030.01408888
143733.43448326
144260.82025221
144524.03952717
144141.42849651
143581.39385357
142905.66286972
142339.29967651
141669.02301174
140999.61825074
140307.09399703
139625.2348686
138911.89321647
138131.61893635
137273.44890539
136416.12181067
135557.75354555
134749.44903687
134039.79154333
133410.30868487
133040.24770107
132909.11834518
132975.72624224
133270.89353107
133856.05271204
134696.46453343
135862.93568689
137512.29087607
139613.81468414
142010.22013201
144593.28617542
147376.88240816
150240.26007662
153021.78034329
155744.19019875
158297.60261503
160575.55598439
162586.03111739
164336.50722519
165826.7914492
167040.02712067
167950.70092717
168538.10113045
168816.55093972
168762.75535562
168406.4793903
167685.43706372
166525.96131949
165260.57342265
163558.96684789
161664.20885289
159556.70956829
157258.1608088
154806.78052645
152208.80352094
149545.44310977
146751.58960899
143826.21250483
140740.70898879
137422.09794377
133928.98241257
130258.15834703
126377.11756182
122637.3645877
119137.34590815
115868.35158014
112750.7327084
109798.192485
106959.00748131
104235.37463111
101596.72043616
99056.644780147
96575.426451172
94178.614637136
91830.007578954
89559.141023027
87330.445256854
85170.234306819
83030.282004115
80959.787669115
78930.267010447
76953.799551307
75036.662328128
73165.313666615
71364.036037692
69603.764326951
67914.297577991
66276.537668341
64695.474048223
63176.38202507
61702.825928397
60291.472544988
58914.177488115
57601.460699493
56313.579575075
55095.140180754
53894.281137052
52768.857886744
51656.749603657
50623.643115759
49589.378635833
48644.099935235
47685.839049121
46821.380177293
45936.368166142
45143.181239205
44325.510266892
43591.671165996
42832.081147014
42151.213393551
41459.125407311
40728.869313043
270277.78981217
266517.36994336
264294.42813184
262098.88144533
259781.33928299
257230.55601947
254390.83850204
251236.66244068
247780.65683087
244041.54819373
240049.34757333
235814.06467759
231366.52547028
226714.58059982
221901.7980567
216949.59445645
211906.57058553
206799.47248459
201664.44901374
196513.68064482
191400.73794603
186275.29471581
181185.31338736
176100.77968111
171081.42828504
166097.20334177
161203.65008133
156375.24334113
151661.79642653
146986.90553367
142447.92808946
137966.00493477
133612.85995158
129332.73951366
125177.88619234
121101.75844159
117152.45880709
113284.64970359
109544.56426653
105892.79556485
102365.1062656
98925.975067146
95602.676862489
92381.307073456
89259.529302841
86244.572432319
83320.889310174
80504.631831614
77772.388982654
75149.351705491
72602.966933774
70164.00215263
67794.516002325
65529.042481607
63326.63811547
61220.750761421
59178.235040772
57217.458608625
55321.6402813
53508.312921045
51742.600700711
50060.45526813
48421.081603221
46860.381259511
45338.416963109
43890.906202413
42478.380385019
41135.829635103
39824.840833882
38579.590804076
37362.896702123
36207.752265418
35078.333925661
34006.800156135
32958.483335452
31964.331246847
30991.188588148
30068.7377839
29165.258725994
28309.268063784
27470.320470935
26675.38942838
25895.682559683
25156.271294311
24430.630764202
23742.260081314
23065.87026052
22423.898386012
21792.260948975
21196.038794148
20603.132727904
20045.515414574
19489.307979345
18964.796389942
18441.782475211
17945.82289119
17453.675420514
16989.384740636
16527.602361931
16096.543698122
15670.946591892
15276.101198112
14887.873849815
14520.001063287
14171.087991961
13833.010272008
13527.867328304
13221.03219098
12997.200471965
13281.208239149
15485.049565096
25800.924567463
65617.391121284
124673.76086869
130056.72113529
131329.23626196
133191.92767616
134678.34434814
135719.66633952
136563.87676924
137221.08580967
137841.30381596
138391.68113487
139039.92224138
139722.04229972
140490.22772434
141328.2436302
142182.33879665
142970.02272089
143667.83902688
144202.39365629
144589.13007687
144482.01894878
144095.84028754
143466.36381473
142836.44619972
142172.56379293
141465.52414464
140773.62992319
140087.41753865
139341.34807092
138512.65377337
137642.30905137
136762.76198626
135881.33472733
135010.96407409
134252.5210471
133606.44012059
133150.3147559
132941.59384488