/*--------------------------------*- C++ -*----------------------------------*\
| =========                 |                                                 |
| \\      /  F ield         | OpenFOAM: The Open Source CFD Toolbox           |
|  \\    /   O peration     | Version:  2312                                  |
|   \\  /    A nd           | Website:  www.openfoam.com                      |
|    \\/     M anipulation  |                                                 |
\*---------------------------------------------------------------------------*/
FoamFile
{
    version     2.0;
    format      ascii;
    arch        "LSB;label=32;scalar=64";
    class       surfaceScalarField;
    location    "0.0006";
    object      phi;
}
// * * * * * * * * * * * * * * * * * * * * * * * * * * * * * * * * * * * * * //

dimensions      [1 0 -1 0 0 0 0];

oriented        oriented;

internalField   nonuniform List<scalar> 
57240
(
3.299833590129e-08
3.247789830853e-14
3.2997453444426e-08
8.8803233370119e-13
3.2995080875877e-08
2.3793101254541e-12
3.2990359868731e-08
4.7292492286768e-12
3.298229766984e-08
8.0710953109847e-12
3.2969752105081e-08
1.2554581161936e-11
3.2951416847683e-08
1.8342603049862e-11
3.2926024373346e-08
2.5399002050647e-11
3.2892109209599e-08
3.3921126932414e-11
3.2847915126045e-08
4.4199505804365e-11
3.2791345061387e-08
5.6574567001345e-11
3.272060462267e-08
7.0744234979052e-11
3.2634128800904e-08
8.6478208498886e-11
3.2531124055609e-08
1.0300578481741e-10
3.2411178363549e-08
1.1994271067466e-10
3.2274474856892e-08
1.3669945629231e-10
3.2121073239209e-08
1.533944594515e-10
3.1951097303753e-08
1.6996946016286e-10
3.1764393138317e-08
1.8670044695285e-10
3.1560919552859e-08
2.0347476179861e-10
3.1340804923108e-08
2.2011738557619e-10
3.1104503893835e-08
2.3630252254734e-10
3.0853011516031e-08
2.5149648405698e-10
3.0588032598113e-08
2.649535104578e-10
3.0311521127855e-08
2.7647270790859e-10
3.0024011233871e-08
2.8742970300714e-10
2.9725542172746e-08
2.9837539817006e-10
2.941673997907e-08
3.0868066358299e-10
2.909721700359e-08
3.1939293296933e-10
2.8768064884865e-08
3.2901845150371e-10
2.8428768860316e-08
3.3916550683242e-10
2.808130883592e-08
3.4734111827165e-10
2.7724844427833e-08
3.5637470731904e-10
2.736186634924e-08
3.6290896766639e-10
2.6991388813723e-08
3.7044245879102e-10
2.6616294430168e-08
3.7507596407309e-10
2.6235604561849e-08
3.8065074108215e-10
2.5852300100012e-08
3.8331232303516e-10
2.5464585418909e-08
3.8770130400613e-10
2.5075537637462e-08
3.890261622132e-10
2.4683541224969e-08
3.9197166875891e-10
2.4291289486306e-08
3.9214985500808e-10
2.3897470952953e-08
3.9370988732672e-10
2.3504570743156e-08
3.9273812645136e-10
2.3111386513615e-08
3.9299215685525e-10
2.2720178797636e-08
3.9096584661103e-10
2.2329785939096e-08
3.9011498613643e-10
2.1942145382915e-08
3.8731148054401e-10
2.1555401129259e-08
3.8637076459776e-10
2.1171680387851e-08
3.8328687808572e-10
2.0790628604752e-08
3.8056745996119e-10
2.0413811098124e-08
3.7626263138677e-10
2.0040873543951e-08
3.7231268575747e-10
1.9673106919651e-08
3.6707822974696e-10
1.9310040253462e-08
3.6229814980984e-10
1.8952851940963e-08
3.5637910215747e-10
1.8600048142678e-08
3.5193419186573e-10
1.8253821258113e-08
3.4531849663469e-10
1.7911373281793e-08
3.4151291531229e-10
1.7575914210966e-08
3.3455692186504e-10
1.724440373155e-08
3.3044024101613e-10
1.69203828476e-08
3.2298553799894e-10
1.6600939031824e-08
3.1891171281926e-10
1.6290217480118e-08
3.1004987253399e-10
1.5981498160471e-08
3.0616748264015e-10
1.5683519427331e-08
2.989919787734e-10
1.5392524335271e-08
2.9315955509383e-10
1.510461535467e-08
2.8397150031623e-10
1.4815831770858e-08
2.8129899501997e-10
1.4542419949759e-08
2.7814171688227e-10
1.4280373849095e-08
2.7175731555082e-10
1.4019010462595e-08
2.5916352473894e-10
1.3746319046351e-08
2.5646476436386e-10
1.3487797956084e-08
2.567046305608e-10
1.3245729893477e-08
2.5599648678031e-10
1.3011658028379e-08
2.4472779504916e-10
1.2772756256707e-08
2.3446667341825e-10
1.2526766216439e-08
2.2984468746384e-10
1.2290180883064e-08
2.3092499981748e-10
1.2072685156763e-08
2.272283556654e-10
1.1864109798828e-08
2.2082775318207e-10
1.1655971047714e-08
2.0811375876908e-10
1.1436436182589e-08
2.0469232384027e-10
1.1224713465179e-08
2.0464368363059e-10
1.1026949491978e-08
2.0659164592388e-10
1.0838615337937e-08
2.0105558681557e-10
1.0649185827891e-08
1.9359642809055e-10
1.0454486665813e-08
1.8778798667701e-10
1.0260272083069e-08
1.8675757044576e-10
1.0076994609781e-08
1.8031550208249e-10
9.9023820348467e-09
1.763723285878e-10
9.73460182566e-09
1.7235321500962e-10
9.5701228359813e-09
1.6837101109484e-10
9.407034763178e-09
1.6306912404503e-10
9.2448081694156e-09
1.5878168132227e-10
9.0867508069628e-09
1.5583153339479e-10
8.9336079400821e-09
1.5305528137323e-10
8.7855297813315e-09
1.4999735227612e-10
8.6406141105344e-09
1.474480555851e-10
8.4969478950329e-09
1.4324254044586e-10
8.354673027613e-09
1.4081981800171e-10
8.2156249209118e-09
1.382732700159e-10
8.0799694623676e-09
1.3515697278236e-10
7.9474467154481e-09
1.3221531057226e-10
7.8188689791396e-09
1.2947656346058e-10
7.6893822367033e-09
1.270328936971e-10
7.5713868490063e-09
1.2457968123277e-10
7.4428213321721e-09
1.2247256522419e-10
7.3250261585775e-09
1.2020262387119e-10
7.2084117509553e-09
1.1954946860019e-10
7.0992419045962e-09
1.2345599647616e-10
6.9895781010807e-09
1.4075761546605e-10
6.9972316013052e-09
2.9982565302119e-10
6.6905688786162e-09
4.6402567011138e-10
6.3074603265642e-09
4.245653645605e-10
5.9281453179564e-09
3.8181627103547e-10
5.5849200262366e-09
3.6259298306576e-10
5.2302017598303e-09
3.6860106674503e-10
4.9002519571808e-09
3.3901487774363e-10
4.5979824943189e-09
3.1301131570083e-10
4.3039900994714e-09
3.0521975552629e-10
4.0039301475782e-09
3.1148674929101e-10
3.6867957108728e-09
3.270097651631e-10
3.356104160835e-09
3.3663238310941e-10
3.0480354848409e-09
3.120002159882e-10
2.7427064205187e-09
3.0289688285324e-10
2.3971536662534e-09
3.403237372407e-10
1.9683478759369e-09
4.2214100426303e-10
1.4039411046387e-09
5.573725542676e-10
6.4652720935288e-10
7.497284412976e-10
-3.337887921945e-10
9.7233911173295e-10
-1.4255570529617e-09
1.0800355256397e-09
-2.2993890838093e-09
8.5942409357946e-10
-3.0451150626511e-09
7.2891475114369e-10
-3.6785824346389e-09
6.1150234949609e-10
-4.2131250460315e-09
5.0598346553262e-10
-4.6640168135816e-09
4.1522415831243e-10
-5.0440073123149e-09
3.3811677942098e-10
-5.3600585019179e-09
2.6915453673079e-10
-5.620290213543e-09
2.0415346386235e-10
-5.8320899414554e-09
1.4865808818198e-10
-6.0011244165082e-09
1.0311908318377e-10
-6.1308966614675e-09
6.4391308259483e-11
-6.2236851055449e-09
2.9018016735633e-11
-6.2844934708361e-09
-1.7400694901401e-12
-6.3231217691101e-09
-2.2685779784773e-11
-6.3411105320175e-09
-3.835925375562e-11
-6.3337605890405e-09
-5.6795603672627e-11
-6.2864173261431e-09
-9.4582021015706e-11
-6.1992676612269e-09
-1.2581643548334e-10
-6.0782688849723e-09
-1.5360831818753e-10
-5.9187260696882e-09
-1.8202592724983e-10
-5.7178653132687e-09
-2.1075906815888e-10
-5.4730642625741e-09
-2.3970039068442e-10
-5.1828149739189e-09
-2.6939169356057e-10
-4.8454667350417e-09
-3.0102790690374e-10
-4.4563886332356e-09
-3.378578276695e-10
-4.0206801128348e-09
-3.7126378605684e-10
-3.5427197486145e-09
-4.016405554517e-10
-3.0229897555508e-09
-4.3458994537882e-10
-2.4745548195599e-09
-4.5783188776418e-10
-1.8973486655792e-09
-4.8274986878461e-10
-1.2969127487569e-09
-5.0483304728761e-10
-6.7835152574016e-10
-5.2484719899464e-10
-5.8302450460271e-11
-5.3480112066603e-10
5.8994157573884e-10
-5.4989186598881e-10
1.2476553428875e-09
-5.6064051246422e-10
1.9136283749893e-09
-5.7270169322471e-10
2.5869097959777e-09
-5.829331776681e-10
3.2620504905518e-09
-5.8745052269903e-10
3.9332137799951e-09
-5.8559889406196e-10
4.6068580971014e-09
-5.916518009182e-10
5.2694637871287e-09
-5.8283030630788e-10
5.9222764065435e-09
-5.766744338079e-10
6.5610908047156e-09
-5.6479842237688e-10
7.1798168046079e-09
-5.4785770635157e-10
7.771593712847e-09
-5.251588922619e-10
8.3364806775668e-09
-5.0128182647269e-10
8.8695555974009e-09
-4.7311374925718e-10
9.3673437747237e-09
-4.4133353245802e-10
9.8269794797944e-09
-4.0634731230967e-10
1.0249094180068e-08
-3.7160283103919e-10
1.0635127096888e-08
-3.3754228280546e-10
1.0987871559732e-08
-3.0576322345244e-10
1.1308113031689e-08
-2.752138288911e-10
1.159882014854e-08
-2.4619316253383e-10
1.1862864650762e-08
-2.2193005262168e-10
1.2098250270458e-08
-1.9315986410666e-10
1.2310262772103e-08
-1.743805778545e-10
1.2490922593375e-08
-1.4320662767924e-10
1.2647787401853e-08
-1.2568821052521e-10
1.2775479736236e-08
-9.9994095764417e-11
1.2868787171503e-08
-7.4523839031112e-11
1.2934259746103e-08
-5.8698944513605e-11
1.2975287640746e-08
-4.1015864549733e-11
1.2994668724403e-08
-2.1872569530423e-11
1.2998032509948e-08
-6.3733744173254e-12
1.2988742686273e-08
7.5880363175949e-12
1.2968371958733e-08
1.890593946193e-11
1.2938935806817e-08
2.8537877847488e-11
1.2901058066384e-08
3.7313705580281e-11
1.2856602419247e-08
4.3639735228626e-11
1.2804509329208e-08
5.0868335193156e-11
1.2747148682542e-08
5.5119007764544e-11
1.2683273491089e-08
6.0426348739735e-11
1.2615131045143e-08
6.2912217621201e-11
1.2541539849304e-08
6.6378318011564e-11
1.2464554638018e-08
6.7535204947177e-11
1.2383329572949e-08
6.940934607689e-11
1.2298900216687e-08
7.0059889940002e-11
1.221120044568e-08
7.0710323364389e-11
1.2120491277912e-08
7.0964239100842e-11
1.2027109684917e-08
7.0805776957617e-11
1.1931525202052e-08
7.0195960631748e-11
1.1833579096909e-08
6.9567576351197e-11
1.1734458400295e-08
6.7781587284504e-11
1.1633253655474e-08
6.7071134447715e-11
1.153162812863e-08
6.4705477758521e-11
1.1428249235057e-08
6.3822521513609e-11
1.1325139998124e-08
6.0946892281296e-11
1.1220762671345e-08
5.9613635383879e-11
1.1116985680722e-08
5.6324736288339e-11
1.10122235134e-08
5.4630846222194e-11
1.0908469997977e-08
5.0927802871252e-11
1.0803778687851e-08
4.9176217570907e-11
1.0700619677433e-08
4.5039597369539e-11
1.0596437753998e-08
4.3557264452032e-11
1.049457639822e-08
3.8746041080136e-11
1.0391430255512e-08
3.7805058959161e-11
1.0291484579746e-08
3.2175600536493e-11
1.0190061490564e-08
3.1648761501427e-11
1.0092650672643e-08
2.5392359390922e-11
9.9938156300765e-09
2.4925501073925e-11
9.899354661339e-09
1.8305232045351e-11
9.8033418093389e-09
1.7910621053898e-11
9.712551661065e-09
1.0919570560246e-11
9.6203637814447e-09
1.044596776511e-11
9.5323961607451e-09
3.4989475800719e-12
9.4425672809544e-09
2.8750294109724e-12
-3.9963435015683e-12
9.8995097997428e-08
1.2991549368849e-13
9.8992517258277e-08
3.4814144333964e-12
9.8985412302124e-08
9.5043612460248e-12
9.8971228920949e-08
1.8936145362594e-11
9.8946855176014e-08
3.2470166246879e-11
9.890889670042e-08
5.0539155307528e-11
9.8853635291376e-08
7.3630145876371e-11
9.8777225645588e-08
1.0183331068974e-10
9.867492348867e-08
1.3624527827989e-10
9.8541337326565e-08
1.7780325319739e-10
9.837031967116e-08
2.2760428359621e-10
9.8156590851166e-08
2.8448020803532e-10
9.7895721640157e-08
3.4734788880768e-10
9.7585786783082e-08
4.1293371279661e-10
9.7225571636278e-08
4.8013774714265e-10
9.6815626619199e-08
5.4661917153399e-10
9.6355621857257e-08
6.133665670894e-10
9.5845950695435e-08
6.7961452046374e-10
9.5285913199828e-08
7.4672686643212e-10
9.467596304699e-08
8.1344215280771e-10
9.4016587011826e-08
8.7952773845509e-10
9.3309560494853e-08
9.4337752809806e-10
9.2557957969578e-08
1.0031370093304e-09
9.176837354635e-08
1.0545277338991e-09
9.0942728358798e-08
1.1020787772489e-09
9.0084661577835e-08
1.1453335509489e-09
8.9193617862362e-08
1.1892067928988e-09
8.8271280735497e-08
1.2307308939831e-09
8.7317573765041e-08
1.272752235098e-09
8.6334804161643e-08
1.3114134539498e-09
8.5322821520593e-08
1.350756144628e-09
8.4285365715156e-08
1.3844327798579e-09
8.3222448361558e-08
1.4189786939084e-09
8.2138590953884e-08
1.4465099441841e-09
8.1033802763457e-08
1.4750530473603e-09
7.9913167006704e-08
1.4955918021485e-09
7.8776060746665e-08
1.5175898904394e-09
7.7628505748903e-08
1.5308523023563e-09
7.6469538378393e-08
1.5466383651356e-09
7.5304225984155e-08
1.5542534705563e-09
7.4132193314451e-08
1.5639609107174e-09
7.2957788037277e-08
1.5663295060859e-09
7.1780178183973e-08
1.5710204541055e-09
7.0604296245416e-08
1.5681595902456e-09
6.9429168846785e-08
1.5675873649954e-09
6.8258734556886e-08
1.5607097086886e-09
6.7091515204264e-08
1.5565342105832e-09
6.5931456989202e-08
1.5464238970449e-09
6.4777815589812e-08
1.5389566345182e-09
6.3634492279606e-08
1.5253750984338e-09
6.2500040787244e-08
1.5136586337281e-09
6.1378033526125e-08
1.4966988925929e-09
6.0266890937522e-08
1.4817318661346e-09
5.91695702176e-08
1.4624486847571e-09
5.8084469962929e-08
1.4452943555713e-09
5.7015262581882e-08
1.423239113722e-09
5.5960377809937e-08
1.4043355140852e-09
5.4923254280266e-08
1.3800405372731e-09
5.3902364433277e-08
1.359747305788e-09
5.2900041799318e-08
1.3339961557084e-09
5.1914584354664e-08
1.3134831679371e-09
5.0948217396452e-08
1.2868034724189e-09
4.9997450959003e-08
1.2662987338246e-09
4.9065838921649e-08
1.2390004754073e-09
4.8152030680677e-08
1.2190477758173e-09
4.7256787533023e-08
1.191222960925e-09
4.6371827726757e-08
1.171743369475e-09
4.5512669642373e-08
1.1445138586266e-09
4.4673154400107e-08
1.1255335916e-09
4.384903546419e-08
1.0977256752428e-09
4.30232328357e-08
1.0805697217286e-09
4.2229862864157e-08
1.0549958934888e-09
4.1465255010133e-08
1.0387352618148e-09
4.0714130551134e-08
1.0112668002861e-09
3.9954714987649e-08
9.9519273869549e-10
3.9212866698202e-08
9.7132651524144e-10
3.850160852217e-08
9.5638462295359e-10
3.7816148935347e-08
9.3371698003439e-10
3.7137485407173e-08
9.1660550073548e-10
3.6460561836392e-08
8.9325495649298e-10
3.5782877781308e-08
8.7789641999864e-10
3.5135691731193e-08
8.5715968654668e-10
3.4515832157989e-08
8.4275315613098e-10
3.3909054330067e-08
8.1980233056597e-10
3.3301142223851e-08
8.0363911578718e-10
3.2698972269227e-08
7.836268954766e-10
3.2120133199891e-08
7.6924240869671e-10
3.1565929510137e-08
7.5151710948967e-10
3.1024096007095e-08
7.3732033510975e-10
3.048821146676e-08
7.193991774676e-10
2.9955282721682e-08
7.0510468952643e-10
2.9431291217358e-08
6.8817236719646e-10
2.8918717192836e-08
6.7477429741507e-10
2.8422128867396e-08
6.5954591023819e-10
2.7938485375292e-08
6.4665292433426e-10
2.7467022022486e-08
6.3096494297271e-10
2.7002231892852e-08
6.1824168535512e-10
2.6547209122377e-08
6.0345259198622e-10
2.6100892637154e-08
5.9080094934825e-10
2.566616984998e-08
5.7835138136453e-10
2.5244978006802e-08
5.6540994833015e-10
2.4831812182248e-08
5.5369379093502e-10
2.4426715573104e-08
5.4203867246405e-10
2.4028347550427e-08
5.3125206604724e-10
2.3640253260221e-08
5.2047019632759e-10
2.3249732224395e-08
5.1043429849615e-10
2.2892526902401e-08
5.0032841951877e-10
2.2505413953538e-08
4.9203210736453e-10
2.2147779903476e-08
4.8319336797641e-10
2.1794031795987e-08
4.8150428042153e-10
2.146362681151e-08
4.9655044350711e-10
2.1114922261933e-08
5.8142929256336e-10
2.1305085328761e-08
1.0341130312642e-09
2.0337648321784e-08
1.9050381834613e-09
1.9112296474212e-08
1.7742545553952e-09
1.7931306408227e-08
1.5660246199216e-09
1.6874724295652e-08
1.4768137733008e-09
1.5825561876582e-08
1.4604676987744e-09
1.4828222833939e-08
1.3618673184313e-09
1.3873446651097e-08
1.299238138223e-09
1.2923760319726e-08
1.2872291105255e-09
1.1946014505406e-08
1.3222335121502e-09
1.0942767553738e-08
1.3596514645998e-09
9.9703219648194e-09
1.3228879418374e-09
9.0524686467215e-09
1.2369036033389e-09
8.1320226776021e-09
1.2114997378241e-09
7.0968664700764e-09
1.355103505894e-09
5.8363334719883e-09
1.6582051763898e-09
4.2158499647167e-09
2.1514560541256e-09
2.1059389126459e-09
2.8321280812494e-09
-5.095501711062e-10
3.5548175567205e-09
-3.4127760659511e-09
3.9361194854996e-09
-5.8517660750812e-09
3.2455521774857e-09
-7.9514134735123e-09
2.7698901098684e-09
-9.7667228239392e-09
2.3564550006605e-09
-1.1320009611637e-08
1.9711487247976e-09
-1.2653091063286e-08
1.6433195001448e-09
-1.3791491326701e-08
1.3549228875497e-09
-1.4757561006949e-08
1.0954193039572e-09
-1.5571664603872e-08
8.5556767133937e-10
-1.6250830901071e-08
6.4080471578765e-10
-1.6802456111235e-08
4.5852785423168e-10
-1.7234548206238e-08
3.0031371111353e-10
-1.755295457942e-08
1.5620762949574e-10
-1.7764427924633e-08
2.4664319743067e-11
-1.7895438886538e-08
-7.0631745798993e-11
-1.7953972645293e-08
-1.4407609029851e-10
-1.7935970940968e-08
-2.1728024267845e-10
-1.7806570096288e-08
-3.5689634238556e-10
-1.7556253125302e-08
-4.8330703937775e-10
-1.720066456965e-08
-5.9507311324374e-10
-1.6730363444667e-08
-7.100148574998e-10
-1.613468533888e-08
-8.2468356154485e-10
-1.540408824752e-08
-9.4332172025068e-10
-1.4531470572257e-08
-1.0677053834653e-09
-1.3514780729789e-08
-1.1966084678503e-09
-1.2342189937214e-08
-1.3448155994243e-09
-1.102411831491e-08
-1.4845231237878e-09
-9.5763366429851e-09
-1.6097069299517e-09
-8.0025558908464e-09
-1.743121264572e-09
-6.3355334682153e-09
-1.8447712191159e-09
-4.5857672152635e-09
-1.9432698471488e-09
-2.7649370008188e-09
-2.0332530961952e-09
-8.9161766588793e-10
-2.1057964299128e-09
9.9817869925881e-10
-2.1449297228326e-09
2.956109982838e-09
-2.2052852902508e-09
4.9414356276896e-09
-2.2480833458343e-09
6.9523699269437e-09
-2.2942845186671e-09
8.9821135573271e-09
-2.3303801528946e-09
1.1022068588917e-08
-2.3518519169491e-09
1.305428115764e-08
-2.3483752991017e-09
1.5088933328516e-08
-2.3661315697892e-09
1.7092833463674e-08
-2.3338258318663e-09
1.9060740972704e-08
-2.3020343790541e-09
2.0984966529524e-08
-2.2535304392686e-09
2.2849486361408e-08
-2.185777972925e-09
2.4632085737696e-08
-2.0942275792809e-09
2.6332656352054e-08
-1.9966976746447e-09
2.7935430581096e-08
-1.8820617554772e-09
2.9428418161948e-08
-1.7514292110125e-09
3.0806332926055e-08
-1.6111415843156e-09
3.2070089623648e-08
-1.4710833218017e-09
3.3222923213728e-08
-1.3325886711903e-09
3.4271621971358e-08
-1.2024851215853e-09
3.5218155481289e-08
-1.075931182408e-09
3.6072945703578e-08
-9.5845757707879e-10
3.6841578851552e-08
-8.5468759382684e-10
3.7524719245819e-08
-7.4290288606521e-10
3.8129902556652e-08
-6.5840618132858e-10
3.8640806448891e-08
-5.3663926504096e-10
3.9075118834731e-08
-4.6072054856702e-10
3.9416766881571e-08
-3.5305964825253e-10
3.9663461310371e-08
-2.6183044331692e-10
3.9822620995077e-08
-1.9383588903768e-10
3.9908415385315e-08
-1.2418784802535e-10
3.9931003611361e-08
-5.0118047617256e-11
3.991465776265e-08
4.4542295986602e-12
3.9866997942751e-08
5.3853061191097e-11
3.9791165720867e-08
9.3745694915692e-11
3.9690314939226e-08
1.2963094078051e-10
3.956403371075e-08
1.6445145629383e-10
3.9416695596482e-08
1.9060394816564e-10
3.9246336362606e-08
2.1893673239207e-10
3.9058187892316e-08
2.3738522806471e-10
3.8851840377332e-08
2.5627675887579e-10
3.8631659367826e-08
2.6737751786168e-10
3.8396721001303e-08
2.7933085507137e-10
3.8150635347756e-08
2.8443837861981e-10
3.789314360038e-08
2.9020036183916e-10
3.7625089915693e-08
2.9345441614584e-10
3.7348475106785e-08
2.9451796078048e-10
3.7061998111051e-08
2.9610119603235e-10
3.6767942636942e-08
2.9461451103177e-10
3.6467160468393e-08
2.9196000072922e-10
3.615874936225e-08
2.8952744275429e-10
3.5846508760405e-08
2.8236380237255e-10
3.5527705922263e-08
2.7942692633678e-10
3.5207172551571e-08
2.6994140182732e-10
3.488123900518e-08
2.6612279925366e-10
3.4555912850957e-08
2.543346061073e-10
3.4226534968692e-08
2.488537451244e-10
3.3898980073351e-08
2.352712346133e-10
3.3568425000971e-08
2.2823915362715e-10
3.3240923068238e-08
2.1308502927824e-10
3.2911060498446e-08
2.0542814758602e-10
3.2585630577396e-08
1.8879347867356e-10
3.225803483293e-08
1.8174698820901e-10
3.1937137932085e-08
1.6258183089394e-10
3.1613468840908e-08
1.574748444115e-10
3.1299307728358e-08
1.3491761942976e-10
3.0981495429457e-08
1.3182870868618e-10
3.0676168457954e-08
1.0616728464815e-10
3.0366761180924e-08
1.0396243530002e-10
3.0071252948574e-08
7.6307338328792e-11
2.9771338689275e-08
7.4626016204171e-11
2.9487943456628e-08
4.5525461725152e-11
2.9199685214881e-08
4.4344249969773e-11
2.8925936176788e-08
1.4515172408125e-11
2.8646079154818e-08
1.2542511384978e-11
-1.7392615644924e-11
1.6499201309063e-07
4.1257286370722e-13
1.6498802079647e-07
7.5054681466927e-12
1.6497626523513e-07
2.1289773889614e-11
1.6495247492697e-07
4.2766034017208e-11
1.6491130346802e-07
7.3688266059968e-11
1.6484709821246e-07
1.1479504135102e-10
1.6475412593648e-07
1.6665018405673e-10
1.6462610816573e-07
2.2989988322694e-10
1.6445416044859e-07
3.0823590030322e-10
1.6422855631039e-07
4.0343585756642e-10
1.6393913504516e-07
5.1703589328494e-10
1.6357813072108e-07
6.4547481188266e-10
1.6313910187757e-07
7.8635036207755e-10
1.6261982241845e-07
9.3216639566605e-10
1.6201766673294e-07
1.0822247340507e-09
1.6133331170703e-07
1.2308921100092e-09
1.6056434925817e-07
1.3822418644468e-09
1.5971209809128e-07
1.5317918861006e-09
1.5877408448826e-07
1.684710917146e-09
1.5775398284272e-07
1.8335830010764e-09
1.5665096190122e-07
1.9826505106846e-09
1.5547260737473e-07
2.1218692043576e-09
1.5421798076494e-07
2.2579476608608e-09
1.5290612918211e-07
2.3664893244553e-09
1.5152904476109e-07
2.4792061915549e-09
1.5009829068268e-07
2.5759751639557e-09
1.4860913615926e-07
2.6781581510303e-09
1.4706797177152e-07
2.7715643354682e-09
1.4547307812444e-07
2.8671561233494e-09
1.4382947980284e-07
2.9544111080813e-09
1.4213647613836e-07
3.0430717680712e-09
1.4040037437813e-07
3.119820727397e-09
1.3862085071395e-07
3.1977890781427e-09
1.3680638640867e-07
3.2603123934084e-09
1.3495594889294e-07
3.3249210725085e-09
1.3307964670912e-07
3.3714360894936e-09
1.3117428732184e-07
3.422458937587e-09
1.2925250076064e-07
3.4524322642445e-09
1.2731107461835e-07
3.487943334573e-09
1.253607318187e-07
3.5044233118522e-09
1.2339925262901e-07
3.5254214026844e-09
1.2143489230122e-07
3.5304124268947e-09
1.1946556451638e-07
3.5400404437052e-09
1.1749897010004e-07
3.5341708813277e-09
1.1553253931159e-07
3.5333203290745e-09
1.1357425857016e-07
3.5179981822676e-09
1.1162145502067e-07
3.5081168774393e-09
1.096816931344e-07
3.4846575491434e-09
1.0775319101535e-07
3.4657175057297e-09
1.0584211613788e-07
3.4344100401922e-09
1.0394584951536e-07
3.4076741468589e-09
1.0207072337349e-07
3.3692687057603e-09
1.002144395191e-07
3.3352275589471e-09
9.8382933534809e-08
3.2908951302766e-09
9.6573573630954e-08
3.2514208453046e-09
9.4791090584446e-08
3.2021858249153e-09
9.3032732674305e-08
3.1590048758083e-09
9.1304061742338e-08
3.1049410207262e-09
8.9601261455882e-08
3.0585730990811e-09
8.7929002729682e-08
3.0021856109578e-09
8.6284143767729e-08
2.9543294382316e-09
8.4670210790701e-08
2.8965647014791e-09
8.3084131955596e-08
2.8483312370738e-09
8.1529143268864e-08
2.789686598378e-09
8.0002544211567e-08
2.7419134032262e-09
7.8507393366656e-08
2.6830164305366e-09
7.7039642781962e-08
2.6352352771772e-09
7.5602515240777e-08
2.5772747464193e-09
7.419383494875e-08
2.5316954428805e-09
7.2814668322019e-08
2.4748604245798e-09
7.1462414622635e-08
2.4299178299858e-09
7.0139002019148e-08
2.375520586211e-09
6.8842255267904e-08
2.3335511584244e-09
6.7572600700365e-08
2.2806800678432e-09
6.6328430546888e-08
2.2383367750535e-09
6.5113162573676e-08
2.1873331945782e-09
6.3921306478522e-08
2.1477339528477e-09
6.2753326781286e-08
2.0994376545439e-09
6.1609571980612e-08
2.0599938994599e-09
6.0491649401657e-08
2.0119216088617e-09
5.9399369907949e-08
1.9726951271749e-09
5.8329744824088e-08
1.927050486038e-09
5.728037725919e-08
1.8896127806096e-09
5.6253932923751e-08
1.8452179110818e-09
5.5250243805932e-08
1.8078344106041e-09
5.4270554955887e-08
1.7646843238958e-09
5.3311758508375e-08
1.7291956074696e-09
5.2372132091817e-08
1.689334415667e-09
5.1451279274447e-08
1.6556798396138e-09
5.0552050480013e-08
1.6173549864257e-09
4.9673138070048e-08
1.5843527486996e-09
4.8814756579255e-08
1.5474247380465e-09
4.7974502742743e-08
1.5157509994856e-09
4.7152887456843e-08
1.4809198285805e-09
4.6347488065575e-08
1.4506438915826e-09
4.5560323338873e-08
1.4174351554858e-09
4.4790069017643e-08
1.3883325206705e-09
4.4037572889782e-08
1.3570291210174e-09
4.3300583368683e-08
1.3284202423191e-09
4.2579055944052e-08
1.2999622403752e-09
4.1871712424757e-08
1.2725691291074e-09
4.1178744184552e-08
1.246417596391e-09
4.0500018252137e-08
1.2206222708462e-09
3.9834495899546e-08
1.1964771299897e-09
3.9184930752341e-08
1.1735690909257e-09
3.8530600131517e-08
1.1521237521277e-09
3.7932472039223e-08
1.1297958482143e-09
3.7280502470983e-08
1.1119818066732e-09
3.6688066673552e-08
1.0878510130196e-09
3.6104505723208e-08
1.0799122338224e-09
3.5560218563752e-08
1.112390337395e-09
3.5009552405434e-08
1.2870331111141e-09
3.514532038183e-08
2.4542942321921e-09
3.3437501444907e-08
4.3995487232175e-09
3.1391026066555e-08
4.0305508960962e-09
2.945800815364e-08
3.5070648467476e-09
2.7738420647429e-08
3.2882030593368e-09
2.6021136229877e-08
3.2508552223956e-09
2.431803533347e-08
3.107797422599e-09
2.2629977697473e-08
3.0360341491583e-09
2.0950098735855e-08
3.0187392118284e-09
1.9308289960258e-08
3.0177615988391e-09
1.7752623706419e-08
2.9602020544401e-09
1.6291923833364e-08
2.8026036059165e-09
1.4903245421015e-08
2.6294442060297e-09
1.3515564820081e-08
2.5707412712518e-09
1.1967014559653e-08
2.8576441606475e-09
1.0095831512902e-08
3.474687574444e-09
7.7268158425908e-09
4.4578910929142e-09
4.6976663953138e-09
5.7914131136748e-09
9.5200970685062e-10
7.221048921038e-09
-3.2956321681889e-09
8.0774772699462e-09
-7.0177804035175e-09
6.8549589018363e-09
-1.0232344532231e-08
5.8617188939077e-09
-1.3047261252383e-08
5.0323890418877e-09
-1.5486156379328e-08
4.2457457423373e-09
-1.7633995899228e-08
3.6015477437086e-09
-1.9515988788897e-08
3.0223084375368e-09
-2.1153969925295e-08
2.4915496601858e-09
-2.2558904634264e-08
1.9868668218738e-09
-2.3765854239442e-08
1.5377844208006e-09
-2.4777880982198e-08
1.14168783107e-09
-2.5595697060842e-08
7.8450683272263e-10
-2.6225697348513e-08
4.584345596226e-10
-2.6661215445012e-08
1.4614352764156e-10
-2.6929304385621e-08
-9.7960668295885e-11
-2.7063593569695e-08
-2.8032835015025e-10
-2.7050894685656e-08
-4.6623811234727e-10
-2.6855213017028e-08
-7.6208479351419e-10
-2.6470780107659e-08
-1.0363216208918e-09
-2.5903163389596e-08
-1.2906515805811e-09
-2.5144086361053e-08
-1.5492264843391e-09
-2.4171158016577e-08
-1.8102779993296e-09
-2.2969925868985e-08
-2.0821312816917e-09
-2.1518862521373e-08
-2.3761056705413e-09
-1.9814713684256e-08
-2.6778775976938e-09
-1.7843865870933e-08
-3.0182417881091e-09
-1.561510515599e-08
-3.3513284736749e-09
-1.3164744038122e-08
-3.6432603421925e-09
-1.0500823226466e-08
-3.9473500361006e-09
-7.6626504078341e-09
-4.2024296104331e-09
-4.6826059638802e-09
-4.4356296718686e-09
-1.5959069172715e-09
-4.6095593752245e-09
1.5751928715918e-09
-4.7859735443031e-09
4.8122498788577e-09
-4.8650621145723e-09
8.1175058099232e-09
-4.9970305682331e-09
1.1466520254093e-08
-5.0929872183323e-09
1.4856278430321e-08
-5.1898635864142e-09
1.8272830290424e-08
-5.2624197818989e-09
2.1718009710984e-08
-5.3213757401306e-09
2.5149287421163e-08
-5.3139921759295e-09
2.8582969817587e-08
-5.3470142333029e-09
3.1964000417776e-08
-5.2773536834918e-09
3.5274717848297e-08
-5.18993861019e-09
3.8506994778526e-08
-5.0779660448902e-09
4.1635449793705e-08
-4.9203526934747e-09
4.4621736862393e-08
-4.7099036111785e-09
4.7468640876965e-08
-4.484501773955e-09
5.0144003443984e-08
-4.2173309956026e-09
5.262226036e-08
-3.9086373217707e-09
5.490691357393e-08
-3.5913062226326e-09
5.6996269851207e-08
-3.2708568572031e-09
5.8890974725325e-08
-2.9494493853629e-09
6.0598125012326e-08
-2.6435603838556e-09
6.2124292268931e-08
-2.3452309955826e-09
6.3490559050863e-08
-2.0756530398318e-09
6.4700688149672e-08
-1.8260383703841e-09
6.5766005948518e-08
-1.579124509435e-09
6.6682531268907e-08
-1.3627117015646e-09
6.7444982791872e-08
-1.1002866246527e-09
6.8068051326224e-08
-9.1103802697005e-10
6.8516874080662e-08
-6.5556553378412e-10
6.8832752841804e-08
-4.7695263922612e-10
6.8990674053771e-08
-3.0503545046929e-10
6.9029644139427e-08
-1.5241974247626e-10
6.8994668067887e-08
-1.4753974349591e-11
6.8923191410261e-08
8.0656478615109e-11
6.8802170642766e-08
1.8154160689623e-10
6.8632545211607e-08
2.6998435852165e-10
6.8420854628712e-08
3.4757290228748e-10
6.8165203643697e-08
4.2526153816162e-10
6.7871833057849e-08
4.8561648778318e-10
6.7540928871903e-08
5.4704725940075e-10
6.7178242552627e-08
5.9042605702938e-10
6.6786695686283e-08
6.3014734311943e-10
6.6371423082664e-08
6.546392578119e-10
6.5934029233802e-08
6.7739233505592e-10
6.5476235976772e-08
6.9064672934665e-10
6.5001496795997e-08
7.0032881677733e-10
6.4507319461187e-08
7.0920359724471e-10
6.3999705343401e-08
7.0917048679244e-10
6.3476304500668e-08
7.1161248160248e-10
6.2939068965037e-08
7.0771361436848e-10
6.2391840953404e-08
6.9959615381125e-10
6.1830925058853e-08
6.9414254705036e-10
6.1264320617432e-08
6.7630007817087e-10
6.0686494331835e-08
6.6900800829493e-10
6.0106884850477e-08
6.4573599497206e-10
5.9518336281453e-08
6.3629834118372e-10
5.8932412036099e-08
6.0732252953015e-10
5.8340491948775e-08
5.9369386324685e-10
5.7753092641887e-08
5.609307404074e-10
5.716210883889e-08
5.4339709977698e-10
5.6577788577979e-08
5.0736829996794e-10
5.599144667789e-08
4.8803360100932e-10
5.5413734940027e-08
4.4911919442734e-10
5.4834623373382e-08
4.3052926957619e-10
5.426783543162e-08
3.8611208933026e-10
5.3698706264622e-08
3.7143055102979e-10
5.3146756425065e-08
3.1927143241099e-10
5.2590226062715e-08
3.0992078085036e-10
5.2056504922313e-08
2.4962018202203e-10
5.1516467440254e-08
2.4381034130631e-10
5.1001685709659e-08
1.7828812135324e-10
5.0480262118461e-08
1.7385987572141e-10
4.998806899683e-08
1.0552582553431e-10
4.9486966549639e-08
1.0382202442865e-10
4.9013305512215e-08
3.1899367838051e-11
4.8528410309526e-08
2.8702681184315e-11
-4.361297273089e-11
2.3098918333986e-07
1.1082112176668e-12
2.3098434271264e-07
1.2367023315503e-11
2.3096834805118e-07
3.7347472274605e-11
2.3093448885603e-07
7.6687107430073e-11
2.3087497375212e-07
1.3326959380987e-10