/*--------------------------------*- C++ -*----------------------------------*\
| =========                 |                                                 |
| \\      /  F ield         | OpenFOAM: The Open Source CFD Toolbox           |
|  \\    /   O peration     | Version:  2312                                  |
|   \\  /    A nd           | Website:  www.openfoam.com                      |
|    \\/     M anipulation  |                                                 |
\*---------------------------------------------------------------------------*/
FoamFile
{
    version     2.0;
    format      ascii;
    arch        "LSB;label=32;scalar=64";
    class       volScalarField;
    location    "0.0006";
    object      rho;
}
// * * * * * * * * * * * * * * * * * * * * * * * * * * * * * * * * * * * * * //

dimensions      [1 -3 0 0 0 0 0];

internalField   nonuniform List<scalar> 
28800
(
3.8248091146067
3.7848394905125
3.764060406505
3.7434728044042
3.7217508596681
3.6982224659596
3.6723969471343
3.6439334447523
3.6125942312481
3.5782110784947
3.540681171353
3.5000165477833
3.4563518018904
3.4099576192124
3.3611874404222
3.3104363140937
3.2580601381194
3.2043554775393
3.1495427159864
3.0938001219847
3.037288138194
2.9801638096411
2.9224651226248
2.8647214141937
2.807696491162
2.7508650971543
2.6947344874909
2.6386958115799
2.5833034226183
2.5280102530103
2.4734036716766
2.4189487028967
2.3653016066308
2.3118928997576
2.2594330660035
2.2073259663223
2.1563015735725
2.1058020364678
2.0563643843518
2.007617723732
1.9598562400908
1.9129454594874
1.8669712105545
1.8218811701479
1.7776828409868
1.7345363364196
1.6922005848025
1.6509900617313
1.6104880106652
1.5710414433498
1.5322831987246
1.4947637828638
1.4578786386074
1.4223255176426
1.3873441446328
1.3537524020292
1.3206300810576
1.2888417048228
1.2574887218898
1.2274401960171
1.1977056741713
1.1693284880928
1.1411931970768
1.1145330277576
1.0880519006673
1.0627458911638
1.0382059053011
1.0143861044653
0.99068015710288
0.96801551450196
0.94646783613755
0.92565268700186
0.90431890480463
0.88359146439209
0.86404155223996
0.84577803709656
0.82728126591251
0.80879663807353
0.79036482176553
0.77359989679625
0.75758334652948
0.74206753757971
0.72608610401347
0.71030763459069
0.69528796355188
0.68146185379031
0.66763376821278
0.65367272445068
0.63962386306476
0.6264598398602
0.6137441612056
0.60170694016331
0.58998525412848
0.57853805667883
0.56714012109778
0.55612350035056
0.54528892413043
0.53499242982168
0.5249201392594
0.51506828175387
0.50531687106382
0.49573427221471
0.48654849314136
0.47739324580977
0.46875967731522
0.46009227153293
0.45148709308369
0.44403577340381
0.43373684692638
0.43051250180557
0.44405463938541
0.51415941289117
0.95581975871275
1.596454619152
1.5971044762838
1.6015099100337
1.6286840400144
1.6467053815087
1.6579544165134
1.6701199817494
1.6822246876582
1.6942284014037
1.7072254387849
1.7213501505813
1.7377371700852
1.7553092498584
1.773683123659
1.7944943731334
1.8163157675885
1.8370209908727
1.8560684953964
1.8883765319111
1.9753240767321
1.9715395853315
1.9707145831194
1.9718763775532
1.9739854766198
1.9764892292812
1.9789324315827
1.9805085501467
1.9799522556295
1.9776951687051
1.9744778975504
1.9705696809698
1.9656270343109
1.9599027928891
1.9552789146246
1.9539162689572
1.9549610732293
1.9574559597379
1.9630998642062
1.9715759402496
1.983569641135
1.9994480055663
2.0191830530971
2.0425280375772
2.069069050808
2.0976085391392
2.1276603217983
2.1585625163964
2.1889859665534
2.219200057688
2.248189681114
2.2750559851839
2.2987852424632
2.3192090587582
2.3417403237673
2.3608919121403
2.3765655508199
2.3889138127778
2.3978477796741
2.4039482324634
2.4059561773588
2.4050664821762
2.4005387059499
2.3892196280131
2.3831324630671
2.3691069711673
2.3521901773793
2.3323314769463
2.3097980073956
2.2849258019432
2.2580248962894
2.2290813111945
2.1983868460264
2.1653253853451
2.1308359093331
2.0934338770877
2.0549734805673
2.0134733497593
1.970101336053
1.9256009025609
1.8780617138051
1.835222701861
1.7960914832414
1.7595792888499
1.7248358866042
1.6916268901692
1.6589046023972
1.627058799557
1.5956182016687
1.5646532846857
1.5341935982851
1.5042954651748
1.4749300901896
1.4463706758874
1.4182907031277
1.3911231603927
1.364300374298
1.3384116137278
1.3128258915464
1.2881534713283
1.2636825231934
1.2401109082211
1.2168916986455
1.1944409022688
1.1724065292749
1.1511417301144
1.130287756232
1.1102128637049
1.0905588973579
1.071638347749
1.0530817341122
1.0352649090893
1.0177744065125
1.0009949498981
0.98450424742126
0.96872101657754
0.95317523156006
0.93837472799391
0.92371293485674
0.90988851514227
0.89605982263498
0.88330342940488
0.87018751191281
0.85831669810489
0.84632649813343
0.83448605191808
0.82362404586675
0.80881663268261
3.8247992323168
3.7847827079758
3.763961679278
3.7433209913833
3.7215332009419
3.6979269882619
3.6720184505621
3.6434629937211
3.6120125476659
3.5774965918984
3.5398257298764
3.4990262482579
3.4552534584692
3.4087941253675
3.3600048173783
3.309269285416
3.2569230176334
3.2032513176113
3.1484704181048
3.0927741123286
3.0363349003875
2.9793239208738
2.9217808068435
2.8642936922936
2.8075123243758
2.7508484589262
2.6948889202515
2.6389961781
2.5837719443497
2.5286358437504
2.4742361822614
2.4199623587888
2.3665286437199
2.3133086427043
2.2610632768061
2.2091342586817
2.1582744986491
2.1078683889649
2.0585343793394
2.0098747371204
1.9622027116573
1.9153753946416
1.8694874798897
1.8244797025423
1.7803802145353
1.7373140423789
1.6950703579656
1.6539089488287
1.6134902108441
1.574271962696
1.5357214422885
1.498423516709
1.461731319475
1.4263111211195
1.3914389738933
1.3578003208754
1.3248100254755
1.2928986671168
1.2616980681874
1.2317162653072
1.2021534965495
1.1738897579492
1.1459905510057
1.119276080507
1.0929474439959
1.0677744871546
1.0428226918756
1.0190290660463
0.99568592017763
0.97328725058225
0.95098952638777
0.92957345048711
0.90893464413976
0.88908534229887
0.86934880300967
0.85002802181419
0.83131005568336
0.81361267142094
0.7962703412382
0.77918478977181
0.76214815610286
0.74580561301188
0.73012071271769
0.71510458528512
0.70021734255074
0.68554019247923
0.67120429211368
0.65776150116988
0.64459723734674
0.63178642943483
0.61902980428864
0.60670106840146
0.59440337676067
0.58280412927303
0.57128546635066
0.56033157168596
0.54949693179789
0.53890940053025
0.52865668597558
0.51856061726134
0.5089111262173
0.4994384097842
0.49026591055997
0.48112729860301
0.47244494883765
0.46372639765572
0.45501419405659
0.44758206317337
0.43713653917775
0.43386672077412
0.44732106882846
0.51720317738286
0.95869956049157
1.6026748928228
1.602657078066
1.6071780955485
1.6337373997106
1.6514214502506
1.6629199532123
1.6752480659836
1.6873970483914
1.6998894731624
1.713483591509
1.7272929134108
1.7435829128002
1.7609013019701
1.7791752498391
1.799906984512
1.8218431525166
1.8427523802568
1.8612415889358
1.8920410949551
1.9735126579373
1.9678444534175
1.9647702102805
1.9637302076915
1.9639113719534
1.9649710906529
1.9665436220197
1.9681571780945
1.968592351635
1.9677655025905
1.9660123902184
1.9632874276324
1.9591220514144
1.9535867639287
1.9485411891174
1.9466235310589
1.9470703395298
1.9491486408117
1.9545558242325
1.9630000029511
1.9750376759742
1.9910465972487
2.0110148634156
2.0345937057828
2.061371743161
2.0902505506356
2.1205944687326
2.1518974719473
2.1828190547376
2.2133803162522
2.242760733372
2.2696003716219
2.2924239813168
2.3167713676261
2.338833658578
2.3579129706305
2.3738284670628
2.386583299803
2.3959942477235
2.4026002778317
2.4051840770834
2.4049211171427
2.4010340760461
2.3903746846641
2.3847783802497
2.3714076802229
2.3552311616921
2.3360925678373
2.3143317709261
2.290270671412
2.2641178521488
2.2359357737599
2.2058160394276
2.1734024616114
2.1392387051725
2.1023164366828
2.0640680784911
2.0226406579742
1.979610568165
1.9347378588033
1.887613435556
1.8448617830335
1.8054052005619
1.768763664693
1.7340516774925
1.7010355935149
1.6684998630849
1.6368564316215
1.6056118264622
1.5747960332373
1.5444751749994
1.5146834653929
1.4854189256387
1.4569116451644
1.4288765828728
1.40170250145
1.3748705333899
1.348938403566
1.3233098776152
1.2985618788135
1.2740217344412
1.2503308220273
1.2270108222731
1.2043885220867
1.1821930316072
1.1607080195291
1.1396403555723
1.1193163656361
1.0994116681872
1.0802148125479
1.0613809651977
1.0432706541458
1.0254835450129
1.0084087943285
0.99161801455687
0.97555087630524
0.95972088313937
0.94465300100784
0.92973517049233
0.91566395205535
0.90160075172983
0.8886230225647
0.8752896231466
0.86322389512695
0.85102440651156
0.83902808736497
0.82796438953367
0.8129449773355
3.8247777667734
3.7846706366819
3.7637692481136
3.7430284473649
3.7211187160622
3.6973691517548
3.6713032700667
3.6425758615629
3.6109215245826
3.5761563548937
3.5382095596463
3.4971440305353
3.4531570170309
3.4065537836194
3.3576828761544
3.3068978428268
3.2544983292162
3.2007574384211
3.1458884368034
3.0901213371123
3.0336345728495
2.9766042414602
2.9192033897384
2.8619062436782
2.8052475556928
2.7486082124411
2.6926213394982
2.6366877380035
2.5814240066315
2.5262306373861
2.4717963496815
2.4174707711348
2.3639933665573
2.3107112923833
2.2584196550096
2.2064356230856
2.1555302717664
2.1050503201099
2.0556566570636
2.0069429777138
1.9592299606659
1.912361533535
1.8664464071303
1.8214045774581
1.777263647632
1.7341286796375
1.6918043447191
1.6505994668712
1.6101389283626
1.5708867505614
1.5323013541005
1.4949710180358
1.4582421619033
1.4228287338017
1.3879836852144
1.3543933716798
1.3214360984409
1.2895634424704
1.2583937469239
1.2284062194955
1.1988446101691
1.1705591825916
1.1426311230916
1.1159328640962
1.0895685802486
1.0643769435475
1.0395094361762
1.015722909061
0.99225070754615
0.96982160605458
0.94766393090045
0.92647250120915
0.90554026425179
0.88553223418371
0.86575593815853
0.84684478801594
0.82815937646527
0.81026038748749
0.79255340586396
0.77564403793726
0.75892003096652
0.74294689098763
0.72710036654248
0.71194871247207
0.69695087364406
0.68264344260129
0.66846552697047
0.65490665851122
0.64142836020374
0.6285893103869
0.61583193236738
0.60369158097589
0.59161398281618
0.58010185240816
0.56863434114376
0.55770851390331
0.54682959674487
0.53643961336466
0.52616449278602
0.51621980368687
0.50649334184473
0.49696799990708
0.4877539901936
0.47858118315619
0.46988176227726
0.46110913783878
0.45246928368781
0.44479634166659
0.43446755829305
0.43123741044508
0.44477016243146
0.51482332809031
0.95594498937695
1.5973028081838
1.5997784338432
1.6073753230066
1.6348441650883
1.6526678812985
1.6655867738392
1.6785439458908
1.6911958938113
1.7041952698686
1.718260675566
1.7324524644138
1.748441992639
1.7651417365608
1.7826540625466
1.8021754625413
1.822333962359
1.8408208977987
1.8557575099042
1.8758200388867
1.9597825960159
1.9559117481208
1.9535293271504
1.9524370301282
1.9519711538014
1.9520657014459
1.952555963589
1.9534432922987
1.9540249026524
1.9539158583251
1.9532767904966
1.9518342000565
1.9490225903979
1.9444375373648
1.939440339008
1.936812496881
1.9367275662175
1.9385560338281
1.9438011346929
1.9524342227956
1.9646534547314
1.980977198749
2.0014297500206
2.0255283970095
2.0528554550211
2.0824004010856
2.1133347643555
2.1454080941401
2.1772096437157
2.2082115395407
2.2375084027617
2.2641453813381
2.2902462249843
2.3152898649416
2.3373254907545
2.356576886583
2.3728374637046
2.3860736005769
2.3959853543361
2.4031332520562
2.4062275147991
2.4064735956354
2.4031260749007
2.3929932688986
2.3874201976533
2.3744383776561
2.3587841371727
2.3401099392289
2.3188774744363
2.2954212337891
2.2698003558504
2.2421925324161
2.2124724269714
2.1806615177067
2.1467056580719
2.1102702950082
2.0719969807636
2.0306125853822
1.9879006951505
1.9425829852286
1.8959023380662
1.8532593383329
1.813351099584
1.7767330537064
1.7424430726689
1.7099277036579
1.6778620283969
1.6465402740209
1.6156566509002
1.5851072659964
1.5550150506919
1.5254235788509
1.4963173599114
1.4679204593075
1.4399830728533
1.4128305091339
1.38597012982
1.3599662350559
1.3342341737436
1.3093306792276
1.2846597859618
1.2607487341752
1.2372537290824
1.214368492235
1.1919327364753
1.1701580284386
1.1488360387324
1.1282211696118
1.1080409365027
1.0885668300906
1.0694538997615
1.0510826496704
1.0330207569249
1.0157086907342
0.99866082835769
0.98239324213078
0.96634136295587
0.9511073651056
0.93601396287472
0.92180315394764
0.90760416601743
0.89450153329313
0.88106117392514
0.8688897771629
0.85656926449326
0.84453867374117
0.83334442273886
0.81822545237808
3.824743781761
3.7844982586996
3.7634676400522
3.7425684684443
3.7204618768719
3.6964941283538
3.6701924228246
3.6411813184513
3.6091760036804
3.5739949478795
3.5356089645994
3.4941374184094
3.4498346193055
3.403013080701
3.3540034884924
3.3031071391343
3.2505942723235
3.1967205838145
3.141722305626
3.0858558001761
3.0293290940339
2.9722655957119
2.9151558215234
2.8580835327203
2.801496735903
2.7449012682167
2.6888379475296
2.6328278917833
2.5774543549821
2.522128807038
2.467581962792
2.4131219284227
2.3595475187222
2.3061699038951
2.2538267619449
2.2017898873197
2.1508524392035
2.1004234938818
2.0510161555647
2.0023771590193
1.9546688577016
1.9078459959056
1.8619588913658
1.8169775228801
1.7728771040685
1.7298382405388
1.6875961485402
1.6465276045041
1.6061759067576
1.5670731093618
1.528617418317
1.4914570485664
1.4548777788415
1.4196212370883
1.3849271041452
1.3514744834916
1.318701369413
1.286962119769
1.2559491807076
1.2260873963557
1.1966716486773
1.1685018898995
1.1407084899519
1.1141162373533
1.0878665198135
1.0627647228174
1.0379585747093
1.0142426168767
0.99082099483865
0.96842379734652
0.94629797857525
0.92514389445112
0.9042433522794
0.88427831591109
0.86452719764456
0.84566563433276
0.8269959039453
0.8091970196219
0.79153332539626
0.77469546898669
0.75797028860838
0.7420589855845
0.7262494180131
0.71117634256337
0.69618472579766
0.68191781955235
0.66772677715429
0.65423948835724
0.6408211929483
0.62804722910548
0.61532326878368
0.60322270271862
0.59116515369073
0.57969633197448
0.56826836271218
0.55737152475664
0.54650665260928
0.53614952916792
0.52583118552018
0.51593543128491
0.50619134146066
0.49667533947217
0.48744058548472
0.47825113994094
0.46951717702819
0.4606310235967
0.45206426924222
0.44404243344974
0.43385682179892
0.43065234067952
0.44416809855335
0.51414217773051
0.95360840870084
1.5947298228577
1.6002746746837
1.6118521219922
1.6390348937974
1.6562611779553
1.6694728837382
1.6832047072978
1.6964941663095
1.7098518746842
1.7238189840889
1.7379732688272
1.7536302302215
1.7699888723162
1.786564332032
1.8043091680021
1.8227158595926
1.8397562129352
1.853202009357
1.8621077586539
1.9440031678496
1.9416473109772
1.9411813414984
1.940767425541
1.9401866333972
1.9394437007867
1.938688170968
1.9384186779079
1.938410047092
1.9381610504598
1.9376327855778
1.9366864350497
1.9350551469513
1.9320139179495
1.927688024027
1.9243717925163
1.9238261465168
1.9253963391656
1.9304262471773
1.9390874246808
1.9514973852019
1.9680340221687
1.9890298757964
2.0138096499496
2.0418081205602
2.0720379997448
2.1035267579448
2.1362034390022
2.1683132818638
2.2007229724391
2.2295904130581
2.259365596996
2.2869863911234
2.3121472368905
2.3345451191233
2.3542610333503
2.3710308400349
2.3848744088513
2.3953274511735
2.4030540179797
2.4067211511046
2.4074279384573
2.4046374497345
2.3949898347177
2.3891854930877
2.3763434123199
2.3608976537921
2.3424338572714
2.3216628221473
2.2987823454438
2.2738240961403
2.2470807786964
2.2179215092278
2.1868228239146
2.1531201093331
2.1173025161474
2.0788917515531
2.0377903734165
1.9954406141053
1.9493026362667
1.9036665587338
1.8609216369701
1.8210575977948
1.7850389326948
1.7514409490827
1.7193315992541
1.687750760392
1.6567405827761
1.6261547652037
1.5959074666516
1.5660447244158
1.5367033653609
1.507797314379
1.4795649701745
1.4516756511024
1.4245111212229
1.3975448128542
1.3714032403965
1.3455295779186
1.3204022469867
1.2955924567291
1.2713918299002
1.2476828313917
1.2245142447258
1.2018588970089
1.1798148240394
1.1582847047316
1.1374648061441
1.1170828577797
1.0974521082715
1.07815698324
1.0596466364532
1.0414115492477
1.0239833229376
1.0067803113259
0.99042793800414
0.97424830308258
0.95895779321216
0.94377767187794
0.92953609458457
0.91529612379554
0.90214496061448
0.88870298065292
0.87648972953634
0.86410060692175
0.85222063706876
0.84091810514682
0.82577744998476
3.8246974674329
3.7842804987895
3.7630578380428
3.7419307259589
3.7195571026735
3.6953106989329
3.6687119611828
3.6393143291208
3.6068112488674
3.5710517366146
3.5320971140015
3.4901309848881
3.4454615195639
3.3983658484654
3.3491536120222
3.2980473374183
3.245335442016
3.1912357190268
3.136073405394
3.0800673364118
3.023534436458
2.9664788684699
2.9095843816875
2.8527460220235
2.7961395229655
2.7394839934451
2.6832252302251
2.6270433038356
2.5714114159338
2.5158315620114
2.4611011770283
2.4065029194835
2.3528941339316
2.2995069658976
2.2472162592464
2.1952352703703
2.144412498339
2.0940591152215
2.0447956775477
1.9962538776017
1.948686028707
1.9019713736302
1.8562073864057
1.8113406175255
1.7673741777147
1.7244768959701
1.6823868244219
1.6414741929328
1.6012850491865
1.5623474007503
1.5240569832967
1.4870759623406
1.4506732876603
1.4155893947431
1.3810825666533
1.3477966915192
1.3151900147584
1.2835966303811
1.2527337808549
1.2230002300969
1.1937129772872
1.1656471300836
1.1379603876605
1.1114582103305
1.0852996013144
1.0602643012933
1.0355478062333
1.0119046583346
0.98854939291508
0.96620556469807
0.94412841378423
0.92305643174487
0.90219658361032
0.88227934391669
0.86255077420691
0.84376767134311
0.82515002887693
0.8074144582233
0.78980695371409
0.77303687313186
0.75638272743806
0.74052999448428
0.72477693555381
0.70976669888358
0.69484009817734
0.68063589353751
0.66650279994779
0.65305726477149
0.6396699121665
0.62692990319522
0.61423977094626
0.60216952705635
0.5901384306528
0.57868850009933
0.56727257688286
0.55638406088519
0.54551492126304
0.53520022868984
0.52485067221401
0.51499032328358
0.50514219471954
0.49572217892937
0.48639099270304
0.477089462378
0.46826723279615
0.45923937961751
0.45090595128438
0.4427445563007
0.4331833880753
0.43009068165663
0.44364043837423
0.51355510500226
0.94864291472791
1.591688638666
1.6022246790938
1.6184885793164
1.6443164672497
1.6617837862316
1.6758778024197
1.6894287961595
1.7027747248962
1.7165807683106
1.7301584668384
1.7442081672845
1.7592756548742
1.7754275771277
1.7917615692913
1.8081612359448
1.8250335198043
1.8405704649975
1.8517098804536
1.8558160565098
1.923795540727
1.9248651834164
1.9267395424565
1.9262198370735
1.9276851248649
1.9272164464649
1.9253495186007
1.9239059072077
1.9229279609802
1.9219012065956
1.9207414492674
1.9194232289098
1.9180101745725
1.9163074962824
1.9133372745508
1.9098802047045
1.9089391577475
1.91043853631
1.9153044685394
1.9238623330378
1.9363273782993
1.9531480757546
1.974450634773
1.9995312374007
2.0275593626198
2.0583381476955
2.090115287726
2.1243852904385
2.1572369153744
2.1912089826829
2.2234509865084
2.2544865760007
2.2826840082251
2.3084567411361
2.3315020135319
2.3519291381955
2.3694368338759
2.3840281563484
2.3951770884429
2.4035780797486
2.4079643993463
2.4093117033486
2.4072029785941
2.3980822438197
2.392014282705
2.3792005487264
2.363969683686
2.3455085610017
2.3248718068353
2.301923185859
2.2769235463894
2.2506341731447
2.2224119961793
2.1922247570043
2.1590664635589
2.1238264537851
2.0853493112017
2.0448080134486
2.0017112245049
1.9555065731814
1.9107595393584
1.8687626419568
1.8301146653989
1.7948427381033
1.7613398465776
1.7293707893186
1.6981205387339
1.6673895438967
1.6370282138813
1.6070542934647
1.577395155505
1.548292200045
1.5195633801098
1.4914553894395
1.4635488249292
1.4363307433824
1.4092121306153
1.3828187107579
1.356741771209
1.3312877084483
1.3063249802708
1.28183068165
1.257946054537
1.2345245617636
1.2117125222562
1.1895273947
1.1678873779441
1.1470176415144
1.126550601507
1.1068886835727
1.0875181417181
1.0689968499841
1.0506887973523
1.0332742097073
1.0160088324131
0.99969958350251
0.98348051557346
0.96823755529085
0.95305209108331
0.93886337186721
0.92462761285006
0.91151026356287
0.89813563012747
0.88594089283289
0.87351876122737
0.86182609757414
0.85054823518916
0.83549742310746
3.8246356333335
3.7840211771615
3.7625180801973
3.7410875233468
3.718422191768
3.6938752090125
3.6668544417813
3.636884575479
3.6036894787574
3.5671928310491
3.5275761186174
3.4850598356106
3.4399775743652
3.392522410591
3.3429944355934
3.291546350049
3.23853091808
3.1841413829986
3.1287982174017
3.0726493329745
3.0161883057202
2.9591925974236
2.9024022094484
2.8456383438687
2.7889591014892
2.7319964247137
2.6753202307849
2.6189372715303
2.563117212211
2.5073623203782
2.4525716778445
2.3979238396907
2.3443663722166
2.2910298199861
2.2388603338385
2.186985281059
2.1362686138483
2.0860676587239
2.0368911716242
1.9884994095271
1.9410367054554
1.8944529311107
1.8488056078654
1.8041082966347
1.7602876680387
1.7175864540506
1.6756675786425
1.6349542885481
1.5949444519144
1.5562054392651
1.5181018525775
1.4813207615314
1.4451143420573
1.4102435435731
1.3759317241246
1.3428512425275
1.3104380532723
1.279044080562
1.2483666314825
1.2188125938707
1.1896900183006
1.1617795924262
1.1342338636257
1.107864568162
1.0818231589981
1.0569112406537
1.0322964504245
1.0087662320966
0.98549191920985
0.96325990669226
0.94126722957832
0.92026960796932
0.89947469663845
0.87963841956068
0.85998384083682
0.84126385230386
0.82270182787156
0.80502257325006
0.78747812491622
0.77078289407352
0.75420445422863
0.73842224595855
0.72273599627259
0.70780941128115
0.69296302563795
0.67883951838603
0.66478180096921
0.65140345541798
0.63807940872727
0.625397271313
0.61276756011622
0.60074055772341
0.58876135502318
0.57734837885316
0.56597078699979
0.55513315635818
0.54429018821374
0.53405331895608
0.52364453570073
0.51379602001424
0.50387605952064
0.49431785974349
0.48493646871977
0.47567538122726
0.46700815336823
0.45812056739901
0.45007733591158
0.44198535986579
0.43283592860022
0.42984923908335
0.44321001796029
0.51269721976551
0.93781653377829
1.589205143869
1.6083136584565
1.6295120202895
1.6530455539783
1.6704515086726
1.6852379560409
1.6987323163975
1.7115313041913
1.7248465612567
1.7385466984098
1.7529321915905
1.7678096985531
1.7832121989976
1.798806121883
1.8141046771986
1.8292931328375
1.8434325136452
1.8538046075227
1.8573629003011
1.909052583034
1.911992934998
1.9129472746722
1.9125709455565
1.9163280478273
1.9150751383102
1.9122482231237
1.9097065218892
1.9076579105876
1.9057964172236
1.9044799550704
1.9021135497618
1.8995814943394
1.8977045734419
1.8955987249957
1.8923196334745
1.8912840569629
1.8928473031367
1.89765989415
1.9059988785019
1.9182807797941
1.9348498748658
1.9556166672281
1.9805744409065
2.0092474149486
2.0414590845964
2.0733071503071
2.1099096263557
2.1460073490497
2.1812564823816
2.2154155718462
2.2477259493259
2.2769300716258
2.3035702208618
2.3274259131004
2.3488173584325
2.3672551677556
2.3827022725672
2.394685053621
2.4037530448763
2.4087807941366
2.4107198987398
2.4091638168128
2.4007188876761
2.3945762432602
2.3817989568927
2.3668814024187
2.3485103758952
2.3279470419994
2.304989573448
2.2800686805772
2.2538131136947
2.225731101467
2.1960010463375
2.1635520512625
2.1284180666491
2.0898476147361
2.0495835161316
2.0056788143073
1.9594720362152
1.9166617647737
1.8768766067913
1.8395406283731
1.8045670020004
1.7710232102304
1.7389404714536
1.7077093180751
1.6771566217469
1.6469422113484
1.6172808928364
1.5878978496811
1.5591064433078
1.530494632223
1.5024475824342
1.4744451336818
1.4471428848047
1.4199742625926
1.3933844725916
1.3672536440085
1.3415816035396
1.3166114135428
1.2919707768886
1.2680470106405
1.244526967102
1.2216426599789
1.1995369152151
1.1779284570448
1.1571942135996
1.1368233375109
1.1172892135915
1.0979982947845
1.0796047954559
1.0613520960079
1.0440786330562
1.0268773358091
1.010685065469
0.99450409224496
0.97937930159318
0.96423137319746
0.95022696202768
0.93601068983628
0.9230284105886
0.90977329463688
0.89763968063461
0.88527095303839
0.87372933990887
0.86266331353865
0.84793291275366
3.824579723456
3.7837401325435
3.7618187948662
3.7399906196973
3.7170448926915
3.6921616564605
3.6645855289839
3.6338302682629
3.5997484457578
3.5624225940305
3.5221093834568
3.4790355485638
3.433460178481
3.3855289951004
3.3355185864054
3.2836049217546
3.2301878561825
3.1755071447771
3.1199794005805
3.0637376267365
3.0073744470598
2.9504328106399
2.8936145471683
2.8365305571579
2.7795596570935
2.7222917081117
2.6653814210001
2.6088177946479
2.5529568849245
2.4971157400678
2.4423512342987
2.3876887711942
2.3341784075552
2.2809268895734
2.2287816943166
2.1770765928579
2.1264004330382
2.076347102862
2.02728235485
1.9790146095561
1.9317282353869
1.8853003643786
1.8398456233064
1.7953655727076
1.7517825467066
1.7093038471402
1.6676361098154
1.6271463525767
1.5873936955387
1.5488837525618
1.511043528917
1.4744980101849
1.438558487834
1.4039215830724
1.3698672375003
1.337019050809
1.3048295783793
1.2736656616257
1.2431841248041
1.2138478389544
1.1848987125813
1.1571657845482
1.1297761099354
1.1035599142385
1.0776489349599
1.0528711830981
1.0283656459057
1.0049536040982
0.98177911632722
0.95966073782787
0.9377489759433
0.91686093128476
0.8961492770165
0.87642919524271
0.85686376796662
0.83824347949859
0.81975313843166
0.80216946747907
0.78470095169646
0.76810524985432
0.75160518724803
0.73592660969987
0.72032579946999
0.70549809839011
0.69073635423868
0.67670181630696
0.66272285614569
0.64942718747237
0.63617317949827
0.62356468744714
0.6109839004004
0.59900978315297
0.58705447287018
0.57568703225786
0.56427889917293
0.55346673190865
0.54257066448685
0.53225786944589
0.52178836192459
0.51184193173239
0.50191225176302
0.492476747508
0.48339111685348
0.47444608973073
0.46607748591018
0.45755678863825
0.44997910161998
0.44203140003381
0.4333438588762
0.43044224329874
0.44323617091559
0.51192731475113
0.92292941291395
1.585825405186
1.6226448449665
1.6442046538172
1.6648749238507
1.6819036997019
1.6965219903588
1.7112213874456
1.7249840828031
1.738676551283
1.7516523247764
1.765031218404
1.7786297739006
1.7931496998719
1.8081288090389
1.8230980193475
1.8369333939684
1.8497533879467
1.8598437054049
1.8654634169035
1.901310975193
1.9052061101182
1.9061912413728
1.907430560784
1.9076527957267
1.9063692553862
1.9035598924422
1.9002246286416
1.8970058197298
1.893875276879
1.8927423190137
1.8884221707091
1.8835610836982
1.8789289148509
1.8756670330856
1.8726593750197
1.8717638597716
1.8737670959866
1.8786961065617
1.8870931916582
1.8994090619114
1.9151932868199
1.9349086828349
1.9600287791888
1.9899558940322
2.0233695241233
2.0581346004744
2.0954589251634
2.1335143644355
2.1701076153847
2.2059785525585
2.2399350120949
2.270480010646
2.2982242264411
2.3231342734172
2.345482411337
2.3649079165968
2.381145043687
2.3939133829162
2.4035637663601
2.4092087779594
2.4118130816376
2.410328611446
2.4022466446792
2.3955581027484
2.3823890285208
2.3671198517882
2.3487297033591
2.327886774903
2.3050525385399
2.2801637959132
2.254212945942
2.2263672429355
2.1969037418535
2.1650922443899
2.1297080935684
2.091608697006
2.0507733114503
2.0059909868629
1.9622718641121
1.9218797109811
1.8840798272335
1.8477457548759
1.8131978557044
1.779729618945
1.7474626206935
1.7159080989116
1.6853582335323
1.6551344770787
1.62568843932
1.596402136019
1.5678389367475
1.5393498994606
1.5114691067626
1.4834776915105
1.4561795169196
1.4291532916118
1.4026133319179
1.3766970160416
1.3511457047105
1.3263808964232
1.3019217977717
1.2782431807603
1.2551078622976
1.232606199441
1.2108612487742
1.1895901161807
1.1691035061417
1.1489199201246
1.1296077713549
1.1104406280018
1.0922583626025
1.0740967355504
1.0570426561845
1.0399260160123
1.0239560491883
1.0077339208913
0.99282678801371
0.97765759191908
0.96386380119506
0.94975238394533
0.93695280531744
0.92384203727151
0.9118260475101
0.89963132878909
0.88826011740431
0.87742794090989
0.86314971327745
3.8245424374417
3.7834515170498
3.7608332907302
3.7387648012346
3.7156317928241
3.6901722088847
3.6617286257481
3.6299387913382
3.5948819906862
3.5567118218749
3.5157320358012
3.4720025950586
3.4258182035901
3.3771955145222
3.3265532413248
3.2740653625543
3.2202184168112
3.1652771929528
3.1096131600712
3.0532791711294
2.9969331350209
2.9398986029955
2.8828330044253
2.8252660179402
2.767945815863
2.7105203144043
2.6535835399901
2.5968875881507
2.5410182090948
2.4851284626465
2.4303234457597
2.375713766327
2.3221479477294
2.2689787200456
2.2168514799523
2.1652227699855
2.1146878592057
2.0647211386868
2.0159017682969
1.9677620531382
1.9207862940815
1.874535675421
1.8293782522592
1.7851693836261
1.7418652706285
1.6996590402307
1.6582615152726
1.6180405739541
1.5785466714474
1.5403334189214
1.502770603341
1.466532798147
1.4308712608629
1.3965463696483
1.3627434024641
1.3301922178581
1.2982489654945
1.2673280355076
1.2370776178814
1.2079644594718
1.1792203947976
1.1516940992052
1.1244882712226
1.0984615885971
1.0727163179564
1.0481204819501
1.023769979376
1.0005296620399
0.97750195038306
0.95554587295083
0.93377500760331
0.91303431356696
0.89245226912506
0.87286580939279
0.85341607512421
0.83492101703746
0.81654404781492
0.79908325626173
0.78172316613875
0.76524293386267
0.74884674202245
0.73328327438553
0.71778915928231
0.70306976848705
0.68840975316792
0.67447956534275
0.66059419837619
0.6473950452497
0.63420907677161
0.62176970075444
0.6091992267377
0.59738680118296
0.58541262930535
0.57412269295047
0.56268679971555
0.55181364580845
0.54085187821592
0.53048636378343
0.52000180233555
0.51020453131379
0.50040893893036
0.49129175077424
0.48229618649731
0.47363577712516
0.46547804407938
0.45733156892993
0.45011468198847
0.44234439875522
0.43443690726981
0.43170333098805
0.44349648475671
0.51109708481992
0.90359335324389
1.5848169147135
1.6432182380225
1.6575995144039
1.6802512101552
1.700333966603
1.7164163196698
1.7310794852368
1.7438732047451
1.7563765040138