/*--------------------------------*- C++ -*----------------------------------*\
| =========                 |                                                 |
| \\      /  F ield         | OpenFOAM: The Open Source CFD Toolbox           |
|  \\    /   O peration     | Version:  2312                                  |
|   \\  /    A nd           | Website:  www.openfoam.com                      |
|    \\/     M anipulation  |                                                 |
\*---------------------------------------------------------------------------*/
FoamFile
{
    version     2.0;
    format      ascii;
    arch        "LSB;label=32;scalar=64";
    class       volScalarField;
    location    "0.0006";
    object      T;
}
// * * * * * * * * * * * * * * * * * * * * * * * * * * * * * * * * * * * * * //

dimensions      [0 0 0 1 0 0 0];

internalField   nonuniform List<scalar> 
28800
(
246.26357688457
245.51422786141
244.97370825015
244.41280066639
243.80875834923
243.14663640367
242.41538366727
241.60684316584
240.7148430897
239.7348831836
238.66476915127
237.50532160949
236.26064553325
234.93756518479
233.54445493315
232.08964415077
230.58025953457
229.02172871055
227.41811998013
225.77283978638
224.08908668081
222.36953226953
220.62188939613
218.85562006022
217.0969752848
215.31676625902
213.53973302176
211.73392647052
209.93043432548
208.09826826664
206.2717218105
204.41759477355
202.57362178167
200.70568926604
198.85214388165
196.97975330359
195.12550008717
193.25916857296
191.41019139599
189.55901180689
187.72137027106
185.89273333993
184.07425433147
182.26640019657
180.47241654459
178.69197108431
176.92687873978
175.17621735587
173.44002020606
171.71880238213
170.01673958336
168.33353152655
166.67172160702
165.03073304944
163.41232461849
161.81550525861
160.23944194452
158.68520498698
157.15227427327
155.6392836823
154.14839661679
152.67913177365
151.23252912729
149.80993863568
148.40959205032
147.03122684923
145.6735820637
144.33836845917
143.0228533113
141.72174972158
140.44188996866
139.18510394123
137.94956609864
136.71587339268
135.50117925608
134.31259917962
133.14514899131
131.99586186931
130.85458871591
129.73293627624
128.6343344345
127.55656828291
126.49755828881
125.43617869991
124.38820894979
123.35634229158
122.33882306181
121.33944470149
120.35778412696
119.39580270752
118.44209237602
117.50404716153
116.58606999215
115.68575949394
114.79960811555
113.91992627141
113.04801262626
112.19009798036
111.34107378978
110.50744077422
109.68031732242
108.86593689049
108.05905469624
107.26700089401
106.48330768673
105.71192063445
104.95438220264
104.29112657559
104.3054574817
107.58881652761
123.7648051692
183.85831228709
258.72972390756
276.55451697484
277.63791129603
279.32379489154
280.75207167664
281.65770043709
282.21659372429
282.55069149739
282.6821969132
282.61818321765
282.35208477728
281.89400473007
281.1998953136
280.20568089926
278.85816453604
277.20889582315
275.38475091538
273.56697495711
271.78717851651
267.89757713535
255.39207540732
254.70066248913
253.564544361
252.13675289746
250.52726965105
248.84732584232
247.19854221984
245.65971905728
244.25411361827
242.99712209655
241.90119959418
240.96481640945
240.16479806216
239.46893963505
238.84123875875
238.33211567938
237.96722511603
237.67661559926
237.47628267513
237.36997002113
237.38472021717
237.54196191058
237.85415950748
238.31868385624
238.91990734578
239.63631714456
240.4263006095
241.25636919601
242.09182131482
242.90453339651
243.67738855749
244.39057906234
245.02742214933
245.87746881892
246.04605485963
246.22606832265
246.35636444958
246.403127181
246.35306254479
246.20344144029
245.95281556837
245.61215129292
245.20088700922
244.84682080174
243.70966292229
242.92863161471
242.06611431547
241.12968266566
240.13330996661
239.08308695465
237.97768233049
236.81825866904
235.59852226173
234.31518332927
232.9496930596
231.49947169578
229.96924924285
228.33401587494
226.63000509838
224.83316142556
223.05033035789
221.47782170822
220.05891184388
218.74102843953
217.48014232732
216.20946277045
214.90374340948
213.56990360492
212.19721337535
210.79112695068
209.3609672047
207.90919743484
206.44551371388
204.97656749549
203.50496192225
202.03783644403
200.5644145532
199.1050889605
197.64135424916
196.19581739383
194.74179539245
193.31206093794
191.89017642516
190.48792997116
189.10288038269
187.73926374029
186.39685494166
185.08027857712
183.78785837338
182.52281467177
181.28485309423
180.07662523923
178.89656313417
177.74695661142
176.62555574516
175.5350992716
174.472186053
173.44021549816
172.43510822596
171.46001106221
170.51396451269
169.59536483324
168.69919055321
167.83841419645
166.96855622816
166.13172720183
165.26285104875
164.86633185712
246.26248337306
245.51194383315
244.97010606912
244.4075480769
243.80151576434
243.13712147401
242.40328893335
241.59163658806
240.69582083776
239.71143014387
238.63657479357
237.47243871929
236.22354278069
234.89682969186
233.50050887018
232.04236565235
230.52907552688
228.96575535567
227.356627559
225.70542714365
224.0157900514
222.29094984403
220.53945602403
218.76967071878
217.00648721823
215.21719645226
213.4312004525
211.61522874575
209.80205195145
207.96000112271
206.12559409087
204.26369785916
202.41326439129
200.5402387663
198.68326006692
196.8089836195
194.95448607726
193.08822283269
191.24123776878
189.394740983
187.56210698692
185.7395993944
183.92761826161
182.12663588922
180.339457356
178.56621342087
176.80838004943
175.06529845256
173.33934625364
171.63014798728
169.93916122532
168.26626726427
166.61260053882
164.97809048302
163.36305132781
161.76970959776
160.19627884238
158.64458905584
157.11786287118
155.61103385366
154.12621869525
152.66313891559
151.22133731245
149.80016547942
148.39983348709
147.02029352464
145.66245867526
144.32445801502
143.00519739991
141.70707787843
140.43001395499
139.16929417284
137.92373508352
136.70143560021
135.50155727987
134.31552849329
133.14332946119
131.98846872186
130.8502708049
129.72966503831
128.62787993426
127.53810276617
126.46052723897
125.40157208267
124.36513794651
123.34608394904
122.3443024655
121.35624102691
120.37619714645
119.40933770801
118.46157146908
117.52707546884
116.60245592447
115.69074217532
114.78702033357
113.90199178405
113.02496862794
112.1658827311
111.32011626414
110.48609577402
109.66128184416
108.84885931612
108.04243061199
107.25187858227
106.46836316975
105.69534987227
104.93672260898
104.27038590873
104.27937476041
107.54198315508
123.61022383588
183.36039912781
258.17074779601
276.25983652044
277.4208254328
279.1316223598
280.51703913068
281.35016922721
281.8115157534
282.02555143162
282.04325335291
281.8779075676
281.54333207652
281.05639078605
280.35873764447
279.41886425071
278.18366321832
276.70642552927
275.10827246877
273.55561808843
272.1878940821
268.40784997022
256.21158129497
255.58535873408
254.57141266568
253.30534500657
251.8693261664
250.32114883301
248.72960947735
247.14963123487
245.61989685833
244.18387647614
242.89875591892
241.80496032606
240.91026835657
240.19746485736
239.6049186734
239.14143268954
238.81646975969
238.55076863739
238.35203560317
238.23083840589
238.20860301793
238.31333878988
238.56219830137
238.95610722094
239.48580426783
240.13322659346
240.85886569462
241.62752767999
242.41300184463
243.18088983418
243.91803698358
244.5865742828
245.40115307687
245.78144317544
245.99321909967
246.17199281708
246.27355320369
246.2792880257
246.18277088218
245.98223121021
245.67977572362
245.2813413224
244.80585779404
244.39228294808
243.21973270625
242.37949903559
241.45445426865
240.45505449111
239.39413105484
238.27750737063
237.10801664699
235.88888273425
234.61553300383
233.28263172183
231.87149462479
230.38448453766
228.81570594058
227.15789946496
225.42730809198
223.61450981775
221.81296570827
220.23724458621
218.81427236869
217.49617759032
216.2202477344
214.92111335622
213.58721156598
212.22701756399
210.82839973888
209.39874020545
207.94674948339
206.47808751849
205.00043630814
203.51922221374
202.03722894265
200.56157542443
199.08203445738
197.61886364135
196.15437915196
194.71110778255
193.26422432483
191.84477631927
190.44037542863
189.05828575318
187.69825128158
186.36417508051
185.05624740057
183.77797196317
182.52746239981
181.30682613465
180.11547745813
178.95492035602
177.8238938351
176.72346271731
175.65243913424
174.61200185708
173.6002873124
172.61863815372
171.66461868983
170.73911122262
169.8424867487
168.97112758881
168.12319629557
167.30662871536
166.48089331323
165.68535869407
164.85399953922
164.48909052801
246.26031443503
245.50748629749
244.96316117507
244.39753234971
243.78782551958
243.11920760454
242.3805750686
241.56321069914
240.66037253509
239.6676945708
238.58398706844
237.41130934063
236.15489341147
234.82161270634
233.41918266083
231.95434795809
230.43329678951
228.86082093169
227.24186664378
225.58059178276
223.88148620468
222.14945029025
220.39348825029
218.61845678303
216.84720086343
215.04560379096
213.24705655608
211.41914693741
209.595585889
207.74417159402
205.90292611512
204.03594542309
202.18268502513
200.30838535063
198.45286298445
196.58188144906
194.73264722171
192.8710510957
191.0301441693
189.18978925388
187.36355736611
185.54688150517
183.74108016645
181.94587032476
180.16408871771
178.39450746179
176.63986767491
174.9000148833
173.1773328355
171.47128549197
169.78360579557
168.11390784106
166.46411552375
164.83423752241
163.2242985111
161.6359751618
160.06696120204
158.51962062559
156.9961893377
155.49193072869
154.00954969815
152.54849015465
151.10832253757
149.68951940021
148.2912614174
146.91410568999
145.55688521405
144.21986595803
142.90285132667
141.60605479645
140.32668754492
139.06633681021
137.82551493733
136.6052501964
135.40096449733
134.2112116196
133.03946716991
131.88789557249
130.7543613173
129.63767785003
128.53358994332
127.44725333219
126.37882931121
125.32906749597
124.29334623192
123.26997046943
122.25866034319
121.2652324759
120.28770606863
119.32546676006
118.37613698885
117.44066053148
116.51742130039
115.60962965325
114.71403820924
113.83352875873
112.96200861505
112.10564256313
111.2550855795
110.41945737006
109.59195520652
108.7784544773
107.97007501582
107.17429132099
106.38458778954
105.60622008845
104.84112678441
104.17202818535
104.19073827014
107.47539820106
123.61139181971
183.55083226426
258.38371944485
276.32207417666
277.48815372282
279.16900814408
280.43376647576
281.13758468851
281.47396488774
281.55606431981
281.44747647734
281.17909621804
280.76367963285
280.21610676878
279.49925578314
278.59758389884
277.46651306514
276.15478023155
274.77373629557
273.41036404297
272.21589576279
269.58749277579
257.19930115547
256.5047954612
255.48837763906
254.34088835247
253.07575988878
251.70769906978
250.28385184049
248.81169696237
247.31514207357
245.82728201496
244.41264179964
243.14618313493
242.08492287575
241.2657660666
240.67052980494
240.22438179657
239.92224206267
239.66698624111
239.45462235183
239.30062773883
239.22076953955
239.24823045591
239.40740118744
239.70437723402
240.13761378754
240.69867639351
241.35206462214
242.05936926183
242.8046759162
243.51766460295
244.22588727681
245.00156914969
245.51173886887
245.79281637052
246.02297282614
246.17887240405
246.24408673063
246.2070348009
246.06525749101
245.81539057963
245.46496724102
245.01175541711
244.4725844655
243.99353770136
242.81052128027
241.9095681497
240.91953900852
239.8589286262
238.7343333374
237.55018516212
236.31635727723
235.03786533745
233.7125552812
232.3293917992
230.87311664216
229.34882626522
227.74060890202
226.06033592803
224.29615716649
222.44987296584
220.67249413975
219.09746512132
217.66654135136
216.32859656187
214.99377486038
213.64547147746
212.26885315154
210.8681055446
209.43735602943
207.98043304848
206.50524558389
205.01794340939
203.52609951097
202.03502844717
200.54769627748
199.06909002024
197.58922050765
196.1314694253
194.67718854891
193.25003322582
191.82897359449
190.43878605766
189.07142037361
187.73065896774
186.41715955962
185.13371242046
183.87987921496
182.65709270601
181.46350631185
180.29929657229
179.16391536598
178.05756678294
176.97964153241
175.93057955536
174.9104488415
173.91957805772
172.95746806708
172.02400453912
171.11814663697
170.23901772972
169.3877905334
168.55969127264
167.75500609587
166.97684666371
166.19164233663
165.43454937088
164.63631294446
164.2955908571
246.25695135692
245.5005389362
244.95224786324
244.38175086856
243.76637295819
243.09139380075
242.34524064844
241.51853795297
240.60438813017
239.59897018327
238.50239999297
237.3179295462
236.05159008492
234.70964625078
233.29909601059
231.8251214287
230.29396531405
228.7098957093
227.07969982425
225.40718221447
223.69890317605
221.96045930256
220.20190689657
218.42294271104
216.64016336552
214.82898360612
213.01777509496
211.18140934948
209.35043940245
207.49518061247
205.65393914826
203.78897798919
201.93997432096
200.07052535705
198.21954207027
196.35000476821
194.50012485538
192.64131906476
190.79812626747
188.96078285184
187.13332535419
185.31652157181
183.51035530483
181.7156595453
179.93473047235
178.16784032792
176.41666460444
174.68132944351
172.96315610672
171.26235921406
169.57997286545
167.91626140794
166.27203822347
164.64799110324
163.04329117066
161.46084016148
159.8975777634
158.35575843711
156.83763985029
155.33895822268
153.861920305
152.40628856363
150.97143052371
149.55749688356
148.16376992406
146.79047209065
145.43652940701
144.10275906211
142.78771826308
141.49249547553
140.21637065824
138.95954556046
137.72055921107
136.49989879823
135.29777858123
134.11428896714
132.94770712608
131.79923152705
130.66752732161
129.55287775978
128.45363735355
127.37238263826
126.30581322269
125.256195219
124.22142144866
123.20287708036
122.19744919009
121.20924026239
120.23482670514
119.27574316851
118.32935726349
117.39804010789
116.47657872548
115.57171855167
114.67676413547
113.79643397908
112.92596524323
112.06916337475
111.21889375336
110.38385936387
109.55451271008
108.73952079829
107.92869179258
107.13100084595
106.33819834003
105.55706703284
104.78853360019
104.11541277559
104.14348694083
107.42763031275
123.53627007106
183.33481466154
258.13860080333
276.20182856457
277.48308699901
279.1229714248
280.2325240419
280.81640337366
281.04485762387
281.00959030067
280.77670559375
280.39274908737
279.87490565572
279.24126369904
278.49229691795
277.6262232141
276.61863310724
275.50462167117
274.32022379292
273.13279046028
272.02404176467
270.93507388239
258.80306452472
257.94774138856
256.7267767752
255.54281892245
254.28841614331
253.07004318867
251.84443747461
250.54512491861
249.17027954721
247.7462786778
246.32741568134
244.97874308311
243.76592093522
242.76193913797
242.09265019295
241.62121175866
241.3098731332
241.0490380931
240.80369191768
240.58974730694
240.42991127107
240.35221516468
240.39098227082
240.57063621395
240.88653881189
241.35289864566
241.94008888869
242.59409426025
243.33301275349
243.90092824076
244.79047012816
245.23329216025
245.60411626237
245.89039541931
246.0962074637
246.21018709507
246.22620407305
246.13547067576
245.93878624994
245.62900580515
245.22324733134
244.70999020947
244.10032154022
243.54795776112
242.37454793473
241.42259325007
240.38107042669
239.26115249296
238.07112279214
236.81573657355
235.51199421471
234.17038851136
232.78843257262
231.34945370411
229.8464528208
228.27551682874
226.6282314581
224.90822172823
223.09903616976
221.25304258059
219.53755923402
217.96174998718
216.49121623982
215.05200853454
213.64360779563
212.23807471326
210.81692430644
209.37935191288
207.92095849256
206.44411060688
204.95595803416
203.4622468694
201.97010609605
200.48470794273
199.00432377932
197.53934511814
196.07666225268
194.64467194859
193.22459664878
191.83414382246
190.46453191426
189.12380446052
187.81182983368
186.53044088
185.27942856937
184.05915601254
182.86892248424
181.70714537571
180.57279613629
179.46459298456
178.38222400612
177.32610420416
176.2963185683
175.29381297738
174.31956618371
173.37386245505
172.45684783465
171.5677159516
170.70604717922
169.8700495026
169.05880808733
168.27519864867
167.50374992358
166.76409104386
166.00909199809
165.30277681463
164.53409718189
164.21160764905
246.25258859575
245.4912344273
244.93723409322
244.36006741111
243.73730157084
243.05411725312
242.29792265197
241.45822254468
240.52843285568
239.50620709371
238.3936706487
237.19511171568
235.9167986665
234.56364651328
233.14182011039
231.65508636174
230.11058270093
228.51238784745
226.86959375691
225.18562104958
223.46909104081
221.72386980961
219.96129357488
218.18093774462
216.38522500622
214.5665979402
212.74786779982
210.91238151971
209.0800829285
207.22304192673
205.37895330024
203.51067306023
201.65975630937
199.78829444728
197.93719409089
196.06811158787
194.22123353735
192.36244109888
190.52283753619
188.68577374428
186.86119781038
185.04614220247
183.24252539335
181.44996544472
179.67237593357
177.90852858425
176.16131847161
174.4296822172
172.71598837731
171.01950430262
169.34213240999
167.68348147488
166.04461731156
164.42617069424
162.82733668171
161.25055451646
159.69249107499
158.15570892829
156.64230862714
155.14785131506
153.67473327971
152.22249752625
150.79075183384
149.3797748671
147.98882360468
146.61813883483
145.26697875301
143.93572632152
142.62376747767
141.33120556827
140.0574857616
138.80289139835
137.56684080038
136.34931139079
135.15004797698
133.96919829897
132.80643562542
131.66226621137
130.5354845242
129.42598596451
128.33266246392
127.25646864381
126.19622831008
125.15167340479
124.12239416906
123.10842062884
122.10891053279
121.12444023715
120.15410530564
119.19787425681
118.25463345779
117.32511836892
116.40803424019
115.50447307655
114.6122254462
113.73139833878
112.86241772118
112.00497892047
111.15290343188
110.31592754733
109.48551232023
108.67160670225
107.85714581417
107.05745726128
106.26374495602
105.48988475141
104.73520586287
104.08424937658
104.13800425624
107.41431474883
123.42399132806
182.75158495458
257.49997662253
275.93031794651
277.34761710778
278.8675203303
279.81104997078
280.28802110583
280.39783782544
280.23955470535
279.88094862379
279.38493267459
278.77625349858
278.06653278054
277.26818085588
276.43605301943
275.56998437545
274.63649394952
273.65652786139
272.68501885238
271.81390076545
271.18523826918
261.08211473179
259.76065032215
258.20448039193
257.13793448602
255.76643698025
254.54224369282
253.43908498332
252.33302224509
251.11819167368
249.81731665288
248.47718425824
247.16273437007
245.90833788265
244.77960778456
243.90836573603
243.35294994409
242.99303374907
242.70097601853
242.40276211791
242.11120573841
241.85172088991
241.65355610758
241.54110241648
241.58990086474
241.83967193206
242.2629774282
242.83233760754
243.33952938984
244.05996355751
244.62391291977
245.08590295129
245.48937468859
245.824775624
246.06551613817
246.21543092927
246.26397694281
246.21242847809
246.05042924796
245.78188577783
245.39492691674
244.91797249907
244.32880909841
243.62871135817
242.97758464058
241.8100832385
240.79194647332
239.683805218
238.51849870233
237.28374694855
235.99600214617
234.65849228492
233.2524122885
231.80332354262
230.30436804744
228.75191273644
227.11476154408
225.43261716791
223.68599301481
221.85851212752
220.04329023682
218.36293304008
216.74614757789
215.16024558764
213.64202420054
212.16790300287
210.71556017729
209.26087917315
207.79610315038
206.3213329409
204.83866674026
203.35404024312
201.8721978021
200.40015829603
198.94056175358
197.48940697294
196.06269134781
194.64460712847
193.25973726845
191.89895496007
190.56521018649
189.25729948428
187.97777154739
186.73012512777
185.51297738617
184.32750381092
183.16860524067
182.03626217566
180.92784925748
179.84293354009
178.78102140033
177.7422318789
176.72788046316
175.73838088281
174.77592351737
173.84165801172
172.93680637407
172.0607572574
171.2130101525
170.39106287492
169.59908920938
168.81914148904
168.08015084198
167.33298045781
166.6379329694
165.90548981401
165.24948179433
164.51145777193
164.21270186939
246.24717924542
245.47930495536
244.91756137825
244.3325138457
243.70142429626
243.00764872621
242.23706609247
241.37935663795
240.42945205923
239.38726405311
238.25685139132
237.04255640423
235.75005431532
234.38237773958
232.9453982503
231.44235773928
229.88192188487
228.26876338719
226.61299606624
224.91943275734
223.19588882994
221.44549336723
219.6784934368
217.89598041565
216.09585973278
214.27365473397
212.44156733658
210.60095462583
208.76105335819
206.89705642937
205.04962812559
203.17805320496
201.32622772976
199.45305293499
197.60196047002
195.73210034162
193.88387399436
192.02777443642
190.18661740602
188.35308951494
186.52879009637
184.71538990789
182.91361586948
181.1246769331
179.35057530282
177.59176839114
175.84913508201
174.1231996622
172.41481594254
170.72449966591
169.05319774659
167.40117412351
165.76914373459
164.15761792231
162.56573760681
160.99566906784
159.44475059407
157.91463853254
156.40803855677
154.91965758401
153.45259662198
152.00565904066
150.57930297359
149.17295657668
147.78690748699
146.42039225425
145.07374701534
143.74643639797
142.43861759257
141.14943342646
139.87961165125
138.62820944747
137.3959114524
136.18135868001
134.98546710088
133.80768331922
132.64843664622
131.50650300373
130.38214905795
129.2749577953
128.18480308407
127.11124467549
126.05404813325
125.01260546207
123.98658183641
122.97573445263
121.9797004879
120.99797590401
120.03018520428
119.07593572074
118.13498894511
117.20690007493
116.29160832535
115.38820931307
114.4968650162
113.61596372812
112.7486409266
111.89078724366
111.03663180083
110.19616883485
109.35937169359
108.53890432543
107.72434867893
106.93391118815
106.15459918441
105.39882119063
104.65834125055
104.02676158343
104.09160458556
107.32261660539
123.08157534876
181.40945172237
256.35179895455
275.48338256174
277.09301108832
278.40657902528
279.16788790224
279.44503068628
279.3744838401
279.0431921397
278.53631290817
277.92866216886
277.25520302409
276.53507522136
275.77586711446
275.00042493801
274.24080868221
273.46406421795
272.68028727008
271.92144061239
271.25956399815
270.8417953165
262.8570391837
261.34760028264
260.0591727341
259.04142247559
257.23033002457
256.11027602417
255.22388920358
254.27496674252
253.23075311796
252.03946462034
250.74706521491
249.54307323856
248.38354290785
247.26242530071
246.21615062249
245.54697102636
245.09638589589
244.72954653032
244.34907854024
243.9567017259
243.58649233742
243.2506978667
243.03525326116
243.01504877255
243.16335911232
243.38523190205
243.91880509294
244.30099000763
244.71036121651
245.12936779942
245.51852500035
245.85208259047
246.11989842492
246.28516369908
246.35683588625
246.32037686276
246.18284336735
245.93424096177
245.57824240513
245.09973628109
244.53986096186
243.86083911129
243.05617823203
242.2850529064
241.11214926754
240.01437464738
238.82242373032
237.60230753274
236.30934845212
234.97842366542
233.60734759084
232.19723972598
230.72929965924
229.17909581174
227.59262241768
225.93304188872
224.24031505911
222.46433241673
220.63421541201
218.87125249243
217.16695692356
215.45572393823
213.81919577592
212.24280554312
210.71020288084
209.20640135078
207.71469381252
206.22296862496
204.73410123853
203.2507815982
201.78312478837
200.33110321434
198.90104450699
197.4914957531
196.0959095424
194.72762661994
193.3785874921
192.05577970832
190.75881400584
189.48700784209
188.24159087575
187.01555860368
185.83193286449
184.67374260086
183.5488738322
182.4400520487
181.34946598586
180.27926043833
179.22986384589
178.20262521929
177.19772742936
176.21740051979
175.26200804952
174.33512828019
173.43754435128
172.57175474282
171.7349323867
170.93194553183
170.14230925086
169.39948693513
168.64316428606
167.94854733433
167.22362436446
166.5740681442
165.8641110074
165.26152076988
164.53953939874
164.28381700023
246.24113348785
245.46450131934
244.89234961032
244.29848970658
243.65809897844
242.95095396292
242.16114741301
241.2802085711
240.30655588652
239.2427974672
238.09315804994
236.86132024301
235.55060793283
234.16398595999
232.70696085063
231.1845783178
229.60630578448
227.97850639053
226.3100855061
224.60873000875
222.87993273315
221.12821655644
219.3600031388
217.56785385384
215.75643578371
213.92161225441
212.08163500504
210.23358226309
208.39005391578
206.51941809991
204.66770295508
202.79104992205
200.93478013363
199.06056726221
197.2037006171
195.33761839049
193.48547150537
191.63236011768
189.79135109883
187.95872626588
186.13707427837
184.32586423757
182.52833002294
180.74383595571
178.97543328011
177.22173097275
175.48556585692
173.76538679156
172.06438751137
170.38082860304
168.71776150573
167.07341814904
165.45006990668
163.84655962241
162.26326131089
160.70115002425
159.15812157715
157.63590346713
156.13690277801
154.65632185737
153.19629101918
151.75648304744
150.33690773872
148.93738163618
147.55782566043
146.19803297384
144.85790832973
143.53720931446
142.23576247929
140.95342864942
139.69002608877
138.44565356303
137.21986842644
136.01292920971
134.82415326157
133.65402685979
132.50165108803
131.36711674631
130.249991888
129.15047475701
128.06757886943
127.00156038219
125.9512186379
124.91678618604
123.89710614443
122.89255576961
121.90183229955
120.92545382573
119.96188276108
119.01152385063
118.07265124732
117.14625416449
116.23127228411
115.32812631153
114.43501500662
113.55453218608
112.68468903744
111.82645605063
110.97563583101
110.13854120472
109.31198595096
108.51230663958
107.720448523
106.95547088901
106.19415266417
105.46788453396
104.75350058771
104.14973099846
104.22888878873
107.36045757333
122.67028864648
179.4443089206
254.94805696575
275.04024768078
276.75500367488
277.60719668475
278.0429204381
278.0558635056
277.77004224759
277.27730879547
276.66932045664
275.99704053338
275.29395346857
274.57892548125
273.86777806635
273.17179376852
272.51852306464
271.8971083486
271.30130034356
270.74601610801
270.26515195045
269.94261984085
264.15191888616
262.58765370337
261.21678041092
260.01247867076
258.75793034522
257.70866115334
256.82138708464
256.02187702673
255.14606237904
254.13227860105
252.70460496071
251.7008669834
250.762596177
249.88187242148
248.99813930619
248.22681974775
247.65670499437
247.14809771185
246.62320583669
246.07079083229
245.54868435757
245.05393979035
244.65755103303
244.45401368317
244.4573199198
244.54709012889
244.78931522754
245.05767920681
245.3628789541
245.69147226347
245.99635521839
246.23910426637
246.42221385944
246.49546552754
246.47781965215
246.34322373789
246.10725700391
245.76162692697
245.30577199666
244.72451578633
244.07330041463
243.29503916445
242.4025557256
241.53632669928
240.3702137964
239.21024808612
237.96426103696
236.70102287179
235.37993705137
234.00614034118
232.59042358698
231.15130389279
229.66991727966
228.11041712456
226.49646770303
224.83017384639
223.1065052139
221.31221250805
219.5116486569
217.7618190244
215.99307237642
214.28098403139
212.6156668532
210.99302431188
209.40229606164
207.83818454489
206.3021567495
204.7903507376
203.30658831193
201.85201242711
200.42893703453
199.03368188135
197.67257971041
196.33904322214
195.01750524247
193.71914604482
192.43446701412
191.16580432545
189.91236420864
188.67795354351
187.46890768874
186.27987282974
185.12532416393
183.99112109329
182.88060720861
181.79355137571
180.7281532633
179.68880952485
178.66857050166
177.67401990873
176.69973344945
175.75432344803
174.83057668992
173.94152946845
173.0783457725
172.26227682641
171.45923922183
170.71622104808
169.94983793245
169.25700216108
168.52501203829
167.87752118318
167.1760760101
166.57492555059
165.89095564464
165.34384069785
164.63674817843
164.41230814056
246.23454300216
245.44571189491
244.86235841403
244.26155943639
243.60903108442
242.88127047177
242.06578881826
241.15807953192
240.16010499963
239.07446704669
237.9046150403
236.65068524749
235.31754842292
233.90599403267
232.425859628
230.88174736813
229.28581996304
227.64377630517
225.96495102228
224.25615835376
222.52799642115
220.7704844207
218.98865150426
217.18010372719
215.35917869572
213.51468833125
211.67043865636
209.81326936997
207.9632145821
206.08572326583
204.22559189812
202.34667746712
200.48250376541
198.60773442382
196.74745292936
194.87941487387
193.02930160838
191.17353254854
189.33877792952
187.50460396794
185.69106059848
183.88010061154
182.08939126274
180.31123002465
178.5492931894
176.80236423017
175.07292113945
173.36026560735
171.66672271337
169.99204705495
168.33707663684
166.70194857229
165.08670783535
163.49202202923
161.91625409711
160.36232775933
158.8261931178
157.3104687119
155.81748931517
154.34238420309
152.88728732553
151.45225935298
150.03675392953
148.64114635353
147.26500904697
145.90878568031
144.57182473222
143.25454035498
141.95625038082
140.67735013404
139.41721293309
138.17598493761
136.95316180836
135.74892223233
134.56264110415
133.39462559589
132.24422587824
131.11164622369
129.99628889787
128.89836719469
127.81707786996
126.75266300363
125.70384760783
124.67114523956
123.65331637512
122.65107667211
121.66150735612
120.68682128289
119.72585319222
118.77998174922
117.83980635856
116.91755041491
115.99851633589
115.09635612995
114.19688862018
113.31542830779
112.44150666922
111.58903706542
110.7447405318
109.927518612
109.11595920367
108.34058043722
107.5565728375
106.81696916286
106.07721210581
105.39102335647
104.71870418178
104.14128535123
104.24163333383
107.19395375078
121.65795758907
175.89357197051
253.02535038804
274.10317491032
275.77548532868
276.05772910215
276.19880223213
275.98256170736
275.5105611986
274.87606854325
274.17259976638
273.45121473656
272.75018342388
272.07600727843
271.44538577729
270.85471592333
270.32081368261
269.8441981961
269.42547869254
269.05553524222
268.74591982295
268.47998969174
264.62047441197
263.24104578642
261.94457162538
260.75762155403
259.63809646419
258.63509633282
257.7440728298
256.91746161134
256.08508036531
255.20251527835
254.25186728149
253.40480144713
252.61794652872
251.87264528936
251.13885721378
250.3858735839
249.71730213112
249.05959157636
248.3709086162
247.64329116574