/*--------------------------------*- C++ -*----------------------------------*\
| =========                 |                                                 |
| \\      /  F ield         | OpenFOAM: The Open Source CFD Toolbox           |
|  \\    /   O peration     | Version:  2312                                  |
|   \\  /    A nd           | Website:  www.openfoam.com                      |
|    \\/     M anipulation  |                                                 |
\*---------------------------------------------------------------------------*/
FoamFile
{
    version     2.0;
    format      ascii;
    arch        "LSB;label=32;scalar=64";
    class       volVectorField;
    location    "0.0006";
    object      U;
}
// * * * * * * * * * * * * * * * * * * * * * * * * * * * * * * * * * * * * * //

dimensions      [0 1 -1 0 0 0 0];

internalField   nonuniform List<vector> 
28800
(
(316.92846975987 -0.00010263972249575 -3.2035695523045e-11)
(319.75997454673 0.0026269875218386 3.6092965841512e-11)
(321.45344255401 0.0077795058159129 -3.6088954767745e-11)
(323.18033522937 0.01620355282833 3.7847985878528e-11)
(325.00100482039 0.028416039435083 -4.2646819573246e-11)
(326.96469265694 0.045279278743049 -6.8643674063478e-12)
(329.10818475285 0.067217554331445 -1.0136457009713e-10)
(331.45751513528 0.094524284020984 -4.7322645546821e-11)
(334.03050054515 0.12841179212102 -1.1336974276175e-10)
(336.83831130852 0.17024417645669 -8.9404701492394e-11)
(339.88486426832 0.22130150904242 -1.1516404186024e-10)
(343.1654441037 0.28135301056161 -1.3267193801695e-10)
(346.66606325467 0.35022935986344 -1.1571857956062e-10)
(350.36469692136 0.42545231145707 -1.8395321267453e-10)
(354.23424639694 0.50565385090933 -1.0118632472923e-10)
(358.24665960766 0.58836514759437 -1.881553567471e-10)
(362.37651038731 0.67380442210047 -9.0978300003897e-11)
(366.60293075687 0.76184181820534 -1.8581861614568e-10)
(370.90953207537 0.85384302596878 -1.3132172157805e-10)
(375.2829990925 0.94993782719376 -1.9560385390144e-10)
(379.71177412975 1.0498169513321 -1.1676939770544e-10)
(384.18615423128 1.1521530500693 -1.9176720477514e-10)
(388.68869861563 1.2546116718315 -1.5201011558575e-10)
(393.19705929732 1.3547872152164 -1.8345190987338e-10)
(397.65929194249 1.4467291783078 -1.4256971153369e-10)
(402.10774508147 1.538225226056 -1.75869181585e-10)
(406.5118958637 1.6332116892692 -1.707646450818e-10)
(410.9147784988 1.7275660195713 -1.6585945307704e-10)
(415.27965996335 1.8294740863545 -1.6495503087193e-10)
(419.64505141067 1.9283218902387 -1.6038420016206e-10)
(423.96902326754 2.0368045969052 -1.5766931825229e-10)
(428.29454339073 2.135628316039 -1.5217739001684e-10)
(432.56666164852 2.2467872876313 -1.4752724697103e-10)
(436.84105341975 2.343833253019 -1.4210924436625e-10)
(441.04616403874 2.4544557230174 -1.3813522892758e-10)
(445.25309584427 2.5466694432201 -1.3122234693669e-10)
(449.37607775675 2.6542804664291 -1.0028706762193e-10)
(453.49374017932 2.7424338253566 -1.2871013473734e-10)
(457.52746762404 2.8519855012488 -9.3559839410137e-11)
(461.54303485853 2.9394264997845 -1.2608181856035e-10)
(465.48186975505 3.0464378291472 -8.5626971068589e-11)
(469.38747349984 3.1321732159596 -1.2072977254421e-10)
(473.22385603531 3.2349988727602 -7.8545616699866e-11)
(477.02364797473 3.3172030991164 -8.9762909138726e-11)
(480.75668966267 3.4152834348008 -7.1583295619008e-11)
(484.44148131328 3.4922821238803 -8.6670035252656e-11)
(488.06525956999 3.5849013929168 -6.6763398458023e-11)
(491.63602765789 3.6564766137894 -8.5027202689614e-11)
(495.1537215684 3.7456759136084 -6.1325769157295e-11)
(498.62221996663 3.8098861536298 -8.4179817326665e-11)
(502.03545142688 3.8745009190309 -5.5646860296338e-11)
(505.38589404846 3.9183527783767 -5.3922256120445e-11)
(508.68278032692 3.9595476046878 -5.4179553761247e-11)
(511.90981472582 3.9864688255903 -5.4184280247726e-11)
(515.08616013267 4.0148050593216 -5.3750292324675e-11)
(518.18835507051 4.0357678675546 -5.3161696541602e-11)
(521.2473395079 4.069841874339 -5.2779385445499e-11)
(524.23445599307 4.0811503660973 -5.2460172102255e-11)
(527.17971472655 4.127428444787 -5.1997670861887e-11)
(530.05442163474 4.1238000899096 -5.1127758493714e-11)
(532.89559216884 4.1585934731828 -4.9997591229549e-11)
(535.65841368139 4.1343330945926 -4.8720814538649e-11)
(538.38991044563 4.1560587966191 -4.7623506309573e-11)
(541.04067920956 4.1086198904583 -4.6704364888347e-11)
(543.65582537061 4.1240572562492 -4.6072161792121e-11)
(546.19135145886 4.0767366140956 -4.5511775104545e-11)
(548.71134217884 4.1097744875006 -4.5075457497036e-11)
(551.18946061893 4.0436094663789 -4.453189898006e-11)
(553.57175178421 4.0228611714752 -4.4011370527703e-11)
(555.89392763727 4.031641792785 -4.3320379959788e-11)
(558.2229746896 4.0840196135531 -4.2718113142768e-11)
(560.57279444216 4.0336713728559 -4.1990209361924e-11)
(562.81336250707 3.947348651528 -4.1386432045824e-11)
(564.93178600019 3.9459848255373 -4.0626132366929e-11)
(567.04047360222 4.041367834688 -4.0060322601472e-11)
(569.2038900635 4.0568828466578 -3.9383309131294e-11)
(571.39126729412 3.9624682228176 -3.8930584918937e-11)
(573.43294998223 3.8219538927604 -3.8316776856868e-11)
(575.34709805625 3.7862845362272 -3.7926958697427e-11)
(577.24420172973 3.8239984575646 -3.7386000021713e-11)
(579.18781737376 3.8724945830068 -3.7096289030222e-11)
(581.16799996799 3.7894163599144 -3.6655166660884e-11)
(583.04002462874 3.7054896871074 -3.6403271810658e-11)
(584.78559246339 3.6801257029487 -3.5947306033e-11)
(586.49989124492 3.8112552551934 -3.5647109181029e-11)
(588.2595312277 3.9037683766133 -3.5176352780286e-11)
(590.09460885084 3.915052659281 -3.4885320130681e-11)
(591.88173310255 3.7771250023518 -3.4380418490136e-11)
(593.51888209674 3.7012241307818 -3.4054398102508e-11)
(595.09559662267 3.6506817312831 -3.3526148545203e-11)
(596.67645636941 3.6465163771111 -3.325295471461e-11)
(598.26655250148 3.5963908788406 -3.2807146961347e-11)
(599.84901127624 3.5441033608611 -3.2600415297604e-11)
(601.37903162228 3.4746710364848 -3.2228463221264e-11)
(602.86963434794 3.4044506870669 -3.206254910734e-11)
(604.31774992169 3.3870536880221 -3.1756142360626e-11)
(605.75846403566 3.3631186252112 -3.1599293570741e-11)
(607.17222013549 3.3946290632883 -3.1330424251323e-11)
(608.59604727444 3.4080696098768 -3.1160938059939e-11)
(610.00638823136 3.3959214374819 -3.0908845121246e-11)
(611.38636808201 3.3680616368943 -3.0713322858986e-11)
(612.71593443184 3.3604036552118 -3.0439382854103e-11)
(614.04442459007 3.3620795245871 -3.0213370795523e-11)
(615.35819729552 3.3648669916545 -2.991390884346e-11)
(616.65101923392 3.3579952717881 -2.9667340136892e-11)
(617.96523426492 3.3502292303717 -2.9362921163869e-11)
(619.17560602987 3.3434988931537 -2.9104687579073e-11)
(620.91012579713 3.3283292924242 -2.8669132011974e-11)
(620.88575818808 3.3280716486688 -2.8390035223397e-11)
(617.27989517186 3.323720092801 -2.8133067707701e-11)
(598.03096027944 3.3291422983914 -2.7843084410268e-11)
(518.13264061653 3.2012114191224 -2.7558256649068e-11)
(313.50584450575 4.0530313134938 -2.7144947310835e-11)
(154.30575829017 4.1146718930861 -2.6782703267574e-11)
(148.6515335674 3.772331709461 -2.471782212175e-11)
(140.68246216491 3.4462643121188 -2.3833193154367e-11)
(130.15347698414 3.2559333447816 -2.3266922560651e-11)
(120.30609707601 3.3280508889207 -2.2355089714085e-11)
(111.93749939342 3.0488143109141 -2.148025178709e-11)
(104.18421494076 2.7332782321975 -2.0700813879162e-11)
(97.048217473706 2.640027329174 -1.9949924918098e-11)
(89.960676129152 2.6744335528936 -1.8465559626982e-11)
(82.64885579661 2.8714982173079 -1.6543825341327e-11)
(75.035001339079 3.0066319229102 -1.5715792800875e-11)
(67.645259759679 2.7766040246535 -1.5868473079403e-11)
(60.646727803658 2.6464709922411 -1.4551961075025e-11)
(53.286756257884 2.9291442227159 -1.2246731964104e-11)
(44.75299250553 3.6318605044316 -9.3787990866889e-12)
(34.18289638988 4.8498286028865 -2.1582360988144e-12)
(20.55158126207 6.6446922201867 1.5734213024995e-11)
(3.2805044766771 8.6282051317069 4.8743725702329e-11)
(-16.621737397853 9.4841011265781 1.0273191193955e-10)
(-35.244296465989 6.9591218637438 1.5703037845791e-10)
(-49.57942959263 5.7618592278076 1.8638217417269e-10)
(-62.397236368755 4.6893892293528 2.1805353106161e-10)
(-73.255989142515 3.7856891702617 2.4653828933187e-10)
(-82.349569291868 3.0383434121085 2.7325238753043e-10)
(-89.961297047319 2.4288804463123 2.9755832656589e-10)
(-96.298610943136 1.9074476461091 3.2015107608936e-10)
(-101.55963028225 1.4311004279273 3.4049199769138e-10)
(-105.95723055006 1.0361209381731 3.5811971424825e-10)
(-109.61738516646 0.7112630233169 3.7303056447584e-10)
(-112.5699223936 0.43295840625253 3.8566853356265e-10)
(-114.86979368037 0.17556966487733 3.9582850839819e-10)
(-116.63737825249 -0.043792973967344 4.0206783207152e-10)
(-117.9685392155 -0.1924588899247 4.0399588305974e-10)
(-118.8401516495 -0.31254749803642 4.0546790642044e-10)
(-119.13248713551 -0.45731904977825 4.0683936953132e-10)
(-118.47220733499 -0.75408257433472 4.0928943430125e-10)
(-116.89816002476 -0.99100541489605 4.1074696629587e-10)
(-114.61557211359 -1.20261683684 4.119585791463e-10)
(-111.53150688292 -1.4144936959467 4.1339164530374e-10)
(-107.53738946473 -1.6263313682639 4.1467068738395e-10)
(-102.59370017859 -1.8324579560197 4.1625282079867e-10)
(-96.728848908771 -2.0380787163673 4.1801627454093e-10)
(-90.000689013721 -2.2572131483831 4.1941779435868e-10)
(-82.417450067239 -2.5068582426691 4.2074093229461e-10)
(-74.084397742844 -2.7186477703798 4.2124240720875e-10)
(-65.175151718504 -2.9040974890302 4.2675528066969e-10)
(-55.774438054507 -3.1030141820059 4.1866465054183e-10)
(-46.046489866476 -3.230474838195 4.3162539575345e-10)
(-36.086496441323 -3.360168449247 4.2200413859121e-10)
(-25.967098495682 -3.4390380160166 4.294896893882e-10)
(-15.849818458405 -3.5632804482964 4.2622699326512e-10)
(-5.8318788224673 -3.6426000847258 4.2892071085017e-10)
(4.3125587482892 -3.6405251844482 4.2762832897306e-10)
(14.491472605656 -3.6923727491269 4.2950853473236e-10)
(24.646504453828 -3.7422033797688 4.2876993989478e-10)
(34.828023283597 -3.7821954954436 4.3049424636012e-10)
(45.008408083907 -3.7867216967679 4.2935371638965e-10)
(55.139503813872 -3.7541367513582 4.3023501925488e-10)
(65.23825907659 -3.7823616685876 4.2983282423471e-10)
(75.247692932111 -3.7152233304463 4.2962193197585e-10)
(85.205970774416 -3.6715224774954 4.3042903840197e-10)
(95.281491602518 -3.5960416613351 4.289558521848e-10)
(105.27903225647 -3.4931675800636 4.2979676304049e-10)
(115.04441182274 -3.3437204633922 4.2855630340847e-10)
(124.66426445399 -3.1987479376974 4.2865931051675e-10)
(134.12048772403 -3.0289759020399 4.2692102453576e-10)
(143.38990540118 -2.8378492044366 4.2831157468442e-10)
(152.41168003564 -2.6255256536951 4.2588891517887e-10)
(161.15670491609 -2.4127713184568 4.2658275376787e-10)
(169.65043948312 -2.2060106000905 4.2502622426614e-10)
(177.92410358941 -2.0126442584135 4.2569130162108e-10)
(186.04396803274 -1.8301819087858 4.2412445580056e-10)
(194.02707334034 -1.6541736996876 4.2456158639174e-10)
(201.98445326221 -1.514876838131 4.2381214925107e-10)
(209.92976253481 -1.3379884440021 4.2397989642916e-10)
(217.90633413426 -1.2361945679169 4.2406550767549e-10)
(225.96339047604 -1.0421767362256 4.2319075978074e-10)
(234.07493755299 -0.93335471092886 4.2413011470936e-10)
(242.27615232622 -0.77822653335508 4.2329420501788e-10)
(250.48490208243 -0.59546805193235 4.2440670396677e-10)
(257.90726126566 -0.48424599843678 4.2319176708439e-10)
(264.5941057954 -0.35535919593918 4.2425355607162e-10)
(270.70528201726 -0.21492440535 4.2325757561585e-10)
(276.34777334572 -0.090957633208875 4.2448507546771e-10)
(281.6495813125 0.033995132725735 4.2297497257029e-10)
(286.85719456862 0.14662304601199 4.2269282381582e-10)
(291.91256022665 0.24612362810988 4.203797580522e-10)
(296.89258555096 0.33766340401072 4.1915132131376e-10)
(301.80619275503 0.40782012254197 4.1629079950847e-10)
(306.64044655201 0.49092946887426 4.1359407239257e-10)
(311.40402102497 0.54616930702652 4.1005640274757e-10)
(316.09047179667 0.61740404465683 4.0641452749623e-10)
(320.66284182437 0.65863767452123 4.0279541310785e-10)
(325.17386155309 0.71468145577031 3.9897431797103e-10)
(329.55022951239 0.74414673641848 3.9535857594557e-10)
(333.89494627265 0.78508471376847 3.9150236757158e-10)
(338.09318991829 0.80994701348277 3.876849546571e-10)
(342.27174686255 0.8386442404608 3.8370438392829e-10)
(346.29881348111 0.85955470214126 3.7982252654765e-10)
(350.32570333056 0.87890786268713 3.7568092237711e-10)
(354.19483842552 0.89023839234808 3.7177585249158e-10)
(358.03327098827 0.90332154675598 3.6737935509816e-10)
(361.74218892572 0.89909314982976 3.6342039455238e-10)
(365.40470137209 0.91040814084252 3.5881551128846e-10)
(368.93050004721 0.89722537403996 3.5463203927097e-10)
(372.40892819432 0.90567003471935 3.4989974526357e-10)
(375.74151795848 0.8847862452881 3.4549393505609e-10)
(379.02114332333 0.88533689208729 3.4077217421323e-10)
(382.15992057161 0.85631239560479 3.3619771099343e-10)
(385.24975685669 0.8494468589872 3.3171452476931e-10)
(388.2022073541 0.81054964292226 3.2700348114008e-10)
(391.09492793878 0.80011645114287 3.2304058809019e-10)
(393.8689278181 0.75016298849896 3.1822737834841e-10)
(396.56633869783 0.74145171580958 3.150400692603e-10)
(399.16839894102 0.67676372956733 3.1023250805813e-10)
(401.67949389955 0.67507683757539 3.0765544468816e-10)
(404.10473171248 0.59338339617854 3.0309765369028e-10)
(406.44960542589 0.59671559780625 3.0076907591117e-10)
(408.69371552194 0.5011763668362 2.9647679871847e-10)
(410.87916571242 0.50295624288967 2.9448698332889e-10)
(412.93911258608 0.39733878556295 2.9009759972626e-10)
(415.00395609954 0.3985190558878 2.8866616675529e-10)
(416.89207116491 0.2818719659131 2.8417887427607e-10)
(418.81100022168 0.27752981468612 2.8319809857726e-10)
(420.62373633107 0.15968766461265 2.7868027458336e-10)
(422.73298378175 0.14849740555551 2.7816341115304e-10)
(424.21833731946 0.028724730366401 2.7374140120556e-10)
(316.93020252389 -8.5856901261044e-05 -9.903341901277e-12)
(319.76508462673 0.0056509846188446 1.0890839081738e-11)
(321.46262068918 0.016766931171416 -1.1138721049224e-11)
(323.19421546582 0.034539206975759 1.1861629184252e-11)
(325.02042946256 0.060329952659868 -1.3032801166131e-11)
(326.99040761003 0.095315142265397 -3.6434265754968e-12)
(329.14088928817 0.14086045741593 -3.3469981028806e-11)
(331.49827518716 0.19731504917755 -1.7156597305182e-11)
(334.08073049735 0.2669995231204 -3.6834798070825e-11)
(336.89919708556 0.35232146453575 -3.1641762021927e-11)
(339.95672265262 0.45642509130105 -3.8401364460689e-11)
(343.24743639788 0.57835981055966 -4.8911322331029e-11)
(346.75606381109 0.7171983819632 -3.6919303383769e-11)
(350.45990291314 0.86698435782046 -6.6172795131925e-11)
(354.33192457622 1.0253829402695 -3.4567170967653e-11)
(358.34507392381 1.1874698020927 -7.0184173138191e-11)
(362.47495774833 1.354977439145 -3.2939605028104e-11)
(366.7014490918 1.5272156908231 -7.1781519871074e-11)
(371.00798176999 1.7073193262385 -4.6769522368431e-11)
(375.38051761833 1.8943942799336 -7.3871904229944e-11)
(379.80655626255 2.0872204233124 -4.4374288472413e-11)
(384.27544591626 2.2837909685702 -7.4879653267406e-11)
(388.76847159557 2.4785919286037 -5.7954909213602e-11)
(393.26479981979 2.6616935970759 -7.7806168706634e-11)
(397.71496566705 2.8358590764427 -6.2949318206374e-11)
(402.15787989779 3.0079457529388 -7.7055807885592e-11)
(406.55710276364 3.1868791454745 -7.3727705399188e-11)
(410.95629675645 3.3673685385769 -7.9648100163044e-11)
(415.31647722558 3.5564860748865 -7.7495299675474e-11)
(419.67700016609 3.744005849192 -8.1492807346863e-11)
(423.99294653907 3.9413775597971 -7.7276301276114e-11)
(428.31080683436 4.1293331801173 -8.1480506796091e-11)
(432.57327274268 4.3283985219849 -7.6625957235358e-11)
(436.83813238251 4.5130979877637 -8.1630003689103e-11)
(441.03227596728 4.7095935020451 -7.6743424649333e-11)
(445.22841332951 4.8860757655247 -8.1818230186451e-11)
(449.34246159671 5.0746899109415 -6.6675029446579e-11)
(453.45343028713 5.2417598170897 -8.2641413548564e-11)
(457.48106148298 5.4261655855867 -6.618200720452e-11)
(461.48795975205 5.5862155011327 -8.3258288775243e-11)
(465.42122074635 5.7623407637198 -6.4979860206907e-11)
(469.31806585911 5.9139287503348 -8.2012496388785e-11)
(473.14908053876 6.0817961672553 -6.4756483620985e-11)
(476.94088959676 6.2242364347803 -7.0763590097569e-11)
(480.66873620686 6.3840966497496 -6.2065219183395e-11)
(484.3462449074 6.5186804618417 -6.9210428431113e-11)
(487.96588937924 6.6699218868438 -6.0620097008112e-11)
(491.53180270323 6.7956033503444 -6.8577744543567e-11)
(495.04470566357 6.9382174102136 -5.8983283265262e-11)
(498.49537676687 7.0518348305734 -6.7186807291992e-11)
(501.89814735678 7.1743886113552 -5.8742330937847e-11)
(505.2335076772 7.2695878511771 -5.6743322170753e-11)
(508.52466479947 7.3733682362639 -5.578856508946e-11)
(511.74494344804 7.4513762972548 -5.531478343388e-11)
(514.92433216779 7.5382234210776 -5.4926713209767e-11)
(518.03268932314 7.6001387569861 -5.43309372184e-11)
(521.09194363989 7.6774412292607 -5.3756601297345e-11)
(524.09022164711 7.7223745169812 -5.3077456248621e-11)
(527.0313588524 7.7955142158331 -5.2440412841018e-11)
(529.90277672411 7.8217947470158 -5.1616673484131e-11)
(532.73660153201 7.8852439709046 -5.0825139260178e-11)
(535.49644197814 7.8941788850186 -4.9933655186149e-11)
(538.22071752403 7.9482038589107 -4.9226417382869e-11)
(540.87338101433 7.9403936231975 -4.8526999044698e-11)
(543.49378342404 7.9901568425727 -4.8037402455047e-11)
(546.05147108442 7.9729672561327 -4.7496352274673e-11)
(548.56691560827 8.0287785404903 -4.7080499171085e-11)
(551.01048186607 7.9983281310142 -4.6518148267944e-11)
(553.43892192271 8.0331570825031 -4.6035402897377e-11)
(555.82049134254 8.0232835783168 -4.5383519929048e-11)
(558.1381785783 8.0851945280566 -4.4844127272896e-11)
(560.38597883827 8.0564063779446 -4.4126971005228e-11)
(562.62879943172 8.0677662997133 -4.3561621066479e-11)
(564.85949914081 8.0459950559334 -4.281617239368e-11)
(567.02434389913 8.1172688489354 -4.2287733744313e-11)
(569.10557055356 8.1073288999172 -4.1578367505945e-11)
(571.15368459989 8.1165435275482 -4.1128694012046e-11)
(573.2011473151 8.0487762529734 -4.0484480808181e-11)
(575.24178192611 8.0662799993324 -4.0123458934621e-11)
(577.23167052153 8.0531383658128 -3.9570551533293e-11)
(579.14759149811 8.0978286805076 -3.929178156173e-11)
(581.01590738306 8.0502458068504 -3.8809336105426e-11)
(582.88280674551 8.0408054923234 -3.8556823853373e-11)
(584.74851694225 7.9950411025458 -3.8082383460004e-11)
(586.56977622377 8.0481570053724 -3.7808889651783e-11)
(588.30890618979 8.0494152391651 -3.7312565023717e-11)
(589.99178442224 8.0666670393686 -3.701642915942e-11)
(591.66651336398 7.9950402433847 -3.6484966501419e-11)
(593.34903286759 7.9804598471402 -3.6169369777111e-11)
(595.00456641014 7.9426847019827 -3.5637056981993e-11)
(596.62772273428 7.9435642947679 -3.535678293695e-11)
(598.19968243255 7.9004139678933 -3.488478876954e-11)
(599.75727531662 7.8842359588007 -3.4655871289935e-11)
(601.27217418995 7.8365706019739 -3.4262713604864e-11)
(602.79266097818 7.8115523803754 -3.4075375036114e-11)
(604.26553762346 7.7735000280227 -3.3755018705773e-11)
(605.74478864209 7.7569321692739 -3.3585906862161e-11)
(607.17456150152 7.7370367288028 -3.3309191978766e-11)
(608.58717521956 7.723777500371 -3.3131161668736e-11)
(609.96252890624 7.7017828872964 -3.2864724434108e-11)
(611.3378945678 7.6669714861922 -3.265960382572e-11)
(612.68012532952 7.6487996726315 -3.2378370995772e-11)
(614.02465394738 7.6306851478391 -3.2149048364542e-11)
(615.33513933611 7.6248180934449 -3.1844598215719e-11)
(616.62457464561 7.6079424597792 -3.159139447313e-11)
(617.93736422944 7.6114199217919 -3.1277041742422e-11)
(619.14688557234 7.5909061989773 -3.1002971537447e-11)
(620.88460495641 7.6121400662572 -3.0545453031549e-11)
(620.86864572445 7.6242167512286 -3.0252585653654e-11)
(617.29447460561 7.6373451762808 -2.9985626408805e-11)
(598.19729741371 7.6626184882734 -2.9692684746483e-11)
(518.8790983626 7.7407295087999 -2.943115212469e-11)
(316.05672678381 7.8779325420041 -2.8845139539703e-11)
(156.07942217338 8.484122293633 -2.8570522971991e-11)
(149.82741651754 7.9928326840513 -2.6379816420161e-11)
(141.43399019589 7.2572051838739 -2.5391562757402e-11)
(130.72395996092 6.7473836225126 -2.4785411034915e-11)
(120.92847631671 6.5995063713946 -2.3928389177465e-11)
(112.5843377682 6.0648142986154 -2.3141647363956e-11)
(104.67516097864 5.7123287898141 -2.2323988404401e-11)
(97.101548929827 5.6546707132427 -2.1409081337357e-11)
(89.459046117928 5.7902146354462 -1.9870311560867e-11)
(81.702939515096 5.8870844431285 -1.7921505106602e-11)
(74.019316141962 5.6701632586933 -1.7020016175156e-11)
(66.760043373273 5.1715644062438 -1.7165062754855e-11)
(59.768127298806 4.9531674852526 -1.5794287917934e-11)
(52.429771172435 5.4989411937761 -1.3322638990035e-11)
(44.018238445401 6.7553864635713 -1.0420201680432e-11)
(33.837854379173 8.8463306221579 -3.2224471857362e-12)
(21.097003950625 11.697452774365 1.5760261098546e-11)
(5.5561947171478 14.386631300982 5.1403760079447e-11)
(-12.544454030339 15.432808871831 1.1036812460378e-10)
(-29.23325322561 12.040241872781 1.6130532403786e-10)
(-42.764697749424 10.402530885256 1.8383218779191e-10)
(-54.97529630471 8.8519768343206 2.0653668510566e-10)
(-65.520101066707 7.3752677293813 2.2460658576578e-10)
(-74.508806531134 6.1078664814138 2.4024580622554e-10)
(-82.168225670044 5.0178304041295 2.5343690362637e-10)
(-88.657483623885 4.0386649353753 2.6495166010893e-10)
(-94.116126060813 3.1199285208798 2.7480518283023e-10)
(-98.714543422377 2.3080170356443 2.8309570070702e-10)
(-102.56899351919 1.6264266149887 2.8988753462632e-10)
(-105.71104801166 1.0440765875679 2.9540941424948e-10)
(-108.19082197855 0.51155707174351 2.9969575754554e-10)
(-110.11759075828 0.033390389524812 3.0247126890635e-10)
(-111.58388360028 -0.30885702931334 3.0348267935091e-10)
(-112.54753764575 -0.57797373488021 3.0373242988539e-10)
(-112.88303954023 -0.83573954562996 3.0399888929701e-10)
(-112.33231833731 -1.3997119823339 3.0450732318959e-10)
(-110.84754281828 -1.8855148447675 3.0498599106627e-10)
(-108.625928906 -2.3026126576756 3.0545885031901e-10)
(-105.593862041 -2.7193475993262 3.0609128220212e-10)
(-101.66319669326 -3.1290849107209 3.067142214175e-10)
(-96.777225076534 -3.5335020433524 3.0750237665715e-10)
(-90.941207171524 -3.9363483586911 3.0857022033576e-10)
(-84.220632586303 -4.3470391015789 3.0949022311897e-10)
(-76.647545459058 -4.8175268385961 3.107740456945e-10)
(-68.30550364095 -5.2348259482617 3.0892660906517e-10)
(-59.366428477885 -5.5939196214885 3.1733904039725e-10)
(-49.931956199809 -5.975575725359 3.0620969907356e-10)
(-40.139934474762 -6.2231375475429 3.2000227431509e-10)
(-30.106939914294 -6.4389127706982 3.0982825022864e-10)
(-19.948329569667 -6.6287182193403 3.1850815645561e-10)
(-9.811747496741 -6.9384050390762 3.1336176511023e-10)
(0.32369185486641 -6.9112769212174 3.1765211714212e-10)
(10.52862094647 -7.0132580236919 3.1544376246234e-10)
(20.732155501344 -7.0912403020988 3.1801874602085e-10)
(30.919815361806 -7.1814215136045 3.1682141607351e-10)
(41.132750844884 -7.2473174281211 3.1877137186518e-10)
(51.356358816248 -7.272280700218 3.1768786891352e-10)
(61.542105538595 -7.2335705134163 3.1885783228316e-10)
(71.697441922045 -7.2768396348812 3.1831452697512e-10)
(81.760138203896 -7.1675473372752 3.1871071458006e-10)
(91.763158638774 -7.0806744115557 3.1895308828709e-10)
(101.87795344866 -6.9443775770922 3.1868101165126e-10)
(111.91067384715 -6.7672301270188 3.1884255291247e-10)
(121.7034627095 -6.4957847217748 3.1843101698421e-10)
(131.35460473607 -6.227677557315 3.1844754664575e-10)
(140.83429051998 -5.9135484100783 3.1737137735489e-10)
(150.1096862534 -5.5602318931651 3.1842973682524e-10)
(159.12344857715 -5.1676301383629 3.172787794822e-10)
(167.85662851569 -4.7784946760395 3.1807360680208e-10)
(176.32812532456 -4.3857799205736 3.1729116193033e-10)
(184.5684411685 -4.0131746244947 3.1820753994412e-10)
(192.63198431565 -3.6489505423125 3.1768540113456e-10)
(200.54814765915 -3.3075325937278 3.1840640074477e-10)
(208.42369073276 -3.0164639781181 3.1843940548071e-10)
(216.27140196273 -2.6733533918732 3.1918157698842e-10)
(224.15516295995 -2.4444059959193 3.196080599306e-10)
(232.09162528971 -2.0426029934305 3.2011726343578e-10)
(240.08327361297 -1.8247961806819 3.2107713798719e-10)
(248.14086458891 -1.4714260329583 3.2120592679287e-10)
(256.19664289548 -1.1091484618535 3.2286329514937e-10)
(263.42659026415 -0.87696053681941 3.232879567041e-10)
(270.01711168769 -0.62907377533383 3.2433792381199e-10)
(275.95123508745 -0.31031821624899 3.2501847193957e-10)
(281.44392090347 -0.057555727630779 3.2671902879516e-10)
(286.64455871513 0.17463061552101 3.2694536854068e-10)
(291.76401547625 0.36261033407616 3.2775194143284e-10)
(296.74335671329 0.53643471289003 3.2714254021189e-10)
(301.65027562673 0.71194453464294 3.270940330663e-10)
(306.48946880883 0.84948088498922 3.2623786297093e-10)
(311.24449949706 1.0065671788527 3.2580550811584e-10)
(315.91992024252 1.114187904036 3.2484928267278e-10)
(320.5187693628 1.2397153938364 3.2404219891005e-10)
(325.00338977792 1.3167468670985 3.2303440830225e-10)
(329.43090522137 1.4093078059633 3.2208328894273e-10)
(333.72776470739 1.4606107424493 3.2108636681258e-10)
(337.99613903677 1.5236144386687 3.2012438315099e-10)
(342.11892331642 1.5685129948152 3.1906290431721e-10)
(346.22458411687 1.6082651681547 3.179833699925e-10)
(350.18035835345 1.6485949853117 3.1685142697883e-10)
(354.13576255241 1.6764621646306 3.1558000128065e-10)
(357.93858082195 1.6973077760478 3.1437851564651e-10)
(361.70437723956 1.7187154381841 3.1290650775316e-10)
(365.35335831201 1.7112572228874 3.1159929753946e-10)
(368.94876529044 1.7281663362322 3.0989760144741e-10)
(372.4188785994 1.7030706952951 3.0834302207807e-10)
(375.83405240739 1.7115804152977 3.0641672605224e-10)
(379.11161687695 1.6663540359701 3.046028429669e-10)
(382.33184446061 1.6596824421955 3.025323155356e-10)
(385.4187917223 1.5963066588169 3.0048298899603e-10)
(388.45473801686 1.5751309188196 2.9840494482198e-10)
(391.35869459289 1.4947232370286 2.9613264136969e-10)
(394.20647960806 1.4663311568588 2.9422428912792e-10)
(396.9342986604 1.3692275839683 2.9174567366333e-10)
(399.59370404685 1.3434719148304 2.9020327203558e-10)
(402.15129018233 1.220972324007 2.8759196984973e-10)
(404.62475097434 1.2067425203928 2.8636567701649e-10)
(407.00957049484 1.0512710708992 2.8382385063981e-10)
(409.31107910139 1.04771516107 2.8266385936074e-10)
(411.51920038523 0.86163566871381 2.8032076005488e-10)
(413.6597217558 0.85861806588825 2.7922497241702e-10)
(415.68485835549 0.64945304705832 2.7687047810877e-10)
(417.70867321592 0.64530004621732 2.7605841932043e-10)
(419.55991491531 0.41408734749376 2.7360644437278e-10)
(421.44146474266 0.40630456716186 2.7304162197479e-10)
(423.21926665869 0.16187243190411 2.7057549338332e-10)
(425.29518881213 0.1460893858319 2.7025493177095e-10)
(426.75182111078 -0.10960055326363 2.678261599982e-10)
(316.93364055756 -1.4048086716084e-05 -5.9081156468763e-12)
(319.77517323334 0.0090756694945637 6.8400084591177e-12)
(321.48042595824 0.027055339574694 -7.0117989332416e-12)
(323.2208354469 0.055645423173778 7.1140627076381e-12)
(325.05734717448 0.097209950367827 -7.5274234759415e-12)
(327.03906257014 0.15343270479593 -2.4393635280389e-12)
(329.20268116341 0.22570926473033 -2.0064842697205e-11)
(331.57513799921 0.31562286978185 -1.0466340049453e-11)
(334.17539651593 0.42782194318941 -2.1586770132456e-11)
(337.01434653186 0.5658894882484 -1.8758765646177e-11)
(340.09339977831 0.73438676085237 -2.246123250503e-11)
(343.40427559911 0.93071156103414 -2.8715951800296e-11)
(346.92945876893 1.1527916046123 -2.1915252842778e-11)
(350.64565832419 1.3907569708434 -3.9598847980846e-11)
(354.52656179116 1.6427925540862 -1.9339233865008e-11)
(358.54723368176 1.9012513531664 -4.1755757153227e-11)
(362.68472374855 2.1714320864755 -1.7790636463369e-11)
(366.91984783478 2.4494303395745 -4.1453527396175e-11)
(371.23498254443 2.742346401271 -2.6260670880835e-11)
(375.61504832338 3.0430473823729 -4.4005686945126e-11)
(380.04591417518 3.3544781187986 -2.5959393511666e-11)
(384.51386311905 3.6662848626197 -4.3503132813639e-11)
(388.9986921383 3.980807845872 -3.3741002767894e-11)
(393.48569497555 4.2634570603793 -4.4820413624115e-11)
(397.92910251121 4.5545027982402 -3.5345869791241e-11)
(402.37345754792 4.8318842953636 -4.5295408318198e-11)
(406.77616226238 5.1266512951912 -4.2420029966043e-11)
(411.1790201026 5.4191980061818 -4.5435605559179e-11)
(415.54068443159 5.7263004260139 -4.2637493398446e-11)
(419.90304027615 6.0298904950111 -4.5805886236512e-11)
(424.21640251489 6.3481616991044 -4.3168051368734e-11)
(428.53213665568 6.6541808732969 -4.6464800552314e-11)
(432.78909830748 6.975791172215 -4.3473562589413e-11)
(437.04952981729 7.2767050061347 -4.6984424582197e-11)
(441.23458470201 7.5947278681207 -4.4716534096758e-11)
(445.42284146068 7.8825908725355 -4.7783129033649e-11)
(449.52522148569 8.1923941873603 -3.9326173040971e-11)
(453.62839266648 8.4637536192643 -4.9923095201315e-11)
(457.6452967933 8.7589879888914 -4.0398154118129e-11)
(461.64277815768 9.0160991182402 -5.1195203983433e-11)
(465.565121782 9.2935431913548 -4.1368001737718e-11)
(469.45262879555 9.5366495398976 -5.1316122692428e-11)
(473.27327630978 9.8007189997806 -4.2390155207215e-11)
(477.05606108112 10.028413196586 -4.6723272901284e-11)
(480.77591907915 10.278550736553 -4.1925270303629e-11)
(484.44842446291 10.491935491447 -4.6344869576109e-11)
(488.0644363521 10.729961413223 -4.1944166276605e-11)
(491.62453446451 10.929162754418 -4.6566029938909e-11)
(495.13218371485 11.149074942862 -4.241314469973e-11)