/*--------------------------------*- C++ -*----------------------------------*\
| =========                 |                                                 |
| \\      /  F ield         | OpenFOAM: The Open Source CFD Toolbox           |
|  \\    /   O peration     | Version:  2312                                  |
|   \\  /    A nd           | Website:  www.openfoam.com                      |
|    \\/     M anipulation  |                                                 |
\*---------------------------------------------------------------------------*/
FoamFile
{
    version     2.0;
    format      ascii;
    arch        "LSB;label=32;scalar=64";
    class       volScalarField;
    location    "2e-05";
    object      alphat;
}
// * * * * * * * * * * * * * * * * * * * * * * * * * * * * * * * * * * * * * //

dimensions      [1 -1 -1 0 0 0 0];

internalField   nonuniform List<scalar> 
109340
(
0.49835430755135
0.34354382976868
0.18595110574145
0.15546142375468
0.15040482801627
0.15288773591843
0.15751908830128
0.16629933576372
0.14734194977308
0.13109091259973
0.11822754078176
0.10772525235545
0.098961757873546
0.091522806887291
0.085117077984531
0.079531825987874
0.074606685644701
0.070217064681877
0.066263346212489
0.062663143663097
0.059346834534295
0.05625202436721
0.053320489255164
0.050495802346841
0.047721927974174
0.044950148522699
0.041441410348323
0.032548538727459
0.02474577386374
0.01844693126157
0.013538513898518
0.0099007738994443
0.0072558202023537
0.0053147323285145
0.0039758161536845
0.0030085793995483
0.49263071361849
0.24007847937106
0.1764069072325
0.16124741210899
0.1597342432695
0.16206285320703
0.14592337078048
0.12704673214408
0.11235269364739
0.10070403129296
0.091262161619261
0.083455580390927
0.07689034932374
0.071287296733107
0.066443121346563
0.062205921065842
0.058459144858522
0.055111059492448
0.052087585788068
0.04932734105466
0.046776278719534
0.044386944372887
0.04211450309973
0.039915180423857
0.037746653368449
0.035572133842885
0.033363235226736
0.03003155065507
0.022644448105794
0.016759518492024
0.012186744890119
0.0089394631246886
0.0065060513133198
0.0047927288362791
0.003593927005999
0.0027364111076393
0.28873562544947
0.20500336653169
0.17700673382346
0.16555249294908
0.13255413972039
0.11058935847217
0.094659718465235
0.082653566272247
0.073318394221005
0.065879606868569
0.059828191155313
0.054815802565648
0.050597615939796
0.046997592167291
0.043886269654334
0.04116618242148
0.038762064501404
0.036614581855061
0.034675773240936
0.03290619822422
0.031268421344925
0.029732322323968
0.028269347256891
0.026851800280267
0.025454493551491
0.024056892417263
0.022647418755079
0.021154383014956
0.019491668330253
0.016052666813637
0.011583220444384
0.0084454777582302
0.0061158159208004
0.0044980007869689
0.0033716079772894
0.0025580192184709
0.16696253424907
0.16846214994965
0.10591100890744
0.077187888632899
0.060777805528139
0.050179998356013
0.042792419425804
0.037359986496294
0.033204670244877
0.029928441962052
0.027282623614499
0.025103076807746
0.023276897444016
0.021724132488927
0.020386554368689
0.01922052732692
0.018192438407849
0.0172760952909
0.016448524560219
0.015688791160421
0.014976185866845
0.014298617359683
0.013645622937528
0.013007080871869
0.012375972899912
0.011750800222041
0.0111112002049
0.010432030565724
0.0096963667006434
0.0088911343656579
0.0080040260284448
0.0070315691383911
0.0054741066560797
0.0040025911436232
0.0029812613595865
0.0022472547154281
0.1007880996921
0.033046532183944
0.020122424084657
0.014611582597856
0.011576400642415
0.0096713290154749
0.0083757085514038
0.0074448149041049
0.0067485999134215
0.0062120991639205
0.0057893819546798
0.0054510963761679
0.0051776552178911
0.0049556610301366
0.0047757368487796
0.0046308793058911
0.0045152721717108
0.0044216620071144
0.0043357133428653
0.004244904158585
0.0041428511057757
0.0040310521788818
0.0039089366902109
0.0037797104284898
0.0036368747611844
0.0034797296582056
0.0032921608023243
0.0030539119880111
0.002756204967477
0.0024227310741962
0.0020997219290591
0.0018014634530994
0.0015118920340837
0.0012342715035007
0.0009825285735207
0.00076878819819828
0.00025164160452759
0.00037442721404334
0.00048117393834489
0.00056464837510325
0.00062450743393567
0.0006641454557337
0.00068809988082421
0.00070064436466364
0.00070520684089839
0.00070459246962987
0.00070045898014281
0.00069408906757032
0.00068635554350306
0.00067782527496568
0.00066886208846651
0.00065968461455883
0.0006503901065732
0.00064098001814717
0.00063138416867023
0.00062156415269356
0.0006111267340881
0.00059960274766621
0.0005865496420164
0.0005711810454076
0.0005528102940525
0.00053074043935269
0.00050578389789963
0.00047888113208135
0.00045065975824791
0.00042171994335623
0.00039251563679033
0.00036396268698598
0.00033607511450258
0.00030904481773409
0.00028272620074337
0.00025784500359907
0.0023414687423286
0.0018243298016552
0.0013831707881153
0.00085198407298367
0.00031151040834388
0.00011058548981379
4.4687875864758e-05
3.0597733630417e-05
2.9244451639282e-05
2.7187556065131e-05
2.2482656755579e-05
1.8644607677579e-05
1.5824692693827e-05
1.3346782186219e-05
1.1103241204192e-05
9.2534225550565e-06
7.9719412788337e-06
6.3509492954164e-06
4.8534793348045e-06
3.7563090074664e-06
2.9455457775879e-06
2.3396172784154e-06
1.8790845804418e-06
1.5231212695496e-06
1.2455484773284e-06
1.0278025548869e-06
8.5535899171243e-07
7.1692735590982e-07
6.0438955673754e-07
4.7917675953195e-07
3.5445784308632e-07
2.6670430654066e-07
2.0354096501464e-07
1.5795489830336e-07
2.5226851923612e-06
1.4456762243089e-05
5.5369883818505e-06
9.0448095878156e-06
1.59520687266e-05
2.6027965801564e-05
3.7610157632949e-05
4.7637265784124e-05
5.3816789927146e-05
5.5921652035615e-05
5.4495742770445e-05
5.0466190646493e-05
4.438161490411e-05
3.6294905609379e-05
2.8333083036156e-05
2.1866200372753e-05
1.7269589911021e-05
1.4294591298727e-05
1.2662175766474e-05
1.2614482864832e-05
1.3969884918466e-05
1.6030223160307e-05
1.6771791977987e-05
1.689469328003e-05
1.646404665928e-05
1.5950652990451e-05
1.5487553586205e-05
1.5162061020803e-05
1.5063875181491e-05
1.5072797350915e-05
1.522388848526e-05
1.5393684769215e-05
1.5489860345224e-05
1.5504148579869e-05
1.5439819181828e-05
1.5354243113945e-05
1.5236896383069e-05
1.5076419494346e-05
1.4896946853376e-05
1.4693947946912e-05
1.4489706253209e-05
1.4214793838811e-05
1.3947232249325e-05
1.3811867322378e-05
1.4661649757966e-05
2.2528366887924e-05
6.8112382366198e-05
0.00011282830485086
7.6569108202685e-05
1.5973163545673e-05
4.3087060395908e-07
3.5625796237876e-07
4.8162285298344e-07
6.5860663015439e-07
8.7593811640107e-07
1.1352654397331e-06
1.4403544499852e-06
1.794182893179e-06
2.1990918127721e-06
2.6578929162575e-06
3.1745671771153e-06
3.7551453227764e-06
4.4097183636949e-06
5.1549952319931e-06
6.0194576804691e-06
7.0469618354892e-06
8.2711958941503e-06
9.6632517590749e-06
1.1102260423323e-05
1.2423418209896e-05
1.3763037121294e-05
1.4506702481289e-05
1.4952513971658e-05
1.513382033781e-05
1.5151757178895e-05
1.5043706291768e-05
1.4863578679223e-05
1.464499573226e-05
1.4393159627468e-05
1.4070307911207e-05
1.3828849823622e-05
1.3665087413654e-05
1.40752366529e-05
1.5934117053374e-05
1.8639065823704e-05
2.1332938396801e-05
2.4475766284707e-05
2.88625040604e-05
3.5274724329994e-05
4.511493432825e-05
6.2216129308204e-05
9.6353644985464e-05
9.7811297853286e-05
9.778583706967e-05
9.7753629298948e-05
9.7725650621198e-05
9.7719522466226e-05
8.3313788413385e-05
7.2234318772845e-05
6.8066584124085e-05
6.8937843682823e-05
7.2292111269876e-05
8.545660153437e-05
9.873317230736e-05
9.8899510132649e-05
9.9007806188422e-05
0.0021499462398155
0.0016073123227631
0.00092964239129806
0.00037208893438157
0.00016068603422116
7.4883991270569e-05
3.6592833619855e-05
2.011508947198e-05
1.411919687469e-05
1.2465210032809e-05
1.2014434039936e-05
1.1052182382794e-05
9.8721159886664e-06
8.7540644438056e-06
7.7895231747822e-06
6.9487115680184e-06
6.1667004616943e-06
5.5080011617833e-06
4.769215752867e-06
3.6841089655701e-06
2.882353398993e-06
2.2822992804738e-06
1.8278925658201e-06
1.4786740427195e-06
1.2072910415688e-06
9.9444294588531e-07
8.2577411891233e-07
6.9083232230768e-07
5.8191281192335e-07
4.4611842249063e-07
3.3491102837148e-07
2.5432522481172e-07
1.9536184627324e-07
1.5445445214037e-07
1.2698421918682e-05
8.9882072068522e-06
4.2067605438741e-06
6.8033334156157e-06
1.1291286318935e-05
1.7449320196264e-05
2.3743549115955e-05
2.8461297256829e-05
3.1300187877485e-05
3.2327133104188e-05
3.1855574143748e-05
3.0084488491955e-05
2.7240258354099e-05
2.3789364180436e-05
1.9738081682736e-05
1.601775542693e-05
1.3213861973395e-05
1.1363795931389e-05
1.061644593635e-05
1.1030890662671e-05
1.2429010599679e-05
1.3981200972438e-05
1.4566537969986e-05
1.4677650847913e-05
1.4372825900887e-05
1.3992702933982e-05
1.3614529231236e-05
1.3314019976296e-05
1.3149699686807e-05
1.3057703133991e-05
1.3002263587577e-05
1.29169806171e-05
1.2768053889899e-05
1.2558336906026e-05
1.233582027058e-05
1.2139442116089e-05
1.1970865245194e-05
1.1830708263528e-05
1.1765865341357e-05
1.1827394136958e-05
1.2028177668943e-05
1.2333771519055e-05
1.2739265939541e-05
1.3317337557938e-05
1.4821277159652e-05
2.4996224985681e-05
7.8578308810812e-05
0.00010908989336668
4.887152786691e-05
1.2260206965672e-05
4.3483493647175e-07
3.8946525333433e-07
5.2038298227354e-07
7.0339650941287e-07
9.2992128244711e-07
1.2012819007976e-06
1.5208238966331e-06
1.8910874874672e-06
2.3138148724166e-06
2.7914930138842e-06
3.3279658346368e-06
3.9291582478754e-06
4.605477613316e-06
5.3749552991053e-06
6.2674016145768e-06
7.3292991531321e-06
8.5964173209798e-06
1.0043230684275e-05
1.151877945241e-05
1.2833879536817e-05
1.4064627864972e-05
1.4763855240332e-05
1.5162235286401e-05
1.5289136712348e-05
1.5258127560779e-05
1.5112999038742e-05
1.4907974333102e-05
1.4672578321206e-05
1.440787534098e-05
1.4087586751371e-05
1.3883665286836e-05
1.3784747521809e-05
1.4179336911127e-05
1.5887199236004e-05
1.8433281434918e-05
2.1087132857645e-05
2.4341162253642e-05
2.8895327012499e-05
3.5466046177764e-05
4.5316397421878e-05
6.2480595970442e-05
9.5205251454392e-05
9.781172310441e-05
9.7786295960178e-05
9.7754306317324e-05
9.7726501788154e-05
9.7720265510491e-05
8.3244158518213e-05
7.2177891850504e-05
6.7973857922651e-05
6.8686231465698e-05
7.2221217417827e-05
8.521400732622e-05
9.8733702420908e-05
9.8899708632809e-05
9.9007888095726e-05
0.0020460833702148
0.001195392382706
0.00042036611384836
0.00017600173619851
8.9461457559427e-05
4.9913615249419e-05
2.9976399611944e-05
2.0160191879931e-05
1.5441492390118e-05
1.3207276928942e-05
1.2043808022718e-05
1.0833514650883e-05
9.6016708846526e-06
8.4727904842416e-06
7.4581182725255e-06
6.5540777699338e-06
5.8131737588015e-06
5.1875529439485e-06
4.6162198811125e-06
3.640768178112e-06
2.8561606597383e-06
2.2674707376258e-06
1.8196671016159e-06
1.4744275851062e-06
1.2052440508043e-06
9.9332059389561e-07
8.2512405169132e-07
6.9044948331814e-07
5.3084217221047e-07
3.9840192190396e-07
3.0270841536081e-07
2.3230627040773e-07
1.8072206131869e-07
1.4016994545406e-07
2.2690718033947e-06
7.3975406820952e-06
3.9209188506166e-06
5.9374054904309e-06
9.872066607839e-06
1.4850857722481e-05
1.9553130042906e-05
2.3101487235035e-05
2.5880164764908e-05
2.7621786245554e-05
2.8093519641201e-05
2.6966822004572e-05
2.4579585496881e-05
2.1349826637069e-05
1.7677617116894e-05
1.443244986796e-05
1.1996391770743e-05
1.0430463537447e-05
9.9146463394262e-06
1.0416489500369e-05
1.1588660851206e-05
1.2825057861018e-05
1.3336379197602e-05
1.3407034815212e-05
1.308300193394e-05
1.2684869126928e-05
1.228495835271e-05
1.1935127108142e-05
1.1642513864818e-05
1.1374781942417e-05
1.1120428340229e-05
1.08556420916e-05
1.0577256941847e-05
1.0378898789043e-05
1.0408663898233e-05
1.0865247052092e-05
1.1903882461078e-05
1.3496872396348e-05
1.5523006747698e-05
1.7807603960895e-05
2.0249126188661e-05
2.2552968008664e-05
2.4307160389086e-05
2.5310158579482e-05
2.617983234527e-05
3.221719426353e-05
7.5345419090484e-05
0.00010525262446128
4.1440426575111e-05
1.1742526148906e-05
3.9761090473688e-07
3.9538734631843e-07
5.288698638674e-07
7.114930093632e-07
9.3727093114692e-07
1.208120077626e-06
1.5273001908674e-06
1.8971775781764e-06
2.3194542609907e-06
2.7966022925489e-06
3.3324556339772e-06
3.9330225777055e-06
4.6087639180561e-06
5.3775594593282e-06
6.2686889116661e-06
7.3258544266883e-06
8.5912222645744e-06
1.0063818950828e-05
1.1539325284936e-05
1.2851834114993e-05
1.4032223760428e-05
1.4749784838556e-05
1.5173830696304e-05
1.5310929810389e-05
1.5279027991743e-05
1.5130997356025e-05
1.4921555203398e-05
1.4680442112289e-05
1.4411226142685e-05
1.4115326390064e-05
1.3985635694664e-05
1.4010142963474e-05
1.4415566455067e-05
1.5878692431965e-05
1.8079573367496e-05
2.0486479148316e-05
2.3869662424446e-05
2.8953594642463e-05
3.5952814496913e-05
4.5845204515403e-05
6.2162223524295e-05
9.3731298623424e-05
9.7812653543243e-05
9.7787330121216e-05
9.7755770688507e-05
9.7728324509194e-05
9.7721886120328e-05
8.3053168142391e-05
7.2077441452159e-05
6.7739052011781e-05
6.7943006575944e-05
7.2409917018035e-05
8.4259212602688e-05
9.8734859746602e-05
9.8900208732177e-05
9.9008310579884e-05
0.0016158768152737
0.00041352531284111
0.00014824172948316
7.6410851163108e-05
5.0074137377589e-05
3.6052497453517e-05
2.7234537531488e-05
2.1430067450933e-05
1.7605750930967e-05
1.5128048176786e-05
1.3097489829413e-05
1.1308298323643e-05
9.7706968796775e-06
8.4639796284937e-06
7.3637364615262e-06
6.4803791603448e-06
5.6946868925339e-06
5.0149100684388e-06
4.5026942838682e-06
3.5354034958782e-06
2.7822797448967e-06
2.2145095511568e-06
1.7814301491674e-06
1.4468885760402e-06
1.1854267050601e-06
9.7894930820667e-07
8.1449032455617e-07
6.585111704026e-07
4.8888725838386e-07
3.6815534446024e-07
2.8047568242704e-07
2.1599211499027e-07
1.6823721918491e-07
1.2772958073415e-07
3.4949889544944e-07
6.742926301162e-06
4.1507554256301e-06
6.107853251476e-06
9.0880050896316e-06
1.2378705246071e-05
1.6379530666724e-05
2.0255107147003e-05
2.4101763862178e-05
2.6663168277457e-05
2.7866217186622e-05
2.7578560356265e-05
2.5467765543589e-05
2.1499411031729e-05
1.7538087801194e-05
1.427338485405e-05
1.1997102629144e-05
1.0658365537858e-05
1.0343632431755e-05
1.0863999056317e-05
1.1838582918105e-05
1.2779354246704e-05
1.3169965402943e-05
1.3116469559735e-05
1.2697550774877e-05
1.2188097406274e-05
1.1660288477523e-05
1.1167982158349e-05
1.073952717135e-05
1.0357529697837e-05
1.0118618838101e-05
1.0239092357203e-05
1.1101024350593e-05
1.3069426563397e-05
1.6132525869573e-05
2.0047777491886e-05
2.4578825259659e-05
2.9317316343593e-05
3.371859287429e-05
3.7447393707974e-05
4.0382013991843e-05
4.2552840049587e-05
4.4150734904111e-05
4.4757276631539e-05
4.5370057969404e-05
4.8664702373403e-05
7.9137249523975e-05
9.7874521717184e-05
3.2134701810792e-05
1.1768271042709e-05
3.7115384106253e-07
4.0621422011639e-07
5.4316974925107e-07
7.2736849389106e-07
9.5431976384194e-07
1.2262034179909e-06
1.5462810143655e-06
1.9169114059495e-06
2.3397874753944e-06
2.8174007827637e-06
3.3536013685049e-06
3.9543732390736e-06
4.6301837440526e-06
5.3988943357867e-06
6.289600006622e-06
7.3459414977309e-06
8.6114904864211e-06
1.0090180254221e-05
1.1575394163181e-05
1.2891105564344e-05
1.4017261804244e-05
1.4749337124902e-05
1.5198078017222e-05
1.5345481122944e-05
1.5311826835776e-05
1.5161226997981e-05
1.4948361095309e-05
1.4702954103997e-05
1.4430096639679e-05
1.4142296344829e-05
1.4043111566161e-05
1.4116328867252e-05
1.4522689559822e-05
1.588221101395e-05
1.7939144402327e-05
2.0276839100956e-05
2.3722536975564e-05
2.8927960996912e-05
3.6055188180779e-05
4.6070961698761e-05
6.2351396894788e-05
9.3625564433517e-05
9.7813824826249e-05
9.7788686032431e-05
9.7757742038141e-05
9.7730853592729e-05
9.7724195156483e-05
8.2876408922659e-05
7.1975011393866e-05
6.7633565737035e-05
6.7781715437648e-05
7.2287407072753e-05
8.402526743396e-05
9.8736108019375e-05
9.8901167278498e-05
9.9009005565496e-05
0.00044871616537755
0.00010841500275394
8.8265206520682e-05
6.9665707895005e-05
5.212534311744e-05
3.9395261261984e-05
3.0867872039158e-05
2.4782927026828e-05
2.0337546042547e-05
1.7200867050876e-05
1.4435188260523e-05
1.2059054906784e-05
1.0143749453235e-05
8.6624592093227e-06
7.4689530300165e-06
6.4572838318487e-06
5.6945350701671e-06
5.0465042480402e-06
4.3975138574368e-06
3.4230987194405e-06
2.701354261252e-06
2.1565048976507e-06
1.738151192034e-06
1.4137843839186e-06
1.1599706442483e-06
9.5929859638282e-07
7.9942191041662e-07
6.2619018138491e-07
4.6482736515077e-07
3.4986487978649e-07
2.6634057241181e-07
2.0539680002093e-07
1.5938969911634e-07
1.2613194686575e-07
2.8862639079072e-08
5.9443563695174e-06
4.1920775992976e-06
5.5347284376796e-06
6.3602574031109e-06
8.586838635672e-06
1.3140140784797e-05
1.9001450253006e-05
2.4316118793633e-05
2.870513143204e-05
3.087173654525e-05
2.9721802853321e-05
2.6038794881825e-05
2.1628868658485e-05
1.7670528043362e-05
1.4571898857585e-05
1.2485266765941e-05
1.1440436569401e-05
1.126789837536e-05
1.1734747548033e-05
1.2449307874e-05
1.3065232021955e-05
1.328589102092e-05
1.3096031620742e-05
1.2578892007084e-05
1.1962289826143e-05
1.141649979215e-05
1.0978015941696e-05
1.0835140444199e-05
1.137733766768e-05
1.323261539942e-05
1.6780490414886e-05
2.1802806770087e-05
2.7833037893958e-05
3.4359053724925e-05
4.048747420091e-05
4.5798391397253e-05
5.0220799257662e-05
5.3812358606099e-05
5.6721904284107e-05
5.9096550839903e-05
6.1101394198613e-05
6.2619750175342e-05
6.3935610568917e-05
6.5158356184093e-05
6.6327940737643e-05
8.7045371201595e-05
8.4628643113777e-05
2.2163264805381e-05
3.8808825651347e-06
3.6121598497089e-07
4.2206355056172e-07
5.6319538992357e-07
7.4967074691258e-07
9.7836260405589e-07
1.2518107474463e-06
1.5732930803184e-06
1.9451315473912e-06
2.369037918789e-06
2.8475336002929e-06
3.3844915360891e-06
3.9859448377733e-06
4.6624127240724e-06
5.4316956258196e-06
6.3228730618562e-06
7.3800218799287e-06
8.6483479192105e-06
1.0129797785351e-05
1.1623430097233e-05
1.2939862141779e-05
1.4031832232555e-05
1.4773275169508e-05
1.5238509024196e-05
1.5391798952564e-05
1.5354692116873e-05
1.5201897431041e-05
1.4986344370271e-05
1.4737782823405e-05
1.44619800238e-05
1.4172788130663e-05
1.4074247016489e-05
1.415533886851e-05
1.45717158645e-05
1.5917308275042e-05
1.793575202643e-05
2.023892230646e-05
2.3661310934713e-05
2.8863851292948e-05
3.6041070629401e-05
4.6135348621226e-05
6.2463021156045e-05
9.3653251347129e-05
9.7815187994213e-05
9.7790269378111e-05
9.7759970752909e-05
9.7733717429501e-05
9.7727060166415e-05
8.2729658003164e-05
7.1869516993768e-05
6.7535793277499e-05
6.7713920978095e-05
7.215447000918e-05
8.3806976003947e-05
9.8737774041503e-05
9.8902543309269e-05
9.9010042539573e-05
0.00026658561825111
0.00015459172319385
9.199952670826e-05
8.7873176431041e-05
9.4733055210678e-05
6.4695281238506e-05
4.2789886885578e-05
3.1090710263133e-05
2.3882438384447e-05
1.9043726182816e-05
1.5611183927451e-05
1.2889394431249e-05
1.0696644671992e-05
8.9589443385268e-06
7.6025895784651e-06
6.572222232308e-06
5.7030651111786e-06
4.9981352689487e-06
4.1809761603979e-06
3.2903652896193e-06
2.6108561996154e-06
2.0902418378298e-06
1.6905947440739e-06
1.3798556606918e-06
1.1347745801244e-06
9.4006481236728e-07
7.8441669219482e-07
6.0089349274442e-07
4.4672910216152e-07
3.3604912768371e-07
2.5609807670683e-07
1.9769418534818e-07
1.5436100264708e-07
1.2190299832899e-07
5.7558749124554e-08
4.9319097871844e-06
4.2389787637422e-06
4.8166201337832e-06
4.4065314648898e-06
5.5280953277396e-06
8.7097078797472e-06
1.7024996118345e-05
2.6161490935518e-05
3.1659460117795e-05
3.2199819525518e-05
2.9427066914666e-05
2.4995695966138e-05
2.0706369005793e-05
1.7189895094234e-05
1.4604492428933e-05
1.2948480555804e-05
1.2217659151574e-05
1.2113971262836e-05
1.2475115300532e-05
1.2992355201452e-05
1.3438349915286e-05
1.3620990070528e-05
1.3490847518588e-05
1.3146298483062e-05
1.2840231091575e-05
1.2873211757673e-05
1.3721960468325e-05
1.6102835965868e-05
2.0567366588586e-05
2.6832961285115e-05
3.4231425692061e-05
4.1678078830685e-05
4.8333052916159e-05
5.3994802704409e-05
5.8726260436986e-05
6.268765661743e-05
6.6057006963455e-05
6.8998618817555e-05
7.1661900815055e-05
7.4101471588014e-05
7.6450131428139e-05
7.8668116997195e-05
8.1049949529801e-05
8.2108012456931e-05
8.110181299153e-05
9.100941342768e-05
6.3893245603811e-05
1.484177848033e-05
1.0397270368541e-06
3.6511620866249e-07
4.4274690418399e-07
5.884680797033e-07
7.7757265223964e-07
1.0084020525868e-06
1.2838192029342e-06
1.6071038247351e-06
1.9804994704912e-06
2.4057432965189e-06
2.8853881225184e-06
3.4233343152776e-06
4.0256702970631e-06
4.702956316222e-06
5.4729293345616e-06
6.3646865927068e-06
7.4223579752201e-06
8.6926045849178e-06
1.0176121562582e-05
1.1680033773778e-05
1.2998516982682e-05
1.4049260139479e-05
1.4812637607648e-05
1.5292099066452e-05
1.5448545454739e-05
1.5406923577037e-05
1.5252385694517e-05
1.5034299898034e-05
1.4781697463727e-05
1.4501055102898e-05
1.4206248854451e-05
1.4103529717618e-05
1.4176056362768e-05
1.4594882485562e-05
1.5959779196138e-05
1.7982731452217e-05
2.0270928379899e-05
2.3671701513997e-05
2.8845519910375e-05
3.6006716354706e-05
4.6119673027542e-05
6.2470613163054e-05
9.3576836983527e-05
9.7816863331894e-05
9.7792157454339e-05
9.7762481572504e-05
9.7736915417563e-05
9.7730556327885e-05
8.2613523383957e-05
7.1748070477064e-05
6.7393712791632e-05
6.7621634174997e-05
7.1947632143604e-05
8.3418890915274e-05
9.8740052265416e-05
9.8904432701756e-05
9.9011459981759e-05
5.6093247072106e-06
5.5615356757271e-05
5.9585521118643e-05
4.1995118766028e-05
4.0116831798924e-05
4.5202365061583e-05
4.9766140747568e-05
4.4102351178002e-05
3.0379681090314e-05
2.2518741858081e-05
1.7572490430962e-05
1.4192490769192e-05
1.1686234675084e-05
9.7196641580763e-06
8.1880990263572e-06
6.9456421959246e-06
5.9770154982315e-06
5.223118528451e-06
4.1823898465908e-06
3.3006463820183e-06
2.6322063469232e-06
2.1186994464334e-06
1.7191124869805e-06
1.4053132332478e-06
1.1570370992949e-06
9.5955838441103e-07
8.0147985222883e-07
6.2401838490685e-07
4.6345355863474e-07
3.4818521569159e-07
2.6459465183851e-07
2.0379728964288e-07
1.5749350266964e-07
1.2449176700658e-07
9.3802616944011e-08
1.4259769393643e-07
5.4411291931886e-06
5.2403388210531e-06
4.1801719305477e-06
5.0511308937258e-06
7.0520387345591e-06
1.1170282871753e-05
2.0739551134237e-05
3.3606206763393e-05
3.4082392116891e-05
3.0522270979244e-05
2.5455216922497e-05
2.1002498823526e-05
1.761918651946e-05
1.5280574246493e-05
1.3838627515453e-05
1.3190124145555e-05
1.3121356466122e-05
1.34755085779e-05
1.4040593722389e-05
1.4684308652513e-05
1.5260683151031e-05
1.5751464289279e-05
1.6263819308893e-05
1.7262390096024e-05
1.9392572666856e-05
2.3470752555221e-05
2.9476215520668e-05
3.6681773832627e-05
4.4153685516817e-05
5.0989940842825e-05
5.6836467051759e-05
6.1765140468554e-05
6.5996404950185e-05
6.9732566608423e-05
7.3137739453575e-05
7.6326943601068e-05
7.9385080192778e-05
8.234142326459e-05
8.5265759463102e-05
8.8119810299858e-05
9.1103701885582e-05
9.3710558666802e-05
9.3507362084981e-05
8.8749899151226e-05
8.7895603367627e-05
5.5868662013308e-05
1.3701340138221e-05
1.0985328697856e-06
3.7869633264267e-07
4.6864824580464e-07
6.1909827846238e-07
8.1128563748223e-07
1.0446083658328e-06
1.3223314001848e-06
1.6478030369692e-06
2.0230821326906e-06
2.4499287545342e-06
2.9309574767419e-06
3.4701060980553e-06
4.0735448799651e-06
4.7518782678217e-06
5.5227744366709e-06
6.4154880523366e-06
7.4740962002304e-06
8.7458925490729e-06
1.0229073293682e-05
1.1736334330805e-05
1.3154259691187e-05
1.41744137439e-05
1.4943298253889e-05
1.5416897913243e-05
1.5561339514144e-05
1.5506908583588e-05
1.5347695015699e-05
1.5123653443328e-05
1.4862222904607e-05
1.4570236981515e-05
1.426317380939e-05
1.4149061808425e-05
1.4200882543484e-05
1.4633549821417e-05
1.6039459769803e-05
1.8069466021447e-05
2.0354314137209e-05
2.3751883664948e-05
2.8891639593804e-05
3.5993699851758e-05
4.6075008247159e-05
6.2385962552568e-05
9.329183966694e-05
9.782008088104e-05
9.7795632964991e-05
9.7766804524626e-05
9.7742345968165e-05
9.7736956376701e-05
8.2463892190382e-05
7.152608677536e-05
6.7089924758248e-05
6.7375841646126e-05
7.1413512016202e-05
8.2546467912836e-05
9.8744670946296e-05
9.8908167333918e-05
9.9014294959582e-05
7.1708183919492e-08
8.4785648549288e-06
1.4669067436933e-05
1.5959139160631e-05
1.3821113922212e-05
1.2797588522934e-05
1.4669674708625e-05
1.7299673891272e-05
1.889198454425e-05
1.8730072844976e-05
1.7292274550108e-05
1.4627372044311e-05
1.1697363740702e-05
9.6401975949156e-06
8.1013569546815e-06
6.7412253122222e-06
5.3574155465304e-06
4.2716149244011e-06
3.4233348248338e-06
2.7572304667986e-06
2.2333391442247e-06
1.8203625299752e-06
1.4932049380223e-06
1.2317677389664e-06
1.0237921822491e-06
8.5698579454395e-07
7.2093647755452e-07
5.3323381921648e-07
3.9964722213971e-07
3.0295280579064e-07
2.3251044922949e-07
1.8025797643699e-07
1.421520233267e-07
1.1271742331733e-07
8.6226683421215e-08
3.9605816591824e-08
6.9041268225872e-06
6.7348376900899e-06
7.6423560509989e-06
9.4973385320307e-06
1.2560135356862e-05
1.613896513484e-05
2.0355750862536e-05
3.0450779942199e-05
3.7828833747608e-05
3.3647369192075e-05
2.857289372578e-05
2.4838521089026e-05
2.2213466656044e-05
2.0579847167499e-05
1.9779496483274e-05
1.9802924003808e-05
2.0491650024908e-05
2.1933271837645e-05
2.4223766639382e-05
2.7319846675329e-05
3.0982500334483e-05
3.4984760110181e-05
3.9330324862408e-05
4.4182038680179e-05
4.9248561889252e-05
5.4029315475632e-05
5.8278284487414e-05
6.2030880045844e-05
6.5471591793375e-05
6.8823969164773e-05
7.2256063493317e-05
7.5837579675136e-05
7.9564974256771e-05
8.3401089519566e-05
8.72612267601e-05
9.112473935435e-05
9.4917815653956e-05
9.8543380828228e-05
0.00010194763072956
0.00010459941347261
0.00010530730649723
0.00010180018257102
9.1795147215494e-05
7.7770331179425e-05
4.5201721590118e-05
1.2810232936304e-05
2.5487911881673e-06
3.9272773709722e-07
4.2619187991082e-07
5.3799638894929e-07
6.9726890969503e-07
8.9615649735393e-07
1.1355884667425e-06
1.4191766076724e-06
1.7499061734757e-06
2.1298867810689e-06
2.5607957451073e-06
3.0452639455974e-06
3.5873970721567e-06
4.193570840216e-06
4.8744967315678e-06
5.6476960671222e-06
6.542527974928e-06
7.6023148571532e-06
8.8812864219731e-06
1.0364383973612e-05
1.1863296463571e-05
1.3315682595219e-05
1.4354915264309e-05
1.512767090829e-05
1.5602604017142e-05
1.5739372560371e-05
1.5670264511298e-05
1.5503760639653e-05
1.5269598183001e-05
1.4991887455605e-05
1.4681014491882e-05
1.4359417644211e-05
1.4233032083453e-05
1.425927994372e-05
1.4706072346119e-05
1.6156463051619e-05
1.8189498312396e-05
2.0480232176263e-05
2.3908138420341e-05
2.9057319140655e-05
3.6114367532594e-05
4.6094423050434e-05
6.2201714036086e-05
9.2590958385998e-05
9.7825052020162e-05
9.7800910950361e-05
9.7773221730767e-05
9.775041431445e-05
9.7747129829476e-05
8.2397790487395e-05
7.129327819103e-05
6.6694824191615e-05
6.6983902521006e-05
7.0504625067211e-05
8.119912528503e-05
9.8752822237186e-05
9.8914691698306e-05
9.9019345913031e-05
2.4826904362047e-09
3.0080468996988e-06
5.3763843443728e-06
6.361117500344e-06
6.9547239878466e-06
6.4090169458128e-06
5.7816426238288e-06
6.3046120487535e-06
7.4916366735234e-06
8.6744755057632e-06
9.0660615199564e-06
8.7334538765727e-06
7.9910211998645e-06
6.9793277406483e-06
5.997434708445e-06
5.0875372663148e-06
4.2251355393023e-06
3.4773190649345e-06
2.8557820159275e-06
2.3494289427058e-06
1.9390854456613e-06
1.606295994532e-06
1.3365446898963e-06
1.1176878459448e-06
9.386247656386e-07
7.9134486850437e-07
6.522418798439e-07
4.8602252666602e-07
3.6637568248352e-07
2.7983629345398e-07
2.1534201739131e-07
1.6729867869634e-07
1.3077461125756e-07
1.01313662097e-07
3.355761401323e-08
2.4349293422298e-06
3.3066309249765e-06
4.461571071445e-06
6.3511308798179e-06
8.9436827518664e-06
1.249437087301e-05
1.9366578129161e-05
2.9990795443475e-05
4.1858797645335e-05
4.8748480237767e-05
4.6636699785693e-05
4.2884801811532e-05
3.9858439903053e-05
3.7712968765173e-05
3.6626900494792e-05
3.6538176374191e-05
3.7647849759731e-05
3.9981922459921e-05
4.321592506095e-05
4.6702894235183e-05
4.9773453268177e-05
5.2032016500251e-05
5.3655711183576e-05
5.4996368765626e-05
5.6323923510625e-05
5.7835041357821e-05
5.9668499821719e-05
6.1941907939594e-05
6.4745851927523e-05
6.808523621331e-05
7.1892345669932e-05
7.6034066171607e-05
8.0394031029891e-05
8.4852416679263e-05
8.9279959156207e-05
9.3536722949335e-05
9.7456049890364e-05
0.00010087426878582
0.0001033701216814
0.00010422503231437
0.00010214392147907
9.5241798651357e-05
8.2144328747203e-05
6.269833448752e-05
3.5501226392073e-05
1.2066373774305e-05
9.1565815469026e-06
4.368002416076e-07
4.3901441519805e-07
4.9997126671967e-07
6.3058646675304e-07
7.9925638862741e-07
1.005937407395e-06
1.2522377206255e-06
1.5428427481718e-06
1.8801468908965e-06
2.2659805154461e-06
2.7017791707801e-06
3.1906001748399e-06
3.7364539567001e-06
4.3460082258484e-06
5.0301144484937e-06
5.8062571567084e-06
6.7041288395974e-06
7.7643655963864e-06
9.0514049447311e-06
1.0537756846159e-05
1.2045549588574e-05
1.3549094260741e-05
1.4553559824131e-05
1.5347109584189e-05
1.5830052635785e-05
1.5962112025971e-05
1.587634299147e-05
1.5696680577196e-05
1.5446350836753e-05
1.5145525067954e-05
1.481027407397e-05
1.4473481933314e-05
1.433897932824e-05
1.4345473270442e-05
1.4811276340015e-05
1.6302222797585e-05
1.8321438062328e-05
2.0617335993604e-05
2.4092976469851e-05
2.9267454986486e-05
3.6304344888594e-05
4.6199587392265e-05
6.2086928975664e-05
9.190811325635e-05
9.7831249257586e-05
9.7807477217966e-05
9.7781168375929e-05
9.7760353316371e-05
9.7759673816615e-05
8.2421288334003e-05
7.110459598398e-05
6.6311674329e-05
6.6540208392139e-05
6.9560006512796e-05
7.9932078302848e-05
9.8762579805199e-05
9.8922495892396e-05
9.9025459322638e-05
6.6665944649017e-10
2.7669179894463e-07
3.9874884042024e-06