/*--------------------------------*- C++ -*----------------------------------*\
| =========                 |                                                 |
| \\      /  F ield         | OpenFOAM: The Open Source CFD Toolbox           |
|  \\    /   O peration     | Version:  2312                                  |
|   \\  /    A nd           | Website:  www.openfoam.com                      |
|    \\/     M anipulation  |                                                 |
\*---------------------------------------------------------------------------*/
FoamFile
{
    version     2.0;
    format      ascii;
    arch        "LSB;label=32;scalar=64";
    class       volScalarField;
    location    "2e-05";
    object      cSound;
}
// * * * * * * * * * * * * * * * * * * * * * * * * * * * * * * * * * * * * * //

dimensions      [0 1 -1 0 0 0 0];

internalField   nonuniform List<scalar> 
109340
(
511.12098590826
506.28118527335
498.24464658115
487.50298463674
474.3694913491
458.94114171557
441.31563878977
421.80074474286
400.55949569637
377.54131180934
353.21549929599
328.07353005677
302.62238231141
277.34997536563
252.6911218656
229.00388830688
206.55826700466
185.534757261
166.03258899893
148.05681437847
131.63863138873
116.70975126711
103.21504692793
91.093755315803
80.297414216118
70.798759728722
62.62885420616
55.711853657777
49.84787058301
44.982221443285
41.072586627115
38.047908238022
35.847864609409
34.34055449386
33.407123679751
32.915678867656
510.52161005777
504.87837107523
496.04588709611
484.77098643491
471.16892580578
455.35320645826
437.46710678669
417.53646273758
395.71375670137
372.2940891728
347.69619078878
322.40608960137
296.92625535453
271.73317503839
247.24544111721
223.80047648871
201.64800052264
180.94911102477
161.78674662295
144.15574098685
128.06796628541
113.46169123974
100.27606748111
88.450151453062
77.939833792214
68.720884164689
60.780277572367
54.086662206732
48.487432280129
43.8794788923
40.213951890286
37.415964018472
35.41022112599
34.061154467482
33.25209589669
32.849892092526
511.29975605704
505.29322553228
496.39324919446
485.28495992459
471.93741802873
456.33861004538
438.4966207942
418.5332848519
396.66994764137
373.2222802131
348.59859257562
323.27558009144
297.75253087302
272.50655396311
247.95868958899
224.45042447759
202.23415247443
181.47326333666
162.24963898439
144.56621967994
128.42595457313
113.77104909686
100.53980950108
88.668537186772
78.112172385996
68.842482562225
60.8357490177
54.044391299268
48.397380295241
43.80788448239
40.165940724677
37.393747181201
35.40532281016
34.067020949337
33.263917400672
32.862095664199
512.43415150949
506.16256987207
497.35375571181
486.32904545717
473.06674360241
457.52971970019
439.73234904802
419.78549196002
397.91477529379
374.44642061551
349.79175588081
324.42473887407
298.84194842847
273.52061139272
248.88352704656
225.27568086173
202.95369704814
182.08647721023
162.7553596703
144.97561209238
128.74350363765
114.0057317924
100.7005522569
88.761551221473
78.143956158481
68.822148766342
60.770496637281
53.941886626382
48.270764363986
43.673127689076
40.063266277949
37.335131144392
35.384899239144
34.071633165276
33.282917176138
32.878043089384
514.47307369377
507.76371082445
498.55293747027
487.45093952373
474.27514610173
458.88331276656
441.22726004864
421.37712827603
399.53338386473
376.0068279784
351.21217819384
325.62848317179
299.76245811918
274.10649255922
249.10231710113
225.11742411051
202.41711588469
181.19522483409
161.54220489388
143.5053815711
127.06789245593
112.1876374455
98.80349075421
86.846537034147
76.275987991939
67.073197132167
59.204724114972
52.618063388715
47.227145251658
42.923143459878
39.587922793834
37.081641217342
35.282648439782
34.069483448477
33.333497369959
32.958996446904
518.29781625855
509.33719503181
499.65306099288
487.97549861904
473.85194081899
457.01780709909
437.37468474897
415.00248644234
390.17453685713
363.35513761675
335.16150634616
306.30664724032
277.52166436813
249.4806083069
222.74323543292
197.72372504427
174.68442280655
153.75167497269
134.94026253887
118.14682483326
103.2539144922
90.144634817543
78.69781048291
68.80776068167
60.427058518267
53.575317215948
48.182948088493
44.057266212676
40.951325242584
38.633973858051
36.94639105507
35.771365421004
35.014621661963
34.605655284957
34.462742541638
34.563352068347
32.742868803967
32.789801064998
33.004553141935
33.177474327031
33.112759183758
32.825453586434
32.646665014365
32.824550890627
33.323118100581
34.055824999725
34.873085283722
35.711002400608
36.531249692129
37.310823966255
38.039130818331
38.713814333685
39.338569984741
39.916947840738
40.452444872757
40.948227712131
41.407955311577
41.835715581422
42.234861963626
42.607714174897
42.956547177506
43.284004657512
43.592273634166
43.882837531513
44.157108554159
44.416530261225
44.662471203541
44.896232066379
45.118732079867
45.328880325336
46.61106950307
49.428881752219
49.124599187422
49.076732861992
49.06103862933
49.067870800408
49.092257057429
49.11921156801
49.137680838268
49.144067983513
49.147069291796
49.152722527064
49.164061496206
49.182143374663
49.209993650001
49.25011848902
49.30420761246
49.37213653826
49.45394849552
49.556752650275
49.680272851775
49.817615730429
49.946806065197
50.07632465148
50.2080089669
50.348597653172
50.500134445817
50.662371249695
50.835458681964
51.01811936705
51.208698994773
51.405171784624
51.607020081905
51.8141411864
52.026522403439
52.243948187283
52.466205308909
52.693783335013
52.927776949118
53.170866262165
53.429593498478
53.712519804316
54.03374070487
54.416133343741
54.919435528004
55.862698133731
60.47990090979
83.023301902748
147.6742094699
214.56524152025
206.34101858134
205.99834611466
205.79652142373
205.64135050658
205.5204595305
205.42467795344
205.34757366744
205.28448831912
205.2319350743
205.18729448287
205.14858338839
205.11426409031
205.08312807351
205.0542028229
205.02669589751
204.99993648917
204.97338223231
204.9466818757
204.91994147554
204.89363527669
204.86216828101
204.8381028322
204.8156708965
204.79514969318
204.77698127144
204.76215615848
204.74976880914
204.73883667425
204.728913802
204.72035927448
204.71347248898
204.70816192269
204.70425466862
204.70185861616
204.70081840794
204.70053587153
204.70112770894
204.70273848369
204.70518371093
204.70815245923
204.71130973762
204.71493401666
204.71940708997
204.72470993476
204.73067584035
204.7367383817
204.74273141149
204.74860866111
204.75443346743
204.76024198827
204.76605657226
204.77188397656
204.77783592191
204.78375255276
204.78979341281
204.79606601271
32.747786903294
32.845976792594
32.919220420414
32.779539615462
32.524102765908
32.395739169241
32.531599855434
32.943250069951
33.562572629045
34.323089483763
35.143689253471
35.967721430378
36.765055648956
37.519982986094
38.226951600381
38.88492974227
39.494566795838
40.058364173464
40.580513177367
41.065325832526
41.516063194387
41.935583607685
42.3270373396
42.693335046297
43.036799357841
43.359476568788
43.66323599967
43.949791931216
44.220687541785
44.477266466193
44.720700782928
44.952054557828
45.172204145057
45.380026402147
47.462031424365
49.142161421314
48.840745626801
48.7325726707
48.6383747182
48.57642334967
48.565595716052
48.588357581394
48.61887702295
48.66063552116
48.708764745443
48.757452928056
48.807318120313
48.860650505761
48.920388590413
48.989123796222
49.066947733161
49.153272323631
49.249616393039
49.359452112098
49.480472112963
49.603734068627
49.719289710657
49.834837183339
49.953255955043
50.081383862313
50.221228752669
50.373177230677
50.537126311114
50.713138785137
50.900850112869
51.099208497713
51.306208151109
51.522441723268
51.755839590486
52.022248097027
52.344764981012
52.753888164546
53.283579401303
53.965001131167
54.80720342475
55.78629472601
56.842715592093
57.851961380118
58.567834342571
59.249958282584
66.015838465568
97.24462819475
181.61357513036
210.5216104717
206.3093151915
205.99102474177
205.79238621797
205.63881814109
205.51877482152
205.42349495667
205.34670838267
205.28383624265
205.23143106715
205.18689581154
205.14826144998
205.11400013791
205.08290331685
205.05400668225
205.02652167509
204.99977942728
204.97323567725
204.94654378847
204.91982066199
204.89353537995
204.86208617503
204.83802969209
204.81560874572
204.79510504824
204.77695720842
204.76214316496
204.74975943084
204.73882992258
204.7289103656
204.72035807703
204.71348003805
204.70817226674
204.70428792501
204.7018501372
204.70079075525
204.70054212051
204.70116347081
204.70277718562
204.70522901707
204.70819471309
204.71135240104
204.71498572685
204.71946315741
204.72477058999
204.73073768794
204.73680098334
204.74280604101
204.74869451036
204.75452625229
204.76033504297
204.76614289978
204.77197315293
204.77790785426
204.78381337905
204.78982950111
204.7960799668
32.753291395254
32.754284327054
32.461840393087
32.020931880406
31.831111674082
31.980489894402
32.401897888299
32.99010049492
33.690502049004
34.464660861006
35.270598752399
36.075902630612
36.854853515076
37.594665291451
38.288854830133
38.935997895208
39.536857794492
40.094273235511
40.611029235193
41.091245573902
41.538363663975
41.954966799832
42.343809242102
42.707916277361
43.049641123362
43.370756762376
43.673057625905
43.958348411851
44.228227062449
44.484014652802
44.726761962503
44.957476463364
45.177045391219
45.385798904883
46.626938743934
49.140508916009
48.824475444241
48.673091135947
48.463873194158
48.276942561688
48.251655543995
48.30064305563
48.383188080549
48.473429537491
48.553148778033
48.620807467149
48.681139381284
48.739690271278
48.803411023286
48.874134194574
48.952798997035
49.039657225986
49.136841425612
49.246995255416
49.365525390165
49.485896984129
49.599597925423
49.711971158652
49.825765477964
49.948479738181
50.083269667028
50.232817678952
50.400451587187
50.590619731351
50.81446873066
51.093448536834
51.468503616703
52.016210239194
52.853622157232
54.138242396544
56.006383035266
58.488872275685
61.457678575309
64.702931969416
67.907460176642
70.680836637282
72.647254476348
73.35327491277
72.37410261368
68.500532064869
71.727322143297
103.78137263992
191.94979058883
209.61125250602
206.24550289312
205.96747014824
205.77754871957
205.62911664249
205.51219038255
205.41887792454
205.34337862106
205.28137248012
205.22956399825
205.18544924318
205.14711709835
205.11307723428
205.08214688918
205.05337739061
205.02599245114
204.9993323704
204.97284518438
204.94620207973
204.91953281885
204.89329584575
204.86188020557
204.83784078496
204.81544226799
204.7949716293
204.77686374163
204.76207677729
204.74970774839
204.73878995289
204.7288807372
204.72033555328
204.71347507629
204.70818423185
204.7043995281
204.70182713867
204.70072570092
204.7005814792
204.70123338858
204.70285165364
204.70530902235
204.70826742638
204.71143202201
204.71508030231
204.71956034893
204.72487971839
204.73085883853
204.73692074148
204.74294269322
204.74884718003
204.75468869668
204.76049501269
204.76629345885
204.77212735798
204.77803710958
204.7839245781
204.78989191484
204.79610577919
32.750636817369
32.240979208653
31.362959357561
30.970878302081
31.181729630213
31.705803264155
32.379024378008
33.107846385655
33.867631821869
34.650960204234
35.44160283836
36.221998055786
36.976536290439
37.694964501529
38.371322338431
39.003916699017
39.593921500387
40.14220593449
40.651651794507
41.126240356591
41.568567899943
41.98118100343
42.366724709511
42.728078955835
43.06748315505
43.386623185903
43.687221122312
43.971019093966
44.239602500415
44.494294344441
44.736112902151
44.966014289317
45.184900874444
45.393611880341
45.988379098616
49.1784001565
49.083096577396
48.781331031701
48.201860399097
47.943883242494
47.992896831723
48.126023876292
48.279287612983
48.404594725089
48.499812168143
48.574840611919
48.636995210907
48.697694681199
48.763073194247
48.835002488636
48.915682470098
49.004952707075
49.104746414637
49.217127135408
49.338030911364
49.460889966893
49.580570373513
49.700627594125
49.824992566271
49.963219633709
50.124743327753
50.325526679747
50.598257005778
51.012756859335
51.712653236535
52.954927345483
55.118473870098
58.571723267669
63.369146632607
69.096852735605
75.062243703318
80.612431487316
85.312971841649
89.149791776592
92.112638986907
94.106725664791
94.80647534164
93.859519058436
89.997572496055
80.321294748698
80.471128630612
114.81322288485
204.37911687487
208.39887252406
206.16969253099
205.9330157962
205.75550669187
205.61450100402
205.5021910718
205.41184042073
205.33829326132
205.27760637304
205.22670947987
205.1832384938
205.14537032714
205.11167081803
205.08099429927
205.05241836711
205.02518512733
204.99864630652
204.97225228176
204.94568934482
204.91909322229
204.89291927282
204.86156543975
204.83756161106
204.81519769307
204.79477232722
204.77671511437
204.76196685441
204.74962286005
204.73872489578
204.72883295675
204.72030340799
204.71346440356
204.70818842384
204.70447183834
204.70184498671
204.70074304178
204.70064861819
204.70131391648
204.70294284441
204.70541215792
204.70837502363
204.71154660323
204.71520732659
204.71970305427
204.72503865747
204.73103071413
204.73710424457
204.74314307835
204.74906446048
204.75491715903
204.76072287462
204.76651227096
204.77233772145
204.77821853155
204.78407988741
204.78998433961
204.79613968108
32.427906972825
30.485343525001
29.77200917761
30.089904198126
30.841228587594
31.661195743088
32.496415206252
33.311646177204
34.103512537635
34.881691396943
35.650416978822
36.402765537774
37.129620800665
37.82297799225
38.477752687612
39.092324147077
39.667083246507
40.203744314468
40.704264503119
41.170357683593
41.6061525224
42.0137125004
42.395128837049
42.752977397893
43.089383902205
43.406006564203
43.70453397951
43.986571235367
44.253583165369
44.506869141919
44.747511022466
44.97640546421
45.194374764949
45.40194117817
45.657933280536
48.584960826151
49.400175072702
48.676286495583
47.727262454586
47.634638336629
47.816655775131
48.061082923083
48.251177509765
48.39956415126
48.510356588992
48.594759737877
48.66023090351
48.71925938896
48.781905285596
48.852011593052
48.932516714513
49.024937928715
49.129544000819
49.249421415415
49.382400963518
49.527517999886
49.683949898304
49.856055702996
50.054442151947
50.305811403693
50.66416855998
51.253468081856
52.3432133906
54.448015685532
58.305030594689
64.42959168379
72.363366818439
80.967590370384
89.066269014252
96.075512901383
101.96755445387
106.78660834818
110.6005183871
113.42528247771
115.21250937857
115.72612475166
114.70634009594
111.25400473214
103.51137992225
89.342890960067
90.519174829033
131.4215443099
213.99830005027
207.22060397878
206.09088714725
205.89054519649
205.7278642505
205.59596842688
205.4894024108
205.40277584515
205.33170941134
205.27270963017
205.22298442373
205.18034439253
205.14307722861
205.1098201781
205.07947521908
205.0511531566
205.02411945171
204.99774049909
204.97147263399
204.94501587947
204.91851312431
204.89241871749
204.86114293624
204.837196234
204.81488499274
204.79451719169
204.77651877547
204.76181917797
204.74951068908
204.73864015362
204.72877136902
204.72026438111
204.7134514547
204.7081938329
204.70451383553
204.70188899304
204.70079888468
204.70072833117
204.70141414697
204.70305365186
204.70553671679
204.70851273574
204.71169777808
204.71537256349
204.71988883444
204.72524570527
204.73125614504
204.73735079148
204.74341086472
204.74935393283
204.75522150888
204.76102892046
204.76680773811
204.77261135817
204.77845476132
204.78426770635
204.79010167965
204.79618549874
30.448585811404
28.636379055389
29.0000338061
29.892187964817
30.889158229421
31.847947018167
32.747945812668
33.595602004138
34.395919949504
35.158914628331
35.896669098005
36.613866223502
37.307583306457
37.972775095644
38.604252943485
39.199099236241
39.756865794034
40.279508566423
40.768560002397
41.225736514405
41.653376513537
42.054193427897
42.430254856949
42.783599048194
43.116193175868
43.42965877778
43.725550959749
44.005333514599
44.27038045326
44.521902669822
44.761030395665
44.988616732985
45.205429074744
45.412396877409
45.615861584847
47.156301280168
49.19314705843
48.028928624729
47.362387234516
47.43168832821
47.697333808377
48.032028923758
48.279550436344
48.457974241387
48.602785642008
48.718240796273
48.795348882057
48.851392469884
48.903984361045
48.965410149215
49.041751182445
49.138310849707
49.256994092869
49.405664524756
49.593777114007
49.835323594497
50.147344267144
50.557739023875
51.128489604745
52.008443709426
53.532981252072
56.375540488936
61.479184477053
69.395407345339
79.432297775734
90.021984538743
99.918120729145
108.61675001371
116.00821206944
122.10701592896
126.95718566384
130.60529008735
133.09039872403
134.38296336958
134.39751117472
132.88838545633
129.25976021657
122.3918687521
110.38668014078
95.995176367647
102.45489970771
154.53106654412
216.08993498899
206.47502924782
206.01194447865
205.84210293897
205.69572027109
205.57411952906
205.47416666978
205.39188681839
205.32375107302
205.26676225493
205.21844352812
205.1768063844
205.14026758897
205.10754837175
205.07760734317
205.04959521052
205.02280537573
204.9966221005
204.97051027354
204.9441839909
204.91779452863
204.89179691393
204.86060239765
204.83673827416
204.81449732123
204.79420171516
204.77627256594
204.76163283252
204.74937066014
204.73853475753
204.72869469069
204.72021547893
204.71343127529
204.70820297319
204.70454815299
204.7019398883
204.70087319759
204.70082320973
204.7015305648
204.70318778243
204.70568942832
204.70868398341
204.71188627192
204.71558028945
204.72012030113
204.72550388449
204.73154180136
204.73766368456
204.74374798565
204.74971458861
204.7555983205
204.76140738564
204.76717371367
204.77294582985
204.7787440149
204.78449390911
204.79024823921
204.79624379395
30.650385028988
29.590988267353
29.851522347255
30.277645711356
31.069472770551
32.000559225745
32.906491965359
33.751583631128
34.541239062236
35.287650221176
36.000021287676
36.686213845021
37.349009292052
37.987248065671
38.598480208612
39.179550622464
39.728408111115
40.244334972915
40.727930171312
41.181745939615
41.607446868611
42.007159306313
42.38270566805
42.73578020642
43.068398082676
43.382365332738
43.67910925492
43.959922520975
44.226050100834
44.478680841719
44.718904202027
44.947666444207
45.165655285917
45.373679752507
45.572529934437
45.968280077302
48.215693705118
47.573499465947
47.173787960189
47.343136646837
47.625524075777
47.896868590889
48.226080077048
48.576986459276
48.86446332738
49.108098236803
49.237334857074
49.28062477038
49.291685923571
49.313643633344
49.366970823965
49.465161898133
49.619871751658
49.853907819164
50.210844530196
50.762810899652
51.610251977691
52.897325123287
54.880747541587
58.046450006469
63.19183150649
70.978887018848
81.164478467911
92.584979377959
104.14230166139
114.95875675811
124.51816193053
132.57162567932
139.06653270751
144.03394770634
147.56888072468
149.75560682799
150.64022598585
150.25164084399
148.44010405488
144.88718698327
138.99573459816
129.76352308987
116.15327158144
103.4149133552
111.14323866624
162.39894981518
216.0916215774
206.41686821583
205.93309086814
205.78988060708
205.66024661672
205.54961479097
205.45686699097
205.37940088917
205.31455301275
205.25984773935
205.21313899554
205.17265734224
205.13696221062
205.1048687303
205.07539952733
205.04775081222
205.02124763873
204.99529469049
204.96936783839
204.94319672907
204.91694384803
204.8910454302
204.85958203006
204.83588593
204.81378185001
204.79362079113
204.77581765743
204.76128716942
204.74911088126
204.73833813824
204.72855118779
204.7201237826
204.71339066818
204.70821214637
204.70459607418
204.7020486216
204.70101698506
204.70099092514
204.70173186719
204.70342767357
204.70596293939
204.70899090054
204.71223470382
204.71596679728
204.7205465478
204.72597690256
204.73206381678
204.73823366677
204.74436592866
204.75037603864
204.75628929333
204.76210584685
204.76785385552
204.77356810266
204.77928260272
204.7849027684
204.79050842607
204.7963458399
107.96305383727
33.288640037758
33.147016969489
33.056253095483
33.088712151604
33.490461639143
34.111445733056
34.811314576876
35.500744309386
36.157605875851
36.784734009433
37.388615375361
37.973223658349
38.538395410089
39.08219440933
39.602868701288
40.10010864586
40.573253718934
41.021816562998
41.445601260514
41.845253149023
42.22202150855
42.577422283604
42.91268262678
43.229822058782
43.530251238941
43.815027271505
44.085117687105
44.341673358108
44.585743457554
44.818310638837
45.040075061671
45.252002677578
45.454751583595
45.648396061248
45.907491995627
46.670882142792
47.004620480319
47.321949026266
47.589062225763
47.865152428282
48.26804958217
49.091269278146
50.754765746809
52.743118311269
53.845954346117
54.0158590854
53.771295759425
53.444997988462
53.247095318892
53.33632768662
53.780839511063
54.769836376462
56.61221985233
59.715603577381
64.513426291753
71.164137690536
79.507966044753
89.291017128114
100.41179040502
112.56086227506
125.19636105733
137.48809718145
148.54825684919
157.75534994411
164.81808273978
169.76808500209
172.82711552766
174.26894795314
174.33292063688
173.19958489235
170.90619270004
167.41715546594
162.58458726616
156.14410195388
147.76562929135
137.20545665052
125.2509015309
118.11295565304
128.2673254749
172.87714859579
216.6133709067
206.61904165194
205.82814500689
205.77835363255
205.6812495855
205.58378057423
205.49527616193
205.41766986859
205.35065599066
205.29309417464
205.24353563827
205.20051768388
205.16271701305
205.12899812756
205.09838183114
205.07003421932
205.04325466853
205.01743981043
204.99204107466
204.96656463762
204.94076927725
204.91483400879
204.88919153884
204.85791084073
204.83445196325
204.81256530711
204.79261991963
204.77503391907
204.76068191016
204.74864518074
204.73797734153
204.72828469143
204.71995315981
204.71331391627
204.70821798371
204.7046738795
204.7022293468
204.70126431596
204.70128360181
204.7020805034
204.70383764276
204.70642766993
204.7095066764
204.71281318301
204.71661267957
204.72126265771
204.72677684331
204.73295742635
204.73921386565
204.74543231572
204.75151936554
204.75747878648
204.7632982559
204.76900019901
204.77460809204
204.78017585689
204.78558115297
204.79094355481
204.79652257597
217.82907915934
41.520895700519
35.795116940949
35.549573159203
35.372637291295
35.286622370517
35.43306682667
35.832152512987
36.347231420981
36.897134451019
37.441136485518
37.966667885495
38.477717367689
38.976663613593
39.462190819074
39.931953609656
40.3838864707
40.816864761642
41.230839182091
41.626003864389
42.002611228305
42.360923304472
42.701103179553
43.02366858405
43.329433747884
43.619503235499
43.89505486464
44.157139315096
44.40670674365
44.644598503526
44.871547502724
45.088570031764
45.296049464092
45.49425961945
45.745310435522
46.321235633695
46.745375911228
47.085616911374
47.386839191088
47.734342563928
48.421228589608
50.211402189148
54.267359787801
60.81850533552
67.520875563658
70.931559868817
71.742403763464
71.526608038311
71.20063284253
71.350752231487
72.360226641046
74.623473827055
78.515488560785
84.291129469916
92.021357666191
101.62442734454
112.9345917618
125.66246244025
139.1968225163
152.46327699908
164.34795606179
174.15506102127
181.47131502946
186.24129712518
188.7676264055
189.49324338533
188.85048765466
187.1503335201
184.57443246437
181.21794571609
177.09750958334
172.14831289855
166.27730581564
159.4015749845
151.55535463269
143.20329417229
136.03972371444
134.84976666523
147.82095399627
184.62814956738
216.5042166154
207.26816293732
205.65801462105
205.65325660242
205.63675649623
205.57539561283
205.50587300496
205.43776128331
205.37489092769
205.3185197218
205.26864229217
205.22465958644
205.18571443337
205.15093155983
205.11947214544
205.0905655122
205.06353047827
205.03777818371
205.01278289742
204.98804685645
204.96311340573
204.93777115947
204.91221666543
204.88690012157
204.85589352907
204.8327201969
204.81109529717
204.79140720097
204.77409301584
204.75995392512
204.74807883115
204.7375326498
204.7279537394
204.71973834335
204.71321154056
204.70821409499
204.70476435142
204.70244734989
204.70156433291
204.70164554697
204.70251902406
204.70435414492
204.70700936664
204.7101531648
204.71354106981
204.71742837073
204.72217007194
204.7277862372
204.73408129245
204.7404421094
204.74676378475
204.75294063716
204.75894852572
204.76475797559
204.77038677647
204.77585661084
204.78123405694
204.78637803981
204.79145413904
204.79672908792
232.33039314284
105.90568968814
41.147679596092
37.673006199322
37.275264830986
37.079332931358
36.957664923893
37.011534768619
37.272165515847
37.666205556423
38.106670546217
38.557714188492
39.004442363716
39.440985142701
39.867931436051
40.286339723591
40.694216040364
41.089434894845
41.469961542419
41.835092893579
42.184905043476
42.519685800999
42.840108476424
43.146850371962
43.439944291521
43.719483517822
43.98596089327
44.239636809139
44.481702169431
44.713009764867
44.933925975245
45.145709923319
45.34739821796
45.666787649666
46.176027037147
46.577779636738
46.914903150782
47.228174383659
47.64344259606
48.657167194575
51.627859917241
58.491031035613
69.564281003461
81.980578199465
91.64053667978
97.28901796021
100.12143913823
101.60456425829
102.91341680071
104.73687551527
107.61205845898
111.97932829799
118.23417064195
126.69847755496
137.46067288536
150.10165677758
163.53501805229
176.0974623529
186.36746770104
193.60173869165
197.85969542003
199.64543258387
199.5945778744
198.29694449227
196.15197986381
193.41921536023
190.23639904108
186.65647531015
182.68224890001
178.29577218304
173.4838266568
168.28354853833
162.84360644708
157.56100320707
153.40982543584
152.46937445464
158.32380636543
176.10323030859
205.4163019066
214.56042408233
206.80372476696
205.4337864671
205.48913438915
205.51273969962
205.51451965027
205.4787283557
205.43123360013
205.38068832974
205.33115385973
205.28480263688
205.2424436737
205.20408117232
205.1693488014
205.13774330657
205.10870050265
205.08165177477
205.05606209379
205.03145397016
205.0073802241
204.98339464437
204.9590778252
204.93425300653
204.90913746926
204.88419678701
204.85352978258
204.83068803674
204.80936262646
204.78996768393
204.77297513837
204.75908408449
204.74739565482
204.73699166875
204.72755050409
204.71947563168
204.71308152061
204.70819947975
204.70486105093
204.70269808263
204.70191125784
204.70207120108
204.70304262369
204.70497166245
204.70770658442
204.71093164077
204.71441782826
204.71841185645
204.72326895396
204.72900824701
204.73543550353
204.74191370919
204.74834933915
204.75462034382
204.7606737507
204.76645955922
204.77198815826
204.77729137529
204.78243675567
204.78727982611
204.79202991839
204.79695593274
229.5727845916
220.80870565963
82.389170311741
43.334414831173
39.315482812523
38.667416270286
38.384336548811
38.274026686006
38.292814105557
38.47340162193
38.781916892292
39.146904634404
39.53002788742
39.908408715088
40.285263764389
40.657650815472
41.02275461805
41.379005314572
41.72561009991
42.06172295604
42.386455601904
42.699160472579
42.999645678129
43.287986741005
43.56465624065
43.830048291079
44.084658571888
44.329354667396
44.565372233992
44.789458754673
45.002676967132
45.219880292316
45.652057533633
46.074109717417
46.447527388849
46.777464427647
47.112084799376
47.667944373817
49.291671807662
54.106154110012
64.315164261071
78.868461548413
93.987783856699
107.83862582746
119.97309483725
129.67698953635
136.45206749017
140.91024137544
144.26322025989
147.69041246904
152.09810872441
158.1855936753
166.27610337697
176.06154067564
186.46469774244
195.81306800951
202.66388094603
206.48803833157
207.68154897543
207.06436933287
205.38683576439
203.15046502355
200.62663730279
197.93474870591
195.11712152294
192.17620328098
189.10502993044
185.90833982047
182.62374593164
179.34805161017
176.27371011597
173.77920762205
172.54293575967
173.68968222779
178.91669350914
190.15607317961
206.49825841061
215.29202390211
210.04202491328
205.71891147726
205.20396358103
205.30251446696
205.37118375936
205.40076928886
205.41270707953
205.39392357384
205.36286945791
205.32642653191
205.28834551424
205.25098372097
205.21559140085
205.1825898884
205.15199376513
205.12357861543
205.09700579007
205.0718807581
205.04781247814
205.02442405115
205.00134361308
204.97816786137
204.95452755891
204.9302725299
204.9056414264
204.88111945746
204.85084885975
204.82837476261
204.8073842321
204.78831503864
204.77168736475
204.7580766662
204.74659910936
204.73635659115
204.72707686291
204.71916775633
204.71292565772
204.70817789392
204.70496284845
204.70298027561
204.70230520629
204.70256152101
204.70365091841
204.70568945752
204.7085176671
204.71184223348
204.71544392359
204.71956524569
204.72456415998
204.73044920335
204.73702387733
204.74362888476
204.75018495304
204.75654959889
204.76264209078
204.76838879915
204.77379093807
204.77889364621
204.78376418866
204.78827236245
204.79266115808
204.79719326763
227.4860905106
225.75141296256
205.02103953999
86.100046899258
47.588466370088
41.238806251225
39.986074143699
39.50990572549
39.349242862508
39.341433841831
39.482912978886
39.735361390244
40.041237663487
40.372404882104
40.704740371015
41.03081066742
41.35627102789
41.6786154941
41.994495778509
42.302295184222
42.601518083311
42.891621797634
43.172200812099
43.442975924674
43.703619881626
43.954282279566
44.196843074148
44.429618219484
44.654215169211
44.875329756196
45.215229779066
45.634053648611
46.008467950707
46.350845454518
46.676253562558
47.07511494804
47.995726671154
50.95239773815
58.817649782488
72.772863542215
89.513094116347
106.04999286784
122.31497288032
139.00770164468
155.85428033744
170.06726677184
179.40727075632
184.67926000858
188.23096410592
191.80704830405
196.13973630154
201.22231241559
206.37837762605
210.56768656838
212.97208079317
213.44212143883
212.47183430361
210.75607698217
208.81834590291
206.91811467574
205.11931834504
203.41141233441
201.76291142325
200.1484121758
198.56218167605
197.02748026585
195.60715390425
194.41206387782
193.62801882841
193.54535426823
194.56674060869
197.21164300313
201.95349909785
208.42108055259
213.8631094527
213.90663490062
209.84222749387