/*--------------------------------*- C++ -*----------------------------------*\
| =========                 |                                                 |
| \\      /  F ield         | OpenFOAM: The Open Source CFD Toolbox           |
|  \\    /   O peration     | Version:  2312                                  |
|   \\  /    A nd           | Website:  www.openfoam.com                      |
|    \\/     M anipulation  |                                                 |
\*---------------------------------------------------------------------------*/
FoamFile
{
    version     2.0;
    format      ascii;
    arch        "LSB;label=32;scalar=64";
    class       volScalarField;
    location    "2e-05";
    object      dydt;
}
// * * * * * * * * * * * * * * * * * * * * * * * * * * * * * * * * * * * * * //

dimensions      [0 0 -1 0 0 0 0];

internalField   nonuniform List<scalar> 
109340
(
0.72717156813823
0.74632380541011
0.85998628277375
1.0382107082014
1.2818255994378
1.5929626430178
1.982045007575
2.4619377024012
3.0446986404621
3.7555553973944
4.6370420591671
5.7330706728533
7.0970793888811
8.7957603665841
10.913234067289
13.556345290226
16.8614802364
21.005452216792
26.220701392269
32.866325354906
41.267477603843
52.044690338637
65.934046436364
83.918759671342
107.23629761382
137.36694349827
175.74789393792
224.19095514447
285.27293617771
361.04007931294
452.42256637631
559.25434418142
675.59083617376
797.99983256066
918.30373293989
1030.965071167
0.69639920951711
0.74085508537466
0.87937501963816
1.0799649341596
1.3423424609863
1.6677129542962
2.0656047223244
2.5530828373242
3.1548654052865
3.8991223937088
4.823164806441
5.972321985563
7.4026600019025
9.1846797878296
11.407244148466
14.184155531777
17.660326414367
22.024822025855
27.525589687836
34.536211446352
43.449554102458
54.897096253466
69.683904382692
88.873895412747
113.77488559042
145.89654649602
186.94205436722
238.67917744174
303.21945736571
382.68010158767
477.62029797907
586.8469837962
704.60257624471
827.07752571749
945.67297934852
1056.2506153181
0.6474856395713
0.70826760227234
0.86404942780405
1.0683146142196
1.3245858275505
1.6396280524374
2.0296592867528
2.513225650894
3.1115531332354
3.8525259920634
4.7726574346509
5.9172678522103
7.3425410557041
9.1189587288259
11.335226917056
14.10413143826
17.569850674245
21.92039872891
27.406402997801
34.388052086127
43.276420560241
54.692071717431
69.442410856973
88.603476635931
113.4871615654
145.61040132217
186.65795447331
238.66035608402
303.5583707404
382.89208746046
477.31273297305
585.49870354012
702.25356237336
823.76515852369
941.29638539748
1051.4116130141
0.58285817435596
0.66547100439932
0.82602309314649
1.0317920935613
1.2881694461355
1.6048369082765
1.9961236113081
2.4798222656631
3.0776137809585
3.8173742020512
4.7349833321491
5.8753190603196
7.2943707219699
9.0623281906018
11.267654806222
14.023222163268
17.47335691335
21.805215926392
27.274923870672
34.232065203606
43.107455275064
54.515402118026
69.276487518315
88.49303535924
113.49553039911
145.75892970213
186.90349084116
238.80797337991
303.37072193115
382.32402517096
475.87096458297
582.50779259919
697.79732402439
817.53578873425
933.30140343276
1044.7797221593
0.48861260526562
0.60477859933755
0.79013413804138
1.0092314723145
1.2702139251487
1.5865764121845
1.974595645714
2.4532362768011
3.0447805542624
3.7784165359619
4.6903283595001
5.8260819213754
7.2429294315933
9.012994008298
11.227398851901
14.001172912953
17.490718963075
21.885716018036
27.461295516875
34.55911298892
43.665992076068
55.405213139001
70.646766533788
90.553388873558
116.48523086716
149.75245677818
191.77811476034
243.98622088899
307.82421464243
384.73340679219
474.6236608211
576.20703500546
686.3791394709
801.22701933953
914.34198871737
1022.7370667535
0.34155634224835
0.58324327535753
0.80331538020512
1.0461063406487
1.3330171051076
1.6844175319053
2.1220365306762
2.6717215603995
3.3655492698072
4.2440663908732
5.3597508178789
6.7792281544105
8.5865507918264
10.888521142886
13.820923936223
17.553558344144
22.305077472885
28.348931931061
36.026007437116
45.872875256046
58.541211049039
74.825818706803
95.814475413162
122.74395168423
156.7702920339
198.03844150621
245.96054329247
300.37075800786
361.99598452941
432.52981050826
513.93382225411
607.17113676901
711.92843484957
826.89486335619
957.39451117714
1094.8861281104
1134.0726575573
1227.4478421015
1302.6183691042
1438.5906023422
1774.6119116414
2453.0145541214
3408.1998452065
4373.3819062726
5175.3947968801
5674.2587877869
5962.8571066171
6087.6704110564
6084.5710566786
6000.9137641681
5873.5754324724
5724.0077279558
5557.8663625752
5383.8886713042
5209.5454032881
5039.0952521341
4873.5011028057
4713.4968928615
4560.1015472695
4413.904854508
4274.7756081298
4142.3403858163
4016.3830282435
3896.7709513047
3783.4021698323
3675.9830913353
3574.0104644735
3477.0544971233
3384.8301490979
3291.4290665317
2824.1481645822
1585.9162314142
1802.9131299588
1725.2242751483
1604.150112057
1462.9973657782
1333.3864687285
1242.675038219
1196.6538640394
1191.0875035461
1212.5327851194
1252.4508319252
1304.9334010511
1365.1984008586
1424.6397874378
1473.8643441025
1506.8602449372
1521.2960047393
1514.368056163
1480.7878982981
1424.5617227936
1359.4466307601
1318.3450296008
1290.0104540998
1274.9889877111
1263.7452359911
1254.110172774
1244.6695764852
1233.7455340088
1221.2801703566
1207.8906217271
1194.417159378
1179.4385824657
1161.2197295133
1137.5748646767
1105.7145308187
1063.4789850158
1008.9027691691
941.17241174522
860.58280295797
769.08246114744
671.95035358799
573.73914440718
480.6938244007
393.70817325187
302.48309925079
107.20808237318
0
582.47081299677
21767.534687708
1083.921691319
990.65932848795
943.86882762883
909.39135127575
883.37128201222
863.25616311305
847.375636328
834.58588224561
824.06919936695
815.23315090281
807.64223822019
800.96740488039
794.95579809275
789.40809355846
784.16499992288
779.09436880264
774.09144412427
769.09002792896
764.1109198064
759.24245067552
753.46215062235
749.05637773371
744.96532503054
741.23904888179
737.96247005648
735.34566604935
733.18671913482
731.27276917282
729.51028387376
727.9806413788
726.75091784565
725.80121402927
725.11143223293
724.68849819351
724.50037250754
724.44551035634
724.54958949156
724.84049564736
725.28230381972
725.81084249619
726.35494993473
726.9716205345
727.74718080068
728.67558188465
729.7320682924
730.81107265661
731.87551222996
732.91886823826
733.95909905186
735.00324341103
736.05153530891
737.10593880486
738.17634053468
739.24827257481
740.31579947274
741.48036270115
1153.9314840618
1240.5659825114
1392.1239850472
1737.8175522821
2343.2877622821
3146.7014142055
4010.3726589096
4790.445099409
5411.8163382716
5811.0792173368
6018.3429414232
6086.139626168
6058.6902719555
5966.5452650146
5832.199927205
5673.0214224797
5503.0638659983
5330.0511635938
5157.1489785858
4987.2496317908
4822.6600202975
4664.6473416855
4513.5991621148
4369.5882299014
4232.5428313703
4102.3909705839
3978.9237939451
3861.7925612366
3750.5886092954
3645.0163387204
3544.7947116549
3449.6273057637
3359.0526712079
3269.8642446105
2421.1088302235
1686.7907976842
1871.3849207549
1815.3017111021
1717.3503357453
1581.9258117155
1445.2430964606
1348.1920226847
1296.798764039
1282.1167460412
1293.4602815182
1325.0839756605
1369.9834852976
1421.2749294632
1469.7998168712
1507.2514604432
1528.052492262
1531.9008433385
1510.9759044497
1467.9924745635
1406.5714712009
1347.0113163575
1309.0306033527
1281.8277419125
1264.3367467869
1249.6331766393
1235.9247392082
1220.8732250747
1202.5928883222
1179.9254717225
1151.2637621039
1113.7804731393
1063.0370357406
994.38036309673
903.33051973736
789.50651825019
657.86855785313
520.03308676849
388.06324035466
274.26367004679
185.80633538371
123.98677658364
83.21765788846
59.613893094736
51.681220170819
52.591942533264
10.952572159922
0
23601.880381115
4364.6360849697
1073.8590477122
988.69251493859
942.78040721945
908.73521952646
882.94049167993
862.95703618752
847.15923532562
834.42442039642
823.94562889618
815.13644770105
807.56510025198
800.90505186288
794.90375873194
789.36372861277
784.12657815154
779.06065059093
774.06086663215
769.0620167052
764.08712006127
759.22362636598
753.44731673089
749.04330740192
744.95435083198
741.2315188502
737.9591003517
735.34434235629
733.18582502322
731.27213246969
729.51012051809
727.98072581076
726.75241812738
725.8029350774
725.1174031546
724.6866972314
724.49396658791
724.44670406035
724.55618347732
724.84795542253
725.29122396535
725.81906516385
726.36337341519
726.981420565
727.75776769818
728.68725116855
729.74426775023
730.82322460207
731.88982987846
732.93526236295
733.97671466883
735.02081736234
736.06783933244
737.12255029339
738.19002169085
739.25866761795
740.3226819573
741.4834379023
1150.6933434826
1276.6595888902
1627.4641211634
2283.6696591659
3089.8841404752
3879.8482340978
4554.0830066691
5119.3732371434
5564.1475773665
5868.5097528482
6038.2619747484
6087.4558802161
6050.9278176133
5953.6185870131
5818.1144772814
5660.0449817596
5492.4537506075
5319.4769117047
5147.3797014585
4978.7727915195
4815.188297806
4657.7607982736
4507.2296372152
4363.8181952046
4227.3408200843
4097.74637013
3974.77189541
3858.0142377597
3747.1381539054
3641.8560632233
3541.8808857753
3446.8422388785
3356.3902873965
3269.0300647544
2778.7929903323
1752.1639058871
1953.587473796
1942.5310760178
1856.8444881628
1710.8466929859
1545.2769794257
1427.7376854887
1355.6415971607
1327.8689744206
1331.7528103072
1359.56260412
1402.7531077327
1452.5600329818
1496.2118729362
1527.2366781803
1542.6523855341
1541.4059349912
1515.259992662
1469.1533257725
1408.9824888957
1351.3951946688
1311.2449618048
1280.6245144003
1258.8964081876
1238.1143096533
1215.9251643609
1188.6706113074
1151.3066487232
1097.6846199359
1018.7453605517
906.57892210178
758.33216043619
581.78524995761
398.32523738635
240.39842142656
127.71725720357
59.687027721486
23.737761468002
8.2754174869191
2.256083814782
0.40593140353687
0.019030061484543
0.0036986789314739
0.25182322821486
3.0741496379101
0
0
52222.610913164
3184.221643721
1055.0791515983
983.15718675281
939.45616688146
906.63653279331
881.55481693234
862.00656836484
846.48589954163
833.93350043754
823.57816527105
814.85469672435
807.34418319031
800.72822171013
794.7597634517
789.24461281528
784.02691664126
778.97685458195
773.98785539812
768.99841952779
764.03373060854
759.17985936829
753.4096249194
749.00834137203
744.92335153109
741.20683633779
737.94245443513
735.33289873856
733.1769133884
731.26517430736
729.50492438391
727.97661286203
726.75184019275
725.8055587118
725.13971838449
724.68192860242
724.47922821134
724.45170115806
724.5689116416
724.86236249955
725.30664657173
725.83259302973
726.37749196323
726.99887951263
727.77464235449
728.70679198255
729.766972873
730.8452433536
731.91458666932
732.96299344501
734.00627689061
735.04984257689
736.09549765576
737.15047271056
738.21470656273
739.27669323266
740.33387833372
741.48804405188
1150.2678900473
1505.946774419
2350.7256637655
3359.5514705102
4159.8903839559
4747.1391592295
5170.6003874994
5510.0101215512
5783.2407798493
5973.6445829375
6076.2787551385
6095.1091338333
6043.7635777886
5939.7874148878
5802.4451261683
5644.9761133751
5475.1039188119
5304.0727298087
5134.7109108361
4966.8121883361
4804.470191256
4648.2092190538
4498.7815833809
4356.2587951145
4220.507479679
4091.5040409467
3969.075419858
3852.8383012847
3742.4386021956
3637.5603078172
3537.9020318597
3443.0874006689
3353.0915258106
3266.9341913843
3140.4852541067
1885.4863127218
2024.3377447313
2066.0697474621
1997.164568715
1825.3655729709
1621.2609422326
1474.3904517008
1382.4708119096
1344.9225986079
1346.0477091011
1372.2950987601
1416.6141057104
1464.9004876782
1505.2448508347
1532.8700201071
1542.885049574
1535.1829923314
1504.5741147221
1456.9810102153
1399.5928572259
1343.3178445527
1299.1291858388
1261.7561755834
1229.4072291066
1192.9615253481
1146.4469861076
1079.7904586419
978.71424796105
828.91909066858
627.62747039608
401.6977082848
208.50194323192
84.906495824848
25.032435344709
4.1712871297792
0.0093728576176178
0
0
0
0
0
0
0
0
0
0
0
103600.72322654
2136.2556189617
1033.9717139006
975.0913780976
934.52108235927
903.47115558469
879.44492664912
860.5522266915
845.45261673574
833.17890114101
823.01290806624
814.42132010084
807.00478200422
800.45712100387
794.53920874222
789.06235175979
783.87449603927
778.84816410303
773.87731713927
768.90334326801
763.95276384783
759.11126467633
753.35279245972
748.95779886315
744.87885352094
741.17069166283
737.9161823371
735.31389203949
733.16227307642
731.25389505613
729.49661077294
727.97094340261
726.75021684304
725.80656474206
725.15405653979
724.68521771339
724.48141726131
724.46394758146
724.58363797874
724.87922617673
725.32575493034
725.85208960866
726.39786794796
727.02150504104
727.7998822079
728.73520591628
729.79806579998
730.87806608417
731.95031888201
733.00177954708
734.04715101869
735.09062794874
736.13473217481
737.18821622764
738.24744033218
739.3043349903
740.35062276904
741.49384091761
1280.793948878
2617.9954472658
4072.2855789068
4966.3637010087
5367.4526020797
5628.5419177519
5792.441036606
5917.6293153082
6024.1600537577
6100.7367134326
6128.2987218409
6105.2832037212
6033.6378609112
5923.7339072848
5784.6194213148
5626.8353763625
5459.626116108
5287.8553182767
5117.1984724614
4952.9368693377
4792.1117840645
4636.8118641958
4488.505361288
4347.0875775707
4212.2388548516
4084.0088338516
3962.2105620477
3846.5574019636
3736.7168094027
3632.3402049659
3533.0617438315
3438.7659937997
3349.1572405393
3263.2753751786
3192.7282707886
2213.7754171087
2079.1344111158
2192.7173637647
2174.3285410697
1966.6724598364
1689.6975151757
1491.8742705695
1389.3814347596
1346.1642873594
1346.1956383568
1373.8397359549
1417.4232093463
1462.2140312786
1497.0607004622
1518.5532962815
1523.4613132348
1508.9594971185
1474.223759669
1425.6647338401
1367.4224088223
1306.7258054896
1248.6626775782
1190.1221994907
1125.0991294633
1040.3611871564
920.98036688532
750.48547333404
526.32421965073
290.97931606812
116.23280544739
30.545932882177
3.2238621243237
0
0
0
0
0
0
0.53890218571679
3.6049453220936
8.0980606352613
11.928290224041
10.174837354508
1.6236815795059
0
0
0.17000245249129
106877.44318685
1460.3632411439
1013.3958622167
965.22865297519
928.35186220006
899.4610036352
876.74499364597
858.67611429289
844.11187150324
832.1950378653
822.27288278396
813.851914038
806.55741280722
800.09876878942
794.24705042713
788.82054836053
783.67204452995
778.67707767868
773.73088171403
768.77755656357
763.84510109286
759.01910472754
753.27522319648
748.89090031524
744.82163631334
741.12416018645
737.8810074201
735.28787811329
733.14265590063
731.2390449925
729.48575001069
727.96401902443
726.74803691116
725.80768466738
725.16218274112
724.69321755434
724.49116036211
724.47814235051
724.60190466303
724.89937591102
725.34829635287
725.87681142462
726.42480119256
727.05085093686
727.8328786751
728.77216810252
729.83842150425
730.92204218153
731.99805503746
733.05351253416
734.10169280319
735.14558442854
736.18780079475
737.23733641456
738.28989467926
739.33797646553
740.37182340685
741.50161443654
4345.5010306313
6534.5084370612
6679.7402687039
6602.6446786135
6532.7622044647
6450.2588050667
6373.272245355
6306.717907203
6260.8190067384
6229.8593954179
6190.4583111122
6123.8198810598
6027.4155425313
5904.1446604874
5760.8307276456
5603.7837876785
5438.2132229756
5269.7477222256
5101.2987711274
4936.0689995408
4776.6144248135
4623.5669596922
4476.5679675116
4336.071669999
4202.3313895104
4075.1223404851
3954.1112321226
3839.1643539525
3729.9654070008
3626.1323863098
3527.4437422748
3433.7342714283
3344.2325980851
3259.277972429
3184.9929654422
2590.1582702042
2188.696854449
2341.0367007168
2298.174485534
2090.7019912564
1840.830104385
1553.4755247553
1392.2173553405
1333.3832869864
1328.9175469263
1352.5609970516
1392.7297691367
1431.4031163821
1460.3648927806
1475.5567656008
1474.2971037579
1453.3329311069
1413.568614192
1357.9672895394
1287.5588474811
1203.2130628955
1103.868956727
984.00942222265
834.94277419901
647.60818796067
428.48797794966
219.94132024024
76.916688556058
14.231992690377
0.35864195586391
0
0
0
1.2122067378804
12.542799964766
41.677601310768
92.70109031703
162.59643979308
237.75203638761
292.46213491302
298.59457952891
224.26775588273
88.56606984787
1.3950803693977
0
0
650.98468657524
39288.057530001
1147.4708611018
993.90977884848
954.10069932679
921.22583315744
894.75448781441
873.53842073697
856.42732074933
842.49376671942
831.00144960116
821.37155688428
813.1562928794
806.00959123678
799.65911731197
793.88804138546
788.52303132893
783.42264716224
778.46609597901
773.55041801827
768.6224777491
763.7120039686
758.90489659346
753.17608209087
748.80759735348
744.75137484423
741.06723292733
737.83724308313
735.25526535339
733.11839724956
731.22076972809
729.47236040301
727.95544282265
726.74457236413
725.80940169966
725.16878202682
724.70249168648
724.50430990336
724.49500745523
724.62272797428
724.92331557428
725.37543888787
725.90718949968
726.45810722452
727.08740127553
727.87363044004
728.81780758174
729.88900181871
730.97732725968
732.05753460351
733.11724450647
734.16845103046
735.21275461988
736.25284804925
737.29682559038
738.34132210082
739.37816367921
740.39823884739
741.51142335957
18183.684428252
12122.621941789
9632.6942309153
8378.2260582372
7661.6671906125
7217.7056780768
6924.8852749494
6700.4035229566
6524.0616011183
6385.6565271903
6275.1483253553
6171.3267160964
6055.2661729551
5922.7686488832
5775.3507395642
5617.3312269089
5453.5967572326
5287.0250037632
5121.6040697847
4957.9763371352
4798.9815699186
4645.6339275322
4498.2220688676
4357.4463801905
4223.3259243919
4095.6538160247
3974.12857183
3858.5371977711
3748.6642306395
3644.2732036187
3544.9556640406
3450.5004404799
3360.6460099785
3274.9350684932
3192.6567947767
3094.6956158682
2343.0370206688
2416.190817431
2333.308174777
2106.8543600072
1914.4433588827
1736.2752761667
1502.72048108
1310.4171957034
1269.9804864507
1268.8881708557
1295.09517364
1328.2588842706
1356.7896787039
1372.568132993
1370.9574323371
1347.7838948447
1301.3939185333
1229.7797889296
1128.2376759429
989.59897562901
811.33129001425
601.61088126569
386.83717784656
198.84926886545
74.734770537286
16.208844369874
0.97213342701851
0
0
1.8864245860771
26.594108037309
113.86192202435
309.53208803367
633.48448996384
1054.5335651396
1487.4613286785
1814.2327332986
1927.3108384107
1750.1410236039
1270.5763767542
629.95699875892
134.07808341558
0
0
0
1622.6250761452
35433.948509531
1134.2210326102
975.18189920036
942.24528865941
913.42247065185
889.50365581348
869.91085817921
853.85558946718
840.62716461922
829.61570087856
820.31973534157
812.34113740201
805.3654350571
799.14069054169
793.46373403528
788.17077431404
783.12691425266
778.21555846216
773.33606423223
768.4383370383
763.55432795183
758.76639265613
752.9883015792
748.65184492931
744.62105262184
740.96187105488
737.75575314725
735.19412366598
733.07282394648
731.18614387185
729.4468266605
727.93898224245
726.73714402625
725.81084697889
725.17738027496
724.72158741902
724.52972456336
724.52470140254
724.65823966337
724.96570096266
725.4235920818
725.96091465917
726.51910733924
727.15510130592
727.94826721977
728.90094314317
729.98083790765
731.07761983839
732.16642330704
733.23405762845
734.29078331659
735.33669302769
736.37374973913
737.40746884145
738.43686578469
739.45065227044
740.44470784312
741.5281009304
21179.160350358
13104.805176609
11420.162549606
10050.422456904
8997.5406284056
8184.5457140866
7606.4740882427
7188.0473122358
6852.9182883754
6583.1890578759
6362.262607882
6176.4435310731
6009.0768450279
5847.3923126807
5685.2024539396
5520.1622338465
5354.691693253
5189.883913288
5027.4885798513
4869.6810255485
4717.0063479257
4569.3115801157
4427.46580007
4291.8521648776
4162.5616483703
4039.2556296302
3921.7019818811
3809.7238994963
3703.1581679796
3601.6897668521
3505.212246032
3412.9930130582
3325.3989168596
3241.8533487333
3161.1889667621
3041.6176400743
2347.2462485581
2150.4502750495
1984.2728339737
1842.8743181582
1714.1793719062
1565.3341659943
1354.0367920598
1051.2831460028
843.67418697694
767.98734412754
757.52655863056
770.4590274763
786.61862181636
788.34963640108
759.51194858632
692.16362239542
579.35901516066
425.65288037985
256.72045535307
121.28289799307
42.12349171277
10.273700530769
1.383249875125
0.3236809892425
4.7558803122729
50.737714628086
301.88107144642
1172.5916015269
3197.5548045908
6416.5527074769
10002.836202277
12790.775884685
14027.866253822
13600.174754263
11850.974308946
9228.2969767426
6274.8233559358
3530.3178403877
1471.6101166178
355.32534383644
16.486649410978
0
0
0
4099.275477652
45016.713273765
1237.4691117623
951.10528708939
939.67749702344
918.0336953764
896.81526407313
877.96440815667
861.74447792124
847.96278289745
836.28790809968
826.35543659711
817.82239257031
810.39149539838
803.81555432991
797.88716197519
792.43366895223
787.31285993863
782.40461823033
777.60191623845
772.81047714238
767.98592176426
763.16344269993
758.42463386841
752.68080990845
748.38938146251
744.39915653866
740.78013193254
737.61526591007
735.08674229933
732.99056288135
731.12198191425
729.39898637198
727.90824286274
726.72326275445
725.81181112339
725.19159550863
724.75394008743
724.57403475577
724.57725829822
724.7208137067
725.03885955661
725.50592044992
726.05169026513
726.62087310718
727.26876794406
728.07435151598
729.04252372216
730.13913009325
731.25151341001
732.35600901834
733.43792070272
734.50332520845
735.55009194369
736.57907943518
737.59374371009
738.59661885301
739.57218254619
740.52355254067
741.55791083826
770263.74214933
10431.144766716
10979.343874899
10270.017033857
9332.1344210168
8583.2168281989
7942.364356554
7435.2251029149
7023.3133823721
6700.7003140215
6428.1713880909
6191.7788047643
5985.6636541324
5799.1855196659
5624.2297118703
5454.7646144692
5289.0444088802
5126.8774867768
4968.5725568042
4814.5502528837
4665.4966241387
4522.0956534601
4384.7523653286
4253.4544782457
4127.9702390536
4007.9609031744
3893.3049334096
3783.8805002232
3679.4794460501
3579.8674187564
3484.9273094135
3394.7122418752
3308.691687971
3226.7243105344
3090.356313301
2646.9378888384
2393.595336173
2187.8041178762
2013.4789934026
1840.5398086657
1607.4773330388
1245.4784279583
817.70554659835
421.5553151785
230.21542892289
183.45357288847
167.55606465619
159.52430938402
148.76252664469
131.61985228534
106.7541083207
74.978290024409
43.943230873736
21.320774040035
9.6740919655907
7.2146760089743
18.243176541272
93.075150598609
496.76367859819
2161.8926993122
6891.5974565252
15954.695140697
27125.454520188
35095.183530606
36679.798386543
32846.709615093
26463.375370081
19642.910944773
13575.323128257
8692.511696391
5057.4554072371
2556.6495868581
1039.6167919939
289.86304877596
32.064425076105
0
0
0
0.087940962001672
11068.105363389
49207.870380728
1570.4547210854
914.15340151121
911.88289539189
908.30225815795
895.01352026379
880.18782993211
865.90467697743
852.91429954609
841.42014115222
831.36911959745
822.59786550656
814.90254003899
808.08573071704
801.96545024767
796.37922823806
791.18674866704
786.2690827195
781.52212700106
776.84923312028
772.16377215342
767.42733984358
762.67848127471
758.0024760736
752.31127099884
748.07356045689
744.13205117365
740.56094785919
737.44773675134
734.95851776965
732.89108564985
731.04317001574
729.33975018977
727.86964682463
726.70483882081
725.8109618028
725.20796181148
724.79283474787
724.62756295329
724.64200880603
724.79942421112
725.13104884389
725.60903688536
726.1656009849
726.74908833719
727.41255136291
728.23448185074
729.22128286105
730.33831506381
731.46953983703
732.59295995998
733.6915532239
734.76604416166
735.81123850381
736.82729559935
737.81712472952
738.78565366351
739.71480704692
740.61602034002
741.59283238777
438060.59230667
7952.7762434464
8789.9390570047
9344.1110812228
9134.0298414942
8564.3718427396
7961.0973679782
7476.5813960381
7036.6855248105
6696.1008585679
6400.1413067876
6147.3275821849
5930.1469869154
5732.6649859751
5549.5482643401
5377.7387865412
5213.2717728951
5054.931680297
4901.3580021336
4752.3187943737
4608.377320581
4469.5456260962
4336.060106834
4208.2108696577
4086.1328781899
3970.0580151189
3858.7570189445
3752.2577458334
3650.5231691994
3553.6473115552
3461.4084921624
3373.5580771908
3287.9077532775
3083.5989830934
2682.8732984126
2444.638131768
2246.4571812565
2073.965874239
1885.8599269212
1590.8390971348
1121.2593878019
582.52137983994
228.92590017163
120.53295835078
117.3241386546
128.13497188942
125.9747209021
111.29145281162
93.337194352082
77.848468447568
68.411874543252
69.973788082065
95.74819268736
194.91114786068
572.2836074835
2056.9598048187
7321.1135054471
20923.515989021
43120.089074508
62988.030344862
68714.971213356
60194.524320729
45498.357669339
31552.379991138
20758.069662513
13204.946713051
8152.5337491227
4839.551368193
2708.2676113594
1385.62325141
618.04708468044
221.7753274741
53.139847987219
3.5401303909021
0
0
26.559181650995
2080.0574118102
54857.623014336
18351.868836121
1386.2560738815
867.06359026379
876.6547175309
881.61889576818
882.02526502161
874.46844953096
864.53228197141
854.09115607399
843.97428758382
834.60672693299
826.12912717559
818.51971686056
811.68592394082
805.51287742138
799.87825892498
794.66285351249
789.75715703794
785.0653413186
780.49947077693
775.97339250109
771.40815144547
766.77221240954
762.10826278119
757.50463381056
751.8782949243
747.70283722713
743.81710544229
740.30067347771
737.24866822713
734.80519725324
732.77083672079
730.94696946545
729.2673288536
727.82227710536
726.68126362698
725.80816176106
725.22532754365
724.83739286857
724.68943849691
724.71816290159
724.8930277897
725.24106421585
725.73249554316
726.30282556868
726.90358284834
727.58594765255
728.42859415483
729.43793894793
730.57859826524
731.73095108039
732.87507370212
733.99124340606
735.07435481302
736.11552658625
737.11377719107
738.07377778223
739.00072848589
739.87633212552
740.72032047857
741.63128159852
154043.50151473
577252.94691508
5398.437831498
7345.1385752129
8000.669812696
8072.914056847
7799.4178422115
7400.0463730791
6973.252594952
6622.0583885183
6312.5423567196
6060.0002292602
5840.1348057442
5638.7580412005
5455.0405027969
5286.917708279
5128.2921440719
4974.5983711451
4825.1897457468
4681.1574444285
4542.6754588697
4409.5895514096
4281.8963362322
4159.1465037682
4041.4013348936
3928.6976606862
3821.0195415821
3717.8788971477
3618.7346240833
3523.830311852
3435.5994678259
3343.2070860543
2973.2659253396
2687.831637163
2469.0248342815
2280.0636645739
2101.953831684
1879.6538579592
1482.4927423249
913.03572810969
369.15249385225
155.45815686886
140.14732344152
228.13188763713
490.09083760692
1019.2651310099
1647.5384480477
2101.5125929428
2395.83419292
2777.9575732161
3599.7682305555
5599.611076771
10595.52277456
22638.309032047
47243.84242423
81435.556377257
104867.54915238
100621.36016562
77213.308537844
52053.896177132
33227.14595767
21009.266858927
13436.092928294
8726.5058983498
5727.1869021427
3760.3461597575
2442.0352464472
1552.9379587784
962.49293258417
585.97249189144
362.66580676242
251.88984355185
240.30595722075
405.91181881059
1370.2016686241
8101.2545897296
43731.990530233
34343.827027936
3980.7817126703
989.48573895668
819.63168556559
838.14996626295
852.10134364452
858.19096844971
860.68966567805
856.8096303057
850.42395669842
843.00048290184
835.30910170392
827.82457620286
820.79068049041
814.28095343239
808.2878714313
802.7580765825
797.61798786136
792.78539305216
788.18082314277
783.72927293787
779.3581996421
774.99040844222
770.55692333412
766.03155900269
761.46121463876
756.93813799205
751.387457621
747.28088637243
743.45758593217
740.00195249316
737.01944427585
734.62763019181
732.63051751853
730.83382051728
729.1820768889
727.76663409258
726.65285972236
725.80399935892
725.24344772521
724.88735990415
724.7595662828
724.80569056364
725.00152823423
725.36871621356
725.87593548574
726.46327960509
727.0842282819
727.78915252636
728.65741617678
729.69345160443
730.86025599426
732.0355508093
733.20183976743
734.33554045685
735.42628385013
736.46072797286
737.43649824423
738.36053197894
739.23818763337
740.05409525054
740.83453908799
741.67151669142
93667.478049332
110396.26662375
279428.16992192
4804.7012901272
6062.3858601323
6723.1916398967
6968.9109524809
7002.9601194456
6815.3859843752
6535.2256396091
6221.7463090442
5948.8683137135
5724.2462363144
5531.6688879041
5352.0556428955
5184.6447524066
5029.3625298861
4883.6444541889
4743.0974938648
4606.1595511104
4473.602562532
4346.0934477965
4223.7072038326
4106.3591543578
3993.8392433153
3884.4900897839
3779.2445326359
3679.2127293574
3584.6539397854
3491.8434446803
3216.8702541067
2880.4655124443
2666.9904490345
2470.1895253825
2289.6172289068
2097.6273203159
1798.5398938366
1270.635905795
616.13144825305
224.73777445938
157.23971431554
263.43218159807
676.69169355614
2239.36805084
8274.6974028419
23148.109499282
40546.200308429
51298.729843594
58546.564420552
68464.076403369
84740.894062381
107826.69848006
130160.03498877
135522.73246267
114257.29305137
79947.711140249
50632.68412848
31688.357156964
20809.447316966
14603.722877853
10888.331912339
8560.9859255965
7003.7968344979
5898.9559942496
5084.1317981444
4482.716349328
4071.9612389749
3868.0644445894
3944.8434531356
4489.6845845524
5951.8349597397
9522.2180480269
18142.314019515
34297.411336975
38659.067961936
16176.463846994
3816.2324572735
1217.8153457069
796.42912535732
784.1206411311
804.89750318235
822.17343499137
833.83625330709
839.99095922137
843.55679356628
841.92718986036
838.04570416541
832.90232584601
827.16721295384
821.28269056591
815.5236122256
810.01815373327
804.81057160377
799.89805329501
795.24301619105
790.79319932407
786.49352912391
782.28858645714
778.11914095098
773.91796338822
769.62387974987
765.21664252627
760.74667980675
756.31120571409
750.84410628135
746.81306266174
743.05786917838
739.66835645304