/*--------------------------------*- C++ -*----------------------------------*\
| =========                 |                                                 |
| \\      /  F ield         | OpenFOAM: The Open Source CFD Toolbox           |
|  \\    /   O peration     | Version:  2312                                  |
|   \\  /    A nd           | Website:  www.openfoam.com                      |
|    \\/     M anipulation  |                                                 |
\*---------------------------------------------------------------------------*/
FoamFile
{
    version     2.0;
    format      ascii;
    arch        "LSB;label=32;scalar=64";
    class       volScalarField;
    location    "2e-05";
    object      k;
}
// * * * * * * * * * * * * * * * * * * * * * * * * * * * * * * * * * * * * * //

dimensions      [0 2 -2 0 0 0 0];

internalField   nonuniform List<scalar> 
109340
(
7.5719290124028
7.5824791044173
7.6010026277547
7.6220646920636
7.6403969396544
7.6537636204076
7.6616679306083
7.6644101668116
7.6630366193511
7.6574513673275
7.6473953369572
7.6328689686409
7.6138620211532
7.5903152500722
7.5620964673723
7.5289897593391
7.4906796446427
7.4467197845674
7.3964878531347
7.3390616919495
7.2734621414075
7.1981589019314
7.1110579028269
7.0094709811121
6.8898763448253
6.7478960114976
6.5799084603585
6.3871768406546
6.1674820742027
5.9175889820911
5.6367666855123
5.3275452600899
4.9960952428424
4.6519208328817
4.3032780738778
3.9602289049896
7.5706541840325
7.584886415903
7.6037225382238
7.6215902358563
7.6354924258442
7.6446040875729
7.6486676157077
7.6474257571625
7.6410898494117
7.6298669829559
7.6138593523065
7.59311127696
7.5676402248285
7.5374156840341
7.5023390086649
7.4622284882065
7.4167961163484
7.3656160730603
7.3080633350485
7.2432257433811
7.1700972272248
7.0869950246473
6.9917321221942
6.8814430444257
6.7524204936421
6.6003820938888
6.4213626694468
6.2119758066114
5.9717204911082
5.7025583950334
5.406818585376
5.0892489523116
4.7579909892799
4.4213665997032
4.0874587151967
3.7628447420474
7.564982340341
7.5815962434665
7.5988705580784
7.6128893342196
7.6218475714308
7.6250279233287
7.6221872168782
7.6132318210723
7.5982886193638
7.5776102500179
7.55144299168
7.5199920580669
7.4834285837767
7.4418770516879
7.3953967112822
7.343965350371
7.287452023653
7.2255870269634
7.1578940770914
7.0836367053747
7.0018340623944
6.9108535894807
6.8085328410246
6.6919382383291
6.5572984455599
6.4003246355301
6.2170044970552
6.0035360958178
5.754741238925
5.4698789010909
5.1565216663806
4.8288654440192
4.4955947261736
4.1660283416159
3.8468224367002
3.5433465363088
7.5532251409179
7.5760366046868
7.591277887124
7.5980134250752
7.5957518064508
7.5845902802785
7.5645183160362
7.5358787817789
7.4992136527614
7.4552110399474
7.4046410201674
7.3482871297458
7.2869043303064
7.2211898960358
7.1517531132474
7.0791009898494
7.0036055791667
6.9255814768323
6.8449261031393
6.7611457197427
6.6730710308003
6.5788832939097
6.4757544922075
6.3597227177088
6.2257676561142
6.0683541066098
5.8827765809444
5.6647748497732
5.4111666452816
5.1207061707471
4.7973207892071
4.4519684224719
4.1039233749221
3.7645167294131
3.4456907994214
3.1506135570073
7.5397993508521
7.5864691430914
7.6119773617702
7.6137837664435
7.5925619430788
7.5492217156665
7.4870683181848
7.4104821136906
7.3242398968205
7.2331369925286
7.1415842143606
7.0537148523705
6.9730906915881
6.9027672371623
6.8453744605206
6.8031088752648
6.7777611304623
6.7709406711026
6.7819599639743
6.8058222282275
6.8351149693714
6.8609126439752
6.8695611125188
6.8540608814169
6.7942300152466
6.6762473250832
6.4895970002179
6.2183785630952
5.855678670777
5.3940374844058
4.8557629407958
4.3396105646205
3.8734762069906
3.4532965931417
3.0791165833859
2.7478945638139
9.1162317902046
13.485515818832
17.2163756945
20.065451264994
22.040951312083
23.281652369568
23.961997376803
24.242153079261
24.248948238642
24.084426429746
23.809436290834
23.470903732272
23.101209758565
22.722279826968
22.349468649503
21.99396307562
21.663900280197
21.365610837725
21.105295348291
20.892997770494
20.731072800931
20.626355462243
20.593096746192
20.644543433154
20.803445580461
21.084031837354
21.533262026857
22.186066003906
23.057471617196
24.176968767537
25.56126025658
27.241646809897
29.205893204748
31.433832264895
33.874856059036
36.494096069254
3.6313315509444
3.3184199245697
3.0293642266942
2.729687729078
2.3843063510899
1.9953832103435
1.6097883474518
1.2832744546369
1.0224377936297
0.82766639317659
0.67692970322851
0.56024144088795
0.47097013956642
0.40160834305281
0.34608178640237
0.30080922282424
0.26423067679401
0.23438270604919
0.20948479150801
0.18838866801566
0.17050926572642
0.15529300757057
0.14219632169192
0.13080199341576
0.12086144800994
0.11217946737934
0.1045516756267
0.097782857695008
0.091716386816984
0.086259398056619
0.081358384620894
0.076962127656196
0.072996919390762
0.068898405163523
1.0046419537808
3.437299426219
2.0740654633772
2.584908686662
3.333321864239
4.1354355204479
4.928167644084
5.6402306135529
6.2015078740476
6.6470698863464
6.9716206078309
7.1777202494125
7.1326715516848
6.5541956855547
5.7150460222465
4.8795318265333
4.180488040402
3.6538862231692
3.2963378866395
3.1488185044026
3.1813364971717
3.2330654263247
3.1402085203001
3.0173103593424
2.895015794117
2.790044229694
2.7084050186507
2.6643730724462
2.665356737167
2.6924352444879
2.7535566195303
2.8376736569706
2.9245730979487
3.0097986250339
3.0871514906113
3.1638920437387
3.234493676664
3.2915485541117
3.3425458873118
3.3812243135548
3.4039112997927
3.3957649119944
3.3688894878624
3.3641334913853
3.6430935353466
6.4113753803322
33.016491478906
217.17861506052
813.35009497212
125.94836374738
5.8674093366162
5.5190953661445
5.4379948750037
5.3767958609706
5.3287264601514
5.2899156517327
5.2578329242492
5.2307516440493
5.2074312625231
5.1869366028896
5.1685645017753
5.1517771615692
5.1361573667859
5.1213680708959
5.1071351556014
5.0931971652899
5.0792284635273
5.0646473091524
5.049017439686
5.0338222296888
5.0158281642286
5.0031350583312
4.9915069217244
4.9809844455159
4.9717891100115
4.9647302598158
4.960022910029
4.9572423047971
4.9554413881674
4.9540539691443
4.9528220734432
4.9516230614512
4.950228922738
4.9476045158714
4.9450213602387
4.9427985996381
4.9405345206941
4.9384800351866
4.9371503133089
4.9369740181386
4.9379664079418
4.9399449163549
4.9429637313612
4.9467239531426
4.9505125922353
4.9538010578212
4.9564161252373
4.9582848549715
4.9593672648943
4.9595909498256
4.9588548243276
4.9571459394057
4.9547409859646
4.9523133872359
4.9501966471566
4.9493957249748
3.4531813912051
3.1625632121761
2.8621196511886
2.5194820995969
2.1395879108719
1.7531299336174
1.3981590124393
1.0998733594782
0.86452272516891
0.69026803924988
0.5653646516999
0.47089477824931
0.39772764672149
0.34032779388769
0.2952250884588
0.25935471689963
0.23001894628871
0.20554384212172
0.18516089118944
0.16809071269959
0.15350332585784
0.14084185485075
0.12981497495147
0.12019705509822
0.11176639285919
0.10431275093702
0.097670924916779
0.091736951714999
0.086419626537235
0.081626587010345
0.077300427059216
0.073386768864548
0.069830197787032
0.066429677023797
1.8838995618956
1.8139005154522
1.1192124171378
1.2680805560076
1.458701441138
1.6579554392499
1.8487246239589
2.0428350307125
2.2686715727293
2.5321779873554
2.8146983821053
3.0847271062889
3.3092048225271
3.4716877895185
3.3856328479136
3.1326114552979
2.8440035351557
2.5941340551367
2.4454450842439
2.4270915605067
2.4989357701934
2.5704795124549
2.5568765248635
2.5176565115949
2.4614842101546
2.4042852616662
2.355095281149
2.3266595638782
2.3271839277359
2.3456772614157
2.3863454479875
2.441523295648
2.5010302358457
2.5634960046979
2.633038425803
2.7181140562653
2.8197325526372
2.9572581529271
3.1585464826317
3.4640394190454
3.9035403949987
4.4724366824806
5.137781443081
5.7884261539965
6.6497702203903
11.948416561552
61.98698464701
376.24188850977
783.01696719705
34.294685284623
5.8082733217614
5.5159397872906
5.4362418676153
5.3757219374544
5.3280038294002
5.2893941356912
5.2574380515486
5.2304427096319
5.2071824884685
5.1867293772351
5.1683861553228
5.1516188934561
5.1360107689408
5.1212267422324
5.106992321398
5.0930431602804
5.0790309402742
5.0641240968061
5.048441096731
5.0333631872445
5.015608107216
5.002966227997
4.9913467715498
4.9808392402953
4.9716787086485
4.9646568758027
4.9599723778456
4.957205387745
4.9554147009638
4.9540298809931
4.9527589558289
4.9514897583625
4.9500025108431
4.9476259349134
4.9452236582288
4.9429573218999
4.940615370394
4.9385040567171
4.9371479162587
4.9369778358932
4.9379804307932
4.9399696679707
4.9429974606119
4.9467563066794
4.9505440446404
4.9538310940962
4.9564493733792
4.9583231115847
4.959409322237
4.9596343379197
4.9588988358043
4.9571944581699
4.9547884197501
4.9523460048724
4.9502298150559
4.9494218461296
3.2554946154211
2.9721191414
2.6426560832527
2.2737222562563
1.9056505186895
1.5700311905648
1.2797321582379
1.033064742756
0.83013050452886
0.67226596209921
0.55320241889759
0.46132936797894
0.38954783430372
0.33335401233738
0.28866289497802
0.25279219678363
0.22341941141514
0.19930242859962
0.17916580421604
0.16224254841212
0.14786732517799
0.13554301336756
0.1248956168514
0.11565222120366
0.10758491438277
0.10048048334963
0.094185755095983
0.088588745773822
0.083585919314331
0.079089157781775
0.075039569989924
0.071366875940225
0.068034236140139
0.064521915406109
0.88169794065511
1.4454379624559
0.92875707395019
1.0325780724927
1.1573339554864
1.22132694244
1.2896252618292
1.4301653273532
1.6776078261691
2.0064032199902
2.3620674800922
2.682588302118
2.9357162300228
3.072794780902
2.9699940605035
2.7367176809971
2.4851565646297
2.2792106712964
2.1804697155437
2.1975312663465
2.2705680542413
2.3454914116119
2.3608700054932
2.3452032680443
2.3101369585192
2.2739216570931
2.2456371564105
2.234034989738
2.2405871596512
2.2645120450145
2.3060186324442
2.3660667459057
2.4533954990927
2.6002213835823
2.8823777263306
3.460524845011
4.6047250886494
6.6811254632594
10.078524647401
14.978033440472
21.150353148703
27.60573963182
32.6580189958
34.647112377975
33.577391718121
34.11296547578
91.335469844163
459.15786302526
726.22252118745
24.079134275309
5.7201242142776
5.5075774085596
5.4312221074917
5.3724615260611
5.3257795464584
5.2878119744493
5.2562732642732
5.2295592234826
5.2064930317431
5.1861758671723
5.1679297927547
5.1512333158078
5.1356780946415
5.1209335698993
5.1067279060723
5.092799650147
5.0787917342921
5.063842117063
5.0481394460092
5.0331096061196
5.0155786923288
5.0029473939279
4.9912872344166
4.9807573148976
4.9716160202077
4.9646289840104
4.9599660431701
4.957209766412
4.9554234084624
4.9540291281953
4.9526892359105
4.9513132895377
4.9496796778987
4.9476284752337
4.9455540444538
4.9432412046396
4.9407662467183
4.9385547869785
4.9371589733211
4.9369962716047
4.9380168700741
4.9400241655976
4.9430660553495
4.9468213189313
4.9506104035568
4.9538920526159
4.9565134310497
4.9583939623458
4.9594856033945
4.9597121202727
4.9589788208453
4.9572820812419
4.9548797006003
4.9524091383279
4.9502947226075
4.9494783332589
2.8798602080699
2.5705810426406
2.2153034436859
1.8743192398093
1.5845825398261
1.3393616710045
1.1291037889926
0.94416888396129
0.78344313993058
0.65047910085864
0.54242618064285
0.45516555156278
0.38569042789516
0.33048188104172
0.28598078212626
0.25009014022561
0.22104657294062
0.196784489897
0.17651928182228
0.15974554934727
0.14546306176607
0.13322923266618
0.12267573669196
0.1135266297119
0.10554181334795
0.098515176310039
0.092298390875309
0.086773376779803
0.08184259281978
0.077438632157741
0.073479195231687
0.069903960080807
0.066674996868909
0.06348371238746
0.28631119800399
1.4846844043585
1.0581566880312
1.1413438762756
1.0120119991796
0.9261361308835
1.001350444995
1.2191717388191
1.5766119963755
2.0335758790903
2.5924456378042
3.1785809864225
3.6229969614591
3.5951221379005
3.3248621477738
2.9759942136498
2.6659595027303
2.4568256252033
2.3893105965561
2.4302496738823
2.5183617872657
2.602567585766
2.6400082084685
2.6358266547443
2.6031516858482
2.5607797166008
2.5212210118401
2.4996494633508
2.509043251074
2.5581943834498
2.6996043915208
3.0636993121847
3.9753943196471
6.1523974857709
10.867141282619
19.770703104447
33.961228671844
52.936944162007
74.514606836792
96.301527227973
116.11822494735
131.92741213727
141.66765730822
141.67409423005
130.4028398549
101.58533312761
157.4579582803
588.47773656355
591.27319413098
14.885817767961
5.6390295011139
5.495700684406
5.4238838142249
5.3676193070001
5.3224556506249
5.2854500640539
5.2545424456212
5.2282556095738
5.2054849581798
5.1853760979632
5.1672802119321
5.1506943271321
5.1352223161232
5.1205417464737
5.1063856215224
5.0924959884614
5.0785123735041
5.0635491350879
5.0478426165426
5.032868533839
5.0155243629412
5.0029113454875
4.9912228561348
4.9806733177468
4.9715492328271
4.964596608946
4.9599587080857
4.9572159244594
4.9554338920443
4.9540328390145
4.95264691121
4.9512163566745
4.9495111175112
4.9476207412594
4.9457591767524
4.9434539929054
4.9409143158876
4.9386465874702
4.9372207864574
4.9370526986425
4.9380835950263
4.9401095637501
4.9431684089101
4.9469231437861
4.950707501158
4.9539840889945
4.9566082833153
4.9584954700296
4.9595926330999
4.9598204246221
4.9590893167039
4.9574005361446
4.9550034609659
4.9525214339679
4.9503966817919
4.94956192007
2.4055046272904
1.9427248904111
1.6100279182175
1.3761592792211
1.2070917875266
1.0774320760743
0.96469563622235
0.8451644254801
0.72769609776349
0.62195013274258
0.52811942763246
0.44794790297544
0.38180203422521
0.32812098132288
0.28455770920043
0.24902279275721
0.21991956960726
0.19599366345485
0.17595039518712
0.1588171200862
0.14448646452406
0.13226302757567
0.12169970049961
0.1125383564004
0.10455025699037
0.09753378158319
0.091340555976513
0.085840167796201
0.080933526777677
0.076544682445216
0.072594788891521
0.069044442917982
0.0658264638257
0.062899732486472
0.10197667340499
1.2840798351043
1.29323122538
1.1392558667694
0.6893597201263
0.66130874673474
0.84695499433184
1.230375280594
1.8182322417103
2.6717664781574
3.7109212301537
4.4731674212984
4.685874550844
4.462363564782
4.020390870288
3.5505229294036
3.1774458641361
2.9676759485881
2.9185293968133
2.9721074700529
3.0619911859627
3.1487412163409
3.1996584722639
3.2069805349453
3.1723210495499
3.1247615652493
3.1118061539927
3.1714067690686
3.4230248786608
4.1754724109562
6.2704094011246
11.690466755442
23.882973657569
46.197523537425
79.20104608298
119.92150868939
164.78767151669
210.60387809236
254.76831578236
295.24092256433
329.94973259473
355.96416315077
367.97880640728
359.70770000762
312.34072387596
209.64900567872
268.09742497132
737.64491482417
365.96568932437
9.1051432291464
5.5821981257395
5.4812838547473
5.4147192975982
5.3615028567677
5.3182256070115
5.2824297172108
5.2523240878491
5.2265834153357
5.2041921653924
5.1843517972288
5.166450133055
5.1500076413862
5.134643703497
5.1200464026615
5.1059555108105
5.092116400567
5.0781654751576
5.0631935192625
5.047514163669
5.0326092926907
5.0153841062652
5.0028005548158
4.9911158691076
4.9805691721422
4.9714683707625
4.9645502864898
4.9599427136541
4.9572181758883
4.9554424516102
4.9540383697407
4.9526344603679
4.9511819372065
4.9494595971817
4.9476128734686
4.9458378099905
4.9435745176191
4.9410333245764
4.9387507551114
4.937314745954
4.9371469264796
4.9381882560254
4.9402333459722
4.9433084162679
4.9470644656016
4.950839904573
4.9541097567802
4.9567351234936
4.9586280717238
4.9597305113501
4.9599602387693
4.9592314673019
4.9575496022099
4.9551576006141
4.9526730826949
4.9505291669696
4.9496708772765
22.226941337141
6.5613592151096
2.504032852884
1.5880077689724
1.2344843761106
1.0077167430428
0.85102437065437
0.74186524531743
0.66609352638721
0.58706971814741
0.50865264965595
0.43779693937501
0.37661478032066
0.32538202281174
0.28311309121462
0.24827987295826
0.21936201897559
0.19536390649662
0.17551931968824
0.1587429016361
0.14433504634818
0.13199801958426
0.12142176762284
0.11225860683861
0.10423183029966
0.097174957093442
0.090949188805438
0.085421890163174
0.080499421248248
0.076086075547951
0.072128681662338
0.068566805755333
0.065347275820654
0.062434368097533
0.064665283623164
0.77132598355224
1.300468008264
0.84985820420575
0.47674546999343
0.50422358978958
0.75309555024202
1.4064869877005
2.5074293015512
3.9117879223699
5.1273168032777
5.7873819107326
5.7707019490592
5.3281239749909
4.738065961716
4.2017030957188
3.8209061275921
3.6337593186289
3.5997455913204
3.669617550154
3.7918766198317
3.9362221548669
4.0731133868822
4.1825955893396
4.2902151300039
4.4912501961356
4.9965367046694
6.3449854331616
9.9805362541801
19.421290858911
40.480026060769
78.116683205449
132.07869436172
197.9823844446
270.8475843313
346.27119458064
420.76014363472
491.68482955572
556.93234714381
614.15224658034
659.69930511491
687.84181690254
687.73718456098
641.23131579179
506.65283972665
327.73728687829
418.20182844836
815.56993501618
160.51241826416
6.5301037177839
5.5437117383445
5.4649500876146
5.4040718081797
5.3542989199817
5.3131936229466
5.2788096879512
5.2496511181834
5.224560880394
5.2026240457394
5.1831068044822
5.1654396377489
5.1491705051608
5.1339370909896
5.119440243463
5.1054284285687
5.0916505967275
5.0777406747108
5.0627748780388
5.047150093959
5.0323221238378
5.0151581093327
5.0026103408924
4.9909561853286
4.9804380360352
4.9713715514593
4.9644914120675
4.9599209093577
4.957219963415
4.9554540709848
4.9540507352424
4.9526431739482
4.951189151745
4.9494670484326
4.9476169751092
4.9458708466157
4.9436473508122
4.9411279327392
4.9388538458975
4.9374268193065
4.9372717880576
4.9383299615318
4.9403971273498
4.9434887312011
4.9472460835418
4.9510115216822
4.954272313603
4.9568948179415
4.9587901933312
4.9598963104082
4.9601284943321
4.959403604095
4.9577287357135
4.9553427528114
4.9528546616167
4.9506885604242
4.9498024497921
20.520769485403
11.86124839503
6.1996201393115
2.6071720441329
1.5105754393997
1.1341920932489
0.91421357315984
0.75305075781073
0.63638542645793
0.5559941971038
0.49878932158973
0.43852495005414
0.38216955454915
0.33260658453428
0.29040217276152
0.25499521425931
0.22557181710575
0.20078686235317
0.1798265420143
0.16233083689985
0.1475124229228
0.13485301595312
0.12387499236145
0.1143380795673
0.10601956444503
0.098732335125214
0.092307095315024
0.086607893083738
0.08152815176878
0.076981164854352
0.07289196382914
0.069226524943573
0.065893511562189
0.062866938468436
0.059686056155445
0.14567318382267
1.1069656933905
0.72136458920972
0.41736705634304
0.46105869479248
0.70687296832322
1.3192217244349
2.8523726927946
5.5097875320429
7.081147171186
7.7464689759788
7.4712462914924
6.7186219659185
5.8924006874589
5.2240924062025
4.788102302127
4.5893420280588
4.5892027113312
4.7347326799841
5.0048245651266
5.3964463612447
5.9181197489631
6.6345118821647
7.7533975842552
9.8794669921103
14.531881064764
25.373598889987
48.625586103634
90.983813844456
155.55913129113
239.53917245754
336.59210941834
440.08481871173
544.83390534852
646.94185176302
743.74325707041
832.99514949359
912.09079936479
977.48730395565
1023.4768712629
1039.3169367049
1010.1206058923
903.89055590561
685.1699215044
453.78664202654
518.83580150682
799.94432330338
142.33832010121
6.5101646137067
5.5132190853496
5.4473450146351
5.3922982076767
5.3462032370772
5.3074695121464
5.2746518756591
5.2465571931565
5.2222061012902
5.2007891014436
5.1816438229793
5.164247914976
5.148180060642
5.1330985728965
5.1187188779665
5.1047996104618
5.0910936958276
5.0772325550999
5.0622851141924
5.0467411730416
5.031974705249
5.0146627853583
5.0022075219164
4.9906369926575
4.9801942891809
4.9711977223831
4.96438382925
4.9598803500204
4.9572225333386
4.955476132529
4.9540786560436
4.9526753476584
4.9512283039464
4.9495095061205
4.9476533441508
4.9459161180393
4.943726186051
4.9412461841452
4.9390045513961
4.9376111680554
4.9374942575417
4.9385947342445
4.9407039938943
4.9438228443562
4.9475818767757
4.9513310038118
4.9545748175452
4.9571888263216
4.9590835217819
4.9601933019945
4.9604318710086
4.9597175644979
4.958056073192
4.9556793158391
4.9531743623753
4.9509662876755
4.9500324183904
7.6594095145136
7.5236390330532
5.5141655483698
3.6161191355757
2.0356509867095
1.2329038872454
0.93323416253082
0.77773758194507
0.63787326003597
0.52188395268177
0.44192561464741
0.38294038538096
0.34362458907415
0.30738890699809
0.27320072498149
0.24277207141989
0.2164327520659
0.19396545073669
0.17476476912572
0.15826161141385
0.14408377844488
0.13184575893054
0.12127159487743
0.1120733340036
0.1040779354634
0.097041752562306
0.090806711954077
0.085250176875524
0.080295841010277
0.075856363118834
0.071857288843649
0.068239173516902
0.064989623178097
0.062046793100088
0.059016442482102
0.10056031267118
0.41621454053763
0.45263248028533
0.5934146121454
0.92576313224063
1.7304807686656
3.1962950386741
5.6020680147598
10.724672902127
16.793153031668
17.93849926148
16.434404759041
14.378727973844
12.646424268478
11.517098347245
11.027304509335
11.235753502212
12.184705372636
14.31570978361
18.534600473185
26.44043424572
40.106319499462
61.668602011323
94.491467258497
144.69847759194
218.19422518319
317.23159340696
438.41079479747
573.65815185934
713.74958533959
851.530900443
983.12700106107
1106.8128041348
1221.3899526852
1325.3015524578
1415.7629708196
1488.2833141293
1535.7967706567
1547.4758264629
1509.6539984645
1399.9365256441
1198.4923027136
915.19607443917
681.84916874583
682.85322322939
742.3366619749
151.31486226342
7.437849594769
5.4979804106049
5.4586468270902
5.410610330875
5.3668070136114
5.3281635798926
5.294431181699
5.2650230831706
5.2392926869109
5.2166115218053
5.1963869237828
5.178105377821
5.161345462529
5.1457531774974
5.1310329998141
5.1169334247463
5.1032361133848
5.0897031357128
5.0759575600565
5.0610578670496
5.0457380504468
5.0311192916626
5.0138681182041
5.0015473202508
4.9901044119566
4.9797821199049
4.9709064749135
4.964200777303
4.9598062223453
4.9572188208507
4.9555057366075
4.9541214786227
4.9527279477228
4.9512952630638
4.9495859430231
4.9477379101085
4.9460054714089
4.9438294095473
4.9413886705059
4.9392015400704
4.9378786964617
4.9378427335549
4.9390258580274
4.941212432662
4.9443780896818
4.9481455399732
4.9518794086817
4.9551003400399
4.9576951705098
4.9595790362651
4.9606860592877
4.9609318094773
4.9602342248847
4.9585924797759
4.9562231539871
4.9536780259198
4.9513996549175
4.9503968137813
2.1822834216598
7.2111614145705
4.7165957571
3.4577408932432
2.5092472273634
1.5960867949322
1.0238307608001
0.77732714418952
0.65891154952471
0.57200978385896
0.46891146840529
0.38481674879921
0.3285134402874
0.28686300055897
0.25747559629277
0.23395583924813
0.21127623524075
0.19081138960486
0.17285679150802
0.15725992360242
0.14362887744048
0.13167438499018
0.12124168713587
0.11214713226375
0.10414802033428
0.097064373792737
0.090811416737329
0.08526828825424
0.080327652093941
0.075901502298436
0.071909342484079
0.06830435640832
0.065009513674431
0.061732290388189
0.090612166615991
0.23790612146566
0.32718122826496
0.48462256537876
0.87062225631082
1.7483096540717
3.4979386492397
7.8913540844562
18.335991258182
38.124077849032
60.137932067117
66.306216386265
63.048564255269
57.898883778049
53.71493955535
52.11431874167
53.863151763733
60.514907522851
74.582971434622
98.968872536143
135.71237477656
185.21327276567
248.39847493111
328.70265776015
428.90574136952
546.27128911485
673.68170040626
803.68797770258
929.66683635366
1048.5350063234
1160.3112496639
1265.9764747593
1365.8111342154
1458.5840228002
1541.4262657775
1609.8562720737
1657.6976468053
1676.2995019078
1656.251365323
1584.6904912994
1450.9312614605
1254.4049089854
1022.4290112947
840.94626285369
772.15436254433
652.31785283405
154.39503989231
9.9868546019601
5.4719965537479
5.4313645526262
5.4092020785141
5.3745791730719
5.3406351435166
5.3089033044703
5.2800584436591
5.2541370452978
5.2309138111512
5.2100481269247
5.1911427670471
5.173836360518
5.1578059991391
5.1427662444006
5.1284707324316
5.1147037722133
5.1012713044949
5.0879437892852
5.0743278503124
5.0594839762811
5.0444157195097
5.0299973430529
5.0129161344209
5.0007501505266
4.9894542270601
4.9792731297388
4.9705498406221
4.963978206772
4.9597127260939
4.9572068008609
4.9555314110317
4.9541605558794
4.9527738633595
4.9513539422727
4.9496535726473
4.9478331947199
4.9461190813184
4.9439525846679
4.9415519575689
4.9394303218862
4.9381943270352
4.9382591510969
4.9395455610487
4.9418261229838
4.9450480122452
4.9488258274776
4.9525444755526
4.9557402016251
4.9583110253588
4.96017827438
4.9612770919823
4.9615256089633
4.9608412653068
4.9592142565338
4.9568408450921
4.954239738098
4.9518820799514
4.9508071092329
0.70662560688088
6.1657459880498
6.0507630802537
3.7279966010334
2.4692601694344
1.8097249613322
1.2476973976702
0.83797454623871
0.65268608112666
0.55734781367668
0.49583909766375
0.43257535800333
0.3492786952203
0.29233850443099
0.25348954884694
0.22452453886095
0.20192656907845
0.18497300115667
0.1692955362706
0.1549992370061
0.1422587436653
0.13099233443642
0.12095315725022
0.11205887144359
0.10418967558969
0.097180384948363
0.090959312299602
0.085387594516449
0.080431597104569
0.075996646919075
0.071903434558228
0.068326609206969
0.065376790768712
0.11947191395864
0.23999225319719
0.32613482516614
0.49073235876652
0.90499215299815
1.8253153232341
4.0771324393467
10.830192990932
29.600992284062
70.941371116016
131.60990277801
169.03713844589
174.64359574699
172.05737775927
171.69673334408
177.2631465684
191.18193359364
215.45814175352
251.25582531963
298.70038158903
357.45715311503
427.04887264845
506.3384030712
592.91449862587
681.84757686118
767.76606496118
848.54366415674
925.92856760264
1002.0469186979
1078.7430734111
1156.5959999444
1234.6922455388
1310.8165674671
1381.7851133904
1443.5327005076
1490.9896944078
1518.1457169714
1518.5629630322
1485.6820167023
1413.2975627595
1299.5589438635
1152.1673717847
993.73340632423
851.89851458015
703.33986866286
410.59525808162
77.670341377594
8.9192760502453
5.4226392282438
5.3939534185313
5.3798516673768
5.3662557621277
5.3415108848954
5.3153013686111
5.289560538583
5.2651654055109
5.2425500433419
5.2217982960505
5.2027689671154
5.1852330334717
5.1689574183668
5.1537108999558
5.1392746371597
5.1254494220789
5.112055172774
5.0989212396504
5.0858231869358
5.072340920059
5.0575779097088
5.0428092822672
5.0286409601733
5.0117797753317
4.9998008097443
4.9886765233719
4.9786577088753
4.9701165898733
4.963705934428
4.9595887213939
4.9571733516608
4.9555393881913
4.9541833174928
4.9528043176837
4.9513995966516
4.949705433228
4.9479343131653
4.9462554879974
4.9440994935682
4.9417438223081
4.9396974779617
4.9385620242512
4.9387428299247
4.9401475899865
4.9425333217937
4.9458176442377
4.9496066263996
4.9533085423876
4.9564776262343
4.9590238507555
4.9608737301106
4.9619624107311
4.9622092513711
4.9615303896103
4.9599079887059
4.9575149484914
4.9548437804688
4.9523970936813
4.9512458180066
0.22451582500017
2.7146366524083
7.0238325180351
5.867152321597
3.9671738219269
2.116506442943
1.4074104271167
0.96442390372669
0.68820603365674
0.55354448168902
0.48029340575152
0.43427202947037
0.38907404338557
0.32654054587285
0.26819102918283
0.22936488959618
0.20180744083423
0.18086374346627
0.16409992929563
0.15105680443098
0.13983004934071
0.12943693851461
0.1200445027581
0.11159933290825
0.10397876010373
0.097074669448813
0.090927930220005
0.085545390818536
0.080753849593778
0.076145533590508
0.072021374541074
0.075208539621349
0.18396933737804
0.25772618592238
0.34976505749796
0.55731945771953
1.062356075765
2.2109507528599
5.5805702797442
17.062217890733
50.616283936045
120.55473317227
209.35930224632
275.26704884187
300.84705290909
304.52593784475
312.27129829001
333.40696369555
366.39296098802
406.90029123237
451.67256882915
498.7563638677
546.91365463556
593.58040107103
634.61749322276
667.41152783365
694.1248499885
719.69395043924
750.54591626561
790.50252425536
839.58575035219
895.38480872698
954.90599111074
1015.1352282124
1072.9638753647
1125.2183867398
1168.457733215
1198.8270080965
1212.1634795359
1204.6588191499
1172.3969771905
1112.7236836987
1025.4468812452
912.74798985437
775.80348964685
602.14683486541
363.55586769652
123.50846820949
24.236189570557
6.4580113548674
5.3533046951578
5.3471357300267
5.346621206971
5.3385991240699
5.3301637327847
5.3121414967745
5.2917967292069
5.2708823278643
5.2503429811393
5.2307272911445
5.2122835792487
5.1950140858765
5.1788290170206
5.1635932928849
5.1491519968798
5.1353443278088
5.1220171776947
5.109022579381
5.0962108205722
5.083355404631
5.0700029586828
5.0553745197853
5.0409460992475
5.0270648299373
5.0104715430509
4.9987082201651
4.9877787624291
4.9779419742898
4.969609808531
4.9633862528267
4.9594344907804
4.9571160964809
4.9555257626169
4.9541849028204
4.9528165526209
4.9514323388766
4.9497465605848
4.9480406534467
4.9464062524705
4.9442642025176
4.9419611476176
4.9400004332103
4.9389777859564
4.9392884969437
4.9408247610297
4.9433242335492
4.946675230793
4.9504760331249
4.9541605264406
4.9573039314145
4.9598282020959
4.9616626322735
4.9627409310694
4.9629810693599
4.9622970163383
4.9606632756865
4.9582318152843
4.9554766432355
4.9529296335022
4.9516937646555
0.078316819866683
1.1328637956526
8.8871213726275
8.4796767961788
6.1012448641075
5.2018210832666
2.946388307608
1.3783264485523
0.80418795416512
0.57429444691111
0.47379842564627
0.41837394601734
0.38450621593944
0.35142841229459
0.309589861853
0.25158268863888
0.21202668295326
0.18479104773094
0.1649666701935
0.14968557292781
0.13718720623854
0.12681249094449
0.11824920083528
0.11040724547447
0.10318818353764
0.096695558035794
0.090830189848429
0.085483198105298
0.080488624330403
0.079795735364324
0.13994408994682
0.23057625320661
0.29477302736982
0.42078452602332
0.74525736887383
1.4602681561188
3.1963427803831
9.2975323864206
31.092556243528
90.313884099061
191.14567007509
295.87726840327
371.11617734002
407.84690820146
410.78512962375