/*--------------------------------*- C++ -*----------------------------------*\
| =========                 |                                                 |
| \\      /  F ield         | OpenFOAM: The Open Source CFD Toolbox           |
|  \\    /   O peration     | Version:  2312                                  |
|   \\  /    A nd           | Website:  www.openfoam.com                      |
|    \\/     M anipulation  |                                                 |
\*---------------------------------------------------------------------------*/
FoamFile
{
    version     2.0;
    format      ascii;
    arch        "LSB;label=32;scalar=64";
    class       volScalarField;
    location    "2e-05";
    object      maxKappa;
}
// * * * * * * * * * * * * * * * * * * * * * * * * * * * * * * * * * * * * * //

dimensions      [0 0 0 0 0 0 0];

internalField   nonuniform List<scalar> 
109340
(
0.12202179305585
0.12325832178856
0.12534796129503
0.12819620589382
0.13183480886521
0.136365064382
0.14191818885939
0.14858945578163
0.15660379713884
0.16630133454866
0.1779110987278
0.19170791017537
0.20799706474837
0.22711723773818
0.24944681278493
0.27541243334185
0.30550074672261
0.34027627486591
0.38040216853361
0.42675934907037
0.48014295954999
0.54173031134109
0.61272534240153
0.69440134028387
0.78783614119315
0.89342555745018
1
1
1
1
1
1
1
1
1
1
0.12216908644091
0.12363721819518
0.12592465499853
0.12893679096844
0.13274851807193
0.13745662948319
0.14318366820703
0.15014074986013
0.15855801834516
0.16868148726702
0.18077244056745
0.19511582155094
0.21202556693233
0.23185020872296
0.25497909188573
0.28185372190954
0.31297750069353
0.34893746661496
0.39042409241517
0.43833910336823
0.49357274290499
0.55728350903955
0.63073033053711
0.71519715392471
0.81168798931969
0.9204205906915
1
1
1
1
1
1
1
1
1
1
0.12198109293856
0.12354414289858
0.1258337171493
0.12879051290765
0.13252354335397
0.13715207388471
0.14284500377523
0.14978288439339
0.15817499762589
0.16826016234519
0.18030226102371
0.19458883774346
0.21143528211047
0.23119079094702
0.25424479464881
0.28103710995954
0.31207043513415
0.34793026121722
0.38931245061936
0.43709871929162
0.49220009330396
0.55577247148203
0.62908441613956
0.71345142257545
0.80992547865287
0.91885090195196
1
1
1
1
1
1
1
1
1
1
0.12172405142106
0.12332793095321
0.12558658131368
0.12851237372412
0.1322024387424
0.13679152369174
0.14244022286699
0.1493332005623
0.15767749177028
0.16770721502424
0.17968420525847
0.1938967224935
0.21066224366777
0.23033245935325
0.2533004076261
0.28001008690978
0.31096901736931
0.34676688180409
0.38812161296852
0.43588102232034
0.49100725942523
0.55465414920263
0.62811619404033
0.71275141489784
0.8096572009269
0.91919699546151
1
1
1
1
1
1
1
1
1
1
0.12124547378844
0.12295769017274
0.12529079424998
0.12821461776971
0.13186023035904
0.13638079240865
0.14195002029103
0.14876268020821
0.15703465647288
0.16701069636461
0.17896157436106
0.19319018916707
0.21003361188049
0.22986856521757
0.25311866802807
0.28026264472058
0.31186747414114
0.34902374356151
0.39265889702751
0.4433270411559
0.5021407643921
0.57031913587606
0.64919720456731
0.7400936868375
0.84375320484771
0.94328057247369
1
1
1
1
1
1
1
1
1
1
0.12045001005017
0.1225955020458
0.12502654470431
0.12809818885447
0.1320163474742
0.13699936182248
0.14329294404344
0.15117897195356
0.16097929917366
0.17305862367891
0.18782691951862
0.20573987083881
0.22730167504516
0.25306926125144
0.28365799650039
0.31974917709364
0.36210178908508
0.41156071613257
0.46907480257142
0.53588337399165
0.61328912421985
0.70250720940832
0.80466143425341
0.92006069456214
1
1
1
1
1
1
1
1
1
1
1
1
1
1
1
1
1
1
1
1
1
1
1
1
1
1
1
1
1
1
1
1
1
1
1
1
1
1
1
1
1
1
1
1
1
1
1
1
1
1
1
1
1
1
1
1
1
1
1
1
1
1
1
1
1
1
1
1
1
1
1
1
1
1
1
1
1
1
1
1
1
1
1
1
1
1
1
1
1
1
1
1
1
0.80253647798416
0.48289285676919
0.3200780290019
0.66356828390574
0.66450607717436
0.66511743463606
0.66536833254106
0.66595918064515
0.66625349323489
0.6664914975716
0.66668716979922
0.66685101156754
0.66699092977694
0.66711294927973
0.66722176639841
0.66732109360396
0.66741392845801
0.66750273746785
0.66758960961466
0.66767611392856
0.66776325743461
0.66785015756181
0.66793515139457
1
1
1
1
1
1
1
1
1
1
1
1
1
1
1
1
1
1
1
1
1
1
1
1
1
1
1
1
1
1
1
1
1
1
1
1
1
1
1
1
1
1
1
1
1
1
1
1
1
1
1
1
1
1
1
1
1
1
1
1
1
1
1
1
1
1
1
1
1
1
1
1
1
1
1
1
1
1
1
1
1
1
1
1
1
1
1
1
1
1
1
1
1
1
1
1
1
1
1
1
1
1
1
1
1
1
1
1
1
1
1
1
1
1
1
1
0.98082246018568
0.6950497418915
0.39583697516728
0.32654332154169
0.66363837322994
0.66452670440813
0.66512928743422
0.66537760145989
0.66596418438061
0.6662570459322
0.66649411688364
0.66668915687008
0.66685255677115
0.66699215862622
0.66711394582631
0.66722259042204
0.66732180000979
0.66741454793948
0.66750328988925
0.66759011088805
0.66767658444035
0.66776369889235
0.66785053969706
0.66793548163377
1
1
1
1
1
1
1
1
1
1
1
1
1
1
1
1
1
1
1
1
1
1
1
1
1
1
1
1
1
1
1
1
1
1
1
1
1
1
1
1
1
1
1
1
1
1
1
1
1
1
1
1
1
1
1
1
1
1
1
1
1
1
1
1
1
1
1
1
1
1
1
1
1
1
1
1
1
1
1
1
1
1
1
1
1
1
1
1
1
1
1
1
1
1
1
1
1
1
1
1
1
1
1
1
1
1
1
1
1
1
0.98734427480436
0.9756864513523
0.94085611568056
0.92065929602402
0.92580881387091
0.95566467112502
0.90091250315081
0.65427702237755
0.37232226766988
0.32784170409588
0.66379400657821
0.66459473773047
0.6651725745417
0.66541261186211
0.66598375562474
0.66627087227401
0.66650415546395
0.66669663090282
0.66685825334007
0.66699659589365
0.66711747376176
0.667225447864
0.66732415138011
0.66741651037908
0.66750494324503
0.66759151474229
0.66767781640686
0.66776476872184
0.66785145022681
0.6679362409548
1
1
1
1
1
1
1
1
1
1
1
1
1
1
1
1
1
1
1
1
1
1
1
1
1
1
1
1
1
1
1
1
1
1
1
1
1
1
1
1
1
1
1
1
1
1
1
1
1
1
1
1
1
1
1
1
1
1
1
1
1
1
1
1
1
1
1
1
1
1
1
1
1
1
1
1
1
1
1
1
1
1
1
1
1
1
1
1
1
1
1
1
1
1
1
1
1
1
1
1
1
1
1
1
1
0.97565534760772
0.89897600723994
0.83511088430221
0.8078843142723
0.76900645478295
0.74061833295168
0.72151426264672
0.71239769547179
0.71623608366015
0.73989009199777
0.81493837990248
0.80685437769116
0.59837208012724
0.34563888934009
0.3293913529693
0.66399028430423
0.66469458845879
0.66523711406035
0.66546518163809
0.66601350839204
0.66629195929679
0.66651949127064
0.66670805693202
0.66686696233411
0.66700337589508
0.66712285679317
0.66722980209323
0.66732773439145
0.66741950147685
0.6675074683346
0.66759366927326
0.66767967582567
0.66776637532744
0.66785283142346
0.6679374235345
1
1
1
1
1
1
1
1
1
1
1
1
1
1
1
1
1
1
1
1
1
1
1
1
1
1
1
1
1
1
1
1
1
1
1
1
1
1
1
1
1
1
1
1
1
1
1
1
1
1
1
1
1
1
1
1
1
1
1
1
1
1
1
1
1
1
1
1
1
1
1
1
1
1
1
1
1
1
1
1
1
1
1
1
1
1
1
1
1
1
1
1
1
1
1
1
1
1
1
1
1
1
0.93221814436514
0.83388881772821
0.77659854618679
0.71559598180899
0.67107356608067
0.63976355390694
0.6166230040411
0.59868098043711
0.58664587732578
0.58093303223058
0.58295014468378
0.59602923354335
0.63256440806818
0.72364376959637
0.72062548669672
0.52795112928791
0.32400342680332
0.33076894601501
0.66420524828754
0.66481826790455
0.66531828239099
0.66553166240388
0.66605163263005
0.66631915587604
0.6665393675031
0.6667229268825
0.66687833634145
0.6670122577752
0.66712992782302
0.66723553412039
0.66733245803641
0.66742344819405
0.66751080173585
0.66759651164552
0.66768211765597
0.6677684861819
0.66785465250666
0.66793899980155
1
1
1
1
1
1
1
1
1
1
1
1
1
1
1
1
1
1
1
1
1
1
1
1
1
1
1
1
1
1
1
1
1
1
1
1
1
1
1
1
1
1
1
1
1
1
1
1
1
1
1
1
1
1
1
1
1
1
1
1
1
1
1
1
1
1
1
1
1
1
1
1
1
1
1
1
1
1
1
1
1
1
1
1
1
1
1
1
1
1
1
1
1
1
1
1
1
1
1
0.96807458582352
0.84912755220223
0.74740884435188
0.68762030650294
0.63127678271894
0.58987795033865
0.55763834371125
0.53396133429688
0.51688596590607
0.50512130700664
0.49803955652883
0.49561739966303
0.49874522395265
0.50942161055129
0.53321855014798
0.58582777081293
0.67227530483713
0.64243454882279
0.45284239484861
0.31642313597909
0.33162072331645
0.66442988901193
0.66496008032938
0.66541300431116
0.66560977984207
0.66609714865822
0.6663518790851
0.66656342317188
0.66674100458041
0.66689221174824
0.66702312217148
0.66713859589049
0.66724257362852
0.66733826842544
0.66742830980588
0.66751491364391
0.66760002105281
0.66768513138632
0.66777109467973
0.66785690825485
0.66794097805683
1
1
1
1
1
1
1
1
1
1
1
1
1
1
1
1
1
1
1
1
1
1
1
1
1
1
1
1
1
1
1
1
1
1
1
1
1
1
1
1
1
1
1
1
1
1
1
1
1
1
1
1
1
1
1
1
1
1
1
1
1
1
1
1
1
1
1
1
1
1
1
1
1
1
1
1
1
1
1
1
1
1
1
1
1
1
1
1
1
1
1
1
1
1
1
1
1
0.94329085798519
0.84597274175181
0.74232107180915
0.6579335345793
0.59669698734834
0.54805663434244
0.51231091461079
0.48628673472931
0.46765260579122
0.45473024827627
0.44665607456735
0.44246397962661
0.44192094593637
0.44526086886579
0.45364715899472
0.46957897741959
0.49999777961141
0.55887817358299
0.62477295826813
0.59689801743917
0.42904771450931
0.31700688281125
0.33171739695303
0.66466001433963
0.66511389505193
0.66551798272837
0.66569705971826
0.66614895365623
0.66638948109827
0.66659126842157
0.66676204779834
0.66690843677231
0.66703587336518
0.66714880027469
0.66725088145956
0.66734513917927
0.66743406727862
0.66751978943235
0.66760418677189
0.66768870905815
0.6677741901928
0.66785957657036
0.66794334738327
1
1
1
1
1
1
1
1
1
1
1
1
1
1
1
1
1
1
1
1
1
1
1
1
1
1
1
1
1
1
1
1
1
1
1
1
0.78056743875121
1
1
1
1
1
1
1
1
1
1
1
1
1
1
1
1
1
1
1
1
1
1
1
1
1
1
1
1
1
1
1
1
1
1
1
1
1
1
1
1
1
1
1
1
1
1
1
1
1
1
1
1
1
1
1
0.92983356080869
0.84711487885237
0.75801691771777
0.67593955960195
0.6063637810891
0.54536797225853
0.49504098895666
0.45635071429825
0.42803248343537
0.40473903586558
0.39217411593408
0.38442602015893
0.38038183827043
0.3793299283687
0.38083162797882
0.38521230387108
0.39201381842416
0.40322984137007
0.41936106001964
0.44255445491104
0.47594053773198
0.52005097293987
0.55329995729791
0.52433276160692
0.39996102161541
0.31476432982151
0.33157514664275
0.33245453333565
0.66511572578423
0.66543683151716
0.66574594929274
0.665889299281
0.66626683400179
0.66647633336285
0.66665641936749
0.66681180090972
0.66694711060122
0.667066467586
0.66717341703847
0.66727101342017
0.66736184968002
0.66744811209569
0.66753171277415
0.66761435668811
0.66769749244389
0.66778180632185
0.66786622782139
0.66794924184664
1
1
1
1
1
1
1
1
1
1
1
1
1
1
1
1
1
1
1
1
1
1
1
1
1
1
1
1
1
1
1
1
1
1
1
1
0.32987908293307
1
1
1
1
1
1
1
1
1
1
1
1
1
1
1
1
1
1
1
1
1
1
1
1
1
1
1
1
1
1
1
1
1
1
1
1
1
1
1
1
1
1
1
0.95941923989842
0.92414336004951
0.9151808990136
0.91873669448974
0.92410700226667
0.92354545418131
0.91297699909221
0.88839886859639
0.84771179361823
0.79246700400176
0.72799532783857
0.66099720686013
0.59901961326969
0.54022095474198
0.4883567667354
0.44537499018844
0.4121336409297
0.38808598936883
0.36849631000583
0.35843693021995
0.35302145503858
0.35149198558453
0.35215544093895
0.35453532240031
0.35920771351309
0.36557727925641
0.37365836898894
0.38386139597682
0.39676963889856
0.41313433171214
0.43364470829493
0.45775292607934
0.48016796550853
0.49337695364696
0.46014757262022
0.37549146537823
0.31393675370481
0.3308575356262
0.33271736561748
0.33272616810065
0.66554241049298
0.66575240712325
0.66598050815929
0.66609090030628
0.6663962871148
0.66657391673547
0.66673095021031
0.66686957373477
0.66699259843592
0.66710282336699
0.66720291775194
0.66729530937407
0.66738213145329
0.66746523595183
0.6675463026597
0.66762686027294
0.66770831450408
0.66779122230834
0.66787448582183
0.66795646351016
1
1
1
1
1
1
1
1
1
1
1
1
1
1
1
1
1
1
1
1
1
1
1
1
1
1
1
1
1
1
1
1
1
1
1
1
0.29409274040102
0.71690114673409
1
1
1
1
1
1
1
1
1
1
1
1
1
1
1
1
1
1
1
1
1
1
1
1
1
1
1
1
1
1
1
1
1
1
1
1
1
1
1
1
0.93319189904125
0.79279669924426
0.71041823694521
0.67626998730629
0.6598388909862
0.65247201766002
0.64615723395751
0.63673784086331
0.62156829023853
0.59935744554358
0.56915458826814
0.53270766029417
0.49246452965488
0.45198478586245
0.41505240517147
0.38512699601728
0.3633111156572
0.34885520364247
0.34039461144715
0.33570910443263
0.33521951333047
0.33707524146091
0.34084305305939
0.34553866072056
0.35110971579569
0.35751644868404
0.36476859793393
0.3730594925674
0.38272316898314
0.39379345616536
0.40608669449288
0.41863818470701
0.43156496944782
0.43924375211672
0.4285391854759
0.39098731091454
0.33685056237419
0.31997540282841
0.33152029643418
0.33307642143388
0.33300057519957
0.33295230758692
0.6659169829824
0.6660454278332
0.66620620918737
0.66628900781661
0.66652953060386
0.66667686439635
0.66681116326884
0.66693278607587
0.66704304173723
0.66714361709653
0.66723634979972
0.66732306695624
0.66740545570033
0.66748503587664
0.66756325413799
0.66764143209875
0.6677209828995
0.66780228242693
0.66788420793326
0.66796498563432
1
1
1
1
1
1
1
1
1
1
1
1
1
1
1
1
1
1
1
1
1
1
1
1
1
1
1
1
1
1
1
1
1
1
1
1
0.29827594398553
0.30852242329454
0.88182240387769
1
1
1
1
1
1
1
1
1
1
1
1
1
1
1
1
1
1
1
1
1
1
1
1
1
1
1
1
1
1
1
1
1
1
1
1
1
1
0.82728330406641
0.69357385298376
0.60601484763352
0.54750404030835
0.51286415536557
0.49002617748298
0.47618586914794
0.46611994774747
0.45612014252779
0.4437622527903
0.42763565333967
0.40769508335399
0.38553820197241
0.36427643393607
0.34655381098513
0.33411942683948
0.32709221245152
0.32380934881718
0.32471092821233
0.32767201013938
0.33139305809476
0.33546333385557
0.33970990489063
0.34428028907242
0.34913844001632
0.35433410266722
0.35989420556563
0.36584142338778
0.37250003565063
0.37967132455604
0.38603454784174
0.39023516284399
0.38980010144694
0.3811775037631
0.36141578653123
0.33399561021609
0.31572314566573
0.32724703060343
0.33293102970597
0.33345381476964
0.33331142141138
0.33319132972007
0.33313601431885
0.66623210820399
0.6663064705111
0.66641508956353
0.6664750311804
0.66666078365052
0.6667806875607
0.66689378048673
0.66699906547622
0.66709671306683
0.66718755172124
0.66727273759125
0.66735355563924
0.66743126268639
0.66750707726341
0.66758218131043
0.66765782698848
0.66773528086454
0.66781480890223
0.66789525510814
0.6679746929395
1
1
1
1
1
1
1
1
1
1
1
1
1
1
1
1
1
1
1
1
1
1
1
1
1
1
1
1
1
1
1
1
1
1
1
1
0.30249483042072
0.30386035692883
0.34366361649633
0.83868191054002
1
1
1
1
1
1
1
1
1
1
1
1
1
1
1
1
1
1
1
1
1
1
1
1
1
1
1
1
1
1
1
1
1
1
1
0.89891436794641
0.73008301381688
0.6165825295333
0.53701550530469
0.4757765824
0.42979321168811
0.39612440034516
0.37665995160367
0.3664477627319
0.35991875872939
0.3536199361219
0.34619491231351
0.33765420977266
0.32910256128067
0.32211207618276
0.31727636560191
0.31616245103974
0.31835577081532
0.32128287962671
0.32419572154132
0.32708735251072
0.32977487918657
0.33251912690204
0.33507668472759
0.33763259833421
0.34032554792002
0.34299807773804
0.34557401608128
0.3485038420251
0.35031607832684
0.35106522259024
0.34999666508615
0.34618952096068
0.33911798157041
0.32930023088925
0.31972603153731
0.32043205411841
0.32748189652756
0.33234218872888
0.3337763311072
0.33377133645921
0.33358579626427
0.33343704594386
0.33333613346605
0.33328127006226
0.6664974179249
0.66653298982272
0.66660312827088
0.66664529642538
0.66678569427774
0.66688215211704
0.66697616507653
0.66706633288346
0.66715205370866
0.66723345137313
0.66731116977281
0.6673860515676
0.66745899050865
0.66753091522051
0.66760276189277
0.66767576092297
0.66775098841296
0.66782861714982
0.66790746991339
0.66798545615627
1
1
1
1
1
1
1
1
1
1
1
1
1
1
1
1
1
1
1
1
1
1
1
1
1
1
1
1
1
1
1
1
1
1
1
1
0.30331631720642
0.31283118443902
0.30753123278902
0.34607580232392
0.65254899874773
1
1
1
1
1
1
1
1
1
1
1
1
1
1
1
1
1
1
1
1
1
1
1
1
1
1
1
1
1
1
1
1
0.97167569628252
0.77884969405102
0.64406247019086
0.5515223732727
0.48170238382647
0.4268819795583
0.37978758757754
0.34601548989923
0.32782617653492
0.32051657276801
0.31749740492445
0.31538995371526
0.31340424058952
0.31205470059003
0.31237294695228
0.31436289256678
0.31675976472257
0.31906109558329
0.32100201623925
0.32241967013927
0.32352132369559
0.32442821567474
0.32521680449942
0.32586757598622
0.32621394468649
0.32644158436088
0.32654697487971
0.3264542918412
0.3260931940822
0.32538494120823
0.32421819799564
0.32255609850054
0.32054142164234
0.31783690137032
0.31947364550052
0.32330971723002
0.32722511828099
0.3307679195334
0.3330544858576
0.33398614834166
0.33406880834627
0.33394900619695
0.33379128444631
0.33364786400394
0.33353104303884
0.333446910177
0.33339556505849
0.66671749689122
0.66672693112885
0.66676929433639
0.66683036741849
0.66690216177991
0.66697874248462
0.6670563805933
0.66713299085744
0.66720771950746
0.66728025845743
0.66735081828572
0.66741989414006
0.66748809767332
0.66755607307229
0.66762466625207
0.66769496254231
0.66776787852008
0.6678435178773
0.66792068603859
0.66799715124498
1
1
1
1
1
1
1
1
1
1
1
1
1
1
1
1
1
1
1
1
1
1
1
1
1
1
1
1
1
1
1
1
1
1
1
1
0.30321454952908
0.31659105865308
0.32034995656793
0.31041750188127
0.32915152118988
0.5317580975272
0.92373953691123
1
1
1
1
1
1
1
1
1
1
1
1
1
1
1
1
1
1
1
1
1
1
1
1
1
1
1
1
1
0.81261395647478
0.66784007010707
0.56830214968721
0.49360735509442
0.43609016162267
0.38654473828681
0.34686007006375
0.32089083493128
0.30972634914145
0.3105216388471
0.31338067010183
0.31553345468689
0.31726432686723
0.31896229511291
0.32063717330281
0.32215144522169
0.32334173945714
0.32413049142586
0.32454087565087
0.32463246853331
0.32449333188442
0.32426273349466
0.3239955415281
0.32373166894694
0.32350619921914
0.32335688061093
0.32332881924447
0.32347435844861
0.32385511995196
0.32450273247932
0.32531072425957
0.32641549777932
0.32778159461339
0.3293050513
0.33079815798964
0.33210775394109
0.33318856234864
0.33390741044239
0.33418075054151
0.33420892920422
0.33415038370673
0.33404514816773
0.33392584592455
0.33380568914366
0.33369509843326
0.33360240619834
0.33353235869
0.33348584368436
0.66689536029633
0.66689165369813
0.66690010588098
0.66695572600657
0.66700905620471
0.66706925528953
0.66713286915036
0.66719777691763
0.66726269035678
0.66732707950558
0.66739093287771
0.66745447970888
0.66751803969592
0.66758217001867
0.66764758197447
0.6677151646121
0.66778572783512
0.66785932229072
0.66793473041145
0.66800965135082
1
1
1
1
1
1
1
1
1
1
1
1
1
1
1
1
1
1
1
1
1
1
1
1
1
1
1
1
1
1
1
1
1
1
1
1
0.30293610616476
0.31676606204763
0.32491949535211
0.32416907443811
0.31387059890105
0.31381524856295
0.40198638885278
0.63884635106563
0.95967406159025
1
1
1
1
1
1
1
1
1
1
1
1
1
1
1
1
1
1
1
1
1
1
1
1
1
0.81199238119318
0.67158068844384
0.57395084680538
0.50306876564313
0.44300725140269
0.39389266538594
0.3539838056052
0.32481195418942
0.30934807729109
0.31251199761537
0.31874314663649
0.3227701903832
0.32500032487154
0.32638626222663
0.32736174192792
0.32807945716935
0.32860305882152
0.32897574657291
0.32924001835006
0.32944088661043
0.32960859290322
0.3297620908204
0.32991412732056
0.33007329676648
0.330246120559
0.3304386108463
0.33065610112871
0.33090385683623
0.3311852053841
0.33149644231878
0.33183445340146
0.33220001369438
0.3325832614342
0.33299255110782
0.33340400669172
0.33376657866462
0.33401400753646
0.33415442158426
0.33421655451017
0.3342241882243
0.33420164559358
0.33415263498601
0.33408534244058
0.33400234614765
0.33391071779821
0.33381800078231
0.33373153386158
0.33365728335374
0.33359893331537
0.33355772949719
0.66704189078407
0.66703368489105
0.66703276619379
0.66706698455196
0.66710603066103
0.66715306708272
0.66720500321396
0.66725977283563
0.66731605692845
0.66737314714477
0.66743082404459
0.66748916173387
0.66754839873106
0.66760888917099
0.66767120461457
0.66773611698608
0.66780432732758
0.66787585162146
0.66794947253293
0.66802282557253
1
1
1
1
1
1
1
1
1
1
1
1
1
1
1
1
1
1
1
1
1
1
1
1
1
1
1
1
1
1
1
1
1
1
1
1
0.30267432651174
0.31618226871169
0.32606577090284
0.32923383569336
0.32661529340465
0.31776537644485
0.30733320761772
0.33322052100393
0.43660146197741
0.62332406390755
0.86191935405943
1
1
1
1
1
1
1
1
1
1
1
1
1
1
1
1
1
1
1
1
0.92164822550961
0.76508421648001
0.64661616788057
0.56530277647411
0.49629506385451
0.44081254684292
0.39498873561981
0.35751032094693
0.32899450449011
0.31160675053246
0.31185707120759
0.32017415131906
0.32621335764058
0.32903466373991
0.33030383470378
0.33066197175861
0.33112289305295
0.33168738617905
0.33190310738409
0.33207152338819
0.33220840353041
0.33232483126468
0.3324306302147
0.33252868260209
0.33262400248169
0.33272140284968
0.33282393945526
0.33293387517059
0.33304945535879
0.33317282611336
0.33330549010787
0.33344125083973
0.33357614144508
0.33370321587641
0.33381605086267
0.33391057605464
0.33399554168334
0.33406141747338
0.33410940956005
0.33414219749314
0.33415971688976
0.33416256317716
0.33415425169874
0.33413023777416
0.33409057202727
0.33403691760448
0.33397227756353
0.33390090746378
0.33382841837048
0.33376001801488
0.33370005613354
0.33365143294164
0.33361549377113
0.6671629800399
0.66715240322863
0.66714593766311
0.66716507758375
0.66719331069055
0.66722994823654
0.66727234438819
0.66731857242366
0.66736735286978
0.66741795470748
0.6674700736138
0.66752367043872
0.66757885881959
0.66763590299923
0.66769526301095
0.66775758805631
0.66782348395738
0.6678929421086
0.66796476562334
0.66803654150522
1
1
1
1
1
1
1
1
1
1
1
1
1
1
1
1
1
1
1
1
1
1
1
1
1
1
1
1
1
1
1
1
1
1
1
1
0.30245842706375
0.31554524432416
0.32574405164085
0.33067893876001
0.33134200416148
0.32870020492642
0.32252043398479
0.31331853917204
0.30896682376235
0.33745470809947
0.41323290037407
0.53603014289784
0.68815444446198
0.85337323937639
1
1
1
1
1
1
1
1
1
1
1
1
1
1
0.90566832281884
0.78608247251337
0.68260237897416
0.59842979597084
0.52899482670747
0.4723886588149
0.42551912237181
0.38623738908464
0.35391681559144
0.32899597600899
0.31290563011375
0.31090828999509
0.31935377270578
0.32663060343165
0.33026754280122
0.33171927977192
0.33232217554937
0.33263274949454
0.33283416305662
0.3329820928639
0.33309868200512
0.33319627290207
0.3332791482293
0.33335065895146
0.33341222967623
0.33346504721136
0.33351073944468
0.33355134179319
0.33358857335941
0.33362406791762
0.33365930145783
0.33369496535867
0.33373143266648
0.33377251211459
0.33381445707416
0.33385614234265
0.33389734623814
0.33393753480998
0.33397613518785
0.33401262425244
0.33404509131765
0.3340723988456
0.3340926963369
0.33410419058159
0.33410515589808
0.33409706662517
0.33407680198882
0.33404483300285
0.33400204909731
0.33395077789534
0.33389457351872
0.33383726949855
0.33378264015604
0.33373390359055
0.33369338004535
0.3336623113054
0.66726333752278
0.66725195952318
0.66724200528577
0.66725119716553
0.66727146350667
0.66730002199186
0.66733472655316
0.6673738568823
0.66741623998438
0.66746118615775
0.66750836275938
0.66755765984278
0.66760911693249
0.66766293601816
0.66771950714136
0.66777936995675
0.66784302259609
0.66791044339472
0.66798047554161
0.66805067184466
1
1
1
1
1
1
1
1
1
1
1
1
1
1
1
1
1
1
1
1
1
1
1
1
1
1
1
1
1
1
1
1
1
1
1
1
0.30228621785246
0.3149989205844
0.32518478705395
0.33073850757466
0.33255400202304
0.33254323513824
0.33084153139472
0.32695778250436
0.32070475020774
0.3125390448819
0.30810358880741
0.32612037178612
0.36566237227951
0.430454317883
0.50886178366873
0.59092667280348
0.67123353473081
0.74457990998376
0.80400282163848
0.84648809197198
0.87021133004397
0.8749656402306
0.86195479340805
0.83161291481737
0.78623789711996
0.73049879961995
0.67129317436958
0.61512403740726
0.56177397638493
0.51340914977032
0.46975217061575
0.43067213988164
0.3962751430015
0.36678731777924
0.34233541406001
0.32364907867901
0.31140326448825
0.31121273690418
0.31900189063921
0.32627684479703
0.33036885496801
0.33212989751178
0.33287053441164
0.33319578208974
0.33335889720554
0.3334556208605
0.33351977410038
0.33356538252498
0.33359911983289
0.33362472794914
0.33364436049352
0.33365959220621
0.33367257734529
0.33368452609607
0.33369571609018
0.33370718401642
0.33371971471447
0.3337340777725
0.33375071348893
0.33376981951198
0.33379160276232
0.33381600958055
0.33384270298011
0.33387132707296
0.33390130908032
0.33393176603289
0.33396181142158
0.33399016849002
0.33401605045626
0.33403732797236
0.3340527227785
0.33406085515795
0.33406083804279
0.33405339209376
0.33403644100122
0.33401055815492
0.33397610196418
0.33393529888322
0.33389063040787
0.3338449150002
0.33380094456073
0.33376112736948
0.33372733919096
0.33370064970149
0.66734689228748
0.66733568992842
0.66732337005114
0.66732671486701
0.66734123205201
0.66736362231894
0.66739219807101
0.66742549935673
0.66746249817121
0.66750257735931
0.66754541082564
0.66759085657399
0.66763891828159
0.66768976433924
0.66774373097668
0.66780127079202
0.66786278688667
0.66792822095609
0.66799647518681
0.66806509410964
1
1
1
1
1
1
1
1
1
1
1
1
1
1
1
1
1
1
1
1
1
1
1
1
1
1
1
1
1
1
1
1
1
1
1
1
0.30215237889112
0.31455955610144
0.32465775058837
0.33045939048023
0.33272486381293
0.33331060500216
0.33323526368497
0.33240069093924
0.33038932821492
0.32692442991153
0.32160292572719
0.31470068511089
0.30835242419437
0.31187822995625
0.32687214444872
0.35026553167404
0.38000043074526
0.41235589482539
0.44233536082706
0.46706162825697
0.4845518223925
0.49392690694458
0.49448214994285
0.48782341976471
0.47523054481439
0.45854910807949
0.43939792944454
0.41891065450661
0.39781577485236
0.37702066168803
0.35739712943481
0.33990290034009
0.32544953250464
0.31469146501421
0.30880906449273
0.31363155368565
0.32042653645387
0.32669560737216
0.33043342991772
0.33230309210193
0.33314246807561
0.33343961234829
0.33354558501092
0.33359339297604
0.33362146444106
0.33364125285261
0.33366010977942
0.33367377631462
0.33368497635971
0.33369425946684
0.33370203186029
0.33370881965095
0.33371513651424
0.33372150964313
0.33372854224075
0.33373669350931
0.3337464099287
0.33375807774618
0.33377189959214
0.33378804038932
0.33380655212056
0.33382724552516
0.33384983853518
0.33387395368892
0.33389899150735
0.33392424947147
0.33394892381978
0.33397203892889
0.33399252041199
0.33400944781027
0.33402126104368
0.33402706155968
0.33402653097441
0.33401991920568
0.33400601776391
0.33398464193721
0.33395688768098
0.33392419176198
0.33388842121738
0.33385167589181
0.33381605476492
0.33378339205558
0.33375520452585
0.33373239490857
0.66741693581341
0.66740637933715
0.66739132063364
0.66739299338624
0.66740344792516
0.66742119621883
0.66744494699677
0.66747351469326
0.66750603323398
0.66754197069485
0.6675810276404
0.6676230603645
0.66766806667316
0.6677162015517
0.66776776430497
0.6678231371332
0.66788263188062
0.66794614911356
0.66801264992386
0.66807970008703
1
1
1
1
1
1
1
1
1
1
1
1
1
1
1
1
1
1
1
1
1
1
1
1
1
1
1
1
1
1
1
1
1
1
1
1
0.30204865722608
0.31420457126589
0.32420198180816
0.33014940164685
0.33263853687537
0.33344639460626
0.33363957663248
0.33359870231037
0.3332771620817
0.33249116744702
0.33091774596204
0.32836139609547
0.32467516988749
0.31961593892593
0.31420381605409
0.30937151866545
0.30779507868601
0.31031064211235
0.32054842753615
0.32846207334837
0.33587963345632
0.34168679098953
0.34507011068392
0.34563746789018
0.34386277585104
0.34008122966891
0.3347626560839
0.32845705819078
0.32185910516362
0.31561828198871
0.31034311487801
0.30904047269442
0.31312014787982
0.31832994601426
0.32387320271072
0.32828898184987
0.33100796023065
0.33258680115192
0.33330488484782
0.33354340055696
0.3336140126188
0.33363915154283
0.33365299794164
0.33366310518896
0.33367222922332
0.3336788683715
0.33368962327942
0.33369779778477
0.33370545557621
0.33371255229551
0.3337191590548
0.3337254645053
0.3337317164992
0.33373825148825
0.33374542249244
0.33375356344074
0.33376301158928
0.33377401743612
0.33378675946013
0.33380135843566
0.33381777710729
0.33383585383842
0.33385535109918
0.33387590181552
0.33389700676979
0.33391809290145
0.33393847806102
0.33395737034401
0.33397391517802
0.33398720428661
0.33399635502072
0.33400052731956
0.33400013102601
0.33399435839097
0.33398260727375
0.33396515333402
0.33394269603551
0.33391634411172
0.33388751730356
0.33385779827442
0.33382878813999
0.33380191165484
0.33377838079113
0.33375896251664
0.66747614389598
0.66746649351012
0.66745373998122
0.66745129464382
0.66745893905623
0.66747324868065
0.6674932491042
0.66751801747606
0.66754684736588
0.66757929420194
0.66761509764348
0.66765413448698
0.66769641874978
0.66774210480204
0.66779146611535
0.66784483258604
0.66790243570581
0.6679641196029
0.66802890372003
0.66809440104915
1
1
1
1
1
1
1
1
1
1
1
1
1
1
1
1
1
1
1
1
1
1
1
1
1
1
1
1
1
1
1
1
1
1
1
1
0.30196208664251
0.3139080334063
0.32381342923816
0.32986456781676
0.33252158873295
0.33341470023166
0.33370596754675
0.33377285253244
0.333758805758
0.33366044528347
0.33342415764789
0.33293575733165
0.33202727012093
0.33054399850068
0.32847957917412
0.32581542450972
0.32252877656101
0.31898638699994
0.31575887433636
0.31317022345612
0.31101504263377
0.30961060023702
0.30889639868606
0.30867394672316
0.30884417874463
0.30941599606118
0.31052887550342
0.31240587042025
0.31488366422983
0.31787317834643
0.32142764509371
0.32507810396
0.32817945882289
0.33045990515072
0.33206670809451
0.33303701458258
0.33346412997416
0.33361086534563
0.33365316129532
0.33366680391222
0.33367189845584
0.33367572264945
0.33368014781648
0.33368552004021
0.33369171899196
0.33369675634885
0.3337055349211
0.33371261834011
0.33371957041538
0.33372631061432
0.3337328553671
0.33373929868419
0.33374580369396
0.33375259982329
0.33375993317684
0.33376806504005
0.33377724100073
0.33378765414563
0.33379945049184
0.33381268437391
0.33382729954054
0.33384316564271
0.33386005296722
0.33387763038107
0.33389551306476
0.33391320774904
0.33393014694777
0.33394568936472
0.3339560146113
0.3339697974358
0.33397698048184
0.3339800544232
0.33397952237967
0.3339745606963
0.33396482184365
0.3339505524411
0.33393231502453
0.3339109750972
0.33388762764501
0.33386346971663
0.3338397440173
0.33381756934964
0.33379791199949
0.33378143300247
0.66749702741939
0.66751803100477
0.66750617333407
0.66750269476622
0.66750850274635
0.66752030416836
0.66753743256189
0.6675591886603
0.6675850114421
0.6676145409417
0.66764756462931
0.66768399494482
0.66772387571876
0.66776736825494
0.66781472629416
0.66786624173857
0.66792208352438
0.66798203602143
0.66804515798512
0.66810911603791
1
1
1
1
1
1
1
1
1
1
1
1
1
1
1
1
1
1
1
1
1
1
1
1
1
1
1
1
1
1
1
1
1
1
1
1
0.30189114807011
0.31366122037462
0.32348384147037
0.32961201348717
0.33240523485256
0.33336721272292
0.33369387045958
0.33379803777728
0.33382197503866
0.33381734384552
0.33379025115501
0.33373339408362
0.33362085484663
0.33341312218782