/*--------------------------------*- C++ -*----------------------------------*\
| =========                 |                                                 |
| \\      /  F ield         | OpenFOAM: The Open Source CFD Toolbox           |
|  \\    /   O peration     | Version:  2312                                  |
|   \\  /    A nd           | Website:  www.openfoam.com                      |
|    \\/     M anipulation  |                                                 |
\*---------------------------------------------------------------------------*/
FoamFile
{
    version     2.0;
    format      ascii;
    arch        "LSB;label=32;scalar=64";
    class       volScalarField;
    location    "2e-05";
    object      minKappa;
}
// * * * * * * * * * * * * * * * * * * * * * * * * * * * * * * * * * * * * * //

dimensions      [0 0 0 0 0 0 0];

internalField   nonuniform List<scalar> 
109340
(
0.09752131461739
0.09843953051321
0.10002611318687
0.10222656903444
0.10505363550487
0.10858179226442
0.11291506948224
0.11812162911854
0.12439421359075
0.13197781405133
0.14106595954817
0.15187530698513
0.16464705042978
0.17964929999071
0.19718037867458
0.21757648359136
0.24122067163369
0.26855645482741
0.30010497900604
0.33654756535497
0.37853034732714
0.42696233077298
0.48280045308263
0.54706919260121
0.62066694590828
0.70407860980119
0.79601400358007
0.89488803633017
1
1
1
1
1
1
1
1
0.12092107948795
0.12225790518032
0.12442936563441
0.12732809023743
0.13101193886843
0.1355810144593
0.14114648491989
0.14787971633487
0.1560317439882
0.16584886761403
0.17755013248014
0.19130218669575
0.20753909641797
0.22660027516464
0.24886399446506
0.27475754523398
0.3047678820401
0.33945812636043
0.37949138204543
0.42573857129069
0.47901775456673
0.54049501992921
0.61138379133116
0.69298377639327
0.78640626818208
0.89212659312589
1
1
1
1
1
1
1
1
1
1
0.12150774730196
0.12292981214869
0.12513201185591
0.12798881380587
0.13151076693594
0.13590182553398
0.14131284764892
0.14792078560424
0.15592804566864
0.16556609736232
0.17709299176036
0.19079004858085
0.20696520726405
0.22595867054796
0.24814899175809
0.27396225867928
0.3038844143592
0.33847684019984
0.37840466342209
0.42451358992623
0.4776782488373
0.53902093950583
0.60976963794354
0.69125765163767
0.78463555640007
0.89047603558406
1
1
1
1
1
1
1
1
1
1
0.12134178853817
0.12284989990085
0.12496379988644
0.12771318440286
0.1312017459012
0.13555182816007
0.1409189262507
0.14748239446792
0.15544305302778
0.16502789661775
0.17649212037685
0.19011718266874
0.20621292457255
0.22512189632745
0.24722599204408
0.27295521716418
0.30280092324729
0.33732718044207
0.37721293929631
0.42329173512257
0.47647439931948
0.53788331435692
0.60875457022821
0.69047770625547
0.78424203572603
0.89064668413234
1
1
1
1
1
1
1
1
1
1
0.12083641456581
0.12245731708678
0.12465656945993
0.12742164380675
0.13087316704514
0.13515944310209
0.14044919429894
0.1469316111666
0.15481685912088
0.16434268134138
0.17577270022476
0.18940169207829
0.20555775775366
0.22460707441397
0.24696091897366
0.2730822049991
0.30351719043911
0.33887420882575
0.37990766835037
0.4274646568002
0.48256244605896
0.54639070835036
0.62019783829115
0.7054506985875
0.80322667354276
0.91179986187747
1
1
1
1
1
1
1
1
1
1
0.11999579417636
0.12206513843634
0.12436787797451
0.12725920874091
0.13094583304157
0.13564088724383
0.14158205694546
0.14904108736654
0.15833057504246
0.16980351386538
0.18385864106192
0.20094005149718
0.22153964705811
0.2462005472697
0.27552271838763
0.3101703850639
0.3508821864711
0.39847836690151
0.45387489349639
0.51824118648209
0.59286541496406
0.67908138771985
0.77787273237911
0.89000500956155
0.89831579191693
1
1
1
1
1
1
1
1
1
1
1
1
1
1
1
1
1
1
1
1
1
1
1
1
1
1
1
1
1
1
1
1
1
1
1
1
1
1
1
1
1
1
1
1
1
1
1
1
1
1
1
1
1
1
1
1
1
1
1
1
1
1
1
1
1
1
1
1
0.99992465198364
0.9973669041514
0.99464662842325
0.99172438023721
0.98860880787367
0.98530230467128
0.9818323891427
0.97823281499033
0.97454504246133
0.97077789889656
0.96694075473397
0.96303798629995
0.95906824383524
0.95514331508944
0.95149016027457
0.94726921950251
0.942482451614
0.93748445119317
0.93217611911407
0.92615674376535
0.91823967904186
0.9096713356008
0.89461066485136
0.82763005143173
0.60743184099365
0.35118619075934
0.25365943601801
0.51014075278409
0.59052033991813
0.59109838731776
0.59154383779871
0.59189149032801
0.59216728592409
0.59238951958268
0.59257148815994
0.59272317311265
0.5928520880883
0.5929639303
0.59306312287099
0.5931531484151
0.59323680914275
0.59331639144772
0.59339383305422
0.59347070330032
0.59354801732378
0.59362546430606
0.59370167203375
0.59379285865325
0.59386261728995
0.59392765466097
0.5939871619826
0.59403985482525
0.59408286026249
0.59411880093066
0.59415052325525
0.59417931954701
0.59420414735147
0.59422413385645
0.59423954828349
0.59425088240512
0.59425785946013
0.59426090011598
0.59426168343307
0.59425993315856
0.5942552538171
0.59424818106038
0.59423956417589
0.59423039902469
0.59421987547052
0.59420684963398
0.59419145330672
0.59417418199004
0.5941565873881
0.59413913731149
0.59412207051296
0.59410516152315
0.59408830799872
0.59407144545239
0.59405453625314
0.5940372885945
0.59402013769809
0.5940026422866
0.59398448305949
1
1
1
1
1
1
1
1
1
1
1
1
1
1
1
1
1
1
1
1
1
1
1
1
1
1
1
1
1
1
1
1
1
1
1
1
1
1
1
1
1
1
1
1
1
1
1
1
1
1
1
1
1
1
1
1
1
1
1
1
1
1
1
1
1
1
1
1
1
1
1
1
1
1
1
1
1
1
1
1
0.92644678008986
0.61648904265909
0.34421486836304
0.32103646356883
0.5151169138741
0.59052033991813
0.59109838731776
0.59154383779871
0.59189149032801
0.59216728592409
0.59238951958268
0.59257148815994
0.59272317311265
0.5928520880883
0.5929639303
0.59306312287099
0.5931531484151
0.59323680914275
0.59331639144772
0.59339383305422
0.59347070330032
0.59354801732378
0.59362546430606
0.59370167203375
0.59379285865325
0.59386261728995
0.59392765466097
0.5939871619826
0.59403985482525
0.59408286026249
0.59411880093066
0.59415052325525
0.59417931954701
0.59420414735147
0.59422413385645
0.59423954828349
0.59425088240512
0.59425785946013
0.59426090011598
0.59426168343307
0.59425993315856
0.5942552538171
0.59424818106038
0.59423956417589
0.59423039902469
0.59421987547052
0.59420684963398
0.59419145330672
0.59417418199004
0.5941565873881
0.59413913731149
0.59412207051296
0.59410516152315
0.59408830799872
0.59407144545239
0.59405453625314
0.5940372885945
0.59402013769809
0.5940026422866
0.59398448305949
1
1
1
1
1
1
1
1
1
1
1
1
1
1
1
1
1
1
1
1
1
1
1
1
1
1
1
1
1
1
1
1
1
1
1
1
1
1
1
1
1
1
1
1
1
1
1
1
1
1
1
1
1
1
1
1
1
1
1
1
1
1
1
1
1
1
1
1
1
1
1
0.99326884414619
0.93085977619346
0.8996711469101
0.85999334462661
0.83008914490178
0.81148201164467
0.80750819907412
0.82315597722735
0.88079105140185
0.85303794415025
0.58149265958443
0.33189462086546
0.32330088070416
0.51882604365311
0.64960740160915
0.65022844364639
0.65071078498375
0.65108904195428
0.65138991852188
0.65163278053364
0.65183187404134
0.65199798375774
0.65213926188562
0.65226190434402
0.65237072773565
0.65246955634499
0.6525614359843
0.65264886306967
0.65273395898424
0.65281845960912
0.65290345853643
0.65298856738588
0.65307230003958
0.65317252581302
0.65324922021375
0.6533207117194
0.65338609139791
0.65344396103921
0.65349121576669
0.65353073218855
0.65356561316177
0.65359727312631
0.65362457290122
0.65364652615104
0.65366345876116
0.65367580839331
0.65368367853903
0.65368725306166
0.65368778217358
0.65368575361119
0.65368059386575
0.65367279748978
0.65366333302051
0.65365324787472
0.65364163197922
0.65362728166374
0.65361031923967
0.65359132174083
0.65357189749449
0.65355270387945
0.65353388479945
0.65351525691688
0.65349672111561
0.65347819940746
0.65345958833997
0.65344068651766
0.65342186888694
0.65340274403364
0.6533828689905
1
1
1
1
1
1
1
1
1
1
1
1
1
1
1
1
1
1
1
1
1
1
1
1
1
1
1
1
1
1
1
1
1
1
1
1
1
1
1
1
1
1
1
1
1
1
1
1
1
1
1
1
1
1
1
1
1
1
1
1
1
1
1
1
1
1
1
0.99067459750125
0.89791953856568
0.81867832948143
0.7790668277821
0.73102409305103
0.69540820138814
0.67064091071447
0.65344151655305
0.64313980895359
0.640764476475
0.64907193639594
0.67910924366793
0.76282424969682
0.76241844271728
0.52813917054427
0.31907836168118
0.32583838695283
0.52071014442573
0.65814102807792
0.6587348970933
0.65920236509275
0.65957251501655
0.65986902157209
0.66010960034572
0.6603076165091
0.66047335865169
0.66061469210879
0.66073764877542
0.66084695025447
0.66094635418343
0.66103888456496
0.66112701935396
0.66121286871552
0.66129822133649
0.6613841117585
0.66147010352815
0.6615547310506
0.66165612531886
0.66173374724509
0.66180607832021
0.6618721785414
0.66193064434481
0.6619784031775
0.6620183696787
0.66205365308342
0.66208568079645
0.66211330454553
0.66213546661154
0.66215256514809
0.66216470362506
0.66217313493688
0.66217667147718
0.66217706211542
0.66217493288286
0.66216968185196
0.66216174760727
0.66215218696668
0.66214194050512
0.6621301183302
0.6621155587408
0.66209833025225
0.6620790450011
0.66205935340024
0.6620398550301
0.66202073759074
0.6620018335503
0.6619830623388
0.66196433050288
0.66194548420631
0.66192642500648
0.66190743462004
0.66188828487958
0.66186826092884
1
1
1
1
1
1
1
1
1
1
1
1
1
1
1
1
1
1
1
1
1
1
1
1
1
1
1
1
1
1
1
1
1
1
1
1
1
1
1
1
1
1
1
1
1
1
1
1
1
1
1
1
1
1
1
1
1
1
1
1
1
1
1
1
1
0.88528856180747
0.78466513242241
0.72590957632531
0.66704160045482
0.62598917582628
0.59492203469944
0.57079714439642
0.55332518307162
0.54140473268087
0.53465407667937
0.53369180673639
0.53970294755132
0.55827285180809
0.60256577807335
0.69345418839295
0.68095883198705
0.46418193704556
0.31013066865335
0.32844784489876
0.52188518488898
0.66108068554455
0.66163180114047
0.66207398938541
0.66242862617727
0.66271536884195
0.66294968108976
0.66314360274001
0.66330663366064
0.66344615313779
0.66356789031973
0.66367637782856
0.66377525239489
0.66386745046337
0.66395539190723
0.66404115525565
0.66412651553946
0.66421246612357
0.66429855813415
0.66438331958518
0.66448490553288
0.66456271535988
0.66463522377899
0.66470144038168
0.66475997469029
0.66480779401217
0.66484783413944
0.66488319152002
0.66491528946065
0.66494296773455
0.66496514824878
0.66498226314077
0.6649942777753
0.66500284559314
0.66500636967224
0.66500663930081
0.66500444605883
0.66499913782423
0.66499109471177
0.66498149377406
0.66497117962637
0.66495926921284
0.66494457840611
0.66492721536769
0.66490772574232
0.66488796842296
0.66486832475717
0.66484906293954
0.66483003583326
0.66481118284685
0.66479240298902
0.66477352463257
0.6647544918456
0.66473554039694
0.66471652112957
0.66469663427987
1
1
1
1
1
1
1
1
1
1
1
1
1
1
1
1
1
1
1
1
1
1
1
1
1
1
1
1
1
1
1
1
1
1
1
1
1
1
1
1
1
1
1
1
1
1
1
1
1
1
1
1
1
1
1
1
1
1
1
1
1
1
0.94010405576575
0.82161512951547
0.73929960614424
0.66013334584872
0.6041109146957
0.56051267824299
0.52814252700243
0.50451388918211
0.48754694895656
0.4758811487407
0.46873989350526
0.46592748178578
0.4673019447843
0.47396791193924
0.48861483942499
0.51746013957938
0.56701554665662
0.65123535925756
0.60411935276168
0.39881652802546
0.31029955935433
0.33057562666722
0.52269288808435
0.66250861910868
0.66300944317121
0.66342056874723
0.66375562942765
0.6640297228113
0.66425565055318
0.66444391806554
0.66460306657694
0.66473987277166
0.66485968415925
0.6649667878694
0.66506465728166
0.66515611619893
0.66524350580397
0.66532885606811
0.66541392078066
0.66549965236279
0.66558557591
0.66567021682278
0.66577172150791
0.66584946238172
0.66592191174023
0.66598804946804
0.66604649222591
0.66609422968681
0.66613421522996
0.66616953980173
0.66620161519378
0.66622926286152
0.66625139414854
0.66626847592782
0.66628040841414
0.66628893641767
0.66629243730994
0.66629263461923
0.66629036845415
0.66628500415934
0.66627689295072
0.66626722802152
0.66625684034354
0.66624485803192
0.66623012774574
0.66621258439953
0.66619298274433
0.66617310862931
0.66615335291683
0.66613398013063
0.66611486566081
0.66609597079651
0.66607719224174
0.66605836395054
0.66603942887904
0.66602062196208
0.66600181767407
0.66598214644206
1
1
1
1
1
1
1
1
1
1
1
1
1
1
1
1
1
1
1
1
1
1
1
1
1
1
1
1
1
1
1
1
1
1
1
1
1
1
1
1
1
1
1
1
1
1
1
1
1
1
1
1
1
1
1
1
1
1
1
1
0.93066097549753
0.82643166113739
0.72697841657493
0.64469258913817
0.58196509696185
0.53165488960085
0.4946235142139
0.46780536202224
0.44389702719273
0.43158828396631
0.42371784166739
0.41956178666516
0.42199736489523
0.42424473433804
0.43038659205915
0.44176770397173
0.46076603209734
0.4898176751215
0.5410793591107
0.60818287887229
0.55942671245057
0.38272409424294
0.30965117522033
0.3306626735751
0.52329987708243
0.66336290921225
0.66380954333664
0.66418607153951
0.66449877937132
0.66475813751402
0.66497411546181
0.66515556015689
0.6653099488351
0.66544337611237
0.66556074954696
0.66566606952654
0.66576261572445
0.66585307518095
0.66593969379497
0.66602444074627
0.66610903992074
0.66619439829526
0.66628001112642
0.66636439943622
1
1
1
1
1
1
1
1
1
1
1
1
1
1
1
1
1
1
1
1
1
1
1
1
1
1
1
1
1
1
1
1
1
1
1
1
0.41943420886501
1
1
1
1
1
1
1
1
1
1
1
1
1
1
1
1
1
1
1
1
1
1
1
1
1
1
1
1
1
1
1
1
1
1
1
1
1
1
1
1
1
1
1
1
1
1
1
1
1
1
1
1
1
0.99920682226933
0.91499562550874
0.83524963229773
0.74910477942428
0.66998339858979
0.60235244096519
0.54193267631698
0.49129943344024
0.45141041354794
0.42180119906127
0.39750065434355
0.38417791868628
0.37597766308456
0.37166543243743
0.3704033973038
0.37185445225891
0.37558315769012
0.38119410125498
0.38947006514233
0.40002361767762
0.41476771795228
0.43593120514024
0.4664655484573
0.50869607954925
0.5375884478255
0.48777991756142
0.36531571707487
0.31036737452811
0.32992999221836
0.33230176270896
0.52419266938106
0.6643964935858
0.6647359487825
0.66504017625877
0.66530413336946
0.66553030065221
0.66572338925602
0.66588875873312
0.66603172834128
0.66615692173013
0.66626826759792
0.66636911389066
0.6664622897639
0.66655015965072
0.66663474596454
0.66671787326004
0.6668011782958
0.66688546290865
0.66697018845715
0.66705386240359
1
1
1
1
1
1
1
1
1
1
1
1
1
1
1
1
1
1
1
1
1
1
1
1
1
1
1
1
1
1
1
1
1
1
1
1
0.30097257980946
1
1
1
1
1
1
1
1
1
1
1
1
1
1
1
1
1
1
1
1
1
1
1
1
1
1
1
1
1
1
1
1
1
1
1
1
1
1
1
1
1
1
0.99131878946495
0.88783447148251
0.85246942477823
0.84157929795324
0.84269367896143
0.84503528168014
0.84181663713629
0.82884461201228
0.80294865390929
0.76335487060713
0.7124642125699
0.65498182401849
0.59821382088816
0.54164408951292
0.49008758359855
0.44605685941038
0.4111717006559
0.3858876540555
0.36819776759929
0.35445642498776
0.34856228861584
0.34683777327627
0.34716812517276
0.34936785405735
0.35315503601489
0.35785927165321
0.36383452232055
0.3714579461419
0.38108354231197
0.39324902704222
0.40867521052537
0.42811474933135
0.45157784474228
0.47505019960728
0.47405841432542
0.42654765945388
0.34607720887843
0.31156723124896
0.32841442127948
0.33259090635503
0.33262799968643
0.52487474948833
0.66505748078409
0.66530433219479
0.66554075084844
0.66575593335694
0.66594736093848
0.66611556094033
0.66626305629758
0.66639303396155
0.66650865356239
0.66661287547608
0.66670835795541
0.66679743659183
0.66688211670773
0.66696417097814
0.6670452615246
0.66712690196304
0.66720980916832
0.66729338981006
0.66737609541614
1
1
1
1
1
1
1
1
1
1
1
1
1
1
1
1
1
1
1
1
1
1
1
1
1
1
1
1
1
1
1
1
1
1
1
1
0.2916271463177
0.42623764036474
1
1
1
1
1
1
1
1
1
1
1
1
1
1
1
1
1
1
1
1
1
1
1
1
1
1
1
1
1
1
1
1
1
1
1
1
1
1
1
1
0.86605489333429
0.73831904628376
0.66342130431356
0.63021460552821
0.61168879741647
0.60193410353139
0.59376705325883
0.58341131193038
0.56836649226411
0.54728606799372
0.51990197030453
0.4871952682258
0.45159809174687
0.41670142546295
0.38642126994737
0.36333555611968
0.34751060798697
0.33806594497179
0.33277769946316
0.33195901736264
0.33342222835341
0.33632807859955
0.33980653023832
0.34428698219741
0.34959262449251
0.35571285611769
0.36274102144682
0.37083252684351
0.38017313378997
0.3908987569699
0.40292897816153
0.41559452814512
0.42533218172549
0.42400109828896
0.40395992030876
0.36251639866805
0.32115074418237
0.31318439956696
0.32920731559765
0.33295859912098
0.33291638468187
0.33288044951672
0.5253976958245
0.66554928932893
0.66572000162763
0.66589759514445
0.66606883208264
0.66622697035561
0.66637040234642
0.66649954208003
0.66661584740081
0.66672122840037
0.66681768100793
0.66690722487234
0.66699170450422
0.6670727582782
0.6671519049534
0.66723063404496
0.66731034193438
0.66739163022602
0.66747384786338
0.66755538961017
1
1
1
1
1
1
1
1
1
1
1
1
1
1
1
1
1
1
1
1
1
1
1
1
1
1
1
1
1
1
1
1
1
1
1
1
0.29708409389227
0.2993780877689
0.61578656301673
1
1
1
1
1
1
1
1
1
1
1
1
1
1
1
1
1
1
1
1
1
1
1
1
1
1
1
1
1
1
1
1
1
1
1
1
1
0.93510850495857
0.76474180636754
0.64818025542157
0.56979098268173
0.51436212153207
0.47966524681729
0.45650630286729
0.4426882274128
0.43310050108006
0.42384415062555
0.41256716390268
0.39806774283355
0.38078442902338
0.36262513800566
0.34607061208189
0.33344436946682
0.32570696655865
0.32173766206022
0.32198363475971
0.32415494014607
0.32686122129006
0.33037274729313
0.33434775034708
0.33860695807543
0.34311272576544
0.34789409629842
0.35300127807164
0.35834820847495
0.36372331960829
0.3700479359129
0.37517340941359
0.37894295450342
0.37969855040289
0.37498008100049
0.36216102313863
0.34138221233406
0.32105109522783
0.31412495562392
0.32256293093255
0.33164121591431
0.33336912922943
0.33323937472665
0.33312595816682
0.333078651517
0.52580952807577
0.66593678249683
0.66604991113892
0.6661789626563
0.66631153690214
0.66643995389696
0.66656040361833
0.66667178076554
0.6667745076776
0.66686946692518
0.66695790232256
0.66704121890942
0.66712079663865
0.66719793615983
0.66727390260502
0.66735004718886
0.66742760574747
0.66750708970671
0.6675877742088
0.66766801395103
1
1
1
1
1
1
1
1
1
1
1
1
1
1
1
1
1
1
1
1
1
1
1
1
1
1
1
1
1
1
1
1
1
1
1
1
0.29939056045967
0.30054006590363
0.30911755510949
0.62752483840589
1
1
1
1
1
1
1
1
1
1
1
1
1
1
1
1
1
1
1
1
1
1
1
1
1
1
1
1
1
1
1
1
1
1
1
0.82284477113715
0.67613831467127
0.57800619445207
0.50586226126956
0.44844584858861
0.4049201376364
0.37409064113904
0.35731986830058
0.34894791997093
0.34361853488224
0.33842418977586
0.33248592745464
0.32612308679601
0.32043499310231
0.31597635321425
0.31461509459151
0.31577278455351
0.31750281853405
0.32026615295483
0.32333330263189
0.32638361090365
0.32912077078422
0.33146210904522
0.33354454437389
0.33557859123563
0.33754350910462
0.33939307108719
0.34146672038527
0.3426674531503
0.34308363877584
0.34220728639302
0.33943137978198
0.33460280998967
0.32767315759042
0.32043340207498
0.31472450366004
0.31495939420925
0.32306541285437
0.33023957955538
0.33342996559544
0.33370358354157
0.33352882709272
0.33338135891026
0.33328447168657
0.33323491148666
0.52613549522004
0.66624912731779
0.66632024308976
0.66641156866914
0.66651198690485
0.66661429346842
0.66671401034297
0.6668091676907
0.66689901519014
0.66698382388319
0.66706428514722
0.66714131061856
0.66721586956822
0.66728894388995
0.66736158528263
0.66743497834373
0.66751023954416
0.66758777349152
0.66766679590485
0.66774557729871
1
1
1
1
1
1
1
1
1
1
1
1
1
1
1
1
1
1
1
1
1
1
1
1
1
1
1
1
1
1
1
1
1
1
1
1
0.29968680353477
0.31140413562552
0.30359501564669
0.31403437879235
0.53373962404379
1
1
1
1
1
1
1
1
1
1
1
1
1
1
1
1
1
1
1
1
1
1
1
1
1
1
1
1
1
1
1
1
0.88119900310276
0.71309805932724
0.59975205977421
0.51815798034937
0.45449877853915
0.40359971870634
0.36077401512757
0.33237369172984
0.31904748522514
0.31425533650835
0.31259931087865
0.31175638820701
0.31122000823132
0.3113204230332
0.31168559893384
0.31262317779046
0.31472424283714
0.31727149552812
0.31969789159101
0.32175117812833
0.32327406547011
0.323869637191
0.32413188986205
0.32421271922452
0.32415489546333
0.3239755255879
0.32366343306071
0.32318857704551
0.32251540143061
0.32161780387445
0.32040092610682
0.31875370899176
0.31718774877024
0.31727181043029
0.31627142756418
0.31846592132995
0.32318105318969
0.32782199094816
0.33158313160878
0.33357647157449
0.33401235282597
0.33390812767072
0.33374913839318
0.33360354564457
0.33348717690863
0.33340547805912
0.33335765452321
0.5263963191641
0.66650373361387
0.6665450340916
0.66660767141707
0.66668247164635
0.6667627989966
0.66684440054249
0.66692484661712
0.66700294110942
0.66707827403771
0.66715106906686
0.66722192125263
0.66729147618231
0.66736045195143
0.66742971047249
0.66750028209157
0.66757314851784
0.66764863263874
0.6677258963214
0.66780312641797
1
1
1
1
1
1
1
1
1
1
1
1
1
1
1
1
1
1
1
1
1
1
1
1
1
1
1
1
1
1
1
1
1
1
1
1
0.29961031378711
0.31377451890762
0.31812659925887
0.30636833822444
0.31110257986739
0.42498298976917
0.75100784409843
1
1
1
1
1
1
1
1
1
1
1
1
1
1
1
1
1
1
1
1
1
1
1
1
1
1
1
1
0.91135893926361
0.73652936120166
0.61715921437052
0.53128760528901
0.46700012198213
0.41234873297181
0.36734085122834
0.33311741049663
0.31361890627332
0.30822406791754
0.30910017138522
0.31097940664115
0.31271475113893
0.31433956464972
0.31607956550941
0.3178813759842
0.31971373031217
0.32135026562732
0.32258675408146
0.32335072685383
0.32370495520325
0.32367382585156
0.32342732297198
0.3230730742703
0.32266504526818
0.32224125201148
0.32183514068799
0.32148507054142
0.32124164101839
0.32117799689042
0.32139675906781
0.32202996102614
0.32318512350829
0.32460961141166
0.32637347717069
0.32840180451224
0.33039432974558
0.33206016999926
0.33331926375318
0.33401337116002
0.33417729938995
0.33411691784806
0.3340089242997
0.33389311169622
0.33377230059622
0.33365994777117
0.3335672846064
0.33349869049101
0.33345449900362
0.52660733771193
0.66671199054431
0.66673326398
0.66677461120793
0.66682935823044
0.66689182999636
0.66695806876009
0.6670256383239
0.66709309265595
0.66715971237124
0.66722539850246
0.66729036004824
0.66735505677699
0.66742000211466
0.66748590470434
0.66755363660927
0.66762406272034
0.66769743549726
0.66777287534888
0.66784851534406
1
1
1
1
1
1
1
1
1
1
1
1
1
1
1
1
1
1
1
1
1
1
1
1
1
1
1
1
1
1
1
1
1
1
1
1
0.29947292125752
0.31355521895017
0.3238528966352
0.32166240862005
0.30967584845385
0.30620390919274
0.35037496698688
0.51863520249745
0.79571718673
1
1
1
1
1
1
1
1
1
1
1
1
1
1
1
1
1
1
1
1
1
1
1
1
0.89269841552238
0.73016824407362
0.61670740283125
0.53381616042758
0.47163283891173
0.4180620246602
0.37400921841147
0.33925034870387
0.31640717172098
0.30780800982585
0.30926642443975
0.31523999028282
0.31970633247962
0.3223968966493
0.32413074716776
0.32540639538311
0.32638882526968
0.32712814499071
0.327652497716
0.32800115183314
0.32822852842361
0.32838467593109
0.32850458372157
0.32861470707472
0.32873270890321
0.32887106427777
0.32904119125029
0.3292538067161
0.32951828183233
0.32984146533425
0.33022613731519
0.33067049654003
0.33116200781189
0.33168140321528
0.33221832974921
0.33275851945663
0.33329715537648
0.33375614781592
0.33404916116294
0.33418033263718
0.33420765502713
0.3341739238574
0.3341236636391
0.33405634399518
0.33397396443398
0.33388476809277
0.33379109969354
0.33370319557971
0.33362875355139
0.33357124493144
0.33353157316178
0.52677975260347
0.66688250733607
0.66689138491091
0.66691741141316
0.66695677985332
0.66700498376762
0.66705854799019
0.66711512143041
0.66717320020637
0.66723194527227
0.66729104283128
0.66735053876092
0.66741063027245
0.66747171817622
0.66753435279089
0.6675992892511
0.66766727407447
0.66773850734416
0.66781208740581
0.66788611920953
1
1
1
1
1
1
1
1
1
1
1
1
1
1
1
1
1
1
1
1
1
1
1
1
1
1
1
1
1
1
1
1
1
1
1
1
0.29934792147506
0.31296158413419
0.32417274333812
0.32850733418826
0.32432127103779
0.31378764389603
0.30632086642167
0.31624535444973
0.37359529353885
0.51363546735944
0.71136652900789
0.93354764334839
1
1
1
1
1
1
1
1
1
1
1
1
1
1
1
1
1
1
0.97074740122251
0.813343103106
0.69529287332778
0.59825522982453
0.52329059819577
0.46383472320073
0.41503480622653
0.37458087798284
0.34223354379828
0.31948454704156
0.30838772556226
0.30875623595373
0.31625248042053
0.32339403572829
0.32730603222152
0.32910332752497
0.33003812930219
0.33061208628619
0.33100463327964
0.33129066094016
0.33150935807951
0.33168510841677
0.33183432192359
0.33196668617516
0.33208671902867
0.33220064060866
0.33231364751733
0.33242710052391
0.33254383016544
0.33266942395909
0.33280693259765
0.33296016760994
0.33312535826366
0.33330292846635
0.33348753545546
0.33366245230543
0.3338149562792
0.33393650298183
0.3340264042088
0.33408926758656
0.3341239801421
0.33413945562821
0.33414340578045
0.33413327012499
0.33410781129661
0.3340673542697
0.33401360166637
0.33394955251991
0.33387996915804
0.33380641976962
0.33373683843195
0.33367657639566
0.33362841511297
0.33359348794895
0.52692164196488
0.66702339313205
0.66702441740276
0.66703988278996
0.66706772721373
0.66710473231882
0.66714799285644
0.66719535437084
0.66724535634373
0.6672971265234
0.6673502679217
0.66740469915757
0.66746052152695
0.66751797014136
0.66757748072032
0.66763970612434
0.66770529108359
0.66777438834732
0.66784609795985
0.66791851081255
1
1
1
1
1
1
1
1
1
1
1
1
1
1
1
1
1
1
1
1
1
1
1
1
1
1
1
1
1
1
1
1
1
1
1
1
0.29924402571668
0.31239488976019
0.32365215771538
0.32993947287725
0.33063173589
0.32675716828773
0.31902094555388
0.30924419230028
0.30653961292008
0.31894079288822
0.3625150122101
0.4520743173193
0.57270321390904
0.71240624475377
0.8551019778404
0.98325605515872
1
1
1
1
1
1
1
1
1
1
1
0.90156951349895
0.79387265424673
0.69644401524498
0.61549239913478
0.54629847502595
0.48868476096797
0.4405739639189
0.40009834522644
0.36623911403562
0.33897963839474
0.31947913291595
0.30892642223975
0.30844607793
0.31530636872135
0.32359810459753
0.32877356930646
0.33096503705016
0.33185807054062
0.33228659739303
0.3325416880097
0.33271873830765
0.33285445709627
0.33296646025839
0.33306246757173
0.33314910025585
0.33322936185698
0.33330200268708
0.3333680842073
0.33342824514188
0.33348368728332
0.33353588366921
0.33358639012568
0.33363612831694
0.33368553643971
0.33373478809241
0.33378344739333
0.33383086092841
0.33387672631057
0.33392057738723
0.33396166664454
0.33399623938911
0.33402783211188
0.33405497131332
0.33407549731901
0.33408759741242
0.33408924650626
0.33407978433661
0.33405847358848
0.3340259139314
0.33398285735929
0.33393230609341
0.33387742820405
0.33381903964702
0.33376342951593
0.33371434973814
0.33367405635662
0.33364364226053
0.52703951474028
0.66714091351927
0.66713665466878
0.66714512398903
0.66716456941318
0.6671929430707
0.66722794830851
0.66726769101988
0.6673108292284
0.66735653652816
0.66740439164868
0.66745424111811
0.66750610144248
0.66756014702655
0.66761673312
0.66767637656231
0.66773963606099
0.667806630378
0.66787647616954
0.66794727136947
1
1
1
1
1
1
1
1
1
1
1
1
1
1
1
1
1
1
1
1
1
1
1
1
1
1
1
1
1
1
1
1
1
1
1
1
0.2991606376789
0.31192352725964
0.32304366977678
0.3297754661028
0.33233137118305
0.33203314483537
0.32946450590784
0.3244586095511
0.31668948784127
0.3084689945215
0.30661849757478
0.31309076846091
0.33586750057691
0.37780380524134
0.43761628786388
0.50401932610008
0.57025890391296
0.63011674830815
0.68127322931155
0.72013575034843
0.74340423256204
0.74990840406997
0.74058316086473
0.71681572369033
0.68143153538276
0.64001484685138
0.59571103379487
0.5513817880725
0.5096117841645
0.47067656943631
0.43469207396326
0.40202374477447
0.37327194477418
0.34883896049387
0.32927695765785
0.31545394174538
0.3085211962647
0.30861099739023
0.31492146129878
0.32297342996185
0.32876215761156
0.33141715327328
0.33248868179881
0.33295456736015
0.33319049531134
0.33333072334763
0.33342397479643
0.33349035654293
0.3335396198935
0.33357721869194
0.33360626263322
0.33362882112045
0.33364681720843
0.33366176780016
0.33367519059404
0.33368837507315
0.33370220631895
0.33371755019676
0.33373498818187
0.33375476320699
0.33377710458723
0.33380204419144
0.33382928052729
0.33385846719667
0.33388913710351
0.33391878332028
0.33394821406254
0.33397612903369
0.33400159734791
0.33402283776938
0.33403850438369
0.33404722939743
0.33404751531115
0.33403902266246
0.33402136189545
0.33399472304601
0.3339603399667
0.33392009142354
0.33387642209927
0.33382962036924
0.33378483169052
0.33374466705979
0.3337109671806
0.33368469179471
0.52713842875912
0.6672396133229
0.66723175014432
0.66723581652395
0.66724928906172
0.66727113281304
0.66729960823907
0.66733312519494
0.6673705066558
0.66741101124461
0.66745423333754
0.66749998787577
0.66754824749364
0.66759914590167
0.66765298881159
0.66771021914631
0.66777126345311
0.66783621229562
0.66790421298699
0.66797339517897
1
1
1
1
1
1
1
1
1
1
1
1
1
1
1
1
1
1
1
1
1
1
1
1
1
1
1
1
1
1
1
1
1
1
1
1
0.29909546141181
0.311550172059
0.32250561227468
0.32940909188202
0.33238064904053
0.33322285464389
0.33294565062115
0.33162182210578
0.3287846999537
0.32426734761085
0.31753852039779
0.31035658893441
0.30651773005028
0.30683412820799
0.31397860079388
0.32808690149845
0.34796283049939
0.3711985551173
0.39465237378339
0.41540911638834
0.43088258548536
0.4401444898358
0.44251277895225
0.43900793735313
0.43063846361706
0.41868008718682
0.40428726149622
0.38839422987428
0.37181709265983
0.35535205311179
0.34000833418433
0.32676116251162
0.31645688250056
0.30951753773883
0.30862866400698
0.30979026379014
0.31626156591615
0.32343306146763
0.32876641720813
0.33149149300127
0.33277103512986
0.33328359218876
0.33346960207778
0.3335491276652
0.3335925341517
0.33362098357555
0.33364182352219
0.33365804244809
0.33367099329993
0.33368149737566
0.33369009431011
0.33369739230616
0.33370399469289
0.33371048966489
0.33371752194926
0.33372560525316
0.33373520292143
0.33374674546597
0.33376046964315
0.33377654338508
0.33379505525234
0.33381585103458
0.33383864656754
0.33386308124489
0.33388840461015
0.33391311150049
0.33393733739864
0.3339601372992
0.33398047438373
0.33399726726593
0.33400938656846
0.33401574412348
0.33401528415556
0.33400788634637
0.33399315488566
0.33397149386546
0.3339438054172
0.33391153696605
0.33387641457982
0.33383869644098
0.33380239250144
0.3337693987927
0.33374121304644
0.33371866272283
0.52722219251746
0.66732274296064
0.66731299555518
0.66731425196896
0.66732359840382
0.66734058313942
0.66736395737867
0.66739244374217
0.667425052048
0.667461143387
0.66750034946124
0.66754248404555
0.66758750818552
0.66763553930303
0.66768684808773
0.66774181139426
0.66780078159542
0.6678637666962
0.66792995028969
0.66799752214162
1
1
1
1
1
1
1
1
1
1
1
1
1
1
1
1
1
1
1
1
1
1
1
1
1
1
1
1
1
1
1
1
1
1
1
1
0.29904522446886