/*--------------------------------*- C++ -*----------------------------------*\
| =========                 |                                                 |
| \\      /  F ield         | OpenFOAM: The Open Source CFD Toolbox           |
|  \\    /   O peration     | Version:  2312                                  |
|   \\  /    A nd           | Website:  www.openfoam.com                      |
|    \\/     M anipulation  |                                                 |
\*---------------------------------------------------------------------------*/
FoamFile
{
    version     2.0;
    format      ascii;
    arch        "LSB;label=32;scalar=64";
    class       volScalarField;
    location    "2e-05";
    object      nut;
}
// * * * * * * * * * * * * * * * * * * * * * * * * * * * * * * * * * * * * * //

dimensions      [0 2 -1 0 0 0 0];

internalField   nonuniform List<scalar> 
109340
(
0.00075248557277815
0.00051874983527068
0.00028080275862962
0.00023478086524845
0.00022716978762185
0.0002309529363769
0.00023799194535919
0.0002513141671351
0.00022272782518336
0.00019823266156927
0.00017886157586705
0.00016306616093102
0.00014990907814046
0.00013876773500081
0.00012920589644655
0.00012090690516337
0.00011363438969457
0.00010720755879933
0.00010148540957951
9.6356196650498e-05
9.1730286022624e-05
8.753452154001e-05
8.370799867966e-05
8.0200047958708e-05
7.6968067327179e-05
7.398493529737e-05
7.0037829205555e-05
5.6911947020835e-05
4.5220880318667e-05
3.5673035387782e-05
2.8106534710238e-05
2.2412082761491e-05
1.8172798833089e-05
1.4913047793798e-05
1.260818433338e-05
1.083176384867e-05
0.00074384690418994
0.00036252152907059
0.00026639483539122
0.00024352453435726
0.00024126774230281
0.00024482151618619
0.00022048154384425
0.00019200529118198
0.00016984874711055
0.00015229620110269
0.00013808283357336
0.00012634733915291
0.00011649689994143
0.00010811247284856
0.00010089018877911
9.4604582858114e-05
8.908458714366e-05
8.4197955150052e-05
7.9840896783905e-05
7.5931610708433e-05
7.2401879621696e-05
6.9198141837691e-05
6.6276107712165e-05
6.359959686663e-05
6.1140997872897e-05
5.8884847538431e-05
5.6824004772937e-05
5.3061353538759e-05
4.194222452548e-05
3.2966804608361e-05
2.5834720701074e-05
2.0742065515051e-05
1.6756537421276e-05
1.3863033432372e-05
1.1763822468556e-05
1.017309042039e-05
0.00043597358173703
0.00030955681410308
0.00026729995116266
0.00025002523515238
0.00020021266399319
0.00016706107980797
0.00014302362778474
0.00012491253103944
0.00011083729079605
9.9629136764282e-05
9.0520441786262e-05
8.2986350511166e-05
7.6658556991389e-05
7.1272939533668e-05
6.6636119754155e-05
6.2603565961592e-05
5.9064960207673e-05
5.5934958514077e-05
5.3146635815374e-05
5.0647799012726e-05
4.8391042013876e-05
4.6343228948569e-05
4.447732297416e-05
4.2772328971294e-05
4.1216090161629e-05
3.9807879647086e-05
3.8563016433743e-05
3.7389336844817e-05
3.6141822811407e-05
3.1620754511453e-05
2.4595587561965e-05
1.962750114362e-05
1.5773965690419e-05
1.3024213675521e-05
1.1042073600967e-05
9.5103503930117e-06
0.00025210153773811
0.00025437771149188
0.00015993630920107
0.00011657183764708
9.1799220512347e-05
7.5803210895307e-05
6.4655219417685e-05
5.6460449923271e-05
5.0195434644414e-05
4.5259542368302e-05
4.1277730196993e-05
3.8002701541562e-05
3.5264646023908e-05
3.2943671626669e-05
3.0952903032671e-05
2.92277710884e-05
2.7719196830476e-05
2.6389780768118e-05
2.5207607401414e-05
2.4144662279231e-05
2.3174129375677e-05
2.2283877106424e-05
2.1466192656721e-05
2.0716466175144e-05
2.0037863264525e-05
1.9445516970063e-05
1.8925482303726e-05
1.8453065652853e-05
1.8009021845543e-05
1.7564578360601e-05
1.7060500977906e-05
1.6411398035971e-05
1.4175551286482e-05
1.1630430056277e-05
9.7910182545106e-06
8.3743111645931e-06
0.00015218072607909
4.9899664501653e-05
3.0386612961534e-05
2.2066716400787e-05
1.7484885580704e-05
1.460956471766e-05
1.2654677813479e-05
1.1250783860269e-05
1.0201602254319e-05
9.3940436808779e-06
8.7588837890351e-06
8.2519688874617e-06
7.8439393427242e-06
7.5148496428904e-06
7.2509174384701e-06
7.0420667936127e-06
6.8801822520644e-06
6.7551534506319e-06
6.6462711506323e-06
6.535724646032e-06
6.4153352068693e-06
6.2895161502699e-06
6.1601764146137e-06
6.0361639884466e-06
5.9118959647542e-06
5.791492386131e-06
5.6527721709344e-06
5.460779975029e-06
5.1901824575379e-06
4.8652153921399e-06
4.5564596005915e-06
4.2818610077749e-06
3.9855926822057e-06
3.6459625331291e-06
3.2744730204607e-06
2.901204286489e-06
3.7994562341625e-07
5.6537177515761e-07
7.2660831182603e-07
8.5274008300451e-07
9.4325395943083e-07
1.0032810794403e-06
1.0396810990342e-06
1.0589191671991e-06
1.0661883517795e-06
1.0657482377268e-06
1.0601332808888e-06
1.0513223878372e-06
1.0406892066968e-06
1.029163178834e-06
1.017390535074e-06
1.0058290878942e-06
9.9479428539239e-07
9.8451149595379e-07
9.7517289575722e-07
9.6713990339651e-07
9.6038005885016e-07
9.549385913629e-07
9.511574349247e-07
9.4913700107764e-07
9.4924559625344e-07
9.5117586303193e-07
9.5622646661372e-07
9.6529314104538e-07
9.7866982694808e-07
9.9729593475825e-07
1.0211920641483e-06
1.0511908458973e-06
1.0866166682626e-06
1.1265797122522e-06
1.1695443840226e-06
1.2146800602836e-06
9.5817491748246e-06
8.4722700365273e-06
7.2572386053986e-06
5.0964978019033e-06
2.2050419681597e-06
9.9258028171354e-07
5.4515202568333e-07
5.2781866948639e-07
7.2613409300949e-07
9.5430005542167e-07
1.1007261729448e-06
1.2508046231861e-06
1.4202205850049e-06
1.567387535922e-06
1.6780726150278e-06
1.7766306387537e-06
1.9148405531483e-06
1.8814833073073e-06
1.7535377912766e-06
1.6400136883981e-06
1.5396926178308e-06
1.451147237196e-06
1.3722413185804e-06
1.3010219309327e-06
1.2366492600512e-06
1.1787016672531e-06
1.1263842139804e-06
1.0786209939295e-06
1.0346179139089e-06
9.2984251878325e-07
7.7676292065107e-07
6.5735390044489e-07
5.6207223182145e-07
4.8774784630226e-07
1.6111781015017e-06
6.8889008611101e-06
5.1822591873719e-06
5.8598042898105e-06
6.7573539079842e-06
7.6227882411808e-06
8.4015094085708e-06
9.0425535847086e-06
9.5127879093505e-06
9.8656087322215e-06
1.0114496043501e-05
1.026494693218e-05
1.022439134594e-05
9.7603711242588e-06
9.0545514628994e-06
8.301506867511e-06
7.6279729203728e-06
7.0900036983411e-06
6.7058949188333e-06
6.5542560984502e-06
6.6172669558378e-06
6.7086111428781e-06
6.6319130116801e-06
6.5245797909245e-06
6.416055872415e-06
6.3234039938265e-06
6.2585346000312e-06
6.2418919125313e-06
6.2832214448539e-06
6.3405176487499e-06
6.4487546150544e-06
6.5895590390189e-06
6.728479027156e-06
6.8575494035042e-06
6.968797952039e-06
7.0736925151191e-06
7.1647060653077e-06
7.232220444473e-06
7.2859854243553e-06
7.318198860157e-06
7.3205532623541e-06
7.2808487616013e-06
7.2089589380757e-06
7.1622892465392e-06
7.4704063574081e-06
1.1114007289254e-05
3.6097373515011e-05
0.00010949395887814
0.0002366186195324
0.00010391079468577
2.6629536299883e-06
2.2488362562952e-06
3.0915640359853e-06
4.2833332346854e-06
5.7556353329845e-06
7.5208742624997e-06
9.6051754194308e-06
1.2029570185772e-05
1.4810990966887e-05
1.796974611675e-05
2.1534379321847e-05
2.5547864281223e-05
3.0081551190002e-05
3.5253057465004e-05
4.1262168708374e-05
4.8416635015468e-05
5.6957464878709e-05
6.6695971788613e-05
7.6803513329821e-05
8.6136487727819e-05
9.568239898765e-05
0.00010105773074669
0.00010435954123044
0.00010580636212635
0.00010609486246128
0.00010548227668642
0.00010434351880223
0.00010291391293275
0.00010123073799933
9.9029800850716e-05
9.7385492679874e-05
9.6273815158166e-05
9.9197312690014e-05
0.00011232244189166
0.00013140180109514
0.00015039695165885
0.0001725478723237
0.00020345136581922
0.00024860780161133
0.00031788445101014
0.00043825166460748
0.00067847231001255
0.00068844880032868
0.00068794201214927
0.00068736125476188
0.00068681117155995
0.00068641306170348
0.00058492289334405
0.00050688467507018
0.00047740694968453
0.00048328381556888
0.00050655523085923
0.00059849356743007
0.0006911333795885
0.000691902087631
0.00069233545700304
9.0778007424878e-06
7.689412159829e-06
5.0904924305282e-06
2.4166691595064e-06
1.303915658298e-06
7.9739361711106e-07
5.3057470841287e-07
4.0590469887815e-07
4.010338849615e-07
4.9399163926282e-07
6.5347424560678e-07
8.1060902874514e-07
9.5994284369725e-07
1.1089974035333e-06
1.2635639473252e-06
1.420520621651e-06
1.5686100920231e-06
1.723815092229e-06
1.8156677735994e-06
1.6885329602613e-06
1.5765482351863e-06
1.4780409372814e-06
1.3911824107469e-06
1.3136102962947e-06
1.2440978013349e-06
1.1818938589387e-06
1.1260080270298e-06
1.0755397239146e-06
1.0297353536277e-06
8.936337728684e-07
7.5654338751307e-07
6.4558378851506e-07
5.5520933331656e-07
4.9161405148111e-07
5.9795404706438e-06
4.9094171271233e-06
3.770015520041e-06
4.0833453353853e-06
4.4470758804914e-06
4.7788741596406e-06
5.0358970941433e-06
5.2459163814986e-06
5.4705483913752e-06
5.7307220117443e-06
6.0097313273546e-06
6.2859071493295e-06
6.5125944613367e-06
6.6791578726393e-06
6.5868558072222e-06
6.3117694267332e-06
5.984887150336e-06
5.6924446618526e-06
5.5126670387727e-06
5.4934826396572e-06
5.5850929507613e-06
5.6778302027552e-06
5.6674576010549e-06
5.6301424841724e-06
5.5735216339735e-06
5.5165527036329e-06
5.4653465825458e-06
5.4305636456635e-06
5.4250722946115e-06
5.4313121047197e-06
5.4537228781234e-06
5.4824980322021e-06
5.5057335614099e-06
5.5238863573691e-06
5.5450628597976e-06
5.5795269387663e-06
5.62761867372e-06
5.7103675848271e-06
5.8526622464823e-06
6.0852085162405e-06
6.4184155804266e-06
6.8304796050074e-06
7.2882700478275e-06
7.7676086168278e-06
8.4983515820664e-06
1.3687797945019e-05
4.9269458195214e-05
0.00014636236688522
0.00023138163358761
7.7505072954969e-05
2.6901000365179e-06
2.4588920055856e-06
3.3405187426218e-06
4.5746491560092e-06
6.1102964529989e-06
7.9581221253137e-06
1.0141679471057e-05
1.2679166937948e-05
1.558353085014e-05
1.8872886796905e-05
2.2574847723524e-05
2.6731679315447e-05
3.1416932029769e-05
3.6757324561528e-05
4.2961893917025e-05
5.0356663632735e-05
5.9197349021025e-05
6.9319059434759e-05
7.9685492602227e-05
8.8983065879415e-05
9.7779837067268e-05
0.00010284984176419
0.00010582391351647
0.00010689278766914
0.00010684015287123
0.00010596851694439
0.00010465546737433
0.00010310795000702
0.0001013343827607
9.9151498156056e-05
9.7771491843705e-05
9.7116739270047e-05
9.9930722921357e-05
0.00011199171159544
0.00012995096033042
0.00014866402634812
0.00017159852114607
0.00020368234961789
0.00024995575708516
0.0003193034206694
0.00044011369377909
0.00067038415906949
0.00068844945602143
0.00068794304674412
0.00068736423258297
0.00068681515272903
0.00068641541540699
0.00058443101918709
0.00050648572983015
0.00047675364721072
0.0004815171599265
0.00050605512133172
0.00059679186298579
0.00069113249993991
0.00069190192844584
0.00069233600949942
8.6387850162047e-06
5.7545539291327e-06
2.4004492617022e-06
1.2635884911482e-06
8.3970054428812e-07
6.2392097644128e-07
5.0192407792097e-07
4.5630675557937e-07
4.7630156210405e-07
5.5564457302054e-07
6.8698620990718e-07
8.2612102549796e-07
9.6438411858045e-07
1.1023318373048e-06
1.2374049526442e-06
1.3666746048533e-06
1.5060966803352e-06
1.6487856984417e-06
1.7813645560869e-06
1.6897550951835e-06
1.5804991607414e-06
1.4836251150142e-06
1.3976027225049e-06
1.3206788065357e-06
1.2515427851137e-06
1.1892617569672e-06
1.1330520408257e-06
1.0821000854502e-06
9.4521442719232e-07
8.0265623116316e-07
6.8741333525962e-07
5.9243322856819e-07
5.156731322713e-07
4.4676867505339e-07
1.4310163381736e-06
4.4526525522394e-06
3.5486917144076e-06
3.8158792782734e-06
4.0744798336948e-06
4.1486027005604e-06
4.1770779117686e-06
4.2885516618644e-06
4.556889279133e-06
4.942014727897e-06
5.359942558453e-06
5.7106160673061e-06
5.9728714793908e-06
6.1047096482093e-06
5.9814564950381e-06
5.7099451390174e-06
5.4097671682751e-06
5.1517899333716e-06
5.0223201315564e-06
5.037167333057e-06
5.1144134758036e-06
5.1855822797625e-06
5.1786513045412e-06
5.1326753877287e-06
5.0619805739534e-06
4.9837231421815e-06
4.9074574037416e-06
4.8401193915632e-06
4.7767069039708e-06
4.7157575330884e-06
4.6599041830811e-06
4.6144965692452e-06
4.5983334358446e-06
4.6559692967024e-06
4.8735798648483e-06
5.396348988635e-06
6.3948175091379e-06
7.9959743576987e-06
1.026412882009e-05
1.3172853966741e-05
1.6611518414706e-05
2.0109295939263e-05
2.2805642463262e-05
2.3838961389133e-05
2.3136706863603e-05
2.3886159945546e-05
5.6926886543817e-05
0.00016291635197157
0.00022037113909219
7.3970617360203e-05
2.4675569205427e-06
2.5013704307071e-06
3.3994426629234e-06
4.6312969909597e-06
6.162216439853e-06
8.0067454009748e-06
1.0187929173972e-05
1.272283955279e-05
1.5624163649287e-05
1.8909921776294e-05
2.2607662848427e-05
2.6760220575176e-05
3.1441512534348e-05
3.677722995538e-05
4.2972768192208e-05
5.0335011958166e-05
5.9163616288018e-05
6.9463234296943e-05
7.9829616010705e-05
8.9109492413284e-05
9.7556309824143e-05
0.00010275337641857
0.00010590617191242
0.00010704624361974
0.00010698741550725
0.00010609545118082
0.00010475136763434
0.00010316362035404
0.00010135823737896
9.934690798168e-05
9.8489701332775e-05
9.870471732513e-05
0.00010159522704328
0.00011193176070542
0.00012745724883558
0.00014442825485194
0.0001682737003582
0.00020409231887527
0.00025338539753757
0.00032302795384695
0.00043786826762349
0.00066000055613045
0.00068844992207302
0.00068794420989119
0.00068736918501758
0.00068682205694394
0.00068641937186495
0.00058308308662982
0.00050577437985275
0.0004751006880097
0.00047630148422163
0.00050737087030705
0.00059010048366228
0.00069113096788748
0.00069190178635387
0.00069233732248158
6.8389268625218e-06
2.0728815828421e-06
9.5944099233511e-07
6.6714315226842e-07
5.8512279780682e-07
5.5604295997408e-07
5.4835999884605e-07
5.647812041671e-07
6.1240259674664e-07
6.9773321172799e-07
8.0083732674673e-07
9.1115756442633e-07
1.0262107035068e-06
1.143225925924e-06
1.2617301176411e-06
1.3902413270343e-06
1.5088325079952e-06
1.6263442037173e-06
1.7714577998821e-06
1.6682493277471e-06
1.5622757056456e-06
1.4685628969324e-06
1.3853897158068e-06
1.3110057990856e-06
1.2439845379351e-06
1.1833391388773e-06
1.1283467291228e-06
1.0405625855962e-06
8.7727688130503e-07
7.4703356315456e-07
6.4109147803111e-07
5.540348260151e-07
4.8277446774222e-07
4.0882731954483e-07
4.7178962137075e-07
4.6307645282142e-06
3.9723127800798e-06
4.2879223475308e-06
3.9855196213264e-06
3.5928119348068e-06
3.5905838491069e-06
3.8439970480434e-06
4.3297637254463e-06
4.8619921293754e-06
5.4392520747645e-06
5.9934489295035e-06
6.3878323500753e-06
6.3402141331957e-06
6.0758426070526e-06
5.7250014903999e-06
5.3967966779908e-06
5.1568341331431e-06
5.0656694897692e-06
5.0832376479699e-06
5.1327521486609e-06
5.1604672633286e-06
5.1289192995826e-06
5.0456539772029e-06
4.9334263827686e-06
4.8046685846885e-06
4.6699005585119e-06
4.5428035344617e-06
4.436051614447e-06
4.3604055516201e-06
4.3905379542257e-06
4.6817161392958e-06
5.5400799086646e-06
7.4360997817779e-06
1.08580421248e-05
1.6219964415521e-05
2.3738292892275e-05
3.305711717745e-05
4.3076148757189e-05
5.276619360959e-05
6.1210917151691e-05
6.7560097574226e-05
7.0905758260676e-05
6.9406729626847e-05
6.2527429862746e-05
5.0276264208398e-05
7.6882393674139e-05
0.00018835013723619
0.00019485685324505
7.380029447306e-05
2.313633360846e-06
2.5774107534978e-06
3.4980255363103e-06
4.7406664555728e-06
6.2797927746407e-06
8.1316036515736e-06
1.0319145848023e-05
1.2859433660945e-05
1.5765090112033e-05
1.9054266705741e-05
2.2754623607077e-05
2.6908834123183e-05
3.1590864431937e-05
3.6926281000599e-05
4.3119211988722e-05
5.0476116083748e-05
5.9306334243741e-05
6.9648366429906e-05
8.0082292335101e-05
8.938487993648e-05
9.7455137895224e-05
0.00010275282538134
0.00010607762338444
0.00010728962746459
0.00010721858718568
0.00010630861763791
0.00010494047021034
0.00010332249651606
0.00010149143865764
9.9537022413499e-05
9.8894606614915e-05
9.9452872721376e-05
0.00010234991116574
0.00011195645461968
0.00012646684921595
0.00014294961795954
0.00016723555599994
0.00020391038029035
0.00025410516437029
0.00032461601642629
0.00043919658917184
0.00065924891138647
0.00068844960216035
0.00068794466334322
0.00068737370448772
0.00068682921104326
0.00068642378811308
0.00058183131778945
0.00050504583266737
0.00047435166604661
0.00047516198592709
0.00050650333830058
0.00058845320138046
0.00069113004004766
0.00069190310792261
0.00069233967663168
1.9682246569718e-06
6.5472737541803e-07
7.6746078229127e-07
8.3289606714941e-07
8.0819286180835e-07
7.8043885483941e-07
7.7262761568331e-07
7.8413946713923e-07
8.204242753048e-07
8.929710666189e-07
9.6811594682425e-07
1.0444677130786e-06
1.1285408418973e-06
1.2276210839573e-06
1.3340876738083e-06
1.4362212251862e-06
1.5595501035164e-06
1.6831667972098e-06
1.7686710955839e-06
1.6511526089312e-06
1.5475971959516e-06
1.4557494509412e-06
1.3736786308351e-06
1.3000576110158e-06
1.2337911021389e-06
1.1739829374254e-06
1.1199832005971e-06
9.9964953130376e-07
8.4197390581148e-07
7.1616093148438e-07
6.1376402932635e-07
5.3099674277261e-07
4.6088322390554e-07
4.0639946669542e-07
8.8069501042786e-08
4.4746225406732e-06
4.3844050992463e-06
4.3169106165755e-06
3.1838161995041e-06
2.9230427131633e-06
3.1775806131391e-06
3.7562906351202e-06
4.4968732182347e-06
5.3719428632082e-06
6.2221074360616e-06
6.7368228735834e-06
6.8461789996343e-06
6.6620765305967e-06
6.3117366640153e-06
5.9194564963144e-06
5.5829955098698e-06
5.3814244319076e-06
5.3068270562274e-06
5.3068873774467e-06
5.308964457104e-06
5.2833736992041e-06
5.2131432358339e-06
5.0979151423594e-06
4.9526175844747e-06
4.7935150880636e-06
4.674385789448e-06
4.6267291209254e-06
4.7824496384128e-06
5.4516830345349e-06
7.3014647644965e-06
1.1377969210567e-05
1.8794242543512e-05
3.0332993783493e-05
4.58142376441e-05
6.3532704611617e-05
8.1897613627539e-05
9.9666041644234e-05
0.00011587166614088
0.00012977677733156
0.00014060982317592
0.00014727845381741
0.0001478201998369
0.00014005652559631
0.000119734219344
8.5758656252187e-05
0.0001089964832326
0.00021669199106326
0.00014806606436479
2.4269001923491e-05
2.2639462826457e-06
2.687612661446e-06
3.6355691843902e-06
4.8938002435301e-06
6.4450895449871e-06
8.3079025276464e-06
1.0505371073671e-05
1.3054256660562e-05
1.5967303620799e-05
1.9262864884417e-05
2.2968759818067e-05
2.712800266315e-05
3.1814923212852e-05
3.7154679939074e-05
4.3351299763072e-05
5.0714248510807e-05
5.9564163009907e-05
6.9925875706702e-05
8.041863952496e-05
8.9726869853194e-05
9.7559968805147e-05
0.00010292277343976
0.00010636257571842
0.00010761572918159
0.00010752061678989
0.00010659528836135
0.00010520827050479
0.00010356809361166
0.00010171626762812
9.9751980764634e-05
9.9114010813482e-05
9.9727713725672e-05
0.00010269523980875
0.00011220354171985
0.00012644231394035
0.00014268138369187
0.00016680270602376
0.00020345681208502
0.00025400325501447
0.00032506613370875
0.00043997730616486
0.00065943456459372
0.00068844824202379
0.00068794385784955
0.00068737643303036
0.00068683487256643
0.00068642812368066
0.00058078671306044
0.00050429261967034
0.00047365375481244
0.00047467494877475
0.00050556019301785
0.00058691272622437
0.00069113044137196
0.00069190602017175
0.00069234341851759
2.1368010152354e-06
1.8504523150307e-06
1.3575649426938e-06
1.5746894697689e-06
2.0613488378882e-06
1.7070306470633e-06
1.3698116358827e-06
1.2112608790195e-06
1.1432089728568e-06
1.1353627966732e-06
1.1715761366441e-06
1.2223664344895e-06
1.2806602072388e-06
1.3473236627409e-06
1.4261295761559e-06
1.5254511079204e-06
1.6232602281651e-06
1.727357019758e-06
1.736873869912e-06
1.6291042451136e-06
1.5310787645568e-06
1.442507483472e-06
1.3631213342484e-06
1.2916674954872e-06
1.2267034814554e-06
1.1675971234346e-06
1.1139153649331e-06
9.7133847531071e-07
8.1858363493028e-07
6.9533694493979e-07
5.9617647104425e-07
5.1603856397282e-07
4.501450024864e-07
3.9608531501299e-07
2.0539779856912e-07
3.8032677694039e-06
4.4235545853484e-06
3.8209605531989e-06
2.5051579422075e-06
2.4357900954513e-06
2.8797231050837e-06
3.8717404204145e-06
5.0664399093188e-06
6.123363355101e-06
6.7872705512834e-06
7.0698722587346e-06
7.0070535004167e-06
6.7281650397332e-06
6.3529181180263e-06
5.9907062388555e-06
5.7142393683777e-06
5.5645490207593e-06
5.4953378533142e-06
5.4826172715344e-06
5.4791998677751e-06
5.4745797327267e-06
5.4606780379477e-06
5.4349526786726e-06
5.4267413106489e-06
5.5148542423121e-06
5.887645461488e-06
6.9889199810869e-06
9.7938912924439e-06
1.6013202445499e-05
2.752537801679e-05
4.5441924831674e-05
6.8748269758372e-05
9.5125899000579e-05
0.00012249734112818
0.00014926107503943
0.00017424677510057
0.00019662243940448
0.00021572356429302
0.00023079390875882
0.00024070951313591
0.00024372303298911
0.0002367253312521
0.00021581625911877
0.00017251432540603
0.00012233483251456
0.00014801169047393
0.00022931397478377
0.00010174988874371
6.5129903003562e-06
2.3024105275316e-06
2.8309214196605e-06
3.8091571200858e-06
5.0854654929203e-06
6.6516861346375e-06
8.5283237361204e-06
1.0738495464023e-05
1.3298433872549e-05
1.6221046040161e-05
1.9524896742503e-05
2.3237995603111e-05
2.7403741463987e-05
3.2096755280475e-05
3.7441770622525e-05
4.364294144894e-05
5.1010111283924e-05
5.9873964970464e-05
7.0250712586919e-05
8.081531024128e-05
9.0138532068135e-05
9.7685580940601e-05
0.00010320104449852
0.00010674014935831
0.00010801539153152
0.00010788875894239
0.00010695121703911
0.00010554639974502
0.00010387777802171
0.0001019918415697
9.9987943853175e-05
9.9320438984567e-05
9.9873625431353e-05
0.0001028583511915
0.0001125025760616
0.00012677275307038
0.00014290594034531
0.00016687444230358
0.00020332543575902
0.00025375797198171
0.00032495098809791
0.00044002361751848
0.0006588845119047
0.00068844599019444
0.00068794170506415
0.00068737701327262
0.00068683845519707
0.00068643225249773
0.00057995305855078
0.00050342399080638
0.00047264186526174
0.00047401307343343
0.00050409640425803
0.0005841801650621
0.00069113259018495
0.00069191078782858
0.0006923488113789
9.7627756619045e-07
2.244603357414e-06
1.8322686124417e-06
1.2295055617581e-06
1.2525471982748e-06
1.577876955818e-06
2.000364010448e-06
2.0706006607265e-06
1.6866261295614e-06
1.4988748495082e-06
1.4245592374802e-06
1.4185176723393e-06
1.4473381091114e-06
1.4915686592082e-06
1.5506815933774e-06
1.6136335900894e-06
1.6918914659771e-06
1.7889349673246e-06
1.7224956461391e-06
1.6197774359501e-06
1.5271035601845e-06
1.4430401087575e-06
1.3660363065688e-06
1.2958186409698e-06
1.2317651344085e-06
1.1734163695018e-06
1.1201668352342e-06
9.922632864176e-07
8.350573109716e-07
7.0825110362339e-07
6.0550819588478e-07
5.2284004790049e-07
4.5172572652461e-07
3.9795694970696e-07
3.3364403674281e-07
2.8454679672747e-07
4.2879392388938e-06
3.5531992784568e-06
2.3045302739518e-06
2.2783784866479e-06
2.7072124886661e-06
3.6125914596778e-06
5.0812369447608e-06
6.7696433096621e-06
7.4305066403904e-06
7.6762041102775e-06
7.4922183691724e-06
7.0773730095677e-06
6.6206079476139e-06
6.2389663301356e-06
5.9800847850566e-06
5.8513374076031e-06
5.8260367210489e-06
5.879774383057e-06
6.0040793789056e-06
6.2121618497884e-06
6.5235139520204e-06
6.9922787861956e-06
7.7670664854316e-06
9.2506214757494e-06
1.2361574686963e-05
1.8944181531485e-05
3.1250134479824e-05
5.0873922348719e-05
7.7956451537301e-05
0.00011049181024864
0.00014569990185273
0.00018115599225226
0.00021516484969186
0.00024654472842504
0.00027455115483093
0.00029855704079091
0.00031784873359971
0.00033148028822259
0.00033794918361866
0.00033452838955551
0.00031810932095719
0.00028227857330224
0.00021995887313997
0.00015825285129634
0.00017191142142265
0.0002252867191997
9.508126611048e-05
6.9325635602066e-06
2.4036023084821e-06
3.009854962214e-06
4.0195990750748e-06
5.3171229170491e-06
6.9007693108831e-06
8.7936035332737e-06
1.101916887373e-05
1.3592457426326e-05
1.652652388159e-05
1.9840347744741e-05
2.3562197392876e-05
2.7736038540395e-05
3.2436807662909e-05
3.7788778929119e-05
4.399719461205e-05
5.1371559520613e-05
6.024694578183e-05
7.0622283418523e-05
8.1210836292532e-05
9.1224441295992e-05
9.8564355650079e-05
0.00010411902320953
0.00010761785656752
0.00010880946256197
0.0001085933488407
0.00010762304227239
0.00010617637904313
0.00010444562334514
0.00010247975529534
0.00010038939919891
9.9641425659645e-05
0.00010004842768151
0.00010313050443666
0.00011306323035689
0.00012738265836003
0.00014349177668979
0.00016743681234284
0.00020364628930834
0.00025366006245019
0.00032462718862882
0.00043941332164082
0.00065685429072564
0.00068844130606835
0.00068793638719712
0.00068737465684763
0.00068684074149261
0.00068643828736653
0.00057886766746273
0.00050183498185421
0.00047048172613648
0.00047226124510428
0.00050032613498907
0.00057804221708422
0.00069113897382331
0.00069192096452835
0.00069235970727137
1.4860170437004e-07
1.3947259523295e-06
1.6336353981562e-06
1.4083341307516e-06
1.0661553406591e-06
9.4211928346969e-07
1.110921199607e-06
1.4050702370709e-06
1.689462982738e-06
1.8859718409988e-06
2.0016921535171e-06
1.9847732854123e-06
1.8867543301636e-06
1.8627186375072e-06
1.880249946036e-06
1.8770805636026e-06
1.7833698081002e-06
1.6910930676508e-06
1.6026042499118e-06
1.5191905715353e-06
1.44143224066e-06
1.3692317961157e-06
1.3028596736196e-06
1.2417593737124e-06
1.1858708575188e-06
1.1344350549568e-06
1.0855555745252e-06
9.0969506407097e-07
7.6960881175539e-07
6.5625228335725e-07
5.6480784530558e-07
4.8953201156575e-07
4.3027806402561e-07
3.7900733613468e-07
3.2184177808913e-07
1.1353511446598e-07
2.3159220070301e-06
2.286223642529e-06
2.5393573428169e-06
3.0343186905496e-06
3.8680753207498e-06
4.834955498424e-06
6.2024766370584e-06
8.9525121189272e-06
1.1782645448623e-05
1.2470579011916e-05
1.19311322673e-05
1.1048599172543e-05
1.0239949633851e-05
9.6961007807435e-06
9.4861470186837e-06
9.6700438577591e-06
1.0293894125018e-05
1.1613648570538e-05
1.4071492998916e-05
1.8325971708097e-05
2.5123287040422e-05
3.5322786952974e-05
5.0101133899051e-05
7.1302706601825e-05
0.00010014787676947
0.000136435178171
0.00017832763122592
0.00022284423087834
0.00026701284524589
0.00030866078979318
0.00034665447262296
0.00038049788943286
0.00040989521133387
0.00043449205052355
0.00045367204360438
0.00046644273241083
0.00047126024751514
0.00046584607151595
0.00044768796317903
0.00041245761540934
0.00035636343572367
0.00028233455177439
0.0002199011624329
0.00021084403616809
0.00021447600995072
9.2299645062288e-05
1.6449033944264e-05
2.5158368694385e-06
2.7405514780615e-06
3.4873188724767e-06
4.5568496591596e-06
5.9008238035821e-06
7.5271221540762e-06
9.4610149381418e-06
1.1723603701175e-05
1.4330173540353e-05
1.7293202058625e-05
2.0631785379322e-05
2.4375337811135e-05
2.8569246945413e-05
3.3289210829828e-05
3.8658524182907e-05
4.4883171356775e-05
5.2267514194956e-05
6.1194435052047e-05
7.1571501694476e-05
8.2104372833515e-05
9.2358700283424e-05
9.9833578536219e-05
0.00010541643397075
0.00010892532032245
0.00011006361312363
0.00010974490695157
0.00010872346682908
0.00010720563952588
0.00010536026189324
0.00010326125187452
0.00010106824306866
0.00010023343135886
0.00010045983637933
0.00010364108927412
0.00011388641062876
0.00012822635861782
0.00014437621137603
0.00016853371709284
0.00020480727901983
0.00025450037991852
0.00032474912384619
0.0004380929426145
0.00065188187717695
0.00068843221814896
0.00068792515341181
0.00068736583819656
0.00068683849225855
0.0006864459795283
0.00057834654075088
0.00050015044186016
0.00046766323386173
0.00046946792396793
0.00049391430928044
0.00056856302809975
0.00069115531963778
0.00069194186808586
0.00069238129678314
2.0126490329823e-08
9.1365065201625e-07
1.3452236504299e-06
1.3352392797708e-06
1.1771132622527e-06
9.4567958933935e-07
7.9593158236693e-07
8.5993369209877e-07
1.055422744992e-06
1.3032176793603e-06
1.4857752441658e-06
1.5946988662829e-06
1.6583970703194e-06
1.6708460323477e-06
1.6723106068963e-06
1.6603002793541e-06
1.6162588883297e-06
1.5580510945036e-06
1.4946790181164e-06
1.4308692676863e-06
1.3680624984713e-06
1.3068910066911e-06
1.2494122754013e-06
1.1965704870126e-06
1.1473041639077e-06
1.1008590220546e-06
1.0290068549145e-06
8.6630592942146e-07
7.351298942856e-07
6.2986316201473e-07
5.4221442609524e-07
4.6992460647553e-07
4.0864119655834e-07
3.5209095184381e-07
9.3225134159196e-08
1.6403566102443e-06
1.8708478998178e-06
2.1948403233556e-06
2.7734663233658e-06
3.5646474092516e-06
4.7225817657241e-06
7.3927897502751e-06
1.2672243169307e-05
2.1165378103711e-05
3.0888627111169e-05
3.4603824308688e-05
3.4121564020444e-05
3.2422735685602e-05
3.0865030321764e-05
3.0340965180958e-05
3.121387406412e-05
3.4163658618588e-05
4.0012359435225e-05
4.962931271625e-05
6.368128560366e-05
8.2549466271547e-05
0.00010642634950032
0.00013585637503268
0.0001710250770128
0.0002105488467379
0.0002519064057288
0.00029287123060773
0.00033151993866526
0.00036682519081611
0.0003985887680117
0.00042693251882363
0.00045188393640136
0.00047318694242924
0.00049024134302313
0.00050211371284606
0.00050755105999531
0.00050478897651033
0.00049213260145539
0.00046712707853395
0.0004278225744169
0.00037426953878813
0.00031232860284195
0.00026008996592664
0.00023241656577938
0.00019912039953701
9.006153105348e-05
6.1180358997601e-05
2.8431377447501e-06
2.85355717165e-06
3.253751624029e-06
4.1245831647897e-06
5.2583205932526e-06
6.6564797985477e-06
8.3309139532306e-06
1.0313936216219e-05
1.2622717550007e-05
1.5270648371216e-05
1.8268564112471e-05
2.16384146384e-05
2.5408994013536e-05
2.9627705773008e-05
3.4371234972865e-05
3.9762651603974e-05
4.6010269565815e-05
5.3400047973238e-05
6.2385181572769e-05
7.2787573854374e-05
8.3384572948138e-05
9.3996286101428e-05
0.00010123266635937
0.00010696149966791
0.00011052709693171
0.00011163288490126
0.00011119769174818
0.00011008395908038
0.00010845245632294
0.00010644430993958
0.00010417339756856
0.00010187294147607
0.00010098044481736
0.00010106717638395
0.00010438186009008
0.00011491188467005
0.00012915336782841
0.00014533860531083
0.00016983077538176
0.0002062797243771
0.00025582652599024
0.0003254715093048
0.00043725625137171
0.00064702745741491