/*--------------------------------*- C++ -*----------------------------------*\
| =========                 |                                                 |
| \\      /  F ield         | OpenFOAM: The Open Source CFD Toolbox           |
|  \\    /   O peration     | Version:  2312                                  |
|   \\  /    A nd           | Website:  www.openfoam.com                      |
|    \\/     M anipulation  |                                                 |
\*---------------------------------------------------------------------------*/
FoamFile
{
    version     2.0;
    format      ascii;
    arch        "LSB;label=32;scalar=64";
    class       volScalarField;
    location    "2e-05";
    object      omega;
}
// * * * * * * * * * * * * * * * * * * * * * * * * * * * * * * * * * * * * * //

dimensions      [0 0 -1 0 0 0 0];

internalField   nonuniform List<scalar> 
109340
(
10062.55705933
10378.236286355
11240.260860056
13085.039302973
16143.181015207
20286.068737048
25095.659868391
29994.991461175
34405.385196226
38628.605935615
42755.942968106
46808.41766962
50789.866201561
54697.983288608
58527.487331051
62270.965824211
65919.125933414
69460.771870633
72882.278189359
76165.95452153
79291.828868969
82232.22992818
84950.757573838
87399.83528091
89516.036768047
91206.351460276
92255.670407293
91615.131771259
89032.776052325
84512.145924259
78540.686075849
71884.631992875
65607.256034517
60263.86047001
57995.104776763
58353.17028356
10177.704768802
11350.147701831
14365.630527192
18904.061359535
24180.945615602
29540.742803609
34690.7386548
39829.244861352
44987.613858808
50098.866076189
55139.796564658
60097.120587325
64960.013774039
69718.28028198
74361.432954499
78878.086692673
83255.660200658
87479.750071528
91532.831286055
95391.440742567
99031.92105908
102415.97297902
105494.00626481
108199.47583719
110440.14210693
112089.65242852
113004.40183873
113097.09124314
111639.93443432
107679.45412946
101617.60253512
94324.592937638
86833.513740454
80185.393183927
75428.499240887
73816.61110467
10433.82662393
14654.642183587
22450.203173996
30448.48384836
38068.758586071
45642.156342418
53293.20291295
60948.503386488
68553.53974093
76058.17430644
83422.515872278
90617.216105377
97620.264161995
104413.78032644
110981.8029406
117309.05799961
123380.29176741
129178.37465
134681.97877956
139860.70161894
144692.7731043
149123.26452588
153078.74633058
156454.84824594
159095.59640047
160780.3453053
161216.75823096
160568.135261
159226.64634139
157049.49081646
152444.41276296
144868.88497944
135741.14903661
126242.67487047
117663.64733955
110841.44587735
12493.000777556
29782.627417531
47464.38082162
65178.808007455
82743.096989905
100056.31939198
116997.79823139
133471.81597065
149400.31311385
164721.30847635
179385.85733347
193362.23035905
206634.8355054
219198.08993573
231052.7418284
242204.61315502
252662.6446646
262434.21791511
271542.07831543
280026.51855514
287953.47271186
295230.63973518
301672.24322288
306988.78196415
310700.17665688
312069.56934866
310838.92534596
306982.85891036
300469.76963498
291535.95751739
281194.60239882
271272.95387716
260091.12097583
247431.43313853
235550.05995245
224364.87799979
48625.076251334
152034.47195201
250504.30501768
345034.7404733
434235.72365025
516731.460626
591644.32540589
658663.6278615
717949.95670602
769970.55136672
815353.23294287
854791.74104596
888978.15076249
918550.27913869
944070.11507291
966067.07585269
985113.60341197
1002337.0631898
1020415.7805583
1041326.3405091
1065433.8002561
1090849.0383129
1115156.5556178
1135499.4487452
1149247.2221691
1152768.039732
1148037.9544724
1138734.5015786
1128222.1229569
1108694.4872205
1065687.6975636
1013487.022755
971869.56014957
947156.35768696
940339.57957384
947156.52276227
4883491.1471085
5743143.2087066
6386241.6304092
6836730.6802918
7132410.8379219
7312005.6148486
7408645.8308061
7448085.7222837
7449056.3262526
7425952.8676444
7387166.2899266
7339136.3586783
7286329.4580561
7231813.9250254
7177791.4794964
7125919.9937399
7077456.3264584
7033421.5276598
6994840.1812871
6963331.3091691
6939373.954123
6924122.1510847
6919850.4298332
6928649.7980927
6954005.545821
6997980.7602195
7067295.7160137
7166391.9030048
7296325.8301603
7459836.3779201
7657198.0385483
7890233.2381714
8154486.9559562
8444830.7001574
8752904.6957123
9073236.8149766
60287.734097127
63638.367202384
68291.958261632
73141.595219419
77286.752736379
85932.306630744
109010.93297595
143220.95334801
164952.66332015
171601.27115054
169967.61660575
164658.32281307
157782.83874862
150531.11592358
143397.82627999
136590.86225552
130300.51706696
124573.3646102
119464.08714436
114870.18026031
110742.40647243
107013.95667516
103623.40775384
100537.88510851
97733.004752641
95172.061341666
92820.615140932
90655.437123262
88647.592105255
86785.328183764
85122.899298691
83658.964678413
82384.042835759
81121.066843345
207545.35929634
498961.9527875
400224.18570481
441125.42993234
493288.03990872
542509.56337825
586581.22063834
623743.12308095
651912.76554709
673761.75832281
689270.18981932
699245.72399985
697613.31607454
671510.90897196
631179.36273968
587788.68757309
548047.04789089
515357.44953478
491558.23742211
480423.47706662
480762.90686219
481927.68331147
473499.6545898
462452.82547382
451214.24309344
441225.04784099
432753.86200425
426853.44600364
424202.26002857
424639.65777601
426990.44759777
430631.79799557
434655.89862808
438902.94446817
442996.26877661
447275.8798854
451448.20278473
455122.81869494
458763.73512064
462029.57560548
464980.06063248
466396.84783777
467319.83311333
469700.87015277
487670.06251727
576873.4186931
914650.79765918
1983475.7760675
3437388.3871837
1212081.6141215
31775.293375236
19126.65613616
14998.332221651
12776.968594959
11470.103421826
10615.326013343
9997.5002895683
9505.4361194168
9109.184544846
8801.0417364863
8556.1050972496
8356.7635200341
8190.9480354333
8050.0737921004
7927.8664888762
7819.3815509444
7720.360558977
7625.6801406151
7533.0536909502
7453.8458756486
7371.4028065958
7325.8425633567
7289.7788741173
7262.226873559
7242.2111733657
7230.1504887328
7224.7175555241
7223.892712022
7225.9102324921
7229.6476766988
7233.7157855074
7237.2030558943
7237.3366860109
7227.6647710435
7216.4407091838
7205.6856812503
7193.9973863725
7182.4081742266
7172.9107069694
7167.5280662783
7167.3052490004
7171.6940842294
7179.8566995852
7190.6118041665
7202.1990735429
7212.7555039177
7220.7485576352
7225.2178994432
7225.4728996612
7220.8939723152
7211.1134512472
7196.7860069783
7180.3048162566
7165.4958847227
7154.4756630313
7148.8404571963
74076.032174329
75773.158710941
78443.920534305
81759.872667584
86425.555287087
91085.453623626
94715.639463261
98475.663570027
104025.07961483
110859.17945982
117251.15605703
119064.07353655
118164.61712793
115906.67755035
113192.14039544
110419.53647296
107605.25328867
104751.46435563
101979.49970901
99548.375220093
97366.717003559
95289.549361067
93312.691382994
91501.304030022
89837.304381753
88258.983789534
86740.878015243
85293.875879458
83924.113348917
82633.071630473
81462.613748542
80418.783927711
79505.261954572
78749.442390496
302256.4137715
369473.70094729
296872.09805589
310549.42745565
328013.61621398
346934.31629817
367109.29341844
389414.33338839
414706.42619779
441860.2022862
468356.77483511
490736.9824287
508123.88859353
519779.26794335
513998.32439043
496312.72049164
475197.52064098
455715.28740912
443604.71384253
441812.91171935
447429.57587712
452722.15277019
451150.53430441
447174.56417357
441638.94424497
435831.10519054
430914.16904287
428437.95150732
428968.27938079
431880.40314924
437562.65239656
445330.44632346
454259.22049253
464074.71820597
474843.74701915
487158.51470848
501052.52614305
517875.2696735
539676.87688284
569255.66474846
608178.19383693
654776.37605446
704938.40230473
745200.54234664
782477.65536353
872924.67419128
1258121.9058957
2570619.0499421
3384093.0027862
442483.10435819
30052.795413689
18471.526526283
14667.859363392
12609.198979804
11368.031724011
10544.488240126
9943.6740334396
9462.9578388498
9077.1046059194
8776.7329532065
8537.4465149147
8342.2872805837
8179.5953612609
8041.05830934
7920.5884357304
7813.3667832855
7715.0137743146
7618.2106970246
7526.4726224921
7449.1583336975
7369.6324612865
7324.6819898173
7288.7784421406
7261.3669713908
7241.5735872282
7229.7158304744
7224.401657686
7223.654015724
7225.732140073
7229.4803668332
7233.2906851492
7236.3005373105
7235.9365200909
7227.7547405283
7217.4077201291
7206.4192382659
7194.3371665135
7182.4830341435
7172.8634041306
7167.5007993896
7167.3123726522
7171.7209318275
7179.8988544164
7190.6480196163
7202.2136299373
7212.7574273985
7220.7722351929
7225.2780410148
7225.5561544234
7220.9823370772
7211.1978622069
7196.8701428628
7180.3802448997
7165.5521991847
7154.5252463382
7148.8724813089
106171.32949011
103460.13403468
102537.27155452
106921.26494219
114217.9967159
117985.64352796
117985.36962457
117190.26699786
117360.28234661
119108.5206343
121239.2601205
120710.59453736
118582.24761402
115559.86816453
112156.13927563
108663.88993094
105206.36405024
101919.89036389
98813.682597551
96015.421923911
93557.357606331
91359.341383395
89364.176843872
87570.286303775
85961.83499472
84489.796094908
83125.709766466
81867.423323384
80716.015832426
79702.247342931
78818.84674802
78054.139323867
77410.092492248
76760.056435209
195412.63054205
324624.01804268
261718.16226793
270600.29869706
284044.59040772
294394.77110572
308738.61801711
333484.45818454
368147.59442394
405988.91959272
440688.95409468
469754.62375698
491508.35408939
503348.22751208
496533.58892893
479289.66292452
459383.27608692
442411.41443529
434155.85992682
436263.30456106
443954.73009435
452310.13318706
455885.10727164
456916.34301504
456370.17463206
456269.65869091
457596.87179318
461566.09145471
469065.23776635
480201.11914691
494863.95896654
512746.45248956
533540.14738649
558470.47475677
591429.25862781
641271.50640166
720071.38312696
835561.14169209
981917.2015529
1137037.8414798
1273234.1873082
1372784.9903447
1432014.8642342
1453381.7901047
1451260.6273688
1428147.7455375
1604434.6597782
2818365.7286003
3295452.0459398
325522.95944827
27842.067000201
18135.482348772
14511.962147815
12535.944146169
11328.571155005
10519.939198758
9925.7026165791
9448.3802746138
9066.2332408035
8768.5534321215
8531.130618026
8337.3010291764
8175.5837922783
8037.7659224511
7917.8248758494
7811.0327491467
7712.9502884418
7615.762586821
7523.8614842593
7447.0256664049
7369.815121384
7324.9281302526
7288.6771133061
7261.06946797
7241.329387203
7229.6016070005
7224.3585999697
7223.6538126381
7225.7541392114
7229.4332133821
7232.7648954328
7235.0078801032
7233.6826576516
7227.6560783225
7219.1644521721
7207.8030745267
7194.9627816144
7182.6060312955
7172.8027607958
7167.4763347638
7167.3460505817
7171.788577986
7179.993630423
7190.7303641871
7202.2582790502
7212.7736762832
7220.8239368059
7225.3952968784
7225.7169040618
7221.1537690793
7211.3630118311
7197.0324049958
7180.53121746
7165.659431331
7154.6205259769
7148.9405128676
212629.00630944
197446.10560311
191120.55196116
189406.30880391
178482.5187076
163846.02628395
152075.83929081
143578.40700479
137798.6550997
134575.14636431
131437.36460746
127203.52583733
122568.50954079
118031.49301432
113617.82706892
109424.16301927
105613.94521011
102034.62555867
98716.900537874
95756.399652204
93109.725281144
90720.821658016
88549.62274678
86595.062959363
84841.740495542
83251.853229079
81799.670697909
80471.607886444
79302.127084314
78299.87681501
77446.159945346
76728.330449432
76148.269955718
75598.887335768
121187.04937979
320613.23682357
266383.0233454
266176.43319331
253922.22227796
257774.731238
278882.3453445
317162.50652162
364133.49465461
418259.80482438
476618.03537877
530342.54964209
567171.57916901
567034.81339494
547226.5104291
519824.18146792
493989.24247093
476421.30069943
471667.28926583
478090.90233129
490645.50836002
504327.8937666
514729.91760337
522395.44500147
527655.92995173
532977.38885914
539887.51585825
550243.79645486
565602.80834035
586687.25951404
614868.70621914
654396.64025541
717569.85191308
827368.8716291
1000838.0109152
1218911.6201469
1430651.6827457
1601378.1201138
1729834.4672551
1825061.0976508
1897018.2175116
1952741.586738
1997971.12087
2041215.5275394
2085530.1447884
2020542.5905658
2048036.6278354
3124381.7774637
3034397.7349742
201704.04297498
25605.867906377
17754.415757043
14341.246194177
12449.905696031
11280.320308015
10489.722449332
9903.7120353652
9430.9659446286
9053.6012276271
8759.2430199436
8524.0751304527
8331.8286544924
8171.2570463903
8034.2845926718
7914.9741431645
7808.6769136258
7710.9178314726
7613.5974445416
7521.6312715875
7445.3505174874
7369.9049707535
7325.0941071526
7288.5860838869
7260.8073825562
7241.0989678475
7229.4796921795
7224.2996777417
7223.6321231979
7225.7458886446
7229.3830264486
7232.4283105578
7234.3323589838
7232.56412835
7227.4066681718
7219.9693034403
7208.6640046341
7195.5025510506
7182.835648061
7172.869535167
7167.5176929925
7167.4235758129
7171.9071995307
7180.1456394172
7190.8736376346
7202.3521831515
7212.8325489675
7220.9156633988
7225.5557602159
7225.9263388791
7221.3768019192
7211.5811274201
7197.2475809432
7180.7383785219
7165.831532408
7154.754220797
7149.0369353816
944621.93894008
814182.86819215
612426.39572232
427572.55146022
313634.89614703
245905.36380109
204432.47840147
178681.95747278
162969.19554235
153132.0477488
144528.15579263
136565.6214455
129291.8387091
122778.18413949
116990.93103075
111831.56378028
107233.47003167
103152.12953791
99481.693134717
96185.609511287
93361.802995009
90855.625939035
88594.011559766
86564.130271479
84739.026573561
83079.385972241
81555.291122058
80161.800016806
78939.007106412
77887.947891056
76991.557287862
76249.467502815
75649.504693188
75177.374118197
89867.599023147
286969.41997505
294961.61876152
263905.36380231
216519.94868098
226239.85060385
266540.83639286
327550.60779653
404332.55586068
497355.71397382
596409.05726671
663987.68458626
684451.07133399
669815.71650939
636970.62857663
599805.56181369
569129.21719513
551466.62117786
549957.51055963
560047.2100998
576758.65240828
595971.70209921
613767.61149977
629076.87660353
640534.22163956
651872.68796344
665714.4476644
685453.30538699
715747.18762681
765905.2047791
858787.87385438
1027465.142425
1270760.1065739
1523012.3299786
1728743.0754221
1887555.5420234
2012118.1096451
2113095.64038
2198711.0763783
2274990.3999392
2346562.4601627
2416946.6335658
2489367.5344324
2568303.7507614
2608617.0318494
2444639.5832301
2459688.7626108
3404117.1120572
2471637.852295
105778.25975425
23759.557922187
17299.235465145
14133.379435508
12341.774237769
11218.389653067
10450.362203971
9874.801463345
9408.2441760789
9037.2378015961
8747.2057295116
8514.9748445211
8324.7857191817
8165.6981985222
8029.8227562259
7911.3360712789
7805.6659330974
7708.318595034
7611.0196129046
7519.3865374472
7443.8204376067
7369.4333449609
7324.7823999879
7288.2554066963
7260.4637434392
7240.826194111
7229.3071132061
7224.1917701252
7223.5653413214
7225.695348699
7229.318201898
7232.2608927229
7234.035254138
7232.1227076759
7227.1237127544
7220.0665655133
7208.9875825396
7195.8107804743
7183.0273567903
7172.9781913156
7167.6179952901
7167.5592908241
7172.088938558
7180.3631914817
7191.0874836003
7202.5162148007
7212.9560607029
7221.0548380729
7225.7448630868
7226.1565877659
7221.6252375773
7211.8335591325
7197.5024365038
7180.9860257743
7166.046792648
7154.9155848373
7149.155671725
6757023.8532356
3545813.7244681
1844503.1792845
1008457.7305298
598872.1333432
391051.92292909
286892.36315341
229799.29452863
195441.81890443
173926.5480065
158967.11332087
147181.66679351
137334.29029856
128933.08315266
121687.76591651
115409.32203069
109977.73106577
105217.72447185
101054.72983892
97441.831676669
94270.164076082
91505.951335902
89076.272648754
86909.833398159
84969.050691856
83226.444415684
81648.203865917
80216.3298683
78966.418959385
77884.356824663
76965.190912809
76202.586345166
75579.467382425
75098.824031059
77207.566495363
202806.12103027
293987.10543132
222420.04134124
190305.5539777
207006.17460067
261516.65377568
363269.96001192
494909.51169464
638829.95267808
755431.32759135
818597.80473155
823556.14220956
791913.38849829
745809.38612632
701370.24387321
668663.99555062
653019.553799
655054.46387603
669318.56965587
692049.33408853
718999.87707483
745898.83501226
769573.50627037
790569.30935425
814391.45964675
848647.68732298
907863.51114794
1019057.2833783
1212829.9086339
1470643.7832053
1719044.3295439
1921192.9962155
2081266.8949746
2211048.6793985
2319902.8580571
2414737.0497495
2500654.7118677
2581694.5356387
2661041.8354764
2740644.9230879
2822227.3802627
2905211.6261634
2971190.9492366
2936874.0163125
2679018.560305
2825464.8474677
3556564.46924
1577519.3491215
52516.294917206
22274.436392723
16787.376579626
13892.992321665
12214.479646246
11144.378956112
10402.515756289
9839.1445630212
9380.3634369886
9017.2160273849
8732.4426982456
8503.7952930706
8316.1213529913
8158.8479950517
8024.3152391075
7906.8435635318
7801.9458490667
7705.1334584361
7608.0791652867
7517.0725677733
7442.2879423041
7368.5035689076
7324.0326907068
7287.6684758362
7260.016186079
7240.5075830331
7229.0964594997
7224.0553865963
7223.4808841159
7225.6402541137
7229.2703220594
7232.1917044269
7233.9415302145
7231.9733174073
7226.8813783751
7219.9028131303
7208.9965590085
7195.9029182281
7183.1224210241
7173.079304738
7167.7565648841
7167.7503910264
7172.3346433142
7180.6485935155
7191.3739887021
7202.7598044199
7213.1551110974
7221.2440483453
7225.951789709
7226.3872063443
7221.8764282513
7212.1015544365
7197.7831195323
7181.2633568015
7166.2872391697
7155.0966504813
7149.2900232384
21019400.830317
5284340.4853033
3383576.0200301
2120504.4736885
1206002.8089003
718808.95976512
457023.60589615
320040.81192714
248113.38918026
206334.83295547
180378.01414035
162486.9530017
148995.02841768
138132.45877982
129105.07471814
121463.45330559
114920.15396938
109269.63763462
104398.83689539
100217.98877858
96596.214407999
93450.636011242
90682.064426672
88236.174378331
86071.249691564
84140.921919412
82404.774370706
80842.722737167
79486.272669591
78322.029022987
77328.421028831
76503.624334693
75824.912128442
75278.597178331
74770.316232697
101050.01632555
258157.97093153
203018.33155922
181107.21350054
202362.64408853
261107.30919076
365173.23897804
561354.0017526
813896.28374938
952983.0890258
1009153.5952786
997200.81868325
949310.14047667
890009.0043215
837333.00193799
800674.6516524
784323.60131815
787705.76483854
805257.54417169
833570.68574247
868690.56082763
907198.14389762
948834.00462562
998240.1462377
1067978.7318084
1175568.7631035
1339387.4445205
1556012.059245
1788417.5161648
1995461.9306485
2167935.9937945
2310173.892626
2429314.168636
2532169.664928
2624034.4131297
2708942.3737023
2790070.3573659
2869575.0618074
2948854.9958641
3028493.3974505
3106812.3637752
3175388.2685764
3202122.447097
3114991.051388
2867478.4581088
3018041.4844645
3550783.3135707
1497017.5085365
53824.243470452
20973.705436926
16243.735492971
13629.241893622
12071.959745961
11060.098551392
10346.870219654
9796.9865817859
9347.7318014175
8993.724029868
8715.0511907015
8490.5811707731
8305.8494905673
8150.7022751197
8017.745773498
7901.4702574913
7797.4837950732
7701.3211406092
7604.7071981158
7514.5827134956
7440.4601175919
7366.0626967289
7322.2325291623
7286.4073070068
7259.155638704
7239.9283687732
7228.7089334558
7223.8031637089
7223.3265105183
7225.5489421676
7229.2125730048
7232.1530657462
7233.9112954137
7231.8641958691
7226.5880870383
7219.5480459566
7208.7404292775
7195.7892781928
7183.1199965067
7173.1904635796
7167.9973572992
7168.1116550967
7172.7991434721
7181.1827686373
7191.9176959569
7203.2492825952
7213.5715286461
7221.6088722842
7226.2932121169
7226.7340675914
7222.2542764918
7212.5227895834
7198.2426688146
7181.727137989
7166.6836193231
7155.3927998848
7149.5096644182
51543214.440128
5394349.3490509
3375395.485794
2567657.1039614
1909338.0758672
1308649.4554117
840054.32866075
553522.20937111
377559.77287067
276718.84666389
220776.01386953
187602.04576872
166234.8474358
150914.46175223
138992.69568238
129334.92367208
121361.67780953
114698.27086817
109050.48400772
104174.95630842
99958.759337111
96291.774193795
93081.087190697
90253.66457959
87764.982842364
85541.919864247
83548.400378568
81796.093125463
80292.351379109
79009.633966055
77925.291524744
77023.225898494
76296.123192823
75729.553434009
75211.210353756
95374.018766711
179718.72078343
197982.59097025
233686.92627054
305097.52819436
447375.14788883
661080.54970018
903198.56769613
1197951.2297395
1425244.7045864
1438465.6273248
1377438.8206292
1301407.3322143
1235008.4444431
1187807.2028828
1162464.0106901
1161913.396411
1183682.7953206
1232662.5604917
1317173.6982432
1442784.8447479
1596380.2600724
1745858.9010382
1886014.5450777
2029354.6274474
2178720.4304435
2325145.1543485
2458456.896352
2574256.2398778
2673090.8195907
2758791.9444306
2836043.0304627
2908853.9907133
2979761.4583263
3050231.9912662
3120674.9253745
3190709.6213871
3258914.3233587
3321860.8486428
3372112.1017962
3394134.2657833
3363118.0490775
3241530.5483776
3100707.4323852
3238665.1082936
3461164.0814535
1639387.260496
81999.982046297
23558.085949448
18629.289840845
15144.63084562
13069.06696125
11758.384950002
10868.371985794
10215.027142613
9694.665915482
9270.1733361393
8937.4470455099
8673.0872170948
8458.5097451318
8280.79697003
8130.7490314454
8001.5875964012
7888.2072214987
7786.4457867128
7691.823611071
7596.3298790541
7508.7148715098
7436.0502523865
7362.3550337472
7319.4866230967
7284.4447351778
7257.7847999926
7239.0013146935
7228.0801151548
7223.3901302797
7223.0735938899
7225.3981259215
7229.1122914742
7232.069722254
7233.8335970207
7231.6873626383
7226.2206970614
7219.013307882
7208.1564042126
7195.3319000775
7182.8854293366
7173.2408241003
7168.3473225574
7168.7032075726
7173.5778011713
7182.0841025949
7192.8545066749
7204.1395331399
7214.3602839525
7222.2655800483
7226.8198178032
7227.1870288395
7222.7137996128
7213.0492574271
7198.8542957349
7182.3776005701
7167.2428543499
7155.8029413869
7149.8130246748
108428413.79185
7892690.0546253
3506179.6271518
2589603.9351364
2131695.6556597
1687766.9909818
1286330.1111327
903938.46796765
624310.5453727
438921.13567684
315600.53934576
241309.97828836
198090.94345791
171687.2739949
153963.97967637
140911.76286445
130719.3029324
122467.99240282
115648.10197567
109905.16545003
104987.07303283
100753.91468456
97038.975463025
93723.799375781
90776.29421265
88171.484130254
85862.83393764
83859.754553907
82136.656368795
80660.409541829
79407.160060364
78366.022767436
77499.84912886
76740.586081688
92571.573990502
145033.17143352
174883.92738759
220800.83012045
313911.24131417
490457.94810848
740683.55462414
1067439.2686688
1446941.2410419
1801247.190682
1946927.9696594
1916152.8446906
1847763.0221608
1785749.4919456
1740317.0836179
1717622.3113158
1725615.7198907
1771323.9731861
1863998.336698
1994161.6580908
2131118.6401167
2243664.0856818
2333994.1292486
2419486.4442768
2507852.9351424
2594510.9535312
2674333.3439943
2744168.4047793
2804256.1786679
2858405.1274959
2911048.5361942
2965284.7205165
3022482.1556886
3082468.8764913
3144219.2457129
3206158.7462904
3266070.7019715
3320792.6082226
3365457.5218649
3392418.3891735
3391432.2156516
3351608.3436742
3273568.2931099
3233289.911272
3322286.2576728
3275997.1070307
1714328.3940025
149551.55528077
26535.060147296
19880.115465268
16650.243456322
14128.193242268
12512.511928287
11429.944114979
10655.830072739
10059.420086898
9571.6706499928
9179.5533463644
8870.8334063042
8622.868643604
8419.7858121874
8250.3220481661
8106.3243087721
7981.6981769393
7871.7915167381
7772.7151307981
7679.8904469167
7585.7546236804
7500.8639263044
7430.142909572
7358.1245325438
7316.3002012407
7282.120946562
7256.1297439653
7237.8783054665
7227.3176668112
7222.8869201958
7222.7647202901
7225.2117531655
7228.9721140359
7231.9088895421
7233.6262691954
7231.3389795102
7225.7564202869
7218.4255041158
7207.4749681795
7194.7625584938
7182.5727768168
7173.2796847351
7168.7601249994
7169.4173177376
7174.5226712149
7183.1803227006
7193.9955176806
7205.2309442066
7215.3332361699
7223.0725826274
7227.4508849764
7227.7001569073
7223.2045340755
7213.6019704413
7199.5046954048
7183.0804837669
7167.8461898875
7156.2369095722
7150.1286490871
117522132.0039
12074134.282093
5024497.1852656
2831665.8918638
2143017.6154474
1796994.6605988
1498990.8636262
1181540.4908817
902161.21081523
648411.90165563
471969.92853649
347147.56608998
262047.998956
210112.64036126
178355.32188065
157633.79193289
143025.53630472
132083.88883962
123480.52375097
116472.25956923
110620.70590046
105628.54552162
101312.135695
97573.059712571
94320.647941596
91416.460295867
88802.889622116
86430.225868312
84416.849350411
82721.153340237
81267.215172797
80086.851657964
79313.846525634
105038.99266562
147673.78765817
177394.54667111
227630.41018291
336675.05483294
536865.68908046
833047.47963445
1225272.3386437
1694499.3732785
2058196.6569724
2235497.0234286
2229692.8745711
2163016.1684723
2110828.136832
2102070.5991132
2129243.3708068
2191167.0261147
2280267.7887723
2381351.1565678
2475700.6502479
2552523.4712349
2609711.8679428
2652599.8045154
2686338.3701741
2712745.2957236
2733243.6662648
2751833.9371736
2774446.2409216
2804005.0102705
2841823.7473309
2887585.8354019
2939772.0425107
2996356.022643
3055229.7475909
3114354.6816334
3171520.2721285
3224237.9727958
3269391.6006022
3303098.5460604
3320986.3055968
3319402.3434127
3299119.6880469
3274302.7362881
3266091.9745977
3216903.2529725
2735977.4937075
1109187.0332661
130988.77538258
27826.30021428
21170.846713017
17210.253587617
15076.846244084
13249.620237594
11997.065084905
11104.439858807
10428.510702833
9883.2755479901
9434.864948999
9079.7805111953
8796.4004400988
8566.0711308134
8375.5415161485
8215.2075161305
8077.9818272328
7958.477711213
7852.5116912588
7756.4587827409
7665.5821346194
7573.2164955327
7491.5196606574
7423.2102134232
7353.2315471588
7312.6335648494
7279.4415613769
7254.2022918928
7236.5650778808
7226.4264072582
7222.2934602266
7222.3888268311
7224.9696138129
7228.7698554974
7231.6632010607
7233.3001402425
7230.8228625802
7225.2054703372
7217.8064495242
7206.7224647477
7194.1159491034
7182.2160970056
7173.3323366652
7169.2443522078
7170.2489722004
7175.6219250779
7184.4543496561
7195.3177829467
7206.4912912607
7216.4550345188
7224.0091148387
7228.1940795992
7228.3096444554
7223.7788365482
7214.2323766802
7200.2333033666
7183.8584077561
7168.5109092889
7156.7082124551
7150.4631638519
117351123.58639
8377327.8988459
7686050.7627073
4300390.6484614
2710728.378103
1932868.3656227
1574866.8788758
1321646.5622401
1087676.185853
853799.53704977
649145.93653397
486505.2097603
367905.21472851
280981.98976037
222803.15713093
185916.77390622
161997.60734971
145618.70877259
133744.59815839
124639.18998829
117350.15918393
111337.35682799
106256.941355
101879.48481729
98055.69085991
94684.344580407
91723.796197778
89232.53819334
87212.676026106
85246.473389279
83508.968710428
86062.378615638
129864.23830462
156399.15156375
188722.5676901
253856.01468817
394792.90310795
641031.01871277
997632.69827383
1468288.9477112
1975269.7848922
2286232.6592342
2421331.2130639
2444508.8642896
2398430.2370443
2333608.5276426
2320724.7930192
2363157.7065883
2441239.5040221
2528952.0325685
2606594.0113306
2665177.950244
2701676.7368585
2715165.4682215
2707342.862595
2681454.5058334
2648680.1017908
2624391.0466548
2619489.3176139
2636659.7232356
2672954.139039
2721842.9686135
2778044.1521031
2837861.8040673
2898684.762268
2958585.020195
3015961.4517858
3069146.5871896
3116270.5845952
3155131.117088
3183417.8548597
3198589.8834446
3198353.3609692
3178875.0033182
3126678.7832283
2982100.8702229
2552721.8575204
1523946.0655283
444746.74693544
67827.561365548
26908.120049584
21490.457944783
17835.190615637
15302.613508326
13865.814219513
12517.183762367
11534.492093965
10786.69532527
10187.416832422
9691.8391972369
9292.5979261355
8974.3738337392
8716.5573125167
8504.3537313407
8326.9399537503
8176.2803151685
8046.317532601
7932.3613002039
7830.7021126367
7737.8723692656
7649.051024869
7559.1011670535
7480.971690734
7415.3767304292
7347.7722516872
7308.5608128057
7276.4582344294
7252.0390891737
7235.083259199
7225.4215310326
7221.621304703
7221.9492281007
7224.6695538802
7228.4920600643
7231.3287513767
7232.8677088782
7230.1786229462
7224.5799509021
7217.1326715081
7205.8862914009
7193.3928481855
7181.8201195098
7173.4001557095
7169.7963545722
7171.1907624907
7176.8653208853
7185.8917119146
7196.8048336075
7207.9036577618
7217.7108382911
7225.0682361048
7229.0549680656
7229.0342603041
7224.463621709
7214.9666571634
7201.0564419021
7184.7165564395
7169.240581304
7157.224221912
7150.8191073167
116833890.69894
5920085.4562009
4940546.5343854
6223717.7183952
4156680.8699569
2927144.0596955
2119560.412538
1521018.2797037
1206432.3385343
991264.3507721
804503.27360055
630801.87052976
489257.85413068
380037.49805029
296301.26900615
234747.73187605
193817.91124142
166972.41458715
148784.71625029
135809.74080827
126046.76253039
118360.68585924
112098.82832556
106864.6066062
102390.82692017
98516.027492497
95157.762247842
92260.512880442
89768.374138979
89700.140974777
116485.1809272
148927.53267912
173517.10774861
218410.24223498
321373.70148808
522427.38666041
832638.97999326
1258149.1830973
1813689.0734925
2257465.8515474
2486814.2689837
2582991.2759932
2606250.4658105
2580831.9726085
2512165.2565831
2432162.0903771
2401279.0030304
2422768.0858389
2469668.8269689
2512203.7080831
2533264.570764
2527439.1952138
2494812.1145394
2442855.5248763
2388691.0866044
2352062.3531806
2344319.6608513
2364668.1390411
2406064.8925519
2459856.178645
2519547.8571361
2580968.9310647
2641473.9940286
2699413.5115762
2753421.4073155
2802007.2642534
2843349.9517234
2875084.083461
2893870.234915
2894310.3552734
2867317.7958216
2795928.4027072
2646306.299214
2352710.8636358
1824040.9065008