/*--------------------------------*- C++ -*----------------------------------*\
| =========                 |                                                 |
| \\      /  F ield         | OpenFOAM: The Open Source CFD Toolbox           |
|  \\    /   O peration     | Version:  2312                                  |
|   \\  /    A nd           | Website:  www.openfoam.com                      |
|    \\/     M anipulation  |                                                 |
\*---------------------------------------------------------------------------*/
FoamFile
{
    version     2.0;
    format      ascii;
    arch        "LSB;label=32;scalar=64";
    class       volScalarField;
    location    "2e-05";
    object      p;
}
// * * * * * * * * * * * * * * * * * * * * * * * * * * * * * * * * * * * * * //

dimensions      [1 -1 -2 0 0 0 0];

internalField   nonuniform List<scalar> 
109340
(
331712.98152476
331582.82711111
329953.45756643
327676.68206836
325032.26954803
322242.64267045
319396.7923822
316548.42290303
313769.06152504
311067.33836431
308371.03209561
305669.60710735
302958.07768366
300229.62473783
297473.9077375
294676.918423
291821.50565376
288885.47701853
285840.60988508
282610.16978307
279240.07068101
275625.4670718
271725.79411081
267487.59169528
262861.72804487
257799.93361925
252278.09881368
246220.35824595
239507.7946705
232057.40320805
223840.71613044
214840.27589137
205375.50484097
195491.53447422
185536.33619366
175732.66236325
332337.56546232
331751.91737426
329734.25866224
327206.14615195
324447.80624735
321650.54925224
318872.28035413
316122.16577045
313384.20111677
310661.43125861
307942.12344541
305220.25798535
302490.14819072
299742.87937784
296966.81358193
294145.45776152
291260.80116662
288288.74815345
285200.75474227
281927.32990683
278479.06123738
274781.25510356
270783.19061067
266428.1849049
261672.41391601
256479.97629001
250794.05169278
244551.32522359
237673.67036617
230048.90105919
221658.81658744
212541.77841198
202975.05404794
193036.44655857
183105.41287512
173347.06747295
333285.0108154
332350.56412105
329970.40715694
327344.47881228
324622.11288616
321887.2369197
319130.27388262
316359.94158163
313596.44435134
310845.35044965
308100.30655057
305355.10192359
302603.41244864
299836.33036798
297042.48320659
294206.92900058
291311.61344466
288332.36171967
285236.39487886
281965.50017024
278512.38258002
274811.88896371
270811.32374136
266450.38249049
261688.21379482
256492.6965703
250819.6384365
244567.17627115
237657.91343119
230031.55892914
221658.37025102
212581.42224684
203038.0545763
193121.34200575
183221.92330181
173473.93308421
334609.0266084
333149.74018791
330567.63233921
327820.18355532
325010.87409619
322184.0830922
319352.87747832
316528.92648788
313723.73353128
310939.40094234
308170.12912264
305408.66853924
302646.72169324
299874.12215899
297078.39602434
294243.09305026
291349.23069031
288373.36546294
285276.5985389
282011.61597713
278554.66636739
274849.92740502
270840.12610378
266460.20178285
261672.57195613
256463.65702743
250799.60030099
244588.63851876
237726.77331121
230107.20327529
221735.65560732
212673.62497686
203130.44413644
193230.34552325
183355.78616511
173514.39976842
336713.97454641
334325.37634781
331125.36890519
328080.27330669
325150.8714163
322278.73941498
319433.13408218
316606.18957815
313802.3921742
311016.50294116
308244.73950301
305481.04318187
302717.56943901
299944.48352707
297149.9721049
294320.9437614
291427.47083905
288456.41899647
285359.48100959
282109.34621773
278648.71526911
274937.67712911
270908.23310564
266488.82737079
261644.55024256
256399.61473112
250720.19410886
244527.66274994
237703.03936258
230115.94394934
221791.85626493
212797.86607216
203277.65245349
193399.63938704
183476.49366617
173652.48268377
340661.79423859
334942.10227057
331251.92465041
328109.41565226
325174.31764566
322312.2258876
319477.51512067
316658.10629772
313852.86764441
311062.61419711
308283.50928389
305509.90886789
302734.03914939
299946.17561964
297133.81007695
294280.99182896
291370.52796903
288383.15492815
285302.40325191
282042.54616719
278561.72058045
274835.59493878
270776.18528569
266322.57259822
261431.98180642
256153.30020978
250506.9362385
244399.24989801
237695.32297544
230253.3711907
221995.81692435
213021.57636059
203507.8442363
193661.07388514
183367.48525748
173222.8839893
166186.95847919
156993.54378222
148518.23694045
138115.59794535
122279.35188736
100127.40421515
76707.907468458
57066.642430417
42034.21229135
31628.810226639
24074.462208654
18577.996233837
14614.77849486
11696.414053485
9473.4913228177
7740.182106739
6398.1035433342
5347.3676680131
4507.1599899804
3824.4068872689
3268.2769115191
2812.8118900696
2435.6858215451
2119.9020218804
1854.2327216218
1630.1901818208
1440.2277840722
1277.6307120834
1137.0999298483
1015.0295719301
908.86898945714
816.61749049455
736.14286174649
664.52029090449
3457.6718937517
5101.2039277637
2576.8432824924
3722.9570871303
5682.7068318454
8204.7876700604
10741.732273217
12629.632040109
13554.615737935
13574.598050579
12902.773059242
11779.020557828
10409.230128968
8928.9309156451
7527.4662815972
6353.0332325798
5477.0231754698
4895.6966196319
4608.0299329522
4720.9905947554
5207.9142936451
5919.3379691138
6290.0783704261
6469.0272976506
6443.6692468927
6369.8672050622
6287.1710985602
6212.0678308043
6174.028919866
6166.438179955
6169.5312968118
6151.6310874494
6109.7236373826
6048.448276088
5976.1933660412
5904.1972889901
5834.1947042904
5768.9510200662
5708.9191887763
5658.7736909437
5633.2988566784
5616.7756105348
5634.5020211222
5698.8383260445
5913.6319296105
6325.6639534668
6897.6173408238
7094.2577000225
7047.5200102703
7074.633007472
6883.3516766228
6718.4332531074
6594.7206661551
6499.8339224975
6426.3040347441
6368.4026762717
6322.0576878976
6284.3225223362
6253.016915537
6226.5192197443
6203.6129525522
6183.3630544672
6165.0401447318
6148.0623886417
6131.9599513082
6116.3388309691
6100.8841920078
6085.3922469101
6069.9254049881
6054.7418641036
6036.5596143981
6022.8652884808
6010.2070677143
5998.675569532
5988.3674486453
5979.3033412514
5971.4407029644
5964.7011619245
5959.007105437
5954.2943445579
5950.5091425783
5947.6258153843
5945.3760394123
5943.9756280834
5943.4195134632
5943.2904317364
5943.581926555
5944.3644695311
5945.5813461755
5947.1888783578
5949.1659567699
5951.5579298223
5954.3296437276
5957.5058819032
5960.9431555254
5964.3825733379
5967.8351801651
5971.2514212178
5974.5749443035
5977.8188211912
5981.0499154202
5984.2580795891
5987.6554039112
5990.9478824466
5994.7118911293
5997.8658062261
164000.37510316
155064.09120639
143941.29220476
127441.02005034
106413.58306442
84768.571500867
65489.933923117
49806.764263527
37571.246962826
28600.421225167
22076.267833847
17271.402106436
13679.697821517
10974.671912088
8919.8276847252
7337.3522757682
6091.8237577133
5099.089924346
4305.3823879735
3664.5605542637
3140.1343688759
2707.1150231014
2347.481286986
2046.6523610468
1793.2989800435
1578.5831457185
1395.4631190922
1238.4628782716
1103.1968361484
985.99985954734
884.01833764382
794.90495471282
717.00475510734
645.85875336514
4804.4674291988
4391.9440229213
2662.6407482072
3960.9313278443
6004.6919323555
8594.4893306824
11065.483985853
12720.881043338
13416.077573129
13243.356001127
12468.120140275
11283.828186614
9886.3513478333
8442.4399542161
7125.7624034042
6057.5634266633
5292.0637496034
4806.2495630866
4662.1564449385
4887.0089900553
5443.8611198224
6044.5476506062
6333.0760741529
6449.6595782725
6409.7621782522
6337.4107353978
6259.1686138203
6198.4282124103
6168.7578484118
6161.6381385968
6155.3920706334
6130.240567729
6082.7826220103
6013.386229306
5938.2438192642
5867.9863266136
5808.9334002438
5746.6616226839
5689.4939406609
5643.1139536041
5613.3750658903
5605.3134842838
5635.7733345916
5729.1873424508
5978.8894824389
6413.8623381104
6947.9344203191
7041.9544246605
6966.6284017412
7007.2843081598
6874.7196129414
6716.7788522488
6594.1664580121
6499.6505063443
6426.2558442448
6368.4069141188
6322.076929804
6284.3447488597
6253.0363760428
6226.5330825083
6203.6198902705
6183.36288392
6165.0302511469
6148.0430896555
6131.932309821
6116.3038229218
6100.8415480827
6085.3432448725
6069.8746651115
6054.6893197882
6036.5090493042
6022.8191636338
6010.1667728254
5998.6420519817
5988.3396671299
5979.2811766353
5971.423770652
5964.6888060638
5958.9983770497
5954.2891235851
5950.5109198791
5947.6332583726
5945.3930609911
5943.9749349234
5943.4239767817
5943.2916249523
5943.5984746385
5944.3775921097
5945.5940474967
5947.2015373926
5949.1801061847
5951.5754408015
5954.352709652
5957.5281547373
5960.9614657945
5964.4033867381
5967.8635889206
5971.286133803
5974.6142752215
5977.8598662849
5981.0881212796
5984.3019896246
5987.6859363878
5990.9920421986
5994.7272630707
5997.8666673112
164060.29965054
153673.32162871
136285.63043717
113138.82840906
90799.552152399
72060.026633298
57116.067651067
44911.354994216
35011.731821749
27224.285227463
21230.255010023
16724.761828995
13314.98567166
10732.214599542
8750.9448207095
7213.2929313313
5994.4273490514
5030.3388025842
4254.1327725201
3623.5690574752
3107.2523526799
2681.9209089215
2328.0774682186
2031.2683531798
1780.6928723157
1567.862718884
1386.3251971915
1230.7581679259
1096.7477193632
980.64589396637
879.60838160415
791.40360972276
714.28872020045
645.38644928854
3482.8741876716
3991.7134416222
2633.3310704287
3690.9142135192
5690.3628641654
8324.0282858198
10845.543657878
12481.367227606
13188.892754858
13021.394539426
12250.8150923
11071.624051714
9677.0334936495
8249.3723086366
6995.5968863416
6005.0067772861
5292.0889617948
4852.7907174565
4757.1159435279
5008.9843764474
5514.8973213104
6041.7600243233
6314.9318359531
6430.4642732065
6391.4659017103
6325.6468107624
6255.5595583201
6199.5054259295
6169.2593257322
6151.8314337217
6140.6217823699
6119.6345091479
6071.92662434
6010.4691524426
5946.2562420756
5882.6339960239
5821.7210341092
5758.7628576981
5698.3367531825
5647.392633738
5610.9756148176
5594.4650197793
5618.9469713034
5709.7848656454
5928.3898764028
6330.2508285375
6810.7105115705
6954.3816216974
6931.5315901255
6971.5359919052
6849.3448482102
6701.7699863519
6584.7183088053
6493.5090311361
6422.1064439471
6365.5068549923
6319.9907321299
6282.8038713805
6251.8704190995
6225.6311813791
6202.9079849496
6182.790703733
6164.5634358833
6147.6569720771
6131.6097528534
6116.0335565285
6100.6091159976
6085.141919745
6069.7072225892
6054.5443208681
6036.3892808506
6022.7177157857
6010.0822818019
5998.5737203764
5988.2836006449
5979.2364343343
5971.3892841702
5964.663286579
5958.9801404236
5954.2776948149
5950.5037404909
5947.6332832316
5945.4197244138
5943.9719102708
5943.430362176
5943.3430199404
5943.6328788171
5944.4028371396
5945.6214320212
5947.2334243159
5949.2228071561
5951.6226288254
5954.4124576571
5957.5879204831
5961.0143342518
5964.46163416
5967.9361401794
5971.3670661331
5974.7000198583
5977.9457127807
5981.1645887829
5984.3867435678
5987.7394265083
5991.082649098
5994.7630191926
5997.8823496656
163855.35176097
145541.24728713
116913.53829934
91079.377811068
72580.977493752
58868.616171133
48204.606743751
39229.670008644
31552.614512296
25182.202775865
20033.52332889
15973.925998818
12825.419619331
10397.258412257
8512.498097626
7037.1034405246
5879.1714444451
4942.301868493
4181.3359591792
3570.3403645002
3066.7260234289
2649.5588960077
2301.7798679067
2009.9688658566
1763.5408710881
1554.0636548453
1375.0692223793
1221.3955260391
1088.8535906051
974.12357956052
874.25550946179
787.12573528551
710.51605395201
642.91102212235
1609.7548967081
3504.9860500799
2515.7322984342
3394.6658845664
5299.1275808141
7904.0709022024
10458.967472801
12122.813711674
12874.076438729
12741.448872903
11949.476114458
10769.492673806
9359.7897466664
7986.4740202118
6822.6934566521
5914.9549962584
5296.9998876229
4948.1610269617
4913.7202672096
5169.1726910899
5605.0128306495
6042.647433186
6291.7880228286
6396.9302811486
6364.9287823102
6308.4463239126
6250.1171337658
6203.6812533187
6176.167409412
6160.0377091973
6142.1653452362
6112.811822268
6069.0580901437
6013.0739849244
5952.106725992
5889.3959718734
5823.7652073485
5754.5145678854
5689.6595664141
5633.8089071421
5592.0637532309
5573.8831890979
5594.6170328631
5681.0462107437
5881.2158640955
6250.8850881219
6668.7935913938
6848.0106709177
6893.411182917
6922.3145888847
6814.4713344906
6680.2053755973
6570.9347030557
6484.4308706049
6415.9373524922
6361.1902489256
6316.8863381305
6280.5136255926
6250.1398112371
6224.2940524384
6201.8533685187
6181.9426075587
6163.8689523817
6147.0794155842
6131.1236337237
6115.6203225258
6100.2524516811
6084.8349335722
6069.4436248343
6054.3136546122
6036.1954325182
6022.5517899909
6009.9433119757
5998.461263011
5988.1915817926
5979.1631572329
5971.3326440897
5964.6210439359
5958.9497435858
5954.2585145097
5950.4941095336
5947.6311958384
5945.4393891353
5943.9792541595
5943.4516956248
5943.3755765726
5943.6714749412
5944.4442820017
5945.6678291788
5947.2880653683
5949.2865333808
5951.6938497549
5954.4949019585
5957.6759029598
5961.1049892739
5964.5643621401
5968.050541592
5971.4910717035
5974.829683193
5978.0753483678
5981.2888896456
5984.5071717232
5987.8409203644
5991.1760024774
5994.8153526417
5997.9062425688
157985.21621485
115801.03322529
84423.384785995
66266.780042941
55433.040093654
46779.699541313
39664.192317347
33407.278997052
27754.869672691
22754.537136682
18520.455169982
15028.452424808
12218.166167508
9981.7672392751
8214.1537260817
6819.9707592223
5709.9539709782
4821.1068783327
4101.4166980971
3500.4819583196
3011.337608724
2607.0013796858
2268.1093823093
1982.8783336489
1741.728340302
1536.3975388257
1360.8040778685
1209.8483336534
1079.3623619614
966.18649934256
867.60665001689
781.36151987318
705.41184442297
638.91855124063
689.53888244944
3121.0177158943
2330.743982798
3041.6614303274
4550.0116424139
6657.0447339807
9420.6984379467
11611.980140346
12494.781008619
12414.255053474
11579.694136994
10335.358230504
8939.4612461129
7655.7202808543
6624.4843015378
5846.7688210866
5333.8273958444
5094.4168879969
5113.7882630026
5353.1908285272
5706.6215805942
6049.5225145974
6270.8111029865
6361.656054565
6339.5420658551
6291.9447998299
6246.6362051646
6211.3212840895
6186.9089853311
6168.314706101
6144.5379691156
6108.5638963486
6063.9331652811
6006.6143464308
5941.9321686117
5875.9189726528
5808.6031023188
5740.7737863094
5676.1021532291
5618.7792202716
5575.3709754003
5553.6772974972
5572.7513679611
5651.613602257
5835.6999410246
6178.6896812871
6548.8144525864
6745.5158160629
6859.5738420318
6864.5981428285
6772.9670355312
6653.8464932855
6553.878313712
6473.0873032814
6408.1677244824
6355.7187303004
6312.9337704301
6277.587279634
6247.9223014619
6222.5770195874
6200.4970230868
6180.8510567783
6162.9753859297
6146.3371590567
6130.5000720865
6115.0917027514
6099.798916783
6084.444603925
6069.1074624345
6054.0211397739
6035.9535671525
6022.3454441281
6009.770415483
5998.3211803869
5988.0768529175
5979.0716865814
5971.2617870869
5964.5683669255
5958.9127223798
5954.2358397639
5950.4850214115
5947.631590902
5945.4530609457
5943.9997873454
5943.4847627896
5943.419041392
5943.7209323506
5944.4992400135
5945.7314527445
5947.3611515007
5949.3703433123
5951.7871498122
5954.6003174472
5957.7912703769
5961.2300173242
5964.704098108
5968.2035020488
5971.6556824426
5975.0015661999
5978.2477309569
5981.455677897
5984.6625490506
5987.975290408
5991.285180039
5994.8809329448
5997.9394069423
94120.590540144
59947.549401428
51211.366609717
45694.040487189
40827.762283071
36253.985723272
31926.259208403
27849.378141416
23934.203205109
20205.803218528
16820.175865609
13905.71001045
11473.661435046
9486.8853588496
7876.0354397815
6572.9128483712
5520.0831428838
4670.8851993095
3983.5139972383
3419.6491362614
2948.7541462398
2555.1378658029
2226.9148313766
1950.7043905993
1715.9152692922
1515.5046829431
1343.8439815899
1195.8441454958
1067.7986264643
956.47819807299
859.37913013186
774.27965239664
699.79189929397
633.87714534384
583.00860741825
2873.3062386576
2319.3923711749
2912.1159079322
3946.0479844909
5102.1274461078
6869.2329751751
10104.465034641
11953.23678268
12042.216361154
11115.399523335
9802.5900051327
8433.9535361707
7299.6952372253
6437.2048350209
5819.0888292889
5430.1487612247
5286.3324170683
5335.690807403
5541.5682424006
5818.1044751259
6078.9002754887
6253.0405877265
6322.347919336
6310.3032849544
6276.3458666186
6246.1364172564
6222.372032854
6199.7880608888
6174.079529791
6142.0430810417
6097.7555524555
6046.7988301705
5989.3112739363
5927.4571493512
5862.0328429496
5794.6083847032
5726.775564883
5661.7995748851
5603.8516505009
5558.2292651796
5537.4986315236
5551.9125048129
5627.3863673833
5804.5822664978
6112.6030158231
6460.9410134466
6654.6700483863
6816.8429723296
6803.7883172013
6727.1308069445
6623.8315751238
6534.0948765656
6459.7386191219
6398.9241168326
6349.1532994043
6308.1605606022
6274.0359985349
6245.2210337731
6220.4790544356
6198.8354853465
6179.510696845
6161.8755542428
6145.4214189716
6129.7288440066
6114.4362150666
6099.2356922759
6083.95869761
6068.6875933619
6053.654259376
6035.6492740023
6022.0843925545
6009.5509056111
5998.142854525
5987.930934247
5978.955502847
5971.1717773651
5964.5013543638
5958.8656351346
5954.206460105
5950.4716434566
5947.6351987483
5945.464433202
5944.0225953949
5943.5253176656
5943.4700763756
5943.7819131138
5944.5705157579
5945.8145201759
5947.4567181506
5949.4778676925
5951.9070326387
5954.734572803
5957.9392343457
5961.3938186173
5964.8858923024
5968.4009942562
5971.8665105492
5975.2203079977
5978.4666312736
5981.6673532812
5984.856556898
5988.1449017016
5991.4190659729
5994.9631853488
5997.9820185466
5350.386343917
20883.673583568
27559.152557226
29700.688052816
29425.403121234
28068.031525495
25926.060062104
23480.116860096
20901.355426135
18278.562814338
15683.68801776
13256.928396934
11120.697691705
9305.9489764353
7799.6102171384
6560.2886230021
5542.5119368049
4704.9604648316
4010.0034911847
3442.6802037105
2973.9786505781
2583.0757147169
2254.5125316957
1975.8579595965
1738.4965937006
1535.8863585938
1362.4884989906
1213.1484770739
1083.7323743085
971.04998460588
872.55373588004
786.36177863153
710.23930692343
643.18286916658
583.1704907431
1077.2028072919
2967.7268753855
3340.3851886598
4038.1785541195
4965.6978773614
5898.5753724626
7076.9302630797
9465.8325223551
11628.214995271
10864.039811444
9516.4271396872
8181.6440133856
7165.4550948262
6433.9611720164
5930.6628458993
5619.7992992079
5499.4187175878
5530.6385711996
5681.7955267235
5880.4275543986
6074.2918619819
6212.4289820521
6283.6996326608
6287.975872966
6270.7986856894
6250.6462377858
6231.0649207978
6205.6768570283
6174.5575004962
6137.9360899611
6094.5501164973
6044.5630848802
5988.7429420049
5928.4771573822
5864.3437318882
5797.7079070238
5730.1385675714
5664.4903362366
5605.0705255834
5556.83966065
5527.8870048179
5532.4115431844
5591.3875073457
5739.7116325439
6001.6830865148
6322.7206366211
6542.6368003725
6733.9200928797
6750.570118687
6679.0247047841
6591.5432749572
6512.3039547564
6444.7910665043
6388.4411093884
6341.6315895175
6302.6484201878
6269.9105070461
6242.0680617375
6218.0210019098
6196.8829495085
6177.931952726
6160.5779393544
6144.3398422861
6128.8173088154
6113.6610212625
6098.5695738051
6083.3840360545
6068.1927131765
6053.2213186757
6035.0674476984
6021.5945456379
6009.1432082668
5997.8125837913
5987.6622251231
5978.7427757086
5971.0078915351
5964.3801820851
5958.7816233268
5954.1550235615
5950.450206938
5947.6425871381
5945.4889661895
5944.084624789
5943.6068134797
5943.5642285008
5943.8968213717
5944.7082264335
5945.9750593336
5947.6409686218
5949.6872981998
5952.1418599357
5954.994925112
5958.2240697022
5961.7082912066
5965.2311048918
5968.7756547898
5972.2661832774
5975.6355417904
5978.8845747845
5982.0737986756
5985.2293810458
5988.4720316867
5991.6694426484
5995.1179390688
5998.065771341
5620.8225752191
6671.8741072603
9725.9062030002
12163.633437932
13908.188191862
14915.230706592
15051.449903754
14635.899151412
13848.201081795
12782.654070381
11530.834348722
10182.152746912
8851.0580232464
7621.8114916865
6534.1868167713
5598.3812724086
4805.4131121161
4139.3974943015
3580.4251431127
3106.725751885
2704.6375709915
2363.4610039279
2072.5507476553
1822.4983124014
1610.003070877
1428.6533406499
1272.6175039103
1137.2630146835
1019.3569601313
916.27434896868
825.68090984026
745.93288654181
675.60073834175
613.64351676356
557.514631935
753.06251326457
6460.5370594795
6478.3065329569
6714.4895121197
7061.7530738752
7409.7149436709
7740.98391671
7875.5171817758
8731.8292782708
8877.3638776535
7779.0327718319
6955.6938834644
6474.7587534594
6174.7035888491
5998.739375315
5914.5380272223
5907.5864836015
5956.8302634248
6039.0524081251
6126.0251950178
6193.370367787
6235.9788346639
6253.4151990961
6252.9298348778
6243.0070926408
6227.0227998874
6204.1786395241
6175.0861431752
6140.1526647135
6100.0505474444
6054.9091334817
6005.1370326472
5950.8613608064
5892.5307763186
5831.0959118568
5767.2284037837
5703.5156634451
5642.6064209327
5589.2415314497
5550.0503884808
5536.1225164113
5563.3295241079
5659.0318426443
5828.5025387675
6074.6321926815
6302.9185402152
6519.6140768439
6616.4349942143
6612.4052000627
6583.573215741
6524.6988447459
6465.5006263771
6411.7296478937
6364.7337123334
6324.3397430728
6289.7995811104
6260.1834795485
6234.5685777468
6212.132708184
6192.1781229929
6174.109126629
6157.4231306647
6141.7015433604
6126.5872052613
6111.7594567554
6096.9335169557
6081.9690798514
6066.9641772395
6052.1473317412
6034.1236313756
6020.7856639911
6008.4622110174
5997.2526372202
5987.206260316
5978.3792748962
5970.7257853719
5964.1696992465
5958.6338573351
5954.0624586591
5950.4085876737
5947.6451623312
5945.5252320039
5944.1801365576
5943.7373306279
5943.7161862934
5944.0806470021
5944.9308157134
5946.2373346256
5947.9422353177
5950.0274160173
5952.521859823
5955.4169561579
5958.68887317
5962.2277944082
5965.8003295141
5969.392887604
5972.9237774845
5976.3174121985
5979.567082102
5982.7305305329
5985.8281771918
5988.9931475664
5992.0642574885
5995.3598626895
5998.1958599467
5852.7646529403
5649.2470356599
5088.8789457659
5972.291973318
7320.8368092569
8345.674049948
9013.1008613136
9302.3808585096
9270.5655502154
8964.3981182617
8469.191666583
7823.7332749316
7077.3682992362
6301.5444648506
5550.7810857511
4860.0947072796
4243.4283190634
3703.0325883631
3236.2533379117
2835.845986163
2493.3221384416
2199.7510557268
1945.8703085124
1725.2053442494
1532.8330589834
1365.1231695548
1219.134312088
1092.0931320984
981.23065724794
884.17754455167
798.47814327165
722.77383753843
655.70966598398
594.6396216047
770.29935247752
3187.7150065858
3858.3098145889
4498.3899783148
5128.1770576283
5697.4813417001
6179.4355194776
6578.6799254591
6945.323482105
7294.2289898248
7174.5698841527
6763.029320936
6454.730918972
6277.4334979696
6183.4602516621
6135.7465757104
6120.0244129109
6128.5120094042
6152.980598069
6180.9804292392
6205.5267031861
6223.302436608
6232.7038243789
6234.3880991721
6228.8739705789
6216.8071318614
6199.932647766
6178.0337720663
6151.7601785244
6120.7917558199
6085.2269330876
6044.9281040386
5999.0704911749
5948.7191259189
5894.3268662285
5836.8342967969
5777.5049351292
5718.915408326
5664.7528449007
5620.5927383783
5594.1198617957
5596.1446653754
5644.2954173334
5745.9352090918
5899.0157097558
6082.065381211
6287.1560520289
6432.9447780341
6498.8827400119
6506.4851384325
6496.8524654514
6459.9398810867
6418.0758655377
6376.8748872448
6338.9377294894
6305.0510572788
6275.1841555794
6248.9419112074
6225.7807545118
6205.1565598703
6186.5538138347
6169.5049694532
6153.600409027
6138.4891114671
6123.860567371
6109.4255911611
6094.9207278629
6080.2241360018
6065.4447446892
6050.8193238246
6032.9629848521
6019.7938300059
6007.6257442185
5996.5598594187
5986.6427115776
5977.9288127319
5970.3746152547
5963.9063755552
5958.4477629045
5953.9441857229
5950.3522776626
5947.6420755986
5945.5698742036
5944.2978719106
5943.8986098626
5943.9074122011
5944.3141931004
5945.2115441156
5946.5650724313
5948.3181960771
5950.4530568093
5952.9993040101
5955.948025773
5959.2729767428
5962.8801735236
5966.5130696129
5970.1628811649
5973.7406908865
5977.161038115
5980.4066738998
5983.5305306065
5986.553745972
5989.6151461975
5992.5306402234
5995.6444624086
5998.3464882078
5984.6390362007
6073.1875800451
5580.965387626
4498.6407638823
4338.3035815926
4909.2160837762
5612.7738942596
6054.3717801835
6284.8930851025
6319.9264282473
6188.3752388513
5922.6080691735
5543.14233552
5096.28027318
4612.8260988102
4132.7207187524
3678.614335947
3262.5112564213
2888.5149776327
2557.8438133194
2267.4235516926
2013.416265049
1792.248462652
1601.1011967288
1434.0123399991
1285.5894208746
1155.5041821798
1040.1888066263
938.21368653489
848.28464303213
767.06007907732
695.46944645121
630.51092984716
1203.5522471846
3205.0419151914
3799.745119209
4340.8905447761
4847.449398108
5315.0671217827
5698.2593250839
5978.8893114555
6150.8730057511
6275.2920947167
6430.3302338343
6440.8907857706
6337.0251729317
6248.6811227165
6197.168934296
6171.7881135852
6161.8633108091
6163.8779520061
6172.9251947499
6185.7241288201
6198.5514850857
6209.1843927157
6215.409786634
6216.8771618588
6214.0375461147
6207.6522005994
6198.1043517178
6185.1759775367
6167.9635750413
6145.6722380116
6118.2468950318
6085.281028211
6047.0836701918
6003.9017639093
5956.6440888719
5906.0955681917
5853.5135540526
5800.7403462127
5750.6584297592
5707.1805818485
5676.5148521231
5665.8421405672
5684.1465046811
5737.3380710372
5830.3426811795
5958.2098463308
6122.324361352
6258.2378226705
6355.9182647464
6405.9455748105
6421.3202032656
6422.5211115791
6401.2068529282
6372.8559393175
6342.4383789456
6312.6503685699
6284.8638751432
6259.5554911057
6236.7053216926
6216.0773852052
6197.357250334
6180.1989132924
6164.2577949131
6149.2131692106
6134.7813091445
6120.6987478398
6106.7086001907
6092.5689237763
6078.178594126
6063.6589273442
6049.2540023743
6031.6068866243
6018.6343054601
6006.6434149029
5995.7404323016
5985.9742581574
5977.392786144
5969.9552080405
5963.5911866858
5958.2249354812
5953.8021512353
5950.2829522109
5947.6341233154
5945.6185637366
5944.4345008945
5944.0863399331
5944.1339864154
5944.5952465806
5945.5502173278
5946.9602464198
5948.7703153201
5950.9655308705
5953.5750114719
5956.5890217537
5959.9784093492
5963.6652465348
5967.3666071321
5971.0798871076
5974.7068983035
5978.1523345643
5981.3867296909
5984.4557585295
5987.3879183525
5990.3201592923
5993.0573660115
5995.9654367963
5998.510595149
6040.9103005436
6041.666230931
6065.7996089484
5763.055373496
4620.6972925467
3751.6291263979
3673.4225838716
3933.8479152656
4314.719870597
4487.793674564
4547.6839649161
4469.0472176882
4311.2773758061
4073.9771194107
3786.4078411118
3469.2650262936
3148.5029476898
2839.2128510374
2550.1704117111
2285.3925884574
2046.6339269356
1833.4520005097
1644.0454549773
1476.2651084351
1327.841274487
1194.7041286168
1076.7852127143
971.14313528818
887.0757423206
808.02461754241
727.11579326435
699.15845394577
2371.3807585051
3342.8452137111
3865.6289016065
4368.9863660592
4847.6853286281
5280.4411016096
5656.7855915702
5940.2098823287
6093.250138135
6169.2929271252
6203.9488199454
6227.6111123998
6225.4049341208
6201.149025956
6178.4092977232
6164.1618060279
6157.4887757063
6156.6894252777
6161.0847063575
6169.1146075185
6178.8508854382
6188.1707769991
6195.9370353394
6201.4735798139
6204.5679714936
6204.6866064777
6201.2640088286
6193.4344045776
6181.1698026797
6163.9740919789
6141.8147921649
6114.7900811723
6083.0003529526
6046.8488828645
6006.8725399902
5963.8478089814
5918.7815437299
5873.1243517427
5828.9975525703
5789.5102066245
5758.5995716176
5740.9489012456
5741.9104128073
5767.4588056246
5822.8375695831
5911.2567402538
6020.2487022875
6130.0254207251
6224.7664694292
6293.4268515864
6335.5464401936
6353.892786198
6361.0703573625
6350.0228515291
6331.6438044178
6309.8250441096
6287.007294402
6264.670869801
6243.5692522931
6223.9469358885
6205.8012290384
6188.9899304851
6173.3056673006
6158.5103812967
6144.3703637975
6130.6624723067
6117.1690180179
6103.6583360314
6089.9191773629
6075.8661557228
6061.6332997747
6047.4747467171
6030.0676864209
6017.3168424789
6005.5229399946
5994.8002987058
5985.2037512756
5976.7726629916
5969.4685631787
5963.2248915304
5957.9663112187
5953.6377688997
5950.2019656422
5947.6232553227
5945.6716709395
5944.5908444847
5944.3013794646
5944.3977297527
5944.9253686177
5945.947509269
5947.4228492452
5949.3004914197
5951.5672406224
5954.2522036343
5957.3443464484
5960.8101991506
5964.5871742161
5968.3623236679
5972.1426563628
5975.8187735251
5979.2845240381
5982.4990750093
5985.4986170485
5988.3204625195
5991.097748045
5993.6386960579
5996.3194596151
5998.6819658054
6066.9524202885
6064.3753993832
6064.3421852227
6072.0289700698
5936.5597541028
5370.8777471802
4207.3298846423
3272.6205096996
3076.1245160711
3120.1816179522
3296.3068899143
3376.9700013059
3330.4585343164
3230.3336715068
3075.4282904782
2882.3658147076
2667.4298740912
2446.0017000699
2229.8341789437
2024.4680698843
1833.4068465914
1657.9957425101
1498.8883986861
1354.988431103
1223.3782721698
1104.8203782124
1006.2249219875
915.44702065925
828.9217727407
770.46057635321
1618.6343315815
3096.3256594363
3574.649971023
4044.8918887841
4511.8252799699
4957.4328923456
5380.6762887057
5715.7198490499
5966.3743815221
6100.1305132656
6160.7452401947
6182.5357256974
6190.3522440221
6190.924165859
6183.9314952677
6173.4057762313
6163.5154324603
6156.3440505601
6152.7005465106
6153.0565840038
6157.0662748342
6163.9925507316
6172.9172419827
6182.5118047797
6191.2039916058
6197.5974036595
6200.4515025287
6199.2294659692
6193.8355266668
6184.3296958986
6170.7167497373
6153.0304011126
6131.2150249479
6105.4476059041
6075.9611863428
6043.1247659441
6007.5253748397
5970.0058710331
5931.7326591978
5894.2282594737
5859.6310265516
5830.8071597434
5811.1358959097
5805.4827031366