/*--------------------------------*- C++ -*----------------------------------*\
| =========                 |                                                 |
| \\      /  F ield         | OpenFOAM: The Open Source CFD Toolbox           |
|  \\    /   O peration     | Version:  2312                                  |
|   \\  /    A nd           | Website:  www.openfoam.com                      |
|    \\/     M anipulation  |                                                 |
\*---------------------------------------------------------------------------*/
FoamFile
{
    version     2.0;
    format      ascii;
    arch        "LSB;label=32;scalar=64";
    class       volScalarField;
    location    "2e-05";
    object      pTsat;
}
// * * * * * * * * * * * * * * * * * * * * * * * * * * * * * * * * * * * * * //

dimensions      [1 -1 -2 0 0 0 0];

internalField   nonuniform List<scalar> 
109340
(
331711.40652798
331584.26688096
329953.84815324
327676.7738772
325032.26637265
322242.59774892
319396.72573827
316548.4274373
313769.10711792
311067.36730272
308371.04751633
305669.61214737
302958.07488853
300229.61460779
297473.89380013
294676.90161245
291821.48658224
288885.45630323
285840.58322485
282610.15257656
279240.04560921
275625.44019965
271725.76536871
267487.56136649
262861.69673306
257799.90169915
252277.85684691
246220.33043722
239507.78594332
232057.41125335
223840.74905988
214840.32820772
205375.57246442
195491.62967557
185536.45363641
175732.80546713
332337.80231284
331752.53270496
329734.41232772
327206.18642453
324447.79788302
321650.53450446
318872.31372917
316122.1969906
313384.21970949
310661.43982359
307942.1238126
305220.25507333
302490.14090089
299742.86849049
296966.79998184
294145.44039888
291260.7816624
288288.72694483
285200.73408294
281927.31570077
278479.03362654
274781.22576416
270783.15852779
266428.14929031
261672.37653032
256479.95678883
250794.03259016
244551.14237302
237673.66783737
230048.93138336
221658.84348837
212541.82189966
202975.13342142
193036.54728652
183105.53851565
173347.21666776
333284.98129637
332350.82502924
329970.51698167
327344.55093969
324622.17807207
321887.28337376
319130.30476704
316359.96067905
313596.45345666
310845.35398317
308100.30660285
305355.09938177
302603.40850228
299836.32544739
297042.47731196
294206.92206225
291311.60535151
288332.35240892
285236.38643118
281965.48806209
278512.36789705
274811.87314349
270811.30565561
266450.3625382
261688.19278051
256492.67568621
250819.61900674
244567.16455552
237657.9277763
230031.58550927
221658.39703697
212581.46445249
203038.13064736
193121.4407803
183222.04710334
173474.07909912
334608.66763096
333149.89137866
330567.77824323
327820.24976995
325010.91108998
322184.10852536
319352.89767822
316528.94215768
313723.74432986
310939.40631021
308170.12977007
305408.66561759
302646.71640081
299874.11540728
297078.38828074
294243.0845125
291349.22187283
288373.35630786
285276.5862859
282011.60258028
278554.65381825
274849.9151518
270840.11138357
266460.18521871
261672.55373561
256463.63889985
250799.58285395
244588.6304495
237726.77768829
230107.23696911
221735.7086119
212673.68859443
203130.52170799
193230.4449758
183355.91097681
173514.55115334
336713.62844896
334325.4748946
331125.39490517
328080.27405678
325150.86574395
322278.73407434
319433.12985954
316606.18015226
313802.39014281
311016.50006035
308244.73627929
305481.03971828
302717.56578845
299944.47962035
297149.96772715
294320.94028161
291427.46456561
288456.41201029
285359.47006465
282109.33561762
278648.70346356
274937.66300264
270908.21508573
266488.80441169
261644.51609685
256399.58285088
250720.16115334
244527.63115868
237703.01820531
230115.9435525
221791.85717793
212797.90241078
203277.71044202
193399.73123093
183476.61405295
173652.62583456
340661.46711151
334942.12264414
331251.92900379
328109.416367
325174.31717916
322312.22448225
319477.51287327
316658.10018094
313852.86560841
311062.61058649
308283.50483078
305509.90385196
302734.03376794
299946.17006668
297133.80423803
294280.98589678
291370.52169057
288383.14843502
285302.3951404
282042.53721496
278561.70865116
274835.54556438
270776.16348483
266322.53910391
261431.92336391
256153.2355
250506.88103077
244399.21893713
237695.31779908
230253.41861883
221995.87404235
213021.64983271
203507.92969465
193661.18536706
183367.59466352
173223.03680286
166187.1200257
156993.7300866
148518.44403139
138115.80975955
122279.5385368
100127.55216952
76708.022112877
57066.775336753
42034.33327087
31628.943268031
24074.573385612
18578.095871002
14614.866920081
11696.492547089
9473.5603979137
7740.2430564638
6398.1576184708
5347.415635376
4507.2027734238
3824.4451013735
3268.3112682971
2812.8426092728
2435.7139045889
2119.9274429305
1854.2559452377
1630.2113143942
1440.2470258075
1277.6483732676
1137.1161492109
1015.0445327272
908.88280469775
816.63034449535
736.15493396672
664.53321582822
3457.3366851191
5101.1925234555
2576.8401190346
3722.9475706658
5682.7040395887
8204.7897542313
10741.728869648
12629.620077734
13554.604976978
13574.606739113
12902.814883688
11779.100030579
10409.347550921
8929.0608609513
7527.6194712664
6353.1584287155
5477.1263089249
4895.7560985638
4608.0016568698
4720.9024567164
5207.7521010403
5919.2267403277
6290.0261592334
6469.0255144189
6443.6837193491
6369.8865702543
6287.1899757019
6212.0807915915
6174.0352790724
6166.4407522261
6169.5353240977
6151.642990184
6109.7442609348
6048.4771837642
5976.2247342825
5904.2308729687
5834.2357203
5768.9897825875
5708.9580921531
5658.8085869907
5633.3372397415
5616.7787781422
5634.4817840683
5698.7818740196
5913.4490276698
6325.2964503912
6897.5705460083
7094.8277795212
7049.3145036946
7073.9210784081
6883.3873353678
6718.4490664497
6594.726967044
6499.8368276702
6426.3054599162
6368.4034692464
6322.0581200213
6284.3227853961
6253.0171040926
6226.5193807853
6203.6131113568
6183.3632209959
6165.0403253614
6148.0625953139
6131.960189866
6116.3391025034
6100.8844840993
6085.3925044946
6069.9255857845
6054.7427206116
6036.5597697094
6022.8651140708
6010.2068218344
5998.6752769457
5988.3671385928
5979.3030321121
5971.4404059856
5964.7008751096
5959.0068246263
5954.2940666741
5950.5088721166
5947.6255790526
5945.3758175169
5943.9754290564
5943.4193662584
5943.2902892896
5943.5817245258
5944.3642752449
5945.5811586979
5947.1886542106
5949.1656499146
5951.5576727294
5954.3293875048
5957.5057728719
5960.9430015192
5964.3825307683
5967.835140048
5971.2514754413
5974.574951881
5977.8187719907
5981.0498185617
5984.2579877478
5987.6551711497
5990.9478933167
5994.7118721921
5997.8661887906
164000.5334055
155064.28957158
143941.48599632
127441.19672156
106413.72971939
84768.726526155
65490.073316631
49806.894874846
37571.371372164
28600.537226289
22076.372744245
17271.497089245
13679.782983842
10974.747072211
8919.8931716945
7337.4108197694
6091.8757593324
5099.1365064268
4305.4237690092
3664.5977950211
3140.1675374715
2707.1450462454
2347.508576599
2046.6771708785
1793.3216382912
1578.6037671422
1395.481957331
1238.4801968243
1103.2128393212
986.01464370037
884.0319016965
794.91748203861
717.0166101492
645.87311911759
4804.4466089122
4391.9298527639
2662.6374881183
3960.9266193958
6004.699176847
8594.4848717301
11065.466955576
12720.857597119
13416.069396291
13243.377350311
12468.183378782
11283.919620687
9886.4859511518
8442.5932961051
7125.9106556565
6057.683544412
5292.1489771052
4806.29075281
4662.1072612256
4886.895753805
5443.7124788379
6044.4600661893
6333.0398920155
6449.6695613412
6409.7785094288
6337.4286092796
6259.1862834407
6198.4398686262
6168.7640938283
6161.641282198
6155.3999931564
6130.2587886935
6082.8017903455
6013.3927599736
5938.2778926903
5868.020269084
5808.9712282717
5746.702181682
5689.5327975527
5643.1466595336
5613.3968361116
5605.3161286579
5635.7231046767
5729.07584705
5978.6627304611
6413.3654517691
6947.993558169
7042.6666019103
6969.6897292223
7007.279693782
6874.7542202938
6716.7938213192
6594.172647134
6499.6534320954
6426.257316323
6368.4076622421
6322.0773406522
6284.3450018657
6253.0365595781
6226.5332395209
6203.6200456427
6183.3630526404
6165.0304397825
6148.0432997933
6131.9325472938
6116.3040890207
6100.8418306384
6085.3434921693
6069.8748386837
6054.6901866835
6036.509213243
6022.8190099194
6010.1665561256
5998.6417944461
5988.339393496
5979.2809042961
5971.4235087209
5964.6885523854
5958.9981278298
5954.2888761641
5950.5106737947
5947.6330227498
5945.3928463639
5943.974742203
5943.4238505198
5943.2915033373
5943.5982843405
5944.37739483
5945.5938723623
5947.201386129
5949.1797749599
5951.5752873604
5954.3524579235
5957.528008903
5960.9613316436
5964.4033516938
5967.8635736617
5971.2861624388
5974.6142644176
5977.859807482
5981.0880171939
5984.3017615423
5987.6857554279
5990.9917688651
5994.7272499204
5997.8670542541
164060.4546628
153673.52172324
136285.81814157
113139.04439362
90799.709611999
72060.179704158
57116.216667157
44911.493518309
35011.85650438
27224.399677146
21230.360281218
16724.858628588
13315.069119883
10732.28829145
8751.0103760247
7213.3497611795
5994.4784242422
5030.3846864884
4254.1736843664
3623.6053764221
3107.2853262373
2681.9510497267
2328.1043603114
2031.2929986013
1780.7153509554
1567.8832026039
1386.3439948648
1230.7754004186
1096.7636032187
980.66058305706
879.6219503169
791.41632317606
714.30022303504
645.39429838374
3482.6855772872
3991.7174143185
2633.3282961878
3690.9176525564
5690.3662629664
8324.0047874299
10845.500921697
12481.331460303
13188.881490224
13021.420972825
12250.886514891
11071.737019207
9677.2617752299
8249.5339058644
6995.7458757198
6005.135457963
5292.158780077
4852.8174940873
4757.0619597296
5008.8781370876
5514.758112717
6041.676231247
6314.8951838671
6430.4749096403
6391.4812606114
6325.6625167065
6255.5740916538
6199.5168345748
6169.270511465
6151.8377343506
6140.6318165301
6119.6457470118
6071.9504198136
6010.5005452662
5946.2926694837
5882.6745705261
5821.773090729
5758.82468875
5698.4014692487
5647.4517197131
5611.0088455311
5594.4561312296
5618.8655674486
5709.5649176741
5928.0539073573
6329.8265205828
6810.8503870418
6954.9781957774
6934.2849149014
6971.487903783
6849.3815954109
6701.7829066956
6584.7238511998
6493.5116922014
6422.1077860386
6365.5075541722
6319.9911135818
6282.8041038996
6251.8705863933
6225.6313253862
6202.9081277312
6182.7908576989
6164.5636074707
6147.6571649524
6131.6099720703
6116.0338034028
6100.6093769415
6085.1421443772
6069.7073749832
6054.5451665609
6036.3894221102
6022.717538618
6010.082042572
5998.5734430113
5988.2833094842
5979.2361465898
5971.3890087874
5964.663020897
5958.9798785368
5954.2774329998
5950.5034989317
5947.6330695408
5945.4195086461
5943.9717156803
5943.4302487328
5943.3429041821
5943.6326983514
5944.402639379
5945.6212490937
5947.2332824443
5949.2225321286
5951.6224354287
5954.4122207098
5957.5877654089
5961.0141581451
5964.4615286139
5967.936067471
5971.3670708748
5974.6999920946
5977.9456549231
5981.1644994265
5984.3866201477
5987.739245997
5991.0825142463
5994.7629574265
5997.8827302484
163855.51385173
145541.29903109
116913.6578846
91079.533377977
72581.138591573
58868.766585713
48204.756841687
39229.807311398
31552.738435557
25182.314853903
20033.623836815
15974.019104298
12825.505346824
10397.329354706
8512.5626322548
7037.1610163126
5879.2229073781
4942.3463467551
4181.377338461
3570.3762408415
3066.7590053461
2649.5882410392
2301.8067767567
2009.9933223072
1763.5632012059
1554.0840434586
1375.0878951091
1221.4126739349
1088.8694038651
974.13820297683
874.2690973374
787.13835249716
710.5274065145
642.92588152684
1609.3930119593
3505.0160961212
2515.7296457754
3394.6717354858
5299.1093029638
7904.0063726519
10458.888497526
12122.765164907
12874.05721729
12741.481320423
11949.559227653
10769.610552935
9359.7779579959
7986.6330673278
6822.8328769263
5915.0746594302
5297.0690177001
4948.1728088111
4913.6589143986
5169.0684987022
5604.8969672824
6042.5713875694
6291.7539073483
6396.9346925529
6364.9397864559
6308.4489075299
6250.1227160826
6203.6917289718
6176.1776522545
6160.0455140822
6142.1778111553
6112.8351687761
6069.0927207094
6013.1367354401
5952.2083204854
5889.4860126507
5823.8646313624
5754.5859179368
5689.7118659567
5633.8439502508
5592.0738504291
5573.8496829249
5594.5280089431
5680.8934138748
5880.9345027915
6250.8024119211
6668.6027283956
6848.5305454247
6895.4668403582
6922.2935877362
6814.5082992951
6680.2160992568
6570.9397216939
6484.4333655256
6415.9386456257
6361.1909379748
6316.8867236548
6280.5138665455
6250.1399873783
6224.2942040205
6201.8535180404
6181.9427677162
6163.8691292287
6147.0796128628
6131.1238569793
6115.6205728092
6100.2527168134
6084.8351605408
6069.443782326
6054.3145022877
6036.1955792957
6022.5516204319
6009.9430806675
5998.4609933647
5988.1912977683
5979.1628759359
5971.3323747435
5964.6207838589
5958.9494856887
5954.2582579524
5950.4938715242
5947.6309855784
5945.4391691245
5943.9790540086
5943.4515861743
5943.3754665694
5943.671292269
5944.4440768441
5945.6676455679
5947.287920473
5949.2862274171
5951.6936796057
5954.4947317424
5957.6757662436
5961.1048972596
5964.5642245959
5968.0504634601
5971.4910705776
5974.8296520586
5978.0752850897
5981.2887925952
5984.5070264195
5987.8407506793
5991.1758461431
5994.8153688231
5997.9066079709
157985.3515715
115801.16533136
84423.51475241
66266.913625069
55433.192037908
46779.840259319
39664.335542373
33407.411713506
27754.990209672
22754.645973879
18520.552825614
15028.53955618
12218.24469448
9981.8406835975
8214.2153064086
6820.026766741
5710.0037185341
4821.1476865296
4101.4493968284
3500.5182057287
3011.3705349657
2607.0305137516
2268.1360082632
1982.9024918299
1741.7504709686
1536.4177864462
1360.8225852667
1209.8653667132
1079.3781032201
966.20102413944
867.62012383241
781.37396109358
705.42339948283
638.92901485107
689.40409322458
3120.9751251902
2330.7437361564
3041.6549291207
4549.9579615421
6656.9212374116
9420.575147535
11611.909023236
12494.758119213
12414.301028217
11579.77751643
10335.493364786
8939.6161852525
7655.8700767704
6624.6099732263
5846.8638399707
5333.8743119043
5094.4144436393
5113.7299879854
5353.1046041725
5706.5276897382
6049.4530164631
6270.7754588407
6361.6589123039
6339.5496472534
6291.9561836771
6246.6463943404
6211.3328152589
6186.921318925
6168.3387840861
6144.5935574849
6108.6595868291
6064.0311013265
6006.704051335
5941.9990533529
5875.972574191
5808.6465793191
5740.8132119418
5676.1360580947
5618.8049620304
5575.3775651043
5553.6692823756
5572.7024392055
5651.5053463119
5835.5104652633
6178.3316906468
6548.7440831857
6746.089811113
6859.9892834949
6864.5944440653
6772.9946883121
6653.8553249311
6553.8826715288
6473.089544094
6408.1689140895
6355.7193770444
6312.9341387321
6277.5875139275
6247.922475214
6222.577170524
6200.4971726556
6180.851217117
6162.9755627716
6146.3373560655
6130.5002951576
6115.091952685
6099.7991811626
6084.4448310945
6069.1076206873
6054.0219849311
6035.9537250594
6022.345283374
6009.7701908092
5998.320915675
5988.0765723968
5979.0714075345
5971.261519114
5964.5681074959
5958.9124639624
5954.2355822642
5950.4847824254
5947.6313805354
5945.4528377445
5943.9995792073
5943.4846531078
5943.4189317679
5943.7207469207
5944.4990381813
5945.7312660114
5947.3610076276
5949.3700348625
5951.786971703
5954.6001005267
5957.7911090749
5961.2298413867
5964.7039808557
5968.2034221682
5971.6556755217
5975.0015280011
5978.2476635778
5981.4555793399
5984.6624028763
5987.9751231772
5991.2850362047
5994.8809206246
5997.939755548
94120.670152066
59947.62922697
51211.476990214
45694.165327168
40827.89425381
36254.11758857
31926.390932417
27849.503784497
23934.319829038
20205.907390865
16820.26942831
13905.794350112
11473.73670449
9486.9526558608
7876.0968568307
6572.9682502593
5520.1316775103
4670.9264249842
3983.5518029663
3419.6846096673
2948.7858852348
2555.1663418948
2226.9409870454
1950.7283612158
1715.9370894955
1515.5247004158
1343.8623180174
1195.8610250291
1067.8142233451
956.49261952486
859.39249686001
774.29209609724
699.80350736909
633.88763902004
583.00108201951
2874.3606188103
2319.3796841244
2912.0904855237
3945.9872809014
5102.0375276462
6869.1148196819
10104.311761551
11953.187169878
12042.274006725
11115.508748839
9802.7389663166
8434.1087448577
7299.8292728104
6437.310981069
5819.1597601151
5430.1783720276
5286.3175191942
5335.6376678447
5541.4961135468
5818.0293438335
6078.8489411687
6253.0045211421
6322.3472604316
6310.3084770983
6276.3545742023
6246.1509714173
6222.3888844492
6199.8378827261
6174.1629428986
6142.1332484937
6097.8280428151
6046.8462167794
5989.3479561062
5927.4883055395
5862.0626639389
5794.6382148976
5726.8058588098
5661.828797892
5603.8806346773
5558.2394081548
5537.5013377004
5551.8955178799
5627.3286848408
5804.5061685706
6112.4588615975
6460.8424834109
6655.6594133755
6816.2227825898
6803.7452358068
6727.1516698984
6623.8388043043
6534.0986076345
6459.7406099255
6398.9252037378
6349.1539043276
6308.160912561
6274.0362272269
6245.2212060297
6220.4792053693
6198.8356353971
6179.5108576409
6161.8757310976
6145.4216155967
6129.7290667013
6114.436464608
6099.2359542809
6083.9589253962
6068.687752161
6053.6551162621
6035.6494386584
6022.0842807405
6009.5507254226
5998.1426304467
5987.9306882901
5978.9552534901
5971.1715339407
5964.5011149549
5958.865392885
5954.2062148563
5950.4714139534
5947.6350010113
5945.4642092693
5944.0223881408
5943.5252092688
5943.4699597571
5943.781724242
5944.5703036963
5945.8143421863
5947.4565386666
5949.4774952375
5951.9068510414
5954.7341930444
5957.9389511051
5961.393687326
5964.8858193054
5968.4009734463
5971.8665169669
5975.2202552464
5978.4665413452
5981.6672206603
5984.8563817281
5988.1446560891
5991.4188987305
5994.9631605719
5997.9823448256
5350.39357071
20883.717564157
27559.232044097
29700.791567109
29425.512578867
28068.149816499
25926.179135039
23480.232947344
20901.466506431
18278.664440598
15683.779726915
13257.011049556
11120.771747355
9306.0152557765
7799.669681043
6560.3424652392
5542.5601421477
4704.9985558652
4010.0429782168
3442.7153945309
2974.0102183154
2583.1050450654
2254.5389960237
1975.8820909104
1738.5185180769
1535.9064446266
1362.507085227
1213.1655692153
1083.7481428191
971.06457358188
872.5672076121
786.37428882311
710.25100139674
643.19415707639
583.18273356224
1076.9042792508
2967.6405740542
3340.3426269081
4038.0947337561
4965.5993746566
5898.4753260073
7076.7942264059
9465.6310445818
11628.201597571
10864.161769659
9516.5729074933
8181.7878039763
7165.5729919013
6434.0495201172
5930.721626388
5619.8178694195
5499.4000475257
5530.5955807264
5681.7398335641
5880.3724556769
6074.2419673909
6212.3990687337
6283.6886222421
6287.9784690291
6270.8202372001
6250.6972815668
6231.137571705
6205.7489073875
6174.6167462409
6137.9787249103
6094.5810558405
6044.5872906067
5988.7662481239
5928.4995918615
5864.367280726
5797.7332276144
5730.1666468664
5664.519233477
5605.0957620822
5556.8716594777
5527.912768815
5532.423459133
5591.3728726713
5739.6365163099
6001.5004010532
6322.5419552483
6543.5671399226
6733.3155757643
6750.5490066041
6679.0406207238
6591.5489374932
6512.3070981844
6444.7928184298
6388.4420955735
6341.6321525688
6302.6487565149
6269.9107307872
6242.0682331744
6218.0211534455
6196.8831005898
6177.9321144264
6160.578116556
6144.3400388085
6128.8175313558
6113.6612706474
6098.5698343729
6083.3842633894
6068.1928629109
6053.2216265263
6035.0675570989
6021.5944465006
6009.1430500831
5997.8123887606
5987.6620085412
5978.7425562094
5971.0076767647
5964.3799698388
5958.7814072936
5954.1548007211
5950.4499987597
5947.6424000816
5945.488757609
5944.0844371578
5943.6067154893
5943.5641161995
5943.8966505633
5944.7080351539
5945.9748803895
5947.6408197311
5949.687044337
5952.1416936298
5954.9946918924
5958.2239154403
5961.708148835
5965.2309824482
5968.7755773283
5972.2661699629
5975.6355163894
5978.8845255665
5982.07370608
5985.2292665258
5988.4719019743
5991.6692943515
5995.1179678964
5998.0660778995
5620.9769796482
6671.8915365326
9725.9498502126
12163.693667512
13908.262537853
14915.318388133
15051.538349179
14635.988625212
13848.288475932
12782.738142002
11530.912702332
10182.224110426
8851.1231219176
7621.8702623778
6534.2399467233
5598.4289069048
4805.456754678
4139.4367785
3580.4606785403
3106.7584679336
2704.6666951198
2363.4885014969
2072.5744333566
1822.5209446032
1610.0237531875
1428.6724819313
1272.635222667
1137.2793831681
1019.3721423099
916.28844796477
825.69399453047
745.94513079131
675.61209612239
613.65462847579
557.52185237
752.6855309397
6460.5404670148
6478.3159123891
6714.4565505724
7061.7125636949
7409.6714785293
7740.9731990522
7875.4777153995
8731.7096030144
8877.4288419536
7779.1237379912
6955.7628352607
6474.8098980314
6174.7397768339
5998.7637759125
5914.5480600273
5907.5855461276
5956.8225571968
6039.039801076
6126.0154171865
6193.3636971378
6235.9813215666
6253.4208828525
6252.9487767292
6243.0320040681
6227.0475363963
6204.2050386732
6175.1120268406
6140.1775062978
6100.0736194713
6054.9289076713
6005.154057792
5950.8772860142
5892.5482785531
5831.1182952399
5767.2526596743
5703.5466255103
5642.6434072966
5589.2824139889
5550.0930863649
5536.1605939068
5563.3510343435
5659.0002584891
5828.3950535529
6074.4652608554
6303.5527363439
6519.1534392916
6616.3966361442
6612.4159057182
6583.5821592745
6524.7017548994
6465.5028160556
6411.7309685539
6364.7345100338
6324.3402258805
6289.7998856877
6260.1836939928
6234.5687480103
6212.1328613914
6192.1782765649
6174.1092903218
6157.4233085731
6141.7017395718
6126.5874270758
6111.7597054399
6096.9337763959
6081.9693053125
6066.9643252631
6052.1476206185
6034.1236568086
6020.78549413
6008.4619900812
5997.252389898
5987.2059966981
5978.37901456
5970.7255355712
5964.1694581431
5958.6336189993
5954.0622199071
5950.4083636254
5947.6449653945
5945.5250283885
5944.179959098
5943.7372306024
5943.7160644782
5944.0804760136
5944.9306394842
5946.237174217
5947.942218955
5950.0271473939
5952.5216935983
5955.4168481527
5958.6888135826
5962.2276723344
5965.8002246345
5969.3928179087
5972.9237323086
5976.3173527999
5979.5670093389
5982.7304556172
5985.8280856799
5988.9930608908
5992.064159339
5995.3598671856
5998.1961051109
5852.7691918119
5649.2582940805
5088.8888475194
5972.3262974036
7320.8838886388
8345.7317361443
9013.1658814084
9302.4477614696
9270.6344158505
8964.4681608636
8469.2594250902
7823.795544946
7077.4255261693
6301.5969440246
5550.8294217198
4860.1385042652
4243.4684917095
3703.0691990769
3236.2866975227
2835.8765496788
2493.3499855913
2199.776411367
1945.8935135871
1725.2267017029
1532.8527946723
1365.1414476588
1219.1511280636
1092.1087491712
981.24522380471
884.1911065197
798.4911141359
722.78493503369
655.72058330598
594.65233970072
770.15115213867
3187.6120824729
3858.2532861024
4498.3430350919
5128.1466031278
5697.4675589686
6179.4272132649
6578.6955490993
6945.3171156058
7294.1897570042
7174.5147754617
6763.021528547
6454.7444315457
6277.4508595813
6183.4816251393
6135.7671090334
6120.045423473
6128.5292842605
6152.9938315323
6180.9872008411
6205.5299294664
6223.3046804452
6232.711165552
6234.4025881981
6228.8968043561
6216.8361020003
6199.96397119
6178.0630618173
6151.7819991926
6120.8067992023
6085.236671658
6044.9358588011
5999.0798707225
5948.7311135469
5894.3430393828
5836.8566107842
5777.5332295982
5718.9495750693
5664.7915477522
5620.6340128362
5594.1571768531
5596.1669082626
5644.2740243977
5745.8312959458
5898.9326665941
6082.4406662909
6286.8899510113
6432.9219362795
6498.8880991973
6506.490663704
6496.8579032734
6459.9417196024
6418.0774081155
6376.8758734514
6338.938372237
6305.051468554
6275.1844336732
6248.9421174416
6225.780924076
6205.1567154436
6186.553970445
6169.5051353341
6153.600587588
6138.4893073347
6123.8607889571
6109.4258391556
6094.920985494
6080.2243597988
6065.4448912967
6050.8196120933
6032.9630278683
6019.7936818719
6007.6255443326
5996.5596344352
5986.6424694538
5977.9285705604
5970.3743808441
5963.9061478363
5958.4475354817
5953.9439610568
5950.3520562032
5947.6418762995
5945.5696839493
5944.2977032491
5943.8985016739
5943.9072786403
5944.3140154375
5945.2113766878
5946.564901094
5948.3180325693
5950.4529193018
5952.9993038681
5955.9479199522
5959.2729419751
5962.8800431383
5966.5129606324
5970.1628284205
5973.7406849125
5977.161021746
5980.4066418531
5983.530477482
5986.5536767181
5989.615059089
5992.5305354843
5995.6444785931
5998.3467399694
5984.6386190965
6073.2540452951
5580.9581712752
4498.6473026531
4338.3240588178
4909.2661373438
5612.8218453357
6054.423120216
6284.946179605
6319.981989533
6188.4282929796
5922.6610121782
5543.1929028035
5096.3261867386
4612.8683971121
4132.7606622596
3678.6508885971
3262.5448838501
2888.5458868648
2557.8722577999
2267.4497886114
2013.4403628394
1792.270264983
1601.1211629077
1434.0314564373
1285.6080718147
1155.5199887984
1040.2040732377
938.22718895246
848.29768002915
767.07261164054
695.4799766183
630.52426358248
1203.2149912309
3204.9477494858
3799.6883326008
4340.8356847897
4847.3978285491
5315.0166467052
5698.2214875242
5978.8655319858
6150.8612259351
6275.2696959315
6430.2766773518
6440.8512799189
6337.0045373627
6248.6741142159
6197.1694340361
6171.7925423434
6161.8704397894
6163.8831372312
6172.9290494693
6185.7285532948
6198.560331507
6209.2003552352
6215.4373371635
6216.9144793305
6214.0767493667
6207.6858319605
6198.127521051
6185.1889730615
6167.9696887228
6145.6749391945
6118.2501240645
6085.2870094481
6047.09280858
6003.9144487907
5956.660662518
5906.1160534352
5853.5375677431
5800.7668889828
5750.6864264833
5707.20666758
5676.530565237
5665.8354373367
5684.1088722193
5737.280954158
5830.3898597165
5958.4611531308
6122.1292978202
6258.2345776503
6355.9186413154
6405.9482220524
6421.3235095138
6422.5243350844
6401.2080695218
6372.8570097624
6342.4391603047
6312.6508888431
6284.8642328259
6259.5557470117
6236.705520883
6216.0775549655
6197.3574083264
6180.1990730796
6164.2579627306
6149.2133482791
6134.7815050126
6120.6989688537
6106.7088481286
6092.5691795418
6078.1788162136
6063.6590719668
6049.2542805173
6031.606833311
6018.6341595433
6006.6432158546
5995.7402091003
5985.9740205437
5977.3925474785
5969.9549761457
5963.5909616671
5958.2247111961
5953.8019286213
5950.2827340577
5947.633918462
5945.6183767917
5944.4343420275
5944.0862296094
5944.1338433209
5944.595071838
5945.5500509259
5946.9600756516
5948.7702035726
5950.9652114155
5953.5747914831
5956.5887399334
5959.9781850217
5963.6651259758
5967.3665114635
5971.0798369457
5974.7068935541
5978.1523236822
5981.386702084
5984.4557130738
5987.387865957
5990.3200884085
5993.0572752365
5995.9654547895
5998.510832241
6040.9106277047
6041.6692155452
6065.8222335388
5763.0324644177
4620.7462214015
3751.6452867281
3673.4449230856
3933.8921647218
4314.7666937348
4487.8358782509
4547.7363079272
4469.0897042566
4311.319893227
4074.0177512649
3786.4461770785
3469.3004431689
3148.5358696147
2839.2435220501
2550.1986682233
2285.4186965887
2046.658029417
1833.4742820994
1644.0658172616
1476.2839415486
1327.8592815071
1194.7202207548
1076.8087388025
971.15597954939
887.08247439159
808.03791409065
727.13710492347
699.11935460553
2370.7515781806
3342.7754262823
3865.5695120116
4368.9292307081
4847.6323111604
5280.3887707822
5656.7449693614
5940.1833278255
6093.2400541642
6169.2673031169
6203.9178860472
6227.5873680935
6225.3867755209
6201.1377804706
6178.4048421604
6164.1615553861
6157.4907257606
6156.6939130259
6161.0921586947
6169.1275595258
6178.8727786726
6188.2027114522
6195.9740731524
6201.5062244087
6204.5893891133
6204.6968229762
6201.2674363887
6193.4371630808
6181.1718343718
6163.9781683041
6141.8211905496
6114.7985335823
6083.0106180325
6046.8607235722
6006.8857515904
5963.8619559732
5918.7957534501
5873.1376008323
5829.0069384533
5789.5127633585
5758.5920038533
5740.9317913637
5741.8988661681
5767.4933805205
5822.9329504495
5911.1605655118
6020.1910195807
6129.9964758337
6224.7657110189
6293.4273445273
6335.5480223938
6353.8947908897
6361.0720855637
6350.0237796514
6331.6445953475
6309.825642454
6287.0077355512
6264.6711810075
6243.5694893404
6223.947130505
6205.8013989991
6188.990091059
6173.3058299009
6158.5105507561
6144.3705432432
6130.6626678454
6117.169237769
6103.6585835483
6089.9194319097
6075.8663752844
6061.6334362748
6047.4750216622
6030.0677886313
6017.3166987154
6005.5227400622
5994.8000758095
5985.2035163689
5976.7724268124
5969.4683330153
5963.2246689077
5957.9660904952
5953.6375494359
5950.2017480743
5947.6230503362
5945.6714842987
5944.5906902681
5944.3012717364
5944.3975855161
5944.9251894874
5945.9473433939
5947.4226782122
5949.3003798011
5951.5669981461
5954.252024631
5957.3441831308
5960.8100612335
5964.5870520018
5968.3622212705
5972.1425499535
5975.8187269108
5979.2844891593
5982.4990637423
5985.4985853934
5988.3204230729
5991.0976935798
5993.6386192006
5996.3194843229
5998.6821844162
6066.952697058
6064.375109429
6064.3635018547
6072.0714706138
5936.5609772783
5370.8367162835
4207.2806668795
3272.6161314473
3076.1433933866
3120.2139694126
3296.3452375921
3377.0136401998
3330.4969313652
3230.3691054489
3075.461895983
2882.3976444964
2667.4595718241
2446.0298400202
2229.8604228229
2024.4925876538
1833.4296244218
1658.0169737561
1498.9087898135
1355.0092172103
1223.398967522
1104.8351576242
1006.2322255691
915.46424642966
828.93178709604
770.44314408432
1618.3250894619
3096.2405606873
3574.5896932293
4044.8309973654
4511.7664978388
4957.3754551164
5380.5601915545
5715.6825496258
5966.3580212246
6100.1108045834
6160.7131996264
6182.5166337347
6190.3442924365
6190.9238328498
6183.9395406091
6173.4167118845
6163.5257576304
6156.3536226951
6152.7111756149
6153.0699619714
6157.0830621716
6164.0116748515
6172.9348176935
6182.5231506627
6191.2079628536
6197.5968651134
6200.450801212
6199.2302111343
6193.8382214719
6184.3338165611
6170.7217647428
6153.0363332968
6131.2211248828
6105.4541804228
6075.9679111396
6043.1314367953
6007.5317908352
5970.011194223
5931.7366802361
5894.2310698849
5859.6341036613
5830.8153735206
5811.1561370042
5805.5093592069
5818.5573903584