/*--------------------------------*- C++ -*----------------------------------*\
| =========                 |                                                 |
| \\      /  F ield         | OpenFOAM: The Open Source CFD Toolbox           |
|  \\    /   O peration     | Version:  2312                                  |
|   \\  /    A nd           | Website:  www.openfoam.com                      |
|    \\/     M anipulation  |                                                 |
\*---------------------------------------------------------------------------*/
FoamFile
{
    version     2.0;
    format      ascii;
    arch        "LSB;label=32;scalar=64";
    class       volScalarField;
    location    "2e-05";
    object      rho;
}
// * * * * * * * * * * * * * * * * * * * * * * * * * * * * * * * * * * * * * //

dimensions      [1 -3 0 0 0 0 0];

internalField   nonuniform List<scalar> 
109340
(
662.2775640397
662.25337045382
662.21253024226
662.15542520389
662.08112261852
661.9865430532
661.86730871354
661.71890605386
661.53364341967
661.29825173033
661.00021850134
660.62297473837
660.14519643762
659.53953093713
658.7708477875
657.79391038507
656.55023783451
654.96374852914
652.93470619011
650.32811291489
646.97099385734
642.62673692104
636.98200292646
629.62308330645
620.0224111274
607.55809894291
591.70033843488
571.91041576472
547.21999671137
517.11123045475
481.68548071319
441.76040100291
399.26801958871
356.3812577911
315.33604268938
277.75520076935
662.27433380301
662.24612673124
662.20092743335
662.14031570533
662.06216275352
661.9632773218
661.83939110897
661.68349482245
661.48673758057
661.23797266974
660.92329678762
660.52503302609
660.02056138931
659.3808727699
658.56870835453
657.536021489
656.22064013711
654.54154241316
652.3922915007
649.62853388128
646.06442158641
641.44705157923
635.44019190458
627.60114327711
617.37056323534
604.09652942851
587.13272403373
565.9777897899
539.89611731517
508.37545427067
471.71948033737
430.98214640105
388.26927036392
345.71995664308
305.50665897929
268.98519077071
662.27780211122
662.24795213048
662.20264136858
662.14313433447
662.06670952152
661.96961347626
661.84671651892
661.6915497681
661.49572654354
661.24839572676
660.93569540199
660.53998292667
660.03872114384
659.40302800378
658.5958153708
657.56928940076
656.26158577949
654.59209710422
652.45471554668
649.70637825236
646.16135237842
641.56777046241
635.59011598477
627.78437297346
617.5863024684
604.32485811542
587.2833375576
565.78646054374
539.31051202169
507.66223893313
470.94694393103
430.28782286989
387.71565065165
345.35669156756
305.34183821354
268.97208772031
662.28288843907
662.25200630122
662.20740829724
662.14868148925
662.07321990933
661.97721377342
661.85560579513
661.7018911123
661.50777400468
661.26258439048
660.95261239854
660.56032288559
660.06326620862
659.4326438516
658.63141605683
657.61180530191
656.31188724517
654.65095799259
652.52224171278
649.78300034929
646.24588633251
641.65751598783
635.6796923673
627.86193744715
617.62935229677
604.29350577076
587.10257208887
565.32770778069
538.41708027876
506.19673027411
469.15523652952
428.45628439084
386.165189228
344.14804997241
304.48931743843
268.35093458869
662.29214754875
662.25960623089
662.21345914199
662.15481868048
662.08043449117
661.98611677696
661.86659782794
661.71521881703
661.52352781879
661.28063420334
660.97257287244
660.5813047876
660.08353581313
659.44912581494
658.63897720051
657.60229728973
656.27217418839
654.56129619627
652.35276019502
649.49250022358
645.77312742424
640.91609639539
634.54946241027
626.17754391608
615.17906298605
600.83468009228
582.39752768139
559.24458131538
531.04191941971
497.96982952276
460.82298353061
420.71958825954
379.33917711296
338.53094580552
300.05692131528
264.98928771211
662.30952400055
662.26725571389
662.21914955922
662.15765663528
662.07772325177
661.97346816178
661.8374436341
661.65991355196
661.42801094817
661.12468646657
660.72728082038
660.2057326995
659.52018988945
658.61788343077
657.42904501022
655.86153916605
653.79356803491
651.0640240483
647.45868998737
642.68276628064
636.33841823021
627.89664512889
616.66933933784
601.78986139417
582.36800698257
557.98345843778
528.93729310512
496.09909226431
460.48181937127
422.86327915769
384.36992544777
346.23832995956
309.28570383603
274.32122747567
241.74047767419
212.27401905587
244.36769839069
215.32956208568
190.59189794892
167.17052409768
141.27186619491
111.41213940254
81.973133070291
57.970147959319
40.274202138624
28.489511862354
20.425349334987
14.906103683283
11.142426643971
8.5153149903333
6.6166647988459
5.2084189218179
4.1632426354674
3.375504225492
2.767823399302
2.290414937291
1.9130752246919
1.612255244443
1.3693552516606
1.1707117084146
1.007197370465
0.87197923536173
0.75938521647842
0.66467047538666
0.58416710668775
0.51533153731342
0.45632768676205
0.40572459933471
0.36212604012334
0.32384525631979
1.5652220011259
2.0984535008027
1.0684857548343
1.5435542248318
2.3607442029984
3.4145276760178
4.4765971987175
5.2681198515195
5.6572559827736
5.6682898794958
5.3878639341196
4.9163181576367
4.3407369343596
3.718596020187
3.1291645027164
2.6340035048708
2.2640028772639
2.0161794688268
1.8882342790427
1.9246628754178
2.1111480632897
2.3894420349536
2.5289275878113
2.589322678479
2.5660639600582
2.5224797568863
2.4746293309918
2.4290834787854
2.3974791011196
2.3772185162736
2.3607446733497
2.336068642893
2.3021293498484
2.2608833578713
2.2155618009541
2.1706104255792
2.1266584704522
2.0846163940627
2.0446029180417
2.0078774050635
1.9793197392929
1.9523652989942
1.9347254877937
1.9285138556166
1.9626776194949
2.0271693091996
1.8868436351728
1.0304571700233
0.32356324833867
0.15368892208538
0.16180407688377
0.1584192465227
0.15578672438997
0.15376072574781
0.15218820821467
0.15094881408776
0.14995623516772
0.149147822571
0.1484770923676
0.14790936209721
0.14741857875965
0.14698470637057
0.14659210402068
0.14622828628517
0.145883168804
0.14554830694379
0.14521700716794
0.14488503998039
0.14455404637166
0.14422942491612
0.1438408589362
0.14354870581229
0.14327889350616
0.14303324161893
0.14281336458056
0.14261839713814
0.1424485720728
0.14230342252674
0.14218177227065
0.14208161299385
0.14200118726972
0.1419398684026
0.14189135950075
0.1418605389784
0.14184789435762
0.14184425180382
0.1418491841435
0.1418644302901
0.14188908405394
0.14192246828386
0.14196442530283
0.14201562363097
0.14207494600775
0.14214258983005
0.14221582622327
0.14228898029158
0.14236257773636
0.1424355193503
0.14250643205982
0.14257562338918
0.14264465815686
0.14271321500025
0.14278619495127
0.14285692274872
0.14293860915573
0.14300554235216
236.83556652484
209.02925621795
182.62332144147
153.96770316126
123.2334831321
93.910962709646
68.96834378332
49.556200854821
35.207027003032
25.233679983749
18.385493689415
13.634432767382
10.28408303372
7.8936812781055
6.1647321560577
4.8916701094511
3.9313170096959
3.1952413867199
2.6267023218575
2.1818413708384
1.8282695187083
1.5441403075005
1.3139132607404
1.1256572189139
0.9704156864789
0.84139843426044
0.73336487248497
0.64231260239069
0.56510934365256
0.4992186371971
0.44268612934356
0.39394663941979
0.35187096583963
0.31418248946878
2.1230918102813
1.8306528824733
1.1158949063574
1.6661391773731
2.5390673049757
3.6513617237048
4.7148273671832
5.4253842752217
5.7215269266675
5.6409818215197
5.3006306358413
4.7860014645898
4.1826947152467
3.5617318472892
2.9965635434425
2.5378315646279
2.207908834496
1.9963212250387
1.9258415115699
2.0080297605332
2.2253818165857
2.4623582821729
2.5701901319113
2.606965557821
2.5787697233956
2.5364943640433
2.4910658926357
2.4516850402693
2.4238763442162
2.4041505210296
2.3840994533774
2.3560331297904
2.3190419431881
2.2734775952272
2.2246469812824
2.1757140136169
2.1271111445704
2.0717950615226
2.0103470986895
1.9436358146562
1.8740172248166
1.8057065931215
1.7479319440165
1.7145070788831
1.7440701495476
1.8263402738318
1.5947625198453
0.7453252175028
0.21125135350883
0.15818728332227
0.16164506603296
0.15839102887083
0.15577967379342
0.15376008305813
0.15218952344583
0.1509506400837
0.14995795301617
0.14914930062562
0.14847828943073
0.14791027282414
0.14741921305374
0.14698508877556
0.1465921977613
0.14622811296688
0.1458827631563
0.14554769817904
0.14521619701831
0.14488406910915
0.14455300705063
0.14422831141928
0.14383976927737
0.14354770967686
0.14327802086586
0.14303250586242
0.14281273632277
0.14261788619231
0.14244817970334
0.14230313507016
0.14218156737934
0.14208149017287
0.14200121867104
0.14194002835479
0.14189171737976
0.14186053837012
0.14184800399244
0.14184425136591
0.14184953671656
0.14186470000389
0.14188933052064
0.14192271894853
0.14196468506132
0.14201602668554
0.14207542145521
0.14214303985677
0.14221619459194
0.14228939567199
0.1423631738262
0.142436257543
0.14250727259501
0.14257650170839
0.14264547179731
0.14271416226245
0.14278684019041
0.14285787737052
0.14293892677086
0.14300554656327
236.8485212374
207.72977139743
175.11967154985
139.2871906793
106.53964389255
79.999926776653
59.723009396881
44.181262848543
32.41959378513
23.769305581235
17.53140232947
13.113750192824
9.9562832630737
7.6862487378045
6.0272485168609
4.7956352518794
3.8597704005782
3.1462872067408
2.5913955171579
2.1546106326081
1.8071303181795
1.5283323364713
1.3019921352969
1.1164174844006
0.96300720054817
0.83524199085824
0.72823189757671
0.63806477238983
0.56161057075319
0.49635466119948
0.44035911056579
0.39212269859
0.35045808467482
0.31374460694727
1.5852519984729
1.6613241600238
1.1049223395878
1.556001262589
2.422932998769
3.5797303799424
4.6810117966557
5.3867534410647
5.6792814377991
5.5891358345109
5.2413473672418
4.7222023720563
4.1151615083041
3.4972810607029
2.9554293316093
2.5275837419715
2.2175765009726
2.0246497635623
1.9741409022198
2.0679456754593
2.2658737114646
2.4731653149984
2.5752479172952
2.6120836623361
2.5845621628205
2.5452593071307
2.5033271222051
2.4658768877443
2.4373472534198
2.4120801344118
2.3864142857918
2.3524999255447
2.3002333834828
2.229163285098
2.1357301522734
2.0134426742392
1.8614878867639
1.6879607380625
1.5123574835209
1.3518484494794
1.2189870252176
1.1215239314986
1.065850854501
1.0617443883913
1.1315672851869
1.3486345217354
1.323526544812
0.64604116303319
0.18806904901288
0.15874444294452
0.1611371750922
0.15806882444912
0.15557599978085
0.15362755526071
0.15209992841637
0.15088799291505
0.14991287358309
0.14911599916973
0.14845308927146
0.14789078045592
0.14740382896657
0.14697272640401
0.14658211523929
0.14621977722905
0.14587580382886
0.14554186957155
0.14521118590623
0.14487974613124
0.1445494037008
0.14422517317835
0.1438371867243
0.14354553978433
0.14327622352335
0.14303104819447
0.1428115165386
0.14261689907042
0.14244741683759
0.14230257046368
0.14218116449373
0.14208124506104
0.14200105396022
0.14194000261646
0.14189221189328
0.14186052232591
0.14184816263264
0.14184539262458
0.141850275917
0.14186522663216
0.14188987793509
0.14192336994735
0.14196561745622
0.14201703710846
0.14207667798323
0.14214430234425
0.14221729889172
0.14229062664206
0.14236471733887
0.14243797996198
0.1425090961488
0.14257832751053
0.14264708276488
0.14271597854324
0.14278793400059
0.14285986380537
0.14293968251329
0.14300588568106
236.27632283809
199.49310516747
154.50844657645
114.53443772543
85.578898690195
64.837679793661
49.665469585001
37.944055657382
28.748677040554
21.681728190169
16.354759920493
12.410966431206
9.5211802996224
7.4035928575504
5.8362231310153
4.6613571708417
3.7742437666114
3.0835342118679
2.5418028607807
2.1192322331373
1.7809182900421
1.5079429872364
1.2858707843949
1.1036484405222
0.95292778306574
0.82727771256806
0.72184447116588
0.63284189442082
0.55727851951931
0.49282330784438
0.43749744183689
0.38985301002656
0.34847962854176
0.31242555909186
0.74101891415091
1.4561143873072
1.0449432704558
1.4244565796627
2.280285709094
3.445420864846
4.5617755859185
5.2692443147593
5.5664678952959
5.4839556701573
5.123146370376
4.6014305139492
3.9869828329144
3.3909713479754
2.8865359582549
2.4932017186424
2.2230339523593
2.0668527607652
2.0419384826118
2.1372346713114
2.3064707197454
2.4763546419779
2.5677728108477
2.5995545642682
2.5737806169046
2.5367252614792
2.4969034942208
2.4583918884822
2.4209658954913
2.3753567478963
2.3046406603969
2.1870337051839
2.0037627090312
1.7575667618477
1.4857677405208
1.2359952464741
1.0354111368563
0.88687035152382
0.78276893278268
0.70968761663365
0.65972222939819
0.62985454819205
0.62266088087301
0.64486960088233
0.72562934034488
0.96788653899962
1.0293907429357
0.51964453775447
0.16493311302766
0.15946281052591
0.16042096829924
0.15760607054219
0.15527942143018
0.15343204874064
0.1519670206266
0.15079497803845
0.14984597682045
0.14906665023136
0.14841580406001
0.14786197656521
0.14738111351729
0.14695446065684
0.14656715777709
0.14620733739477
0.1458653320924
0.14553296438888
0.14520349622698
0.14487313308586
0.14454371728595
0.14422017957612
0.14383298291355
0.14354195224804
0.14327322941142
0.143028623472
0.14280950990499
0.1426152857843
0.14244616570762
0.14230163637958
0.14218049242807
0.14208082593661
0.14200083955095
0.14193993058893
0.14189259502737
0.14186066298511
0.14184861468356
0.14184607710696
0.14185108755927
0.14186609562256
0.14189084985293
0.14192452185851
0.14196698050358
0.1420185708792
0.14207844049478
0.14214617943119
0.14221923810664
0.14229283159644
0.14236716506333
0.14244062742596
0.14251185781946
0.14258108593563
0.14264972439493
0.14271854666438
0.14279008602596
0.14286186025751
0.1429407878603
0.14300640343047
227.98012319699
165.5880774856
115.00942353345
83.642766621763
64.496190344426
50.478388533711
39.951840094471
31.605281244493
24.789080926663
19.262532002091
14.910610287158
11.545658358909
8.9883792640559
7.0563144145638
5.5985484905448
4.4960282211703
3.6513985142333
2.9982156911718
2.4863212325996
2.0731782711478
1.7455118408182
1.4813729176478
1.2653263060452
1.0874790052737
0.94016847757511
0.81713221572885
0.71378083463219
0.62641004296339
0.55206898800089
0.48852861811394
0.43394645822224
0.38681394577789
0.34583566919281
0.31036471448072
0.32791842839084
1.3285529188414
0.95617651979943
1.2821261829066
1.9976992823944
2.9376745824237
4.1352792984293
5.0585146804739
5.4073162224773
5.3434672363051
4.9615788580079
4.4118298367023
3.8034116182316
3.2465831236741
2.799643579518
2.4617132670135
2.2363221427985
2.125926933827
2.1233070548773
2.2112336682199
2.3449518370194
2.4728764280293
2.5485298056681
2.5687834721857
2.5398468272738
2.4955169482577
2.4423556710627
2.3727392424242
2.2656023848922
2.0869379151522
1.8123294187208
1.4748349808585
1.1600775677376
0.91758335362667
0.74996546086042
0.63726978899256
0.5592155173161
0.5038912759468
0.46441403908943
0.43707446394146
0.42028898516047
0.41488578975446
0.42362648183317
0.45650865242847
0.54421224680906
0.77338578343233
0.79857251305571
0.39053926154482
0.1496823385091
0.15990988342385
0.15955166610169
0.1570407267846
0.15491296452076
0.15318815901592
0.15179992489994
0.15067728818697
0.14976096162663
0.14900371766668
0.14836812582262
0.14782506781357
0.14735196496472
0.14693100772077
0.14654796212618
0.14619139501825
0.14585194083782
0.14552161133922
0.14519375528486
0.14486475118679
0.14453649310587
0.14421387979939
0.14382777864357
0.14353751556772
0.14326951542482
0.14302561225962
0.14280702273762
0.14261328578936
0.14244460835511
0.14230047628207
0.14217967741552
0.1420803281272
0.14200063630397
0.14193992139238
0.14189285528208
0.14186106898993
0.14184930888268
0.14184699588718
0.14185213003415
0.14186725690217
0.14189219966925
0.14192607290168
0.14196877164022
0.14202057409921
0.14208070319738
0.14214864981199
0.14222191237237
0.14229582329795
0.14237043960583
0.14244414448999
0.14251551945658
0.14258474889694
0.1426532643984
0.14272184432869
0.14279293554591
0.14286418725515
0.142942178034
0.14300712850649
124.75920500095
83.542663223572
67.76807516594
55.803554635297
45.956842983262
37.899342632253
31.237819510585
25.66806884324
20.890723590346
16.773268833751
13.324952594077
10.544633049329
8.3524528896653
6.6494433100495
5.3309321099932
4.3084010080946
3.5133435763529
2.8935188757025
2.407184475092
2.0197389315981
1.7052394553789
1.4490332485259
1.2402398007037
1.0682752028514
0.92506086105945
0.80512829560374
0.70419817013889
0.61862464142113
0.54573453412461
0.48328989977823
0.42956777964093
0.38309994050062
0.3429140802589
0.30776904133459
0.28022541465641
1.2959177010063
0.95836235743077
1.2605772585233
1.7590082600944
2.2695431666633
3.0245408893717
4.3971831467737
5.1636496302083
5.1702034082788
4.7441242780721
4.1623100603778
3.56723272146
3.0775888274926
2.7058354370482
2.4378822073411
2.2660064456233
2.1956440123188
2.2044243549268
2.2753971369788
2.3712066747132
2.4546598772526
2.494379140787
2.4822348181382
2.4225020677745
2.3283019204757
2.1864807618499
1.9633835689666
1.644163874563
1.2843994302127
0.97484659104324
0.75330083949852
0.60624106678319
0.50809571433369
0.44078344940857
0.39344651550317
0.35976377286816
0.33595895809749
0.31984759098906
0.31050206844417
0.30784777229403
0.31367842852321
0.33232221425921
0.37555904246198
0.47596700228478
0.66297265383586
0.61487464397074
0.278605253325
0.14585153693132
0.15963633642232
0.15857998921305
0.15639702735249
0.15448804607073
0.15290123646585
0.15160117089718
0.15053609610693
0.14965831360364
0.14892735751181
0.14831005452291
0.14777997604692
0.14731626083255
0.14690221004014
0.14652433485111
0.14617172427356
0.14583537449211
0.14550752858672
0.14518165226252
0.14485430807581
0.14452746355093
0.1442059742595
0.14382124415631
0.14353189787697
0.1432647878056
0.14302176670829
0.14280385494474
0.14261074396128
0.14244262696528
0.14229899778101
0.14217863879069
0.14207967820032
0.14200033211078
0.14193998802373
0.14189307179351
0.14186151079991
0.14185015033224
0.14184806815996
0.14185341618041
0.14186876441122
0.14189396560135
0.14192812556737
0.14197108755602
0.14202316684767
0.14208361002413
0.14215184442332
0.14222544365604
0.14229972954214
0.14237467037593
0.14244864847071
0.14252017828471
0.14258940193337
0.1426577620289
0.14272596372791
0.14279654009479
0.14286703858258
0.14294392256754
0.14300806147657
5.7456034146756
24.777401055508
32.520111816157
34.156114630422
32.028225750128
28.647616474447
24.8785638216
21.299320970599
18.012118150285
15.023780862694
12.335397128166
10.005164427077
8.0743023915273
6.5164106516765
5.2803255006536
4.304352662217
3.5327499072388
2.9196942610619
2.4281084107773
2.0377192327361
1.7236611943754
1.4682218216286
1.258467820448
1.0844989320182
0.93933288304032
0.81774816998405
0.71550086101138
0.62888427727105
0.55499644445503
0.49161295049345
0.43697973944008
0.38978900168542
0.34864880073883
0.31282730976752
0.28114820141111
0.50131119690545
1.2688998030117
1.4748484365878
1.8138807146628
2.2169926177818
2.6049088169159
3.092044835791
4.0816551236215
4.9640341675416
4.5867871172974
3.9762184612229
3.3975747600208
2.9675772244952
2.6612807580734
2.4492281614821
2.3141419194581
2.2542139225096
2.2522030839793
2.2918390236069
2.3385028163656
2.3638122160208
2.3393255853876
2.2526867603734
2.093945258161
1.8660786326349
1.5687853521275
1.2389433011288
0.94323499947822
0.72103301714911
0.56638913300845
0.4614814124819
0.3900925700591
0.34095062215305
0.30672472393789
0.28283941285217
0.26639016507809
0.25565292917341
0.24975765832707
0.24840393579285
0.25230450243624
0.26341697068781
0.28639436037675
0.33198575523279
0.42513150349758
0.56083081482796
0.51126886630108
0.24796958209216
0.14407130976873
0.15845716158861
0.15755357479977
0.15570475679837
0.15402013692796
0.15258002309617
0.15137581157538
0.15037437458931
0.14953979230746
0.14883866257915
0.14824228130444
0.14772715167942
0.14727430927882
0.14686829593029
0.14649646405862
0.14614849687089
0.14581580010318
0.1454908802476
0.14516734405288
0.14484196182558
0.14451682687577
0.14419664964538
0.14380873563193
0.14352134508077
0.14325599862196
0.14301463803691
0.1427980230254
0.14260609486868
0.14243902444196
0.14229633130268
0.14217679308725
0.14207854471815
0.14199984902823
0.1419401340936
0.14189356237704
0.14186279589562
0.14185187251969
0.14185006241867
0.14185585418118
0.14187171266559
0.14189742080729
0.14193210279139
0.14197561688058
0.14202824671238
0.14208924014984
0.1421579895939
0.1422322222309
0.14230716804939
0.14238274547528
0.14245725573049
0.14252910984656
0.1425983810265
0.14266648156576
0.14273394538749
0.1428035494825
0.14287240012562
0.14294721579591
0.14300990623426
0.48255457401944
6.0790228122315
8.9794033007432
11.331932055173
12.96351595888
13.583846324492
13.20497811572
12.312330519759
11.182252426097
9.9312674267488
8.6388350122301
7.3698012630971
6.1997327122651
5.1753418211802
4.3086627864396
3.5913374154173
3.0040988951594
2.5259515602122
2.1361072822967
1.8149356749824
1.5493882748787
1.3294854312398
1.1461105470659
0.99195465435728
0.86332590425297
0.75542990512363
0.66411807870667
0.58616822812677
0.51928656511212
0.46164094178412
0.41166301964765
0.36822479704625
0.33037292401111
0.29740094778647
0.26791857632729
0.34936756927413
2.9813792073904
2.9458368982294
3.0094738381208
3.129919485279
3.2471636451354
3.3378809219712
3.281864245906
3.4013090513817
3.2104883582343
2.6981671488492
2.3948463206124
2.2481258973732
2.1693052886377
2.1224914985588
2.0850988323016
2.0478693904958
1.9906611779263
1.8885743147543
1.7214753882546
1.4907686014465
1.2332144057822
0.99042807400131
0.7850180348219
0.6196401142239
0.49175788041682
0.39600667911501
0.32680426013487
0.27835950758782
0.24519996915444
0.22297590477473
0.20843813149284
0.19931129183414
0.1941103472678
0.19195076447698
0.19234417825459
0.19536105463336
0.20141291381537
0.21153674177461
0.22772130323748
0.25360207058159
0.29550982094901
0.36057252137108
0.41747185598579
0.36884665988458
0.21074533297573
0.13877858649106
0.15494767100493
0.15610142324356
0.15551294453154
0.15427221686559
0.1530156546289
0.15186984183079
0.15086633213808
0.15000267482995
0.14926358473572
0.14862957632534
0.14808110154556
0.14760062285473
0.14717322932765
0.14678617757123
0.14642870376534
0.14609183623613
0.1457679076471
0.14545003929867
0.14513219876045
0.14481155809347
0.14449041009969
0.14417355063296
0.14378846646433
0.14350395528331
0.14324134961339
0.14300256559146
0.14278814385282
0.14259817135112
0.14243284937024
0.14229172737898
0.14217356719371
0.14207651305872
0.1419989074322
0.14194015627357
0.1418942731768
0.14186476505805
0.14185461768766
0.14185326015435
0.14185972338899
0.14187643879711
0.14190303558196
0.14193859210395
0.14198295443519
0.14203644387397
0.14209833676506
0.14216797826315
0.14224338266281
0.14231938189241
0.14239597159587
0.1424713254811
0.14254368085675
0.1426129468242
0.14268048479487
0.14274669565155
0.14281465961201
0.14288081191017
0.14295232606032
0.14301274296764
0.12335428541391
3.2923400443267
3.9966509476402
4.7640323918954
5.9082790456445
6.7771561101646
7.2640003029457
7.3315172643494
7.0982391066944
6.6562083159453
6.1019138827752
5.476556899132
4.8185259483286
4.1771240042175
3.5863197456736
3.064229903961
2.614147025995
2.2318408765552
1.9106338276963
1.6419602375813
1.4173967072947
1.2290981050267
1.0697393825582
0.93407676220358
0.81811366435175
0.71884357555275
0.63385616481221
0.56102928024067
0.49838267122565
0.44428124019936
0.39715367676127
0.35601218962013
0.32002335639815
0.28775178237644
0.36044305989613
1.4842744069012
1.7674462134849
2.0327683660327
2.2899965492105
2.5090173747583
2.6456781825691
2.619681521726
2.3666747090764
1.9776942299276
1.578194639796
1.3477394205664
1.256828974511
1.2293402118828
1.221866932731
1.2071780491727
1.1705756470471
1.1019859438351
0.99923890976875
0.87077351750594
0.73338404789429
0.60295216808773
0.48890094315294
0.39494382690191
0.32156862370083
0.26750977715455
0.22958921874005
0.20373620488519
0.18684218485404
0.17650320806729
0.17081562209135
0.16839233403966
0.16826015457181
0.16989893610212
0.17308282066006
0.17780809850125
0.18429018631503
0.19306298767812
0.20497403650398
0.22128970211144
0.24361884973714
0.27291901164495
0.30494362427192
0.31583466144812
0.26976564502582
0.17828910591594
0.13397764597622
0.14966279359994
0.15363199362251
0.1538474393913
0.15365959628308
0.15288478722692
0.15199840157686
0.15112157160499
0.15031222614946
0.14958822284212
0.14894950762596
0.14838800950199
0.14789228187035
0.14745074787303
0.14705241385123
0.14668728763605
0.14634660622965
0.1460228515253
0.14570935578057
0.14539991866116
0.14508896397364
0.14477407166703
0.14445774767198
0.14414498714136
0.14376349323906
0.14348259873523
0.14322332668073
0.14298760215687
0.14277589474414
0.14258832603666
0.14242514985733
0.14228596394194
0.14216950222119
0.14207391669537
0.14199763981587
0.1419400356769
0.14189516084763
0.14186720611709
0.14185802144284
0.1418572937479
0.14186465159566
0.14188240423911
0.14191004584613
0.14194667700332
0.14199212324221
0.14204673224839
0.14210977472625
0.14218053212252
0.14225739057639
0.14233466777716
0.14241246190601
0.14248880016159
0.14256170879158
0.14263087370256
0.14269756012666
0.1427621640354
0.14282793708053
0.1428907541277
0.14295834452608
0.14301603078426
0.11087513923066
0.54183503385733
3.311162873776
3.1850471514924
3.1390024032003
3.5938015818297
4.1390122591926
4.4535475787804
4.559252031147
4.488766981582
4.2928301771488
4.0111675757236
3.6666899718578
3.2949240874575
2.9171221404449
2.5581554448936
2.2305418524586
1.9395254158016
1.6851867492901
1.4658619718854
1.2776131850055
1.1164298890398
0.9787746464359
0.86184385070489
0.76143073105674
0.67386499346493
0.59825398171101
0.53235616148072
0.47489585209647
0.42493147329085
0.38046089280831
0.34167370079909
0.30700706026283
0.56165185152799
1.5026081572778
1.7531477556671
1.9752370603627
2.1776863455982
2.3472132691032
2.4137032932165
2.2494123876574
1.8021280954956
1.2988618955916
0.95795662216839
0.76787793673969
0.67021969170934
0.62390934246344
0.60075955159994
0.58312933123988
0.56205453314895
0.5325552391907
0.49250768164972
0.44265634846549
0.38625810858946
0.32868230599939
0.27591459359463
0.23249347004368
0.20040883916436
0.17874345850067
0.16537937173639
0.15800785428061
0.15476549437325
0.15428814856421
0.15562166902854
0.1581922375561
0.16167867840709
0.16594640382968
0.17102198139333
0.1770344499933
0.18420246563009
0.19281154651746
0.20314224549963
0.21529458829204
0.22872161436222
0.24078440590849
0.24451031549928
0.22883303802335
0.18791307153651
0.14110915212855
0.13288317530188
0.14624192793069
0.15055175335618
0.15168336706333
0.15203388894881
0.15207151687728
0.15162735195249
0.15102877709313
0.15038264580491
0.14974785372285
0.14915466083883
0.14861378472478
0.14812514708967
0.14768384689368
0.14728322885731
0.14691593000801
0.14657460433701
0.14625239795324
0.14594323770216
0.14564146659811
0.14534157597475
0.14503845702044
0.1447301335819
0.14441936615147
0.14411132558871
0.14373431669169
0.14345764181127
0.14320217183069
0.14296991439299
0.14276136584922
0.14257661718474
0.14241596914366
0.14227908314975
0.14216464803045
0.14207080634143
0.14199608875334
0.14193979608066
0.14189612657169
0.14187004477602
0.14186198102079
0.14186206455677
0.14187059200442
0.14188960698735
0.14191850395678
0.14195639128383
0.14200315065186
0.14205912706671
0.14212356475217
0.14219568142157
0.14227424392338
0.14235297992166
0.14243211853305
0.14250948343605
0.14258290869291
0.14265181622879
0.14271732010584
0.14277997930488
0.14284301015138
0.14290199013811
0.14296513705575
0.14301960934616
0.11462113172552
0.12391789767091
0.89461863906159
3.0818677474127
3.0003422516107
2.519407913261
2.5042498176231
2.6993614842654
2.9588724378287
3.0488362890672
3.0407348711752
2.9316891835903
2.7729337735101
2.570011718042
2.3432812743978
2.1070565556487
1.8777109356791
1.6636913389418
1.4691628693381
1.2953294135097
1.1420378881353
1.0079463657159
0.89107881633531
0.78939909827505
0.70096371684726
0.62297694547129
0.55511439597533
0.49494470810374
0.44715497813371
0.40340730581113
0.35976016453119
0.34092547956045
1.1261388883794
1.5752869336798
1.7936639698252
1.9997450549262
2.1884724093724
2.3295631760207
2.3343823210976
2.0340693064921
1.4757100668521
0.99300150354718
0.7028783603599
0.53584517741662
0.43273786096768
0.36891947541649
0.3319456709075
0.31053818609793
0.29593749505818
0.28231456600571
0.26636866129366
0.24657349893276
0.22350719225931
0.19964754920822
0.17821113377463
0.16174304719461
0.15106680209099
0.14552595798457
0.14378047079182
0.14445841992272
0.14654048766343
0.14937199195706
0.1526075752454
0.15610171982942
0.15981268998485
0.16376756537395
0.16801702837352
0.17260427409668
0.17752111865868
0.18264747740294
0.18765307900772
0.19176652646301
0.19347693833887
0.19032842881131
0.17937787665869
0.15948263371839
0.13651156323977
0.12746701629186
0.13637911116718
0.14477044154876
0.14776747244636
0.14927286508077
0.15019003046116
0.15059659324208
0.1507594938679
0.15053211422747
0.15014569737537
0.14968311003317
0.14919755670917
0.1487211484968
0.14827052467675
0.14785117319684
0.14746317400965
0.14710355204917
0.14676791653279
0.14645120152108
0.14614842397667
0.14585480966832
0.14556568622226
0.14527608684224
0.14498156016555
0.14468046743536
0.14437584329531
0.14407306994719
0.14370120388488
0.14342929271631
0.14317804859738
0.14294962887517
0.14274462011532
0.14256307737991
0.14240533069332
0.14227110511156
0.142159028453
0.14206721362616
0.14199428003637
0.14193947953382
0.14189717733311
0.14187329716937
0.14186651987648
0.14186762068846
0.14187757720614
0.1418980670449
0.14192841361603
0.14196779186628
0.14201610405265
0.14207370233526
0.14213980537343
0.1422135393804
0.14229403843659
0.14237433658711
0.14245489039135
0.14253328403207
0.14260712561762
0.14267559389291
0.14273960037166
0.14279990455993
0.14285963223816
0.14291439852278
0.14297263941076
0.14302334101432
0.1172364954779
0.11899572043478
0.14428396459291
0.81991430927208
2.6305094057321
3.1694171684602
2.636956033643
2.1026567786526
1.9936059847377
2.0240199453244
2.1236427461325
2.1480116443158