/*--------------------------------*- C++ -*----------------------------------*\
| =========                 |                                                 |
| \\      /  F ield         | OpenFOAM: The Open Source CFD Toolbox           |
|  \\    /   O peration     | Version:  2312                                  |
|   \\  /    A nd           | Website:  www.openfoam.com                      |
|    \\/     M anipulation  |                                                 |
\*---------------------------------------------------------------------------*/
FoamFile
{
    version     2.0;
    format      ascii;
    arch        "LSB;label=32;scalar=64";
    class       volScalarField;
    location    "2e-05";
    object      rhoHat;
}
// * * * * * * * * * * * * * * * * * * * * * * * * * * * * * * * * * * * * * //

dimensions      [1 -3 0 0 0 0 0];

internalField   nonuniform List<scalar> 
109340
(
661.00776462236
660.95967328586
660.88333001077
660.77658516029
660.63662740854
660.45653935088
660.22726374587
659.93960328003
659.57794868026
659.11576792657
658.52837898332
657.78285414691
656.83687145844
655.63628440534
654.11178237034
652.17448734923
649.71009412984
646.57088377228
642.56480018679
637.4345991115
630.85506292429
622.38936135563
611.47264371299
597.38360909916
579.24742764028
556.11695016127
527.36936926613
492.56300989661
450.80429877588
402.38687001428
348.94595628892
293.28838249688
239.37241212769
190.51685306886
148.99161249317
115.45452613367
660.99914748504
660.94457033361
660.86080926413
660.74789295156
660.60060911204
660.41192264475
660.17310317606
659.87010706289
659.48531008882
658.99646259467
658.3759063106
657.58850665184
656.58939397454
655.32118660758
653.71044013342
651.66286225214
649.05710062987
645.73611742221
641.49538281782
636.06056237949
629.08366885274
620.09994617523
608.50727204709
593.54099782827
574.28706863184
549.77676264714
519.23015155921
482.36020735601
438.77338898807
388.85434214564
334.59867641404
279.09342376031
226.31011362864
179.23931870568
139.80560798363
108.2445579293
661.00287122659
660.94618882109
660.86343992307
660.75307194016
660.6091289479
660.42381460147
660.18690200453
659.88543234461
659.50258775475
659.0167007217
658.40017496022
657.61794152336
656.62529319591
655.36509387979
653.764225981
651.72887535452
649.13826992168
645.83614022478
641.61853966937
636.21353052075
629.27311351569
620.33423264978
608.79552935155
593.88897013019
574.69011541374
550.19413546025
519.49766884672
482.0323803814
437.81770802364
387.75929168314
333.49848315906
278.19043223274
225.66157142953
178.86043961437
139.65347199267
108.23318965914
661.00855524313
660.95159190928
660.87095998578
660.76257004344
660.62085327897
660.43803505553
660.20395583885
659.90557393314
659.526282454
659.04478658714
658.43378962079
657.6584366575
656.67419525445
655.42409009298
653.83508849574
651.81339151901
649.23807904036
645.95264015614
641.75179770895
636.36404611779
629.43830208826
620.50838558613
608.96773136959
594.03627261444
574.77058785259
550.13690884587
519.17672402061
481.24778660282
436.36166843814
385.51286992105
330.95320544585
275.81468147949
223.85018812338
177.60312684389
138.86937469057
107.72970561447
661.01994243717
660.96282064545
660.88118893553
660.77398602488
660.63483723012
660.4555557219
660.22570863862
659.93201120764
659.55756609709
659.08066042493
658.4734780634
657.70015108657
656.7144588017
655.45675324146
653.84991802588
651.79419197881
649.15890336561
645.77466801548
641.41675425356
635.79243353508
628.5135165739
619.06896134504
606.79489560866
590.83984149289
570.20013380257
543.83115051955
510.85396778681
470.9027564886
424.43700071003
373.02724679087
319.24657061437
265.89381460287
215.9638678131
171.81950230144
134.83067146657
105.02979594179
661.04133023845
660.9760931032
660.89223279055
660.77966872218
660.62943823667
660.43022605451
660.16728787526
659.82120189988
659.36627428755
658.76849422459
657.98274946023
656.94932051821
655.58926048321
653.79842156042
651.43978648486
648.33359936838
644.24428923583
638.8638605503
631.78899401161
622.47528755104
610.20752173748
594.07126023135
572.94308703591
545.53010409258
510.75873822736
468.72425747481
421.01127588127
370.15679777701
318.70392997638
268.54657357274
221.67636962427
179.6877228021
143.21202452118
112.51712841429
87.253281608657
67.181880599834
89.250268420222
69.211780333355
54.152785059092
41.610601153019
29.683395602951
18.440317872295
9.969833664028
4.9773962683087
2.3981776441266
1.1975514806658
0.61452528071649
0.32672372659534
0.18226944798854
0.10629110708921
0.064087039511577
0.039658140842884
0.025307628416828
0.016617649952109
0.01116102166785
0.0076351743799217
0.0053216016333331
0.0037762631266758
0.0027217801027983
0.001987808639714
0.0014701819340488
0.0011011420278486
0.00083456642526336
0.00063894756778982
0.0004932370887657
0.00038361377035234
0.00030062466132952
0.00023751400877309
0.00018910579999348
0.00015116774621193
0.0036649697643503
0.0062734486887002
0.0016367451459931
0.0034354984607861
0.0080355865726331
0.016796486362534
0.028824836578243
0.039853953817485
0.045888528047421
0.046000077246812
0.041512593361115
0.034529464841821
0.026891900263507
0.019719097830336
0.013956619584746
0.0098926867125924
0.0073108931002315
0.0058036196469873
0.0051043814153084
0.0053124485448111
0.0064023257369543
0.008184498409634
0.0091476322933719
0.0095745345586966
0.0093965600580153
0.009075977385288
0.0087315834841619
0.0084109428895691
0.0081913134951175
0.0080505922893073
0.0079351622759027
0.0077648052271249
0.007535541102055
0.0072628954382647
0.0069703571118889
0.0066858694467054
0.0064133178068828
0.0061579234623625
0.0059192398004706
0.0057046306508233
0.0055389726638497
0.0053851533275715
0.0052846439566054
0.0052479053760348
0.0054371212979349
0.0057938811760208
0.004930782205893
0.001312519473605
7.6935553089685e-05
1.6339125829545e-06
5.9910980065858e-09
3.3005126409691e-11
1.1027290192089e-13
2.7755575615629e-16
2.7755575615629e-17
-2.7755575615629e-17
0
0
-2.7755575615629e-17
2.7755575615629e-17
-2.7755575615629e-17
-2.7755575615629e-17
0
0
0
0
2.7755575615629e-17
-2.7755575615629e-17
-2.7755575615629e-17
2.7755575615629e-17
2.7755575615629e-17
0
-2.7755575615629e-17
0
0
0
0
0
0
2.7755575615629e-17
0
0
2.7755575615629e-17
0
0
0
0
2.7755575615629e-17
0
-2.7755575615629e-17
-2.7755575615629e-17
0
-5.5511151231258e-17
0
0
0
0
0
0
0
0
2.7755575615629e-17
0
-2.7755575615629e-17
0
0
83.811014546422
65.200134984243
49.705406835488
35.289498655101
22.579177573885
13.094263037887
7.0516199251351
3.6346056807321
1.8312631400896
0.93902057006388
0.49764002774334
0.27322097209076
0.15519907497734
0.09130277672952
0.055611598047332
0.034969928531041
0.022559883064576
0.014885960533312
0.010049304374365
0.0069267496571572
0.0048591939005596
0.0034631595066068
0.0025053576462595
0.0018374021660412
0.0013645226954082
0.0010250903118183
0.00077822624199508
0.00059659023532732
0.00046150474259099
0.0003599431798349
0.00028288091576345
0.00022389813561824
0.00017852456248402
0.00014213284401571
0.0065812368407321
0.0047590870405134
0.001790120207122
0.0040049252236367
0.0093034718256937
0.019225788788868
0.032003703955224
0.042305089935657
0.046975148295362
0.045599155662949
0.040209432551531
0.032745661205476
0.024984493249406
0.018102686635548
0.012809115548024
0.0091899878210873
0.0069610280520171
0.0056962683280319
0.0053153176796426
0.0057882794036548
0.0071150665775739
0.0086887719810336
0.0094501258961359
0.0097089472407359
0.0094948547446476
0.0091828658126079
0.0088537521644709
0.0085740686354296
0.0083782515726822
0.008239188516356
0.0080973150189556
0.0079022763889922
0.0076500547153713
0.007345670664145
0.0070282729480096
0.0067158493479345
0.0064117396314298
0.0060718321807398
0.0057055260187151
0.0053194866896606
0.0049302790795447
0.0045618209079656
0.0042599918446879
0.0040869190264798
0.0042270616885449
0.0046361251483689
0.0034349159560207
0.00062141766105417
2.2010320254479e-05
4.8275964925626e-07
4.7416629789243e-09
2.5679736115336e-11
8.540390616929e-14
1.6653345369377e-16
-2.7755575615629e-17
2.7755575615629e-17
0
0
0
2.7755575615629e-17
2.7755575615629e-17
2.7755575615629e-17
0
-2.7755575615629e-17
-2.7755575615629e-17
2.7755575615629e-17
-2.7755575615629e-17
0
0
2.7755575615629e-17
0
0
-5.5511151231258e-17
0
-2.7755575615629e-17
-5.5511151231258e-17
-2.7755575615629e-17
2.7755575615629e-17
-2.7755575615629e-17
-2.7755575615629e-17
-2.7755575615629e-17
-2.7755575615629e-17
-2.7755575615629e-17
-2.7755575615629e-17
0
2.7755575615629e-17
2.7755575615629e-17
2.7755575615629e-17
0
0
0
-2.7755575615629e-17
0
0
2.7755575615629e-17
0
0
0
-2.7755575615629e-17
2.7755575615629e-17
-5.5511151231258e-17
2.7755575615629e-17
2.7755575615629e-17
0
-2.7755575615629e-17
0
83.820993377008
64.393483789957
45.709649088646
28.880280690254
16.872369491645
9.4979909156914
5.2848658218012
2.8873965360201
1.552119709519
0.83292793545687
0.45235194845665
0.25269106622931
0.14543832275893
0.086555514112521
0.053152341886294
0.033607497078967
0.021744524194865
0.014432291294962
0.0097803979465918
0.0067546727662844
0.004747232304702
0.0033924241178573
0.0024600333850691
0.0018073061274839
0.0013437336127793
0.0010101186455763
0.00076734781779653
0.00058871247563419
0.0004558008362614
0.00035581996835954
0.00027990779427084
0.0002218189431531
0.00017709562390689
0.00014184821002822
0.0037137160774832
0.0039299439785523
0.0017534201311444
0.0034942218128018
0.008477284481617
0.018497028817062
0.03157404545829
0.041731315287429
0.04630992890535
0.044782120642767
0.039328165898675
0.03188616031048
0.024189881901614
0.01745821192984
0.012466251049942
0.0091188124806485
0.0070283884237634
0.0058632257349527
0.0055873788975029
0.0061393789444155
0.0073731616156101
0.0087664645660004
0.0094898568991453
0.0097498953054873
0.0095406055553928
0.0092494772392668
0.0089442830750439
0.0086760444859366
0.0084731601196322
0.0082941138001575
0.008112949818758
0.0078748604624872
0.0075179170336623
0.0070456733078288
0.0064478104129266
0.0057040641368995
0.0048424187863492
0.0039443729318756
0.0031287764690773
0.0024655602099237
0.0019758234409875
0.0016508524563239
0.0014775178616531
0.0014630607362878
0.0016742076520899
0.0024268099298048
0.002296930177178
0.0004417823337971
1.4647310862703e-05
3.3016562983601e-07
2.9502803811088e-09
1.545444328066e-11
5.0459636469213e-14
8.3266726846887e-17
-2.7755575615629e-17
0
0
0
-2.7755575615629e-17
0
0
2.7755575615629e-17
0
0
-5.5511151231258e-17
0
0
0
0
-2.7755575615629e-17
2.7755575615629e-17
0
0
0
2.7755575615629e-17
0
0
0
0
2.7755575615629e-17
0
-2.7755575615629e-17
0
0
0
2.7755575615629e-17
-2.7755575615629e-17
0
0
0
0
2.7755575615629e-17
0
0
2.7755575615629e-17
2.7755575615629e-17
0
-2.7755575615629e-17
-2.7755575615629e-17
0
0
0
0
0
0
0
83.41315568608
59.39095382489
35.582043078982
19.521522735788
10.880401065654
6.234722604862
3.6521920013979
2.1283442848158
1.2198344546126
0.6927253551809
0.39353244909955
0.22627243777896
0.13296831220348
0.080292685548635
0.049827967627299
0.031746698862969
0.02078846711119
0.013861215719134
0.0094086693605986
0.006534236446023
0.0046101352363768
0.0033024009333589
0.0023993399938997
0.001766120424709
0.001315698205998
0.0009909069473425
0.00075392073367253
0.00057909580459736
0.00044878341664378
0.00035076605254702
0.00027627183006096
0.00021925476976586
0.00017510360445172
0.00014066528608553
0.00083699873336696
0.0030188441037557
0.0015657379065261
0.0029280566626111
0.0075146428265631
0.017152857303163
0.030009440626583
0.039944793256956
0.044501984374509
0.043114558960229
0.037572907131525
0.030275777657379
0.0227041458397
0.01641584476662
0.011895435349871
0.0088755863427608
0.0070635475729453
0.0061144936863813
0.0059785914741122
0.006556068459727
0.007634524243564
0.0087872788967376
0.0094348889510845
0.0096568096738343
0.0094613215767412
0.0091870520463266
0.0088970148804699
0.0086200180686702
0.00835282066845
0.0080303638060277
0.0075409828966118
0.0067616735047205
0.0056336761631945
0.0042800962536997
0.0030006141916401
0.0020237182028569
0.0013776933554239
0.00097976341799821
0.00074182558474789
0.00059510604857316
0.00050463600683792
0.00045447523059572
0.00044308183906006
0.00047961320443546
0.00062491891062499
0.0011769404716596
0.0013165278510794
0.00025987594009869
8.3013823091727e-06
1.8273454305273e-07
1.4122270852734e-09
7.0793371165223e-12
2.2565282975506e-14
2.7755575615629e-17
-2.7755575615629e-17
0
0
0
0
2.7755575615629e-17
0
2.7755575615629e-17
0
-2.7755575615629e-17
0
-2.7755575615629e-17
0
2.7755575615629e-17
0
0
2.7755575615629e-17
5.5511151231258e-17
0
0
5.5511151231258e-17
0
0
2.7755575615629e-17
-2.7755575615629e-17
2.7755575615629e-17
0
0
0
0
0
0
0
0
-5.5511151231258e-17
0
0
2.7755575615629e-17
0
0
0
0
0
2.7755575615629e-17
0
2.7755575615629e-17
5.5511151231258e-17
0
-2.7755575615629e-17
-2.7755575615629e-17
0
0
77.65017511246
40.91607085539
19.705180004348
10.403920482586
6.1745726093939
3.7757917348893
2.3613216205845
1.475491125712
0.90633992802012
0.54645694031063
0.32695126652554
0.19575223177143
0.11847337148776
0.072913531101128
0.045843438194213
0.029529411760031
0.019454826327223
0.013104232869043
0.0090032687569432
0.0062527379608719
0.0044282582531372
0.0031868039303888
0.0023231374416255
0.0017146572844373
0.0012806350827843
0.00096670640728813
0.00073714342039355
0.00056736365752064
0.00044041556915342
0.00034466889666968
0.0002717982367153
0.00021584827618365
0.00017244692749629
0.00013881615143263
0.00015794736938385
0.0025157503711233
0.0013085073103566
0.0023708001179426
0.0057652616368182
0.012475648661583
0.024685070346482
0.036828679903262
0.041997547218021
0.040927715278918
0.035233591323677
0.027820176749453
0.020658624159847
0.015049759818224
0.011193215601371
0.0086586305073175
0.0071520722786058
0.0064714566121191
0.006463416724245
0.0070136719844363
0.0078853031289881
0.0087580560852163
0.0092907507516431
0.0094265717623014
0.0092074148828112
0.008881754154872
0.0084982963754343
0.0080058615767293
0.0072738864987469
0.0061293639081024
0.0045599788465478
0.0029479197251392
0.0017582679987038
0.0010498686549786
0.00066714786769351
0.00045942848295089
0.00033918852583015
0.00026584090745929
0.00021963042327039
0.00019074304595573
0.00017450079301673
0.00017002177860992
0.00017951957753298
0.0002149034911092
0.00032318739196369
0.00070671928367727
0.00073472348652337
0.0001266472583642
4.1952522689126e-06
7.7866334241561e-08
5.1934259670539e-10
2.486927330736e-12
7.7438055967605e-15
0
2.7755575615629e-17
0
2.7755575615629e-17
-2.7755575615629e-17
0
0
0
2.7755575615629e-17
0
0
-5.5511151231258e-17
2.7755575615629e-17
0
0
-2.7755575615629e-17
0
2.7755575615629e-17
0
0
0
0
2.7755575615629e-17
2.7755575615629e-17
0
0
0
0
2.7755575615629e-17
0
0
-2.7755575615629e-17
0
0
0
0
0
2.7755575615629e-17
0
0
-2.7755575615629e-17
0
2.7755575615629e-17
0
-2.7755575615629e-17
2.7755575615629e-17
0
2.7755575615629e-17
-2.7755575615629e-17
2.7755575615629e-17
-2.7755575615629e-17
-2.7755575615629e-17
0
23.191260062795
10.394149387747
6.8311704416036
4.6244952834932
3.1313620971414
2.1262231770838
1.4422342554324
0.97236173811032
0.64318766376337
0.41407744161022
0.26096945240489
0.16320579929198
0.1022661023905
0.064732538978295
0.041554110376202
0.027110366104799
0.018008238875287
0.012202401604415
0.0084365641648594
0.0059336834684398
0.0042259646510643
0.0030489448710509
0.002231774371471
0.0016545147655964
0.0012397397535349
0.00093846299554645
0.00071744773541738
0.00055332365621064
0.0004303506322062
0.00033730399607645
0.00026633366301321
0.00021171476797149
0.000169538197411
0.00013650385206865
0.00011335753571645
0.002412432177493
0.0013185125821842
0.0022960785275581
0.004471891713892
0.0074423660773131
0.013214182719292
0.027898733859494
0.03831336484035
0.038299055931676
0.032188674039711
0.024745746197795
0.018165470680533
0.013523089223846
0.010457519509598
0.0084942968893578
0.0073452877904172
0.0069034138955018
0.0069632565317517
0.0074195785978102
0.0080533981582915
0.0086187935249242
0.0088879634024233
0.008783722405235
0.0083500319320993
0.0076920175576034
0.0067507463025787
0.005392080575445
0.0037116633052767
0.0021901651423271
0.0011984334499821
0.00067111054683533
0.00040618007339666
0.00026750232515127
0.00019008517867808
0.00014427190452027
0.00011604402081106
9.8359184678654e-05
8.7574823175118e-05
8.1975571040394e-05
8.0990017874483e-05
8.5620686370802e-05
9.9463795563803e-05
0.00013425518151883
0.00023379635740123
0.00048753125040502
0.00039262233797144
5.1469536922866e-05
1.919819813484e-06
2.3889462436033e-08
1.4698103845134e-10
6.7429395400609e-13
2.0539125955565e-15
2.7755575615629e-17
0
0
0
0
0
0
0
0
-2.7755575615629e-17
2.7755575615629e-17
0
0
2.7755575615629e-17
0
2.7755575615629e-17
-2.7755575615629e-17
0
-5.5511151231258e-17
0
-2.7755575615629e-17
0
0
2.7755575615629e-17
2.7755575615629e-17
5.5511151231258e-17
-2.7755575615629e-17
2.7755575615629e-17
0
0
-2.7755575615629e-17
-2.7755575615629e-17
-2.7755575615629e-17
0
0
0
0
-5.5511151231258e-17
0
0
2.7755575615629e-17
0
0
0
2.7755575615629e-17
0
0
2.7755575615629e-17
0
0
5.5511151231258e-17
0
-2.7755575615629e-17
0.048919433906677
0.91090955485678
1.5689046960534
1.7297271373323
1.5193485953643
1.2138323736964
0.91415958366139
0.66913706797379
0.47790570446356
0.33206842064006
0.22358155347185
0.14690478555194
0.095557372557209
0.062165202748317
0.040770065433771
0.027060873923355
0.018208989470026
0.012426242253025
0.0085845319395679
0.0060404671366405
0.0043182243939979
0.0031304469666096
0.0022980693826804
0.0017053241112805
0.0012784280491849
0.00096822078983994
0.00074073583825318
0.0005718851210007
0.0004451266275346
0.00034905616203351
0.00027563105503237
0.00021919573660167
0.00017527345196655
0.00014103681929095
0.00011387082356107
0.00037508931043695
0.0023469601047541
0.0031439490416256
0.0047613607614101
0.0071027541262199
0.009791255004949
0.013788494083707
0.02405560331597
0.035328278132092
0.030060704628409
0.022554214071136
0.016461480184146
0.012563662897644
0.010110312700401
0.0085688563980875
0.0076564693523919
0.0072705259779693
0.0072588371706033
0.0075142278045184
0.0078156806708072
0.0079707366119037
0.0077832284057884
0.0071856190384665
0.0061682213551775
0.0048460457707287
0.0033597134762426
0.0020256528077158
0.00111355789163
0.00060641170527043
0.00034502326713515
0.00021090495961729
0.00013947196893982
9.9519864866227e-05
7.6098726852103e-05
6.1918568703245e-05
5.3251063441673e-05
4.8181142360937e-05
4.5775301054207e-05
4.5651327617996e-05
4.8122181693533e-05
5.4383629331689e-05
6.7752096234275e-05
9.7771671879465e-05
0.00017514991396655
0.00032435941864173
0.00024960951591602
3.7031221324146e-05
1.7188818617342e-06
2.46919643343e-08
3.2211427969386e-11
1.4294121442049e-13
4.1633363423443e-16
-2.7755575615629e-17
2.7755575615629e-17
0
2.7755575615629e-17
-2.7755575615629e-17
0
0
0
0
0
0
0
0
0
-5.5511151231258e-17
0
-2.7755575615629e-17
0
-2.7755575615629e-17
0
-2.7755575615629e-17
-2.7755575615629e-17
0
2.7755575615629e-17
2.7755575615629e-17
2.7755575615629e-17
0
0
0
0
-2.7755575615629e-17
0
-5.5511151231258e-17
2.7755575615629e-17
0
0
0
-2.7755575615629e-17
-2.7755575615629e-17
-2.7755575615629e-17
0
-2.7755575615629e-17
0
-2.7755575615629e-17
-2.7755575615629e-17
0
0
0
0
-2.7755575615629e-17
0
-2.7755575615629e-17
0
0.00027026112510736
0.05452978866981
0.11893413127799
0.18944860699948
0.24793173803875
0.27205100274316
0.25687704950053
0.22308874495354
0.18381827320495
0.14483639475235
0.10947740784308
0.079592825476865
0.05626636043466
0.03916747641332
0.027119585669041
0.018822320360197
0.013156970091563
0.0092932879355399
0.0066400572186316
0.004789243992116
0.0034874553585111
0.0025656149918556
0.0019053738276842
0.0014261604711088
0.0010795224508359
0.0008259915777884
0.00063796622402879
0.00049668844998307
0.00038957874887113
0.00030770913212119
0.00024455542560148
0.00019556733532961
0.00015734604475393
0.00012743541919435
0.00010335693747465
0.00018412488332048
0.012783003355026
0.012480132356736
0.013042645754393
0.014100922736908
0.015164324631951
0.015992802656025
0.01543534274802
0.016541233410255
0.01457506674379
0.010253974304812
0.0080833483689915
0.0071335919434987
0.0066516490536803
0.0063739663752469
0.0061521567031395
0.0059284207942789
0.0055858928378856
0.004998555350731
0.0041091933245085
0.0030261856626181
0.00201215241622
0.0012444747740388
0.00073820346365849
0.00042698066099445
0.00024578080654275
0.00014399660856501
8.8169394913684e-05
5.764998547747e-05
4.0694363952598e-05
3.1074440903112e-05
2.554178033487e-05
2.2405129570552e-05
2.0786863949684e-05
2.0244093108857e-05
2.0571433124617e-05
2.1793515328133e-05
2.4105811389424e-05
2.8010872249046e-05
3.4591844536691e-05
4.6207246449825e-05
6.8117693689806e-05
0.00010984370023659
0.00015267103504873
0.00010875656474829
2.2865976060049e-05
1.7885405926288e-06
5.0324530015411e-08
1.2418666095471e-10
7.5980888247784e-13
3.3029134982598e-15
0
-2.7755575615629e-17
2.7755575615629e-17
0
0
-2.7755575615629e-17
2.7755575615629e-17
0
-2.7755575615629e-17
0
2.7755575615629e-17
2.7755575615629e-17
0
0
0
0
-2.7755575615629e-17
0
0
2.7755575615629e-17
0
-2.7755575615629e-17
-2.7755575615629e-17
0
2.7755575615629e-17
0
0
0
-2.7755575615629e-17
2.7755575615629e-17
0
0
-2.7755575615629e-17
2.7755575615629e-17
2.7755575615629e-17
0
0
2.7755575615629e-17
0
0
2.7755575615629e-17
0
0
-2.7755575615629e-17
0
0
0
0
-2.7755575615629e-17
0
0
5.5511151231258e-17
-2.7755575615629e-17
-5.5511151231258e-17
4.2116239149098e-06
0.015810717171622
0.023490582665683
0.033345672483715
0.051303355414005
0.067508119290475
0.077537672775195
0.07894124370508
0.073937330829454
0.064957979286512
0.054540668978746
0.043896867454077
0.033951919389397
0.025491751153018
0.018773452898024
0.013693055053792
0.0099570196511252
0.0072513339828877
0.0053098404459779
0.0039182751612166
0.0029175108214166
0.0021921870468651
0.0016593758088601
0.0012642974897662
0.00096920719622184
0.00074778070527481
0.00058105567817279
0.00045492752041054
0.00035879541688461
0.00028496705317982
0.00022758500280212
0.00018279545585781
0.00014762131822538
0.00011923513569462
0.00019559567277233
0.0031944783534086
0.0045117999406448
0.0059575131701481
0.0075477699750848
0.0090464525965559
0.010037347610634
0.0097929798539189
0.0079064424846877
0.0054101388994852
0.0033582608809557
0.0024150618462515
0.0020938267832109
0.0020053423544213
0.0019834553728633
0.0019343237428298
0.001810148565381
0.0015870686453154
0.0012796231209349
0.00094151450544278
0.00063726558506427
0.00040377576271966
0.00024416686124584
0.00014385025214236
8.474518439161e-05
5.1616977717162e-05
3.3390225086832e-05
2.3221094838183e-05
1.7494125968603e-05
1.429419191018e-05
1.258490136985e-05
1.1810741820217e-05
1.1673326633682e-05
1.2028925611779e-05
1.2838328385667e-05
1.4128751489262e-05
1.6004751339116e-05
1.8688975229941e-05
2.2576058884144e-05
2.8349445906184e-05
3.7112808362244e-05
5.0158435767944e-05
6.6319797444148e-05
7.1660433311471e-05
4.6696671943347e-05
1.3304682178916e-05
1.8028573299245e-06
1.0863859201127e-07
6.7032324135852e-10
1.1908807273642e-12
7.9103390504542e-15
2.7755575615629e-17
-2.7755575615629e-17
-2.7755575615629e-17
0
0
-2.7755575615629e-17
2.7755575615629e-17
-2.7755575615629e-17
0
0
2.7755575615629e-17
0
0
0
2.7755575615629e-17
2.7755575615629e-17
2.7755575615629e-17
0
-2.7755575615629e-17
2.7755575615629e-17
2.7755575615629e-17
-2.7755575615629e-17
-2.7755575615629e-17
2.7755575615629e-17
0
0
0
2.7755575615629e-17
0
0
0
5.5511151231258e-17
0
2.7755575615629e-17
0
0
0
0
-2.7755575615629e-17
0
2.7755575615629e-17
-2.7755575615629e-17
0
0
0
0
0
0
2.7755575615629e-17
-5.5511151231258e-17
0
0
-2.7755575615629e-17
0
0
7.8415328942649e-07
0.00034019736904944
0.016005297951745
0.014879542133436
0.01444433030088
0.018921185849461
0.025105192506194
0.029065076815681
0.030449222557431
0.029495047439439
0.026958294439553
0.023518471912884
0.019637383131262
0.015845580915502
0.012410518175698
0.0095362032190596
0.0072443689710071
0.0054730278211219
0.0041285343475859
0.0031214580636989
0.0023694651032267
0.001808030511177
0.0013887313640417
0.0010760360302464
0.00083931956773109
0.00065690507221872
0.00051752077891243
0.00040952994956323
0.00032573962825388
0.00026064203003234
0.00020882259588584
0.00016835990005276
0.00013585499000074
0.00048114233198204
0.0032713825667574
0.004440716343822
0.0056300714264816
0.0068352666442983
0.0079307419199997
0.0083597453209223
0.0072020645544613
0.0045291154638307
0.0022606196819124
0.0011626110885148
0.00070976488607888
0.00052313037683915
0.00044517045886483
0.00040827594508597
0.00038063979535663
0.00034852431145393
0.00030595133974498
0.00025286988277518
0.0001942871381464
0.00013786445326208
9.0802001590173e-05
5.6710870357413e-05
3.4860999715114e-05
2.2096387590792e-05
1.4968739785848e-05
1.1061649743238e-05
8.9489333667814e-06
7.8686370607317e-06
7.4244068730689e-06
7.4060107499163e-06
7.7068607925168e-06
8.2790787690745e-06
9.1122116133158e-06
1.0227388463097e-05
1.1675235880804e-05
1.3540395709694e-05
1.5946533376138e-05
1.904969982891e-05
2.2991531100219e-05
2.7713950527086e-05
3.2328788736463e-05
3.3980560005059e-05
2.8371459618037e-05
1.5711577100286e-05
4.9856333669829e-06
9.9684275012279e-07
8.9111960172028e-08
1.09175227192e-09
3.8176128924761e-12
5.606626274357e-15
5.5511151231258e-17
0
0
0
2.7755575615629e-17
0
0
0
0
2.7755575615629e-17
0
0
0
0
2.7755575615629e-17
2.7755575615629e-17
0
0
2.7755575615629e-17
0
2.7755575615629e-17
-5.5511151231258e-17
2.7755575615629e-17
0
0
-5.5511151231258e-17
0
-5.5511151231258e-17
5.5511151231258e-17
-2.7755575615629e-17
0
2.7755575615629e-17
0
-2.7755575615629e-17
0
0
0
-5.5511151231258e-17
-5.5511151231258e-17
-2.7755575615629e-17
2.7755575615629e-17
0
0
0
2.7755575615629e-17
2.7755575615629e-17
-2.7755575615629e-17
2.7755575615629e-17
0
-5.5511151231258e-17
-5.5511151231258e-17
2.7755575615629e-17
0
0
0
-2.7755575615629e-17
2.1165846210425e-07
3.4248394327197e-06
0.0010377190085386
0.013806682342529
0.013190112882007
0.0092885169567434
0.009174235878183
0.010650659805634
0.012796718979602
0.013584765539513
0.013503268751836
0.012548276150801
0.011218501285883
0.0096302658854839
0.0080005745987268
0.0064645160463273
0.0051301305162776
0.004024456907848
0.0031361761887598
0.0024362375005613
0.0018924510546836
0.0014731713027583
0.0011506109077568
0.00090243563276493
0.00071110619860515
0.00056137759351493
0.00044524705764892
0.00035397078257476
0.00028893326572499
0.00023482133055702
0.00018645841041165
0.00016898668749066
0.0018737661715627
0.0035920055989667
0.0046497802219423
0.0057728005387294
0.0069056808387367
0.0078107400642238
0.0078081458805523
0.0058500992463983
0.0029785131601647
0.0012691792269162
0.00058765862354504
0.0003132994417735
0.00018750380454718
0.0001263691597469
9.6526814803044e-05
8.0920314452282e-05
7.0895847849639e-05
6.2102406119036e-05
5.2635365577536e-05
4.2118991901624e-05
3.1459658121069e-05
2.2094148367097e-05
1.4999878028832e-05
1.0285981272562e-05
7.444789512423e-06
5.8552449502258e-06
5.042654135895e-06
4.7072765444744e-06
4.6780657057544e-06
4.8604697409083e-06
5.2068345029743e-06
5.6958480515457e-06
6.3200735264946e-06
7.0829417615215e-06
7.9944510939511e-06
9.0666733084666e-06
1.0305255298687e-05
1.1692972330613e-05
1.3157965773614e-05
1.4503888812384e-05
1.5312465887374e-05
1.4898186138451e-05
1.2565753112731e-05
8.4314815035624e-06
4.1221173276429e-06
1.4668091525005e-06
3.4102126653113e-07
3.4549199806611e-08
6.5058461395928e-10
4.2654491050342e-12
1.1629586182949e-14
2.7755575615629e-17
0
0
-2.7755575615629e-17
0
0
0
0
2.7755575615629e-17
0
0
0
0
2.7755575615629e-17
2.7755575615629e-17
2.7755575615629e-17
-2.7755575615629e-17
-2.7755575615629e-17
-5.5511151231258e-17
-2.7755575615629e-17
-2.7755575615629e-17
-2.7755575615629e-17
-2.7755575615629e-17
0
-2.7755575615629e-17
2.7755575615629e-17
0
2.7755575615629e-17
0
-2.7755575615629e-17
2.7755575615629e-17
0
0
2.7755575615629e-17
2.7755575615629e-17
-2.7755575615629e-17
2.7755575615629e-17
2.7755575615629e-17
2.7755575615629e-17
0
0
0
-2.7755575615629e-17
2.7755575615629e-17
0
0
2.7755575615629e-17
0
0
2.7755575615629e-17
2.7755575615629e-17
0
0
0
0
0
0
5.5801970350045e-08
5.6201526460464e-07
7.4888334450907e-06
0.00085731004080036
0.009973457029941
0.014677669833076
0.010195120773284
0.0064655244433851
0.0058056850985764
0.005978254438407
0.0065771670316135
0.0067265151017928
0.0063399908205364
0.0057659121283569
0.005052416762674
0.0042939651962792
0.0035590972823665
0.0028980046468321
0.0023342412027314
0.001866744279355
0.0014869780727522
0.0011823706077531
0.0009406103553008
0.00074905417424687
0.00059569311213392
0.00047447509230103
0.00038471907057303
0.00031160702263627
0.00025021620531601
0.00021179523905512
0.0009072542292462
0.0032046793737628
0.0041330120190242
0.0051362147380447
0.0062128930054786
0.0072464011713373
0.0078846436270372
0.006950147805318
0.0041632617439664
0.0017606343617402
0.00072313855379402
0.00033497955188988
0.00016907617422063
8.8276796360476e-05
4.7423882106101e-05
2.8326830892877e-05
1.9979351822297e-05
1.619955381113e-05
1.397459507288e-05
1.2040221067489e-05
1.0031792241016e-05
8.0050800068954e-06
6.1898085614021e-06
4.7721788460353e-06
3.7989225052104e-06
3.2081329854883e-06
2.9053302940396e-06
2.8073580639887e-06
2.8525202083185e-06
2.9975295415818e-06
3.2176414991592e-06
3.4968585570228e-06
3.825777259242e-06
4.1976862251158e-06
4.6050238632911e-06
5.0358436162468e-06
5.4692435314807e-06
5.8701148951956e-06
6.1806136009979e-06
6.3120844447651e-06
6.1495555292446e-06
5.5772997570869e-06
4.5493105021999e-06
3.206157882546e-06
1.8953554877799e-06
9.1862343870597e-07
3.2812400990734e-07
7.6972194201774e-08
6.1863461853218e-09
1.7117124384569e-10
1.9438617382406e-12
9.4646512849295e-15
0
0
0
0
0
-2.7755575615629e-17
0
0
2.7755575615629e-17
0
0
0
-2.7755575615629e-17
0
0
-2.7755575615629e-17
0
0
0
-2.7755575615629e-17
2.7755575615629e-17
-2.7755575615629e-17