/*--------------------------------*- C++ -*----------------------------------*\
| =========                 |                                                 |
| \\      /  F ield         | OpenFOAM: The Open Source CFD Toolbox           |
|  \\    /   O peration     | Version:  2312                                  |
|   \\  /    A nd           | Website:  www.openfoam.com                      |
|    \\/     M anipulation  |                                                 |
\*---------------------------------------------------------------------------*/
FoamFile
{
    version     2.0;
    format      ascii;
    arch        "LSB;label=32;scalar=64";
    class       volScalarField;
    location    "2e-05";
    object      T;
}
// * * * * * * * * * * * * * * * * * * * * * * * * * * * * * * * * * * * * * //

dimensions      [0 0 0 1 0 0 0];

internalField   nonuniform List<scalar> 
109340
(
373.0001034751
373.00018445707
372.9994074681
372.99794859012
372.99608120815
372.99394488239
372.99155750919
372.9888940613
372.98584202319
372.98219599652
372.97780822304
372.97249469389
372.96601493322
372.95805904109
372.94823017769
372.93601939124
372.92077153966
372.90163687028
372.87750226129
372.84686487195
372.80778860317
372.75762574889
372.69279776674
372.60847468531
372.49824606741
372.35406357631
372.16813703511
371.93095034095
371.62364902405
371.22765623992
370.72508363939
370.10014812578
369.34691444762
368.47008965941
367.48485599166
366.41622675243
373.00026761265
372.99999598667
372.99887971687
372.99729593355
372.99542040483
372.99329874537
372.99089494027
372.98813535144
372.98490926923
372.98108032222
372.97648261075
372.97091353336
372.96411551993
372.95575966607
372.94542522222
372.93257200221
372.91650471996
372.89631858115
372.87082572826
372.83841725732
372.79702501873
372.74379781963
372.67488915079
372.58509896738
372.46754960687
372.31360375946
372.11358215118
371.85759138697
371.52842085982
371.10588015535
370.57284634306
369.91500300978
369.13024328066
368.22496406363
367.21771527072
366.13390710317
373.00034913416
372.99983136305
372.99858993523
372.99702696091
372.99520015983
372.99311264623
372.99070791416
372.98792362272
372.98467370018
372.98083296085
372.97623761176
372.97068378635
372.9639138844
372.95560006667
372.94532362094
372.93254731445
372.91657869827
372.89651793593
372.87118073793
372.83897297739
372.79782679383
372.74490380885
372.67636714266
372.58700450305
372.4698762121
372.31607501455
372.11483220728
371.85373878467
371.51829082698
371.09236750354
370.5558311423
369.8960689835
369.11049849187
368.20621980939
367.20120054122
366.12046763081
373.00034787506
372.9995466036
372.99815199548
372.99650326647
372.99462965617
372.99249705995
372.99005579148
372.98724034321
372.98396429132
372.98011114814
372.97552395156
372.97000167428
372.96328767777
372.95505582669
372.94488946308
372.93225097898
372.91644775045
372.89657896857
372.87144673305
372.83946895799
372.7985480511
372.74582648725
372.6774249153
372.58804170909
372.47058101253
372.31581707689
372.11229042838
371.84634916026
371.5025484308
371.06463097136
370.51782183711
369.85005003689
369.06226860656
368.15696086581
367.15282206712
366.07559042333
373.00013318181
372.99858876419
372.99661006082
372.99455661842
372.99239248281
372.99006408499
372.98752154488
372.98471135122
372.98155506921
372.97792624782
372.97367305997
372.9685932606
372.96242283071
372.95482017232
372.94534514015
372.93342344282
372.91829724178
372.89899092534
372.87418458465
372.84214037881
372.80047396789
372.74592476032
372.67409351114
372.57901605269
372.45274656067
372.28510598162
372.0637506836
371.77476729352
371.40373562051
370.93823936336
370.36869157109
369.68533097186
368.8861014291
367.97788075635
366.97744170546
365.9066602246
373.00439647968
373.02166191895
373.03997913162
373.05801914898
373.07528374424
373.09142715898
373.10623405462
373.11959517913
373.13131469987
373.14118002819
373.1490670357
373.15472339426
373.15765618116
373.15743115755
373.15352898221
373.14469199667
373.13012269384
373.10811750134
373.07656792127
373.03265156702
372.97245778607
372.89103185397
372.7798800755
372.62795502521
372.4223484389
372.15086612614
371.80618678653
371.38632499273
370.89074677537
370.3153256907
369.6611534452
368.93615783334
368.14400312977
367.29259038353
366.39549234301
365.47265661987
365.2904801014
364.13559044113
362.96945016738
361.79356524861
360.57791318521
359.25770337708
357.78385957142
356.1590494027
354.43472271368
352.68280478403
350.95501692153
349.28306477591
347.68989071375
346.18470308165
344.76513198364
343.42760139177
342.16912227295
340.98463705056
339.86696134338
338.81033726665
337.81056595946
336.86288964464
335.96247429878
335.10540468752
334.28837430916
333.50871705725
332.76357714047
332.04978154299
331.36483596074
330.70683210801
330.07402374209
329.46516426292
328.87875383509
328.28742750463
329.81536939837
322.98896333561
322.43355381749
323.01352613473
323.66809168954
324.22765428181
324.61347457538
324.81759053661
324.86447154771
324.81587780234
324.66199143265
324.42442679618
324.12926248681
323.78194147106
323.40377294758
323.01773061766
322.64717603907
322.31118951523
322.0241301358
321.82826497345
321.72117181639
321.64833257469
321.51101520433
321.34611762381
321.16209893168
320.97797809491
320.80055762104
320.62857141377
320.46655702112
320.30870229601
320.14607502652
319.96395876585
319.74612038654
319.47723638521
319.13891661358
318.70477307793
318.14444965092
317.42335386137
316.50763058465
315.36854181529
313.99009101586
312.37460708186
310.55088021583
308.58919423676
306.55836373414
304.04842479313
294.15994810973
264.33475639808
297.06376404782
337.05444015926
297.47380223942
296.44185841914
295.86101445069
295.41502237854
295.06779150137
294.7928264415
294.57157235542
294.39060799896
294.23989810856
294.11191008808
294.00094493334
293.90258634925
293.81336523774
293.73049127367
293.65169180819
293.57504390924
293.4989935225
293.42253464475
293.34597108145
293.27066047893
293.18058800827
293.11171137691
293.04751723578
292.98879725218
292.93681449848
292.89440090163
292.85896392847
292.82769172489
292.79930803949
292.77483951319
292.75514197442
292.73995318003
292.72877826206
292.72192555246
292.71895058214
292.71814253744
292.71983517393
292.72444196411
292.73143534448
292.73992611386
292.74895622387
292.75932217093
292.77211604181
292.78728358473
292.80434812711
292.82168959041
292.83883272559
292.85564515757
292.87230804664
292.88892482026
292.9055594112
292.92223115291
292.9392596865
292.9561876757
292.97347159994
292.99141911073
365.00006450437
363.84298631619
362.66480175303
361.43656296312
360.11629360409
358.68076908376
357.13154468972
355.48899883825
353.78766828988
352.07621983985
350.39694450893
348.77567265944
347.22583380453
345.75604555373
344.36789661438
343.05845442499
341.82292450842
340.65747620779
339.55790926111
338.51837805441
337.53330104578
336.59862183101
335.71079567776
334.86571978027
334.05984456796
333.29048630931
332.55484161009
331.8502786638
331.1742882704
330.52483144955
329.90038855938
329.29920403467
328.71956865129
328.13463040415
328.62564906851
323.23641419505
323.06598299702
323.93405602251
324.82835796698
325.50354598861
325.83404360076
325.89556095622
325.79675454024
325.56488283183
325.24632751422
324.87275551801
324.45943242426
324.01777882723
323.56562657472
323.12593350465
322.72063547307
322.36347623151
322.07393448179
321.88558689028
321.77374187555
321.65589210437
321.48846398373
321.29124074754
321.07469815407
320.85915975904
320.64547323802
320.42836231725
320.19753271861
319.93333577353
319.59982743768
319.14814650793
318.51647133969
317.6279372632
316.39216145671
314.71521738424
312.51738004269
309.76125166895
306.44991998648
302.68689525366
298.6755212825
294.74691552918
291.14708857817
288.40023092009
287.53167158445
288.14097486539
278.45750485891
254.31213634972
342.01749281565
313.61236029643
297.3730543697
296.42072987947
295.84912450713
295.40774666043
295.06295401393
294.78943115363
294.5690898546
294.38873776623
294.23845292577
294.11076719207
294.00002218631
293.90182992948
293.81272124059
293.72992934944
293.65119274452
293.57459406097
293.49857382169
293.42213924541
293.34562518873
293.27037450835
293.18035300272
293.11150205827
293.04733938678
292.98866951023
292.9367456534
292.89436372946
292.85893710042
292.82767241173
292.79929821015
292.77483608817
292.75516356587
292.73998276472
292.7288733759
292.72190130279
292.7188714963
292.71816040929
292.7199374519
292.72455265147
292.73156492138
292.74004696289
292.74907824618
292.75947007065
292.77227640751
292.78745707705
292.80452503508
292.82186866056
292.83904620741
292.8558907411
292.87257347798
292.88919103108
292.90580638393
292.92248628315
292.93946548817
292.9563617075
292.97357485623
292.99145903757
364.98947031601
363.83073253076
362.60998236394
361.27543351858
359.82333250158
358.288188685
356.70100938915
355.07698589609
353.42775573046
351.7740898737
350.14366541078
348.56286552217
347.04702457774
345.60580833134
344.240706699
342.950357788
341.73015423155
340.57792049507
339.48870384595
338.45726431065
337.4787791697
336.55022130584
335.66776219501
334.82706248176
334.02470115186
333.25815802852
332.52506107332
331.82283215001
331.14904097294
330.50162529808
329.87898099338
329.2792217436
328.70152583034
328.13498450827
329.57177213692
323.39811126132
323.60351584447
324.59272235078
325.62819100344
326.35613459335
326.56558250794
326.48772206987
326.23132544931
325.88480461721
325.49473693709
325.07884504027
324.63899496075
324.1804063226
323.71715044487
323.27014298805
322.86111811027
322.49863144711
322.20472053419
322.00897189218
321.86327880376
321.71158914318
321.51465915619
321.28511227387
321.02886270015
320.75851532865
320.46578874021
320.12561939778
319.68955006339
319.07033963521
318.13095803184
316.68502558802
314.50485391394
311.35762408564
307.03696254406
301.57748654212
295.22211029948
288.33096334994
281.22486822974
274.87715247755
269.62273138349
266.0158415827
264.11834455121
264.13812138471
266.38541749531
272.15721293837
265.14911956627
250.96103464674
354.41598335972
309.6190988627
297.17575282238
296.35286414667
295.80646470118
295.37987419614
295.04404778123
294.77618011845
294.55953687077
294.38167145646
294.23309935041
294.10662024273
293.99674223196
293.8991851324
293.81055384721
293.72812649265
293.64967677439
293.57331362642
293.49745553919
293.42116079684
293.34480108624
293.26968880351
293.17976347277
293.11096142792
293.04686299892
292.98828776063
292.93647824195
292.89417380595
292.85878925492
292.82755807847
292.79921346225
292.77477166481
292.7551493745
292.7400169858
292.72919256271
292.7218355274
292.71868544303
292.71827297377
292.72013741491
292.72476562973
292.73179373893
292.74025492815
292.74930597142
292.75974057227
292.77255439758
292.78776921746
292.80487157271
292.82221122538
292.83943710873
292.85632747382
292.8730381859
292.88964867266
292.90623711571
292.92292745819
292.93983529366
292.95667986231
292.97375343517
292.99153289454
364.95071140777
363.75878246321
362.40420686513
360.88900413782
359.29623576499
357.69023824371
356.09776112669
354.51409469615
352.93188114161
351.35666443755
349.80040384486
348.27953652082
346.81105502064
345.40602561136
344.07034598041
342.80441848699
341.60595306801
340.47023324776
339.39341744285
338.37451809603
337.40631450385
336.48571375061
335.60963889512
334.77476072852
333.97748870654
333.21530345679
332.4859769265
331.7869506082
331.1159559937
330.47127493688
329.85091296205
329.2533997902
328.67804489438
328.11973316581
329.55182953966
323.91596453584
323.91212500665
325.12444647899
326.32494381773
326.9628474082
326.97521625787
326.70706062019
326.31383424887
325.89753566821
325.46564645945
325.02665221307
324.57510263922
324.12388678902
323.68127751827
323.25812979919
322.87216519741
322.5320865498
322.24635516944
322.033363617
321.84861440003
321.64075030776
321.38675637783
321.08143042804
320.72085832466
320.29163404856
319.74120285448
318.95290057719
317.71463553412
315.68198261601
312.36967825023
307.26170154566
300.20787501265
291.48391708824
281.68532941697
272.12305044029
264.58789244599
259.59657316823
256.68988509559
255.32091453716
255.2058352131
255.94624613763
257.2409501105
258.86828442321
261.01795190458
261.71419356916
250.58438374656
253.36688697025
365.52356767944
304.84236211872
296.94575750833
296.25365880709
295.74309677513
295.33788586153
295.01533741285
294.75598282233
294.54494742871
294.37087006017
294.22491448725
294.1002826342
293.99173565068
293.89515473923
293.80725134494
293.7253789981
293.64736419043
293.57134864726
293.49575760541
293.41969263512
293.34354251198
293.2686108051
293.17886254478
293.11016246545
293.04616313107
292.98771750106
292.9360530149
292.89385933597
292.85854641901
292.82737198269
292.79907679294
292.77467972154
292.75511884894
292.74002897518
292.72939937137
292.72188657248
292.71873503733
292.71846498897
292.72036772267
292.72502643514
292.73208870998
292.74056266419
292.74963368717
292.76010388315
292.77296256787
292.78822383184
292.80536320386
292.82273613125
292.84001032211
292.8569490352
292.87369175335
292.89030054095
292.90686311195
292.92352930099
292.94035435076
292.95712422256
292.97401788219
292.99162989802
364.76725670105
363.40247066395
361.79378825988
360.11911883883
358.48554066717
356.88974668878
355.33943953189
353.8233363713
352.32434717987
350.83465444811
349.36098195952
347.91577938418
346.51046882675
345.15630538647
343.85870701138
342.62323469917
341.44989108903
340.33526561976
339.27828793962
338.27070329045
337.31411051529
336.40405676104
335.53678384573
334.70951145856
333.91872564997
333.16210589691
332.43765438325
331.74296133987
331.07573249906
330.43426953003
329.81652420515
329.22181673369
328.64801059351
328.09263346347
328.0195291305
325.76707405989
324.01751454559
325.5970631369
326.93166386564
327.1596433568
326.9245938483
326.58713822533
326.17882519271
325.73597765927
325.26362557675
324.78829206303
324.32428469568
323.88571634354
323.47583043895
323.09173236988
322.74123955856
322.42916399945
322.14338183782
321.8962134968
321.62596689615
321.29336182069
320.87012675097
320.32036658324
319.59184947946
318.57634672928
317.03861571436
314.53358159886
310.34695756643
303.71820980067
294.36230943
283.0546656689
271.39524763303
262.9561740875
258.48821615736
257.20264462285
257.96221425943
259.93215387391
262.54611985365
265.3770951111
268.13920239411
270.33972039551
271.844528192
271.63837379582
267.6396243965
252.64430729249
238.22952251021
267.58465428678
365.11158632813
300.57606897791
296.71201341301
296.13143950623
295.66363815397
295.28464909576
294.97862020095
294.7299689477
294.52605948895
294.35682623639
294.2142336711
294.09198614757
293.98516325523
293.88985136811
293.80289877075
293.72175433186
293.64431157011
293.56875430308
293.49352488487
293.4177642445
293.34188168328
293.2671778909
293.17765325041
293.10911680141
293.04526831894
292.98698748701
292.93549128391
292.89343686001
292.85822553715
292.82712957794
292.79890062989
292.77456809528
292.75508181333
292.74004444549
292.72951948417
292.72201242985
292.71889474622
292.71869296545
292.7206543795
292.72534334431
292.73244495254
292.74095653115
292.75006606531
292.76057648888
292.77349394256
292.78881605238
292.80600802468
292.82344137306
292.84077634158
292.85777711274
292.87456241503
292.89117607922
292.90770841052
292.92431216736
292.9410302163
292.95766159754
292.97435361729
292.99176099614
364.19096746728
362.2204718762
360.46522651025
358.87365310704
357.38747627356
355.90475654115
354.44723591451
353.02263792491
351.62200208289
350.23320213267
348.85121628412
347.48513558784
346.1487128462
344.8533520861
343.60532391751
342.40744198237
341.26085085493
340.17070539658
339.1337020899
338.14643415717
337.20421968044
336.30587006562
335.44914999487
334.63100651444
333.84835048464
333.0987622967
332.38010413925
331.6902558031
331.02746904944
330.3895848883
329.77543194934
329.18387912842
328.61240426263
328.06141128592
327.59461454222
327.85710402305
324.73439043654
326.44266496802
327.22557252358
326.88437052028
326.4463486879
326.25708276525
325.91280159659
325.41506003984
324.83799275731
324.27118513868
323.77727284715
323.37025971783
323.02026632999
322.69765336059
322.38897126574
322.09114043096
321.76924223443
321.40767754478
320.9301126329
320.25451202897
319.28918088753
317.89752354555
315.86520068136
312.78436160483
307.9708349789
300.66363776175
290.41611962558
277.97819336767
267.1257300195
261.0508691122
260.10053086675
262.67453597458
267.09290760984
272.20730641975
277.29434485594
281.91924353031
285.84207587112
288.85768440395
290.68943975591
291.04786149075
288.8977195466
282.30332205764
267.1061453473
240.39722308139
232.73845906062
297.06699993625
346.89105668634
298.00015813157
296.48188691085
295.99209296803
295.57125331124
295.22189201569
294.93488022018
294.69872070931
294.50322918565
294.33976965693
294.20121386881
294.08184393954
293.97711046862
293.88334112757
293.79754684699
293.71729104639
293.64054743053
293.56555108744
293.49076893163
293.41538223596
293.33982434022
293.26539789043
293.17610611829
293.10780617955
293.04415897385
292.98608482176
292.93478687243
292.89290375929
292.85782496367
292.82682809282
292.79868130238
292.77442822332
292.75502409729
292.74007058739
292.72961763281
292.72215798947
292.71910727881
292.71896431509
292.72098733188
292.72572695785
292.73288171292
292.74144631273
292.75060518067
292.76117062114
292.77415599207
292.78955452543
292.80682511484
292.82433639781
292.84174069824
292.85880882239
292.87564037184
292.89225879713
292.90875542744
292.92526908212
292.94185778678
292.9583087944
292.97477295598
292.9919277963
360.45506775844
360.49110730604
359.15847040417
357.79158100341
356.40412828099
355.09095243554
353.78202384522
352.47288676806
351.17253347918
349.88243928655
348.59806788408
347.31836525666
346.0506021376
344.80752074696
343.60093783978
342.4369730781
341.31939733097
340.24676500949
339.2163274378
338.23519727777
337.30048514393
336.40810841837
335.55454663379
334.73745312733
333.95491458071
333.20514411772
332.48624230554
331.79600417075
331.132338073
330.493635287
329.87794800919
329.28464296699
328.71132812311
328.15727198685
327.61780925607
328.42978210709
326.52244429979
327.33655428764
327.53614688502
326.89489793937
326.2898572799
325.80893369056
325.46157755379
324.97178479135
324.11997725331
323.27718220346
322.66939605087
322.29889956449
322.05096272589
321.82826807592
321.57807413556
321.26482155716
320.83437172165
320.21904179777
319.26469104419
317.74901614717
315.38153910325
311.81824740955
306.69474443319
299.4523803931
289.96242297172
278.56753674411
268.52001120741
262.92286301167
263.18556638009
268.20812316605
275.60367096718
283.57876215633
291.05153774849
297.44319609863
302.53575842484
306.24941980464
308.52800625921
309.30526163229
308.31994340041
304.8901072669
297.75486151688
284.57873695559
261.82032498809
234.06591017442
233.15594216359
306.10317977703
345.09142908688
297.84132121885
296.25407353111
295.84192083544
295.46931546121
295.15151444103
294.8852188541
294.66289187906
294.47684356038
294.3199400204
294.18600490679
294.06995033761
293.96763697267
293.87566226013
293.79122097461
293.71200716142
293.636085361
293.56174926293
293.4874973075
293.41255534812
293.3373888467
293.26324666943
293.17318562848
293.10536688853
293.0421116159
292.98442264172
292.93348537026
292.89191488083
292.85708182848
292.82626566452
292.79827083285
292.7741659499
292.7549079551
292.74009682333
292.72975468843
292.72246896505
292.7195185067
292.71944397608
292.72156305266
292.72641304731
292.73366396513
292.74232412046
292.75160173967
292.76227610213
292.77537516036
292.79090750691
292.80831828848
292.8259668247
292.84350836909
292.86070100359
292.87761706457
292.89425696886
292.91070124552
292.92704939257
292.94339871942
292.95947859825
292.97551740779
292.99221978062
352.01932499155
355.77353195191
355.15812225891
354.29418526799
353.36339148274
352.34032796255
351.27829700288
350.23612008274
349.17065414854
348.09097810619
346.99804457094
345.89425289162
344.78793203682
343.68855128943
342.60512123559
341.54455028165
340.51673342886
339.52497690237
338.57028183028
337.65159540122
336.76797847919
335.91698645873
335.09940977756
334.31150345011
333.55790231615
332.83540523384
332.14114602364
331.47266412546
330.82864188254
330.20749903569
329.60825835019
329.02820571872
328.46872665916
327.92769608978
327.39615370321
327.63569730184
329.43248516617
328.25627991268
327.33878668142
326.58537609239
325.85603455895
324.87143508882
323.05478594169
320.33631828593
317.5448869041
315.5339813813
314.75153697411
314.62329842298
314.68522398459
314.60600895666
314.09405373488
312.94876371515
310.8141639446
307.19694816648
301.51139018936
293.72736358591
284.40436122696
275.43807362552
268.91868898817
266.9070948089
270.5158334166
279.27159810681
291.27349339407
303.88134492975
315.11417102416
323.83621266443
329.76342567012
333.13748960821
334.37514607442
333.84794632942
331.80869724507
328.23866734988
322.9488952846
315.4938459982
305.12955804433
290.90007679203
271.74068688313
248.13839664365
231.15056283143
243.335737392
316.44257663935
349.20254589116
298.64492855892
295.95294583064
295.80878458655
295.52966793297
295.24964083021
294.99548390046
294.77271300701
294.58041562145
294.41529117072
294.27316237835
294.14981912364
294.04145646967
293.9448118591
293.8570736069
293.77584848454
293.69912667964
293.625178146
293.55243071173
293.47946977869
293.4056047332
293.33134843309
293.25793969528
293.1684023921
293.1012630971
293.03863043179
292.98155889002
292.93124308626
292.8901833496
292.85574962696
292.82523360905
292.79750855887
292.77367792828
292.7546884336
292.74011351854
292.72997721335
292.72298583678
292.72022586642
292.72028102347
292.72256014658
292.72758556242
292.73499311475
292.74379928393
292.75325626658
292.76412344477
292.77742341313
292.79319559794
292.81087437943
292.82877068176
292.8465588593
292.86397168332
292.88101990928
292.89766825221
292.91398083466
292.93002479407
292.94595438304
292.96141955695
292.97676240888
292.99272547631
405.8729993579
350.81177123334
351.8764743047
351.40576332681
350.72306365071
350.01216090768
349.1830745385
348.31724433294
347.41884620206
346.52844109003
345.61969808251
344.6836404919
343.72839125099
342.76363115048
341.79887836842
340.84134465663
339.89872288876
338.97726225701
338.08212954295
337.21548407438
336.37906387205
335.57326291849
334.79595927752
334.04549567136
333.32024765319
332.61910508845
331.94215618184
331.28903525255
330.65879732407
330.05011730002
329.46105618156
328.89340549152
328.34301851751
327.80350691813
327.89432387741
328.60720636491
327.77227202468
327.05047702827
326.40093641941
325.60596520409
324.12599183461
320.97283471276
315.58945485944
307.42348653939
300.06703361711
296.94894095267
295.66573727259
295.06946647297
294.39163199387
293.22168682207
291.22415064014
287.98686088333
283.51484250804
278.38307030384
273.98408614279
272.28569299709
275.08263012665
283.18322099479
295.88698846241
310.82359862536
325.01793765646
336.56789041949
344.33341051346
348.09182060724
348.48372859556
346.4224193437
342.76715572347
337.98605321625
332.34864406823
325.90509323715
318.55497057423
310.00006444328
299.89106628469
287.88379245223
273.82860861151
258.42659946078
244.70398008709
241.87041540362
264.99086061454
329.19157908858
350.72334905951
301.07319953684
295.46845541261
295.44924072091
295.40182349609
295.22555715662
295.02590894475
294.83037786572
294.6499509152
294.48822234699
294.34516139458
294.21903682435
294.10738047442
294.00767535831
293.91751149658
293.83467619134
293.75721473579
293.68343811351
293.61183907218
293.54099123306
293.46958663331
293.39702022237
293.32385513514
293.25138032
293.16262854504
293.09630708745
293.03442396963
292.97808900764
292.92855116319
292.88810073012
292.85412950875
292.82396157521
292.79656192026
292.77306350285
292.75439562448
292.74010239653
292.73023596512
292.72360932339
292.72108390797
292.72131617852
292.72381431093
292.72906276599
292.73665679699
292.7456483018
292.7553381256
292.7664564805
292.78001885424
292.79608280591
292.81408911459
292.83228408968
292.85036766118
292.86803749633
292.88522449585
292.90184429373
292.91794773687
292.93359681662
292.948981983
292.9636995764
292.97822330846
292.99331637043
393.70328494178
336.69758941829
348.21409049522
348.82955390465
348.40848192791
347.83792237083
347.2067792842
346.5389367628
345.75550058689
345.00665467795
344.2207164647
343.42238046519
342.61129652269
341.77738831531
340.92349304927
340.06661109952
339.21317876647
338.3706327057
337.54169222829
336.73069629252
335.94093588159
335.17335202342
334.42977014059
333.7127674259
333.01965096139
332.34808437976
331.69884607145
331.06704097089
330.45562550118
329.86388476949
329.28842913606
328.73441664573
328.18573770247
328.76541973314
328.82151373611
328.02844954062
327.30078202075
326.60126538815
325.6585506228
323.61707036331
319.03687181034
310.40223962775
298.80712521209
291.06713135057
289.39774242143
289.19539850407
288.55735967772
287.29293839109
285.72150184866
284.13684554043
282.88941406702
282.56904819439
284.10908700793
288.74121197794
297.53852660337
310.52734734064
326.04239113048
340.75999589108
351.76541821522
357.61422469235
358.60009751155
355.86002495087
350.74622749449
344.4558328965
337.65471637378
330.72394291699
323.77867990541
316.75629677818
309.50985249737
301.87101484912
293.6963646969
284.96098711354
275.87213737216
267.12399118412
260.59009256032
260.29190923247
272.9215298781
306.96885831232
353.2496383993
334.0636831408
299.58947492537
294.82836375665
294.97788310561
295.04562508725
295.05073585659
294.94797593191
294.81164198471
294.6665861361
294.52446573409
294.39150950172
294.27003112247
294.1600355558
294.06046628052
293.96987564644
293.88664274208
293.80913519946
293.73581793385
293.66532156787
293.59636425229
293.52766753473
293.45803032475
293.38694685499
293.31503970266
293.24364189101
293.15586322211
293.09049145718
293.02946593729
292.97397022673
292.92535293311
292.8856122999
292.85217519808
292.82241411096
292.79540852821
292.77231208676
292.75402374913
292.74006059589
292.73051252807
292.72432641728
292.72207610681
292.72253354204
292.72531180376
292.73082887988
292.73865088162
292.74787482436
292.75784578841
292.76926945368
292.78316195848
292.79957818641
292.81796275784
292.83649364858
292.85490333224
292.87284264745
292.89016000698
292.90671230966
292.92252921282
292.93770171639
292.95242302488
292.96627974054
292.97987075071
292.99396544382
372.14371803267
399.62700441228
334.98087041486
345.37642559571
346.39925923431
345.96558750047
345.41152508007
344.83067757237
344.22720730779
343.56935749664
342.87350442194
342.18110274609
341.48381816605
340.75232688596
340.00381309465
339.24754681791
338.48641654321
337.72035681582
336.95580415929
336.20133792579
335.46207011695
334.74042888417
334.03774166442
333.35351063852
332.68817963312
332.04007115544
331.40772193483
330.79845773512
330.2246192995
329.64868439529
329.07450994959
328.66515091869
329.56480750959
328.98043823537
328.23608639181
327.54009250495
326.79418681692
325.58619256763
322.60346293317
316.14636838612
304.39093456329
293.49574796272
290.26937154553
292.61370286695
298.34762403014
304.96228252131
309.71011033588
312.10730692314
313.29813061953
314.73423299045
317.57521819403
322.88867620701
331.2453054888
342.08346089413
353.40075888082
362.128807293
365.97689032322
364.6025265187
359.3488586704
352.11268271394
344.36092370554
336.90250783775
330.04936917202
323.81409784916
318.08012280323
312.68652230886
307.48838905121
302.39291588297
297.39774766554
292.63816317488
288.44909599191
285.54882053066
285.23845324411
289.60757680976
301.59030061758
323.59922283124
348.95814589039
344.35654096882
311.97663505819
295.960538662
294.16549600142
294.44234877539
294.63931381352
294.72421060905
294.75847005387
294.70456546016
294.61545768386
294.51090424917
294.40167101393
294.29452052354
294.19303630483
294.09842327442
294.01071991987
293.92928000894
293.85313054267
293.78113907652
293.71218382295
293.64518409144
293.57907413373
293.51269865527
293.44500043238
293.37554994571
293.30503104014
293.23483300717
293.14819019735
293.08387140596
293.02380481871
292.9692416738
292.92166865439
292.88273030228
292.84989658921
292.82059749086
292.79405375399
292.77143149337
292.75357795964
292.73999885887
292.7308036716
292.72513348829
292.72320279406
292.7239358519
292.72705152901
292.73288179645
292.74097063522
292.75047922532
292.76078059108
292.77256840344
292.78686662495
292.80369985822
292.82250624277
292.84140000211
292.86015437275
292.87836173247
292.89579107081
292.91223167051
292.92768692167
292.94228589068
292.95622096749
292.9691195691
292.98167688359
292.99464453332
362.48542379416
365.62849783773
385.46750353939
332.63314215597
342.11254937491
344.09047649401
343.98434307454
343.36074484238
342.7958305212
342.2054617675
341.61269032831
340.99352404812
340.35681116358
339.73331566719
339.07755254861
338.40089351386
337.71584035937
337.02875223517
336.3385357032
335.64652552128
334.95962958355
334.2832604108
333.62055682607
332.97202390068
332.33543029903
331.7115653965
331.11672120011
330.52525114112
329.9513666082
329.45304896266
329.96484797161
329.76535567105
329.08826172891
328.40574481748
327.72347283196
326.8569496513
325.04500675141
320.47518377094
310.82577378807
297.90002864592
291.89456727198
294.16540507601
301.41834766629
313.22623003214
329.03576875336
343.37833724626
351.71647114699
355.16909667012
357.06142531436
359.43944186778
362.83202035053
366.72950695835
369.66590151305
369.84675237189
366.30697736403
359.51960772852
351.177334088
343.02720935075
336.07169778813
330.53597618334
326.22512604991
322.84022718328
320.1200084756
317.87338605616
315.98959504034
314.44323524592
313.30536863799
312.74645627602
313.08396310335
314.81918685712
318.58953420665
325.10011147826
334.55141196769
344.38693045919
346.36840417658