/*--------------------------------*- C++ -*----------------------------------*\
| =========                 |                                                 |
| \\      /  F ield         | OpenFOAM: The Open Source CFD Toolbox           |
|  \\    /   O peration     | Version:  2312                                  |
|   \\  /    A nd           | Website:  www.openfoam.com                      |
|    \\/     M anipulation  |                                                 |
\*---------------------------------------------------------------------------*/
FoamFile
{
    version     2.0;
    format      ascii;
    arch        "LSB;label=32;scalar=64";
    class       volScalarField;
    location    "2e-05";
    object      TpSat;
}
// * * * * * * * * * * * * * * * * * * * * * * * * * * * * * * * * * * * * * //

dimensions      [0 0 0 1 0 0 0];

internalField   nonuniform List<scalar> 
109340
(
373.0000995182
373.00018302969
372.99940611949
372.99794716656
372.99607973214
372.99394335578
372.99155593431
372.98889249877
372.98584062074
372.98219469112
372.97780700326
372.97249354985
372.96601385659
372.95805802616
372.94822921993
372.93601848924
372.92077069852
372.90163610159
372.87750159217
372.84686425088
372.80778829407
372.75762580395
372.69279839467
372.60847625106
372.49824914589
372.35406909349
372.16814741395
371.93096666143
371.62367566675
371.22769862659
370.72514862771
370.10024537952
369.34705335148
368.47028204698
367.48510601251
366.41654119689
373.00026540736
372.99999482112
372.99887848118
372.99729465487
372.99541909633
372.99329745182
372.99089381397
372.98813434469
372.98490835069
372.98107948327
372.9764818441
372.97091283126
372.96411487992
372.95575908716
372.9454247057
372.93257155417
372.91650435238
372.89631831281
372.87082561086
372.83841734651
372.79702540332
372.7437986833
372.67489075801
372.58510175047
372.46755423915
372.313611278
372.11359443169
371.85761169972
371.52845179555
371.10592812988
370.57291977395
369.91511029193
369.13039498475
368.22517010839
367.2179824061
366.1342396097
373.00034724031
372.99983008891
372.99858870046
372.997025814
372.99519918277
372.99311180858
372.99070717426
372.98792296468
372.9846731153
372.98083244058
372.97623715152
372.97068338353
372.96391353791
372.95559977853
372.94532339636
372.93254716257
372.9165786361
372.89651798839
372.87118094663
372.83897343935
372.79782758541
372.74490512176
372.67636925788
372.58700786305
372.46988150552
372.3160833122
372.11484531782
371.8537591954
371.51832234776
371.09241572886
370.55590491869
369.8961763213
369.11065027845
368.20642559876
367.20146699932
366.12080056676
373.00034616586
372.9995456401
372.99815136527
372.99650275532
372.9946292289
372.99249669827
372.9900554847
372.98724008664
372.98396408302
372.98011098738
372.97552383778
372.97000160808
372.96328766135
372.95505586524
372.94488956517
372.93225115786
372.9164480271
372.89657937281
372.87144732193
372.83946980583
372.79854927985
372.74582828187
372.67742758071
372.5880457052
372.4705870419
372.31582623057
372.11230451989
371.84637069846
371.50258148994
371.06468091487
370.5178967861
369.85015818548
369.06242114218
368.15716692336
367.1530883291
366.07592641279
373.00013221979
372.99858869983
372.99660999898
372.99455658319
372.99239247036
372.99006409274
372.98752157252
372.98471140126
372.9815551464
372.977926351
372.97367319398
372.96859343038
372.96242304228
372.95482043476
372.94534546307
372.93342383277
372.91829773338
372.89899155558
372.87418539875
372.84214147039
372.8004754653
372.74592686366
372.674096552
372.57902053198
372.45275329717
372.2851159669
372.06376589497
371.77479033131
371.40377066449
370.9382917577
370.36876953562
369.68544219743
368.88625710556
367.97808878067
366.97771012384
365.90699489886
373.00439628201
373.02166200315
373.03997919921
373.05801921893
373.07528382141
373.09142724545
373.10623415168
373.11959528944
373.13131483363
373.14118018261
373.14906721556
373.15472360366
373.15765642565
373.15743144468
373.15352932423
373.14469240918
373.13012319965
373.10811814401
373.07656876621
373.03265268303
372.97245933075
372.8910332126
372.77988296063
372.62795957033
372.4223555794
372.15087680875
371.80620245329
371.38634790447
370.89078018175
370.31537453518
369.66122402524
368.93625621704
368.14413734912
367.29276652243
366.39572327395
365.47292152112
365.29087908652
364.13604735299
362.96997959015
361.79413788781
360.57848520227
359.2582759058
357.78442526713
356.15986827317
354.43575637151
352.68436059332
350.95669371036
349.28500608664
347.69206202281
346.18710360116
344.7677089148
343.43037693035
342.17208136059
340.9877649938
339.8702519119
338.81378521175
337.81417672378
336.86663556221
335.96640746448
335.10948176221
334.29262208595
333.51309945731
332.76808168954
332.05442660794
331.36961775865
330.71176239233
330.07909853283
329.47040976729
328.8842084516
328.29247416064
329.80494918297
322.98903663593
322.43320974612
323.01269640367
323.66786510587
324.22764370435
324.61330055595
324.81723394649
324.86420895681
324.81610118924
324.66302589987
324.42658167546
324.13282105685
323.78712436389
323.41029626043
323.02419625903
322.65327491056
322.31524164617
322.02204269542
321.82201268115
321.71129936921
321.64227164394
321.5084433016
321.34608339349
321.16280818259
320.97891502548
320.80151484731
320.62925119008
320.46688162558
320.30879355087
320.14626469139
319.96458752627
319.74721726365
319.47873013979
319.14056112048
318.70662450993
318.14648392849
317.42546610494
316.50980067546
315.37026092815
313.99145376277
312.37491928937
310.54929694299
308.58497861381
306.54733721783
304.03204569258
294.14908283613
264.33657177418
297.1536141175
337.00017475252
297.47572165083
296.44250663645
295.86129575447
295.41515456898
295.06785720932
294.79285984157
294.57159010041
294.39061837809
294.23990519895
294.11191590303
294.00095056971
293.90259240763
293.81337200364
293.73049883956
293.65170033926
293.57505337389
293.49900331005
293.42254313745
293.34597616787
293.27066015611
293.18058365427
293.11170433595
293.04750792969
292.98878657116
292.93680309
292.89438969563
292.85895318012
292.82768126427
292.79929769165
292.77482917948
292.75513171603
292.73994348252
292.72877035774
292.72191711936
292.71894662921
292.71813748103
292.71982661476
292.72443586098
292.73143010874
292.73992111059
292.74895271174
292.75931812499
292.77210973978
292.78727902846
292.80434475462
292.82168791608
292.83883104653
292.85564323212
292.87230616736
292.88892258431
292.90555673176
292.92222750325
292.93925692083
292.95618365282
292.9734685768
292.99142844631
365.0004529512
363.84345963192
362.66533596121
361.43711822528
360.11688974886
358.68145789631
357.13235037471
355.48999134728
353.78889649689
352.07771596145
350.39868354678
348.7776697903
347.22806919512
345.75848359555
344.37051141273
343.06125610232
341.82590340522
340.66064354788
339.56123563659
338.52187414762
337.53693218974
336.60242248401
335.71475331886
334.86984044495
334.06412543632
333.2948973714
332.55938759784
331.85497528074
331.17914789298
330.52984313465
329.90550118335
329.30444855641
328.72506060896
328.1433739643
328.62245842324
323.23660677636
323.06538101956
323.93367713454
324.82831495284
325.50336122397
325.83350595077
325.89497557948
325.79653450749
325.56539942379
325.24796152359
324.8756526356
324.46386332016
324.02372725665
323.57253865935
323.13269754446
322.72583995649
322.366319915
322.07041192364
321.87811403548
321.76428748812
321.65121557805
321.48661363923
321.29156254616
321.07553401759
320.86007743786
320.64640817775
320.42896747533
320.19783751558
319.93348239253
319.60024257596
319.14894573906
318.51771169794
317.62973088102
316.39394168866
314.71705325356
312.51906532209
309.76342669181
306.45195004126
302.68869634514
298.67666904342
294.74690800145
291.14493680968
288.39521170873
287.52048479403
288.12462129592
278.44626327769
254.31655261165
342.17407202693
313.61589547267
297.37493775635
296.42136718148
295.84941154615
295.4078855372
295.06302496165
294.78946882745
294.56911077145
294.3887505139
294.23846180261
294.11077437858
294.00002885957
293.90183674469
293.81272852883
293.72993729013
293.65120152309
293.57460366549
293.49858364153
293.42214758797
293.34563011617
293.27037387699
293.18034829655
293.11149455871
293.04732960401
292.9886583647
292.93673382133
292.89435213677
292.85892601486
292.82766165676
292.7992875902
292.77482550628
292.75515316536
292.73997314914
292.72886503739
292.72189260916
292.71886740983
292.71815514621
292.71992876761
292.72454621165
292.73155938779
292.74004123276
292.74907656982
292.7594626644
292.77227001186
292.7874526926
292.80452120928
292.82186628715
292.83904402141
292.8558885489
292.87257131201
292.88918853192
292.90580345481
292.92248294056
292.93946220289
292.95635923121
292.97357177981
292.99146894632
364.98985337336
363.83119570732
362.61046727347
361.27598865203
359.82398996866
358.28903065277
356.70200431152
355.0781557108
353.42908830118
351.77563722464
350.1454661141
348.56493333571
347.04928185298
345.60825314089
344.24334548653
342.95314130212
341.73312804699
340.58109088831
339.4920281906
338.4607325699
337.4824253123
336.55405957738
335.67170304014
334.83118447943
334.02897513256
333.26256920259
332.52962587271
331.82753450559
331.15389322265
330.50663134516
329.88412068416
329.28456691009
328.70695233823
328.14102652181
329.55946214059
323.39829474634
323.60331825118
324.59259665398
325.62800579898
326.35521887637
326.56432691308
326.48677677153
326.23103128028
325.88548809137
325.49664632278
325.08215169202
324.643912404
324.18675506137
323.72401647061
323.27699092106
322.86518898682
322.50061080202
322.20095152799
322.00177050893
321.85511676731
321.70706550576
321.51280117149
321.28544542928
321.02964361303
320.75937326068
320.46659615974
320.12621637958
319.6899616711
319.07066794675
318.13122452541
316.68584028446
314.50604445772
311.35919549865
307.03860126536
301.57918453455
295.22393351193
288.33292685348
281.2267998394
274.8787718949
269.62388534147
266.01596897481
264.1168078667
264.13381082125
266.37594336393
272.147437817
265.13653488555
250.96724598814
354.57099693254
309.61879435834
297.17753220185
296.35342531415
295.80672514884
295.38000241714
295.04411384991
294.77621525062
294.55955636935
294.38168334672
294.2331076651
294.10662701715
293.99674860457
293.89919173071
293.81056097221
293.72813429361
293.64968542893
293.57332321787
293.49746523373
293.42116891123
293.34480607314
293.26968809596
293.17975875431
293.11095391509
293.04685321977
292.98827663707
292.93646643725
292.89416223551
292.85877820187
292.82754736843
292.79920285881
292.77476099845
292.75513892748
292.74000801764
292.7291838452
292.72182605171
292.71868171179
292.7182694605
292.72012822796
292.72475883777
292.73178804665
292.74024937269
292.74930218273
292.75973456969
292.77254851358
292.78776507927
292.80486750959
292.82220852104
292.83943491227
292.85632551049
292.87303613103
292.88964607855
292.90623420412
292.92292379431
292.93983216177
292.95667701378
292.97375009826
292.9915428864
364.95110083859
363.75923934665
362.40470622171
360.88966525517
359.2970671976
357.69126592831
356.09894995625
354.51541519631
352.93334545478
351.35830422395
349.80223304342
348.28160285838
346.81339946844
345.40846356565
344.07301535248
342.80728603281
341.60901708962
340.47336548414
339.39679541465
338.37799617246
337.41001655281
336.48950561825
335.6136207015
334.77889261683
333.98177367104
333.21973351523
332.49055000548
331.79166494762
331.12081880076
330.47628889102
329.85609574167
329.25873602485
328.68335729239
328.1249747649
329.44893017139
323.91676052913
323.9120678213
325.12428066805
326.32338490738
326.96007188174
326.97284805003
326.70574628866
326.31339546299
325.89840617435
325.46790550643
325.0303371763
324.58053861612
324.1304222796
323.68799888679
323.2646838335
322.87637249703
322.53273486196
322.24251659561
322.02682939878
321.84192365866
321.63667318186
321.38494395395
321.08164465251
320.72152794699
320.29238301476
319.74188253635
318.95343478974
317.71502960554
315.68229110287
312.37018290134
307.26253975472
300.20882006951
291.48517430266
281.6867536327
272.12430594103
264.58951376122
259.59861354411
256.69204622808
255.32293190831
255.20724382561
255.94635206017
257.23883465089
258.86377625614
261.00944632509
261.7016225313
250.57714156801
253.38011192931
365.62151384409
304.83947114836
296.9473143473
296.25413782037
295.74332883629
295.33800288651
295.01539867342
294.75601572856
294.54496585482
294.37088140198
294.22492249306
294.10028922292
293.99174189498
293.8951612348
293.80725837736
293.72538670739
293.64737276196
293.57135812791
293.49576726319
293.41970063297
293.34354748567
293.26861000298
293.17885777322
293.11015487266
293.04615327706
292.98770632924
292.93604117451
292.89384772967
292.85853534218
292.82736126174
292.79906614522
292.77466894589
292.75510858594
292.7400199963
292.72939076177
292.72187672867
292.71873149204
292.71846138874
292.72035841887
292.72501963327
292.73208299553
292.7405571163
292.74962963486
292.76009794258
292.77295691077
292.78821979383
292.80535909497
292.82273327442
292.84000819462
292.8569471389
292.87368972585
292.89029788764
292.90686022729
292.92352584349
292.94035125079
292.95712176919
292.97401548766
292.99163995397
364.76762712648
363.40291914878
361.79441998991
360.11992922604
358.48657219764
356.89095083783
355.34081309502
353.82482867041
352.32596219129
350.83641096922
349.36290035404
347.91786842214
346.51276066181
345.15888481655
343.86137113761
342.62611575057
341.45292916967
340.3382722956
339.28124213619
338.27422511022
337.31784088329
336.40788296532
335.54078037322
334.7136521118
333.92302794056
333.16655390721
332.44223237842
331.74768657611
331.08061683845
330.43929202352
329.82170809755
329.2271090383
328.65346323713
328.09821474047
327.9643187206
325.76974231947
324.01755079947
325.59564414153
326.92811221858
327.15456682524
326.92042872489
326.58520412454
326.17827991835
325.73706446396
325.26619542167
324.7926499959
324.3301098398
323.89212477408
323.48205579335
323.09690827005
322.74419195471
322.42887825677
322.13986957191
321.89079437028
321.6205489619
321.28991363989
320.86833121929
320.32019979005
319.59237402666
318.57695914653
317.03910627822
314.53400402423
310.34722362611
303.71833987509
294.36269619208
283.05511728661
271.39569600135
262.95709048224
258.48967065147
257.20453690495
257.96442674401
259.93451477659
262.54843776551
265.37918159163
268.14059423896
270.34026323138
271.84357323695
271.63507340488
267.63312757342
252.63919845843
238.21905579625
267.61478167048
365.10419990882
300.57292971205
296.71332286666
296.13184083264
295.66384146571
295.28475483279
294.97867682794
294.72999994205
294.52607713735
294.35683727922
294.21424157236
294.09199270975
293.98516950368
293.88985787809
293.80290580797
293.72176202937
293.644320129
293.5687637741
293.49353449341
293.41777217437
293.341886653
293.26717705313
293.17764850783
293.10910922506
293.04525849047
292.98697636797
292.93547949931
292.89342529608
292.85821449959
292.82711890004
292.79889000736
292.77455731814
292.75507161878
292.74003553424
292.72951095695
292.72200228543
292.7188913831
292.71868939198
292.72064534645
292.7253364278
292.73243921604
292.74095080281
292.75006200574
292.7605703827
292.77348818064
292.78881188363
292.80600366282
292.82343836451
292.84077411108
292.8577753034
292.87456058499
292.89117387294
292.90770569676
292.92430858922
292.94102714107
292.95765905054
292.97435084389
292.99177099228
364.19131791396
362.22116079758
360.46614508407
358.87477950801
357.38873658981
355.90615238904
354.44879253582
353.02431834071
351.62379842403
350.2350868412
348.85323248471
347.48731731509
346.151054891
344.85586094802
343.60806592174
342.41036850164
341.26390447226
340.17383079049
339.13708833822
338.15000558876
337.20790704583
336.30968530989
335.45315319997
334.63517359721
333.85265543526
333.10322045744
332.38469768616
331.69499469436
331.03236029204
330.39462119875
329.78061090212
329.18921822444
328.6179163344
328.06693712949
327.59202807777
327.8575619205
324.73420820975
326.43905216387
327.22034915131
326.87812370965
326.43993572479
326.25209150881
325.91167477069
325.41653381714
324.84128831397
324.27620495645
323.78338720092
323.376315642
323.02562152054
322.70159287453
322.39065928254
322.09004351879
321.76602933614
321.40339571611
320.9259435728
320.25180091218
319.28741050983
317.89750971938
315.86557239645
312.78476459673
307.97111189515
300.66366766866
290.41619516815
277.978021925
267.12578724352
261.05157567702
260.10184198969
262.67631199838
267.09492647879
272.20947640167
277.29660181358
281.92155869784
285.84438452045
288.86000816266
290.69093275121
291.04906609835
288.89787601001
282.30156268171
267.10235313171
240.39464923101
232.73083720838
297.12316577341
346.83151189545
297.99763365741
296.48298005357
295.99242090364
295.57142778913
295.22198606006
294.93493197235
294.69874966199
294.50324597782
294.33978037042
294.20122165282
294.08185046792
293.97711671581
293.88334764141
293.79755387417
293.71729871821
293.64055596871
293.56556054553
293.49077848938
293.41539008001
293.33982928571
293.26539699902
293.17610714865
293.10780334079
293.04415312231
292.9860769733
292.93477776741
292.89289433314
292.85781557858
292.82681864817
292.79867154924
292.77441799251
292.75501410647
292.74006173256
292.72960885798
292.72214708727
292.71910341519
292.71895987971
292.72097709992
292.72571870859
292.73287423937
292.74143943019
292.75059994812
292.76116196603
292.7741474583
292.789547396
292.80681792673
292.82433028219
292.841735019
292.85880340544
292.87563475036
292.89225265896
292.90874899802
292.92526219033
292.94185230736
292.95830428804
292.97476904374
292.99193700583
360.45528144307
360.49195509426
359.15960934353
357.79293774571
356.40555805867
355.09253615105
353.7837394495
352.47471558761
351.1744810651
349.88446248369
348.60017872033
347.32060405545
346.05297857332
344.81004869991
343.60362979947
342.43984269561
341.32242228378
340.24968237546
339.21972471662
338.23869632028
337.30411969531
336.4119807063
335.55854677676
334.7415983099
333.9591840488
333.20956343954
332.49083083482
331.80073487064
331.13720938201
330.49865314706
329.88310128741
329.28992218775
328.7168005523
328.16287504917
327.62316449903
328.34002441182
326.513521946
327.33280490429
327.52939547035
326.8883114944
326.2841598662
325.80331360356
325.45414850009
324.97200922294
324.12360460278
323.28261952495
322.67541666224
322.30438395558
322.05542410356
321.83141702168
321.57904984478
321.26357715028
320.83181483172
320.21585868909
319.26153218724
317.74655551734
315.38014675601
311.81792580968
306.69488951639
299.4526500094
289.96243656754
278.56734068831
268.51981599423
262.92308871245
263.18659374828
268.20972125095
275.60557607715
283.58081262303
291.0536187153
297.44531416491
302.53794356387
306.25171932217
308.53037617077
309.30746742834
308.32242965361
304.89227498848
297.75626903348
284.5787652957
261.81886915178
234.06388272373
233.14858226936
306.15749577641
345.03860747169
297.83859042983
296.2549208346
295.84218457488
295.46946223029
295.15159706151
294.88526568733
294.66291859825
294.47685947864
294.31995041407
294.18601259075
294.0699568527
293.96764324036
293.87566879934
293.79122800873
293.71201482301
293.63609389181
293.56175871721
293.48750682794
293.41256314782
293.33739384344
293.2632489884
293.17318210031
293.10535980908
293.04210217179
292.9844120098
292.93347376272
292.8919034909
292.85707088742
292.82625504073
292.79826023546
292.77415517505
292.75489748409
292.74008822014
292.72974606848
292.72245829305
292.7195153716
292.71944000552
292.72155339548
292.72640587149
292.7336579699
292.74231800148
292.75159670869
292.76226962418
292.77536918846
292.79090242005
292.80831310254
292.82596313827
292.84350544802
292.86069856308
292.8776143445
292.89425368885
292.91069797603
292.92704530673
292.94339533042
292.95947592959
292.97551443213
292.99222989163
352.019891499
355.77450861498
355.15985229609
354.29606996982
353.36538933896
352.34251782178
351.28046293752
350.23834639419
349.17295703498
348.09334926056
347.00047758535
345.89675152116
344.79053576579
343.69126957163
342.60797105634
341.54753065383
340.51989368006
339.52826900317
338.57370728305
337.65518227088
336.77167174569
335.92094518206
335.10333234313
334.31570146396
333.56224278566
332.83991862295
332.14581630764
331.47747861476
330.83361640802
330.21263194786
329.6135499642
329.03358814279
328.47427966462
327.9336401818
327.40269862522
327.50834711553
329.43260675571
328.25721849659
327.33721196977
326.58342892538
325.85424727065
324.87084949014
323.05359776833
320.33254144782
317.54882581275
315.53993138401
314.75575147494
314.62602119854
314.6868209975
314.60657035505
314.09363764421
312.94756611173
310.81253751632
307.19528449381
301.50999411748
293.72647464923
284.40394122817
275.43786645891
268.91850650872
266.90712569144
270.51645159033
279.27309213817
291.27561445323
303.88380006597
315.11661241387
323.83843394917
329.76536123958
333.13922257019
334.37681840326
333.84981972872
331.8106068362
328.24088390441
322.95141664838
315.49659690633
305.13236642757
290.90274960166
271.74294699223
248.13982905145
231.14799265512
243.33053639188
316.48224243078
349.15782946431
298.64132033722
295.95342242427
295.80928465041
295.52983701012
295.24974287693
294.99554613119
294.77275055653
294.58043831104
294.41530539976
294.27317214754
294.14982663652
294.04146298423
293.94481818878
293.85708020451
293.775855531
293.69913431981
293.62518664779
293.55244012953
293.47947924719
293.40561255006
293.33135334599
293.25794186998
293.16839913918
293.10125617541
293.03862119521
292.98154874018
292.93123188684
292.89017223143
292.8557389466
292.82522322179
292.79749817901
292.77366741845
292.75467812648
292.74010452053
292.72996889423
292.72297595751
292.7202224494
292.72027586526
292.72255104542
292.72757825456
292.73498682989
292.74379301854
292.75325116749
292.76411638391
292.77741678415
292.79319110515
292.81086894806
292.82876664631
292.84655564724
292.86396930426
292.88101740024
292.89766523344
292.91397745011
292.93002079259
292.94595135806
292.96141697373
292.9767598636
292.9927354674
405.87294454586
350.81165230932
351.87724148568
351.40808263026
350.72543603911
350.01469934588
349.18570295543
348.3198552392
347.42152530905
346.53119004769
345.6225163564
344.68645480762
343.73124600716
342.76655601478
341.80192097941
340.84448296827
339.90199540427
338.98067699926
338.0856787962
337.21918480716
336.38288927271
335.57719574374
334.80001771471
334.04969407294
333.32459855946
332.62361800226
331.94680348462
331.29386119665
330.66376479388
330.05523290018
329.46645870522
328.898687935
328.34872478654
327.81119900518
327.78022288807
328.59716874787
327.76745678561
327.04711097211
326.3989816496
325.60514611487
324.12590162885
320.97327955335
315.58990142256
307.4241553641
300.0696660373
296.95175367786
295.66750962546
295.07034472557
294.39195482921
293.22156759485
291.22373135092
287.9862115476
283.51420004851
278.38259405536
273.98383531564
272.28571445017
275.08293875634
283.18403712312
295.88867710727
310.82606339457
325.02082208788
336.57072268324
344.33578439201
348.09357986132
348.48499717091
346.42342716491
342.76810161366
337.98706442663
332.34984007562
325.90657555775
318.55676718423
310.00216983073
299.89344329088
287.88638833874
273.83121767557
258.42898392741
244.70501134788
241.86841724696
264.988803618
329.21875689309
350.6934706193
301.06930170037
295.46867268564
295.44950119436
295.40211360556
295.22566285592
295.02597936377
294.83042442416
294.64998076717
294.48824143862
294.34517411342
294.21904607327
294.10738781813
294.00768189375
293.91751791095
293.83468285515
293.75722179237
293.68344572991
293.61184756004
293.54100062319
293.46959602259
293.39702813303
293.3238599556
293.2513823877
293.16262503866
293.09629995038
293.03441464683
292.97807875846
292.92854010138
292.88808964832
292.85411883841
292.82395122381
292.79655159679
292.77305304859
292.75438569046
292.74009252406
292.7302280454
292.72360070683
292.72107984668
292.72130934108
292.72380637293
292.72905552347
292.73665045484
292.7456418915
292.75533299547
292.76644934969
292.78001208241
292.79607766526
292.81408339123
292.83228015072
292.85036566907
292.86803632659
292.88522338523
292.90184287653
292.91794606732
292.93359469565
292.94897996702
292.96369737027
292.97822101299
292.99332591351
393.703298984
336.69773279721
348.2135917621
348.8298829701
348.41036410962
347.84107086137
347.20985683658
346.54198166474
345.75853352687
345.00980983344
344.22377585477
343.42553162274
342.61448427241
341.7805384126
340.92669370082
340.06996330662
339.21661355556
338.37418307444
337.54536680653
336.7345014051
335.94487942618
335.17742513295
334.43391383359
333.71699285178
333.02414379371
332.35296648183
331.70344727881
331.07194917502
330.46042964862
329.86901450336
329.2938915487
328.73950856819
328.19118077858
328.62503936992
328.81268254722
328.02351177845
327.29662692332
326.59783082774
325.65550140816
323.61505272749
319.03555440773
310.40179814896
298.80699029984
291.067734591
289.39873939711
289.19610810404
288.55775308804
287.29308745628
285.72150485666
284.13685113283
282.88942365943
282.56917600742
284.10943030732
288.74190721962
297.53972277173
310.52932000599
326.04517799058
340.76316697657
351.76831497775
357.61638190305
358.60150864705
355.86084908379
350.74677194273
344.45629572989
337.65525346298
330.72459957728
323.77950077332
316.75730203482
309.51105560562
301.87241316845
293.69793561905
284.96270859905
275.87387117721
267.12545417514
260.59079469014
260.29124390801
272.92010301584
306.97360828213
353.26194825734
334.04887751557
299.5876469857
294.82836928165
294.97799113896
295.04576284365
295.05090029348
294.94804346036
294.81169155899
294.66662092582
294.52448959152
294.39152553099
294.27004260293
294.16004432584
294.06047351836
293.96988222348
293.8866492424
293.80914191927
293.735824991
293.66532916148
293.59637268337
293.52767691973
293.45803964828
293.38695452479
293.31504479628
293.24364376658
293.1558603464
293.09048425708
293.02945661515
292.97395995532
292.92534207238
292.88560136718
292.85216460977
292.82240386077
292.79539833863
292.77230174448
292.75401382873
292.74005077982
292.73050455593
292.72431814071
292.72207215803
292.72252644964
292.72530384865
292.73082168534
292.73864459294
292.74786853828
292.75784077383
292.76926225453
292.78315515963
292.79957306126
292.8179581727
292.83649040374
292.85490058446
292.87284111735
292.8901586944
292.9067106686
292.92252703359
292.93769960939
292.952421625
292.96627785991
292.97986874391
292.99397442734
372.1437335725
399.62685072755
334.98085607471
345.37601580953
346.39741089029
345.96670915347
345.41376253326
344.83449796244
344.2310139496
343.57298960775
342.87747696501
342.18448035847
341.48725797256
340.75580622193
340.00732442375
339.25105065027
338.49002066758
337.72406818386
336.95959905784
336.20524160733
335.46608301894
334.74453277405
334.04196446041
333.35785277039
332.69272266828
332.04462197888
331.4138456608
330.803012671
330.22747971448
329.65430084923
329.08425445876
328.6456414311
329.52143390827
328.97392168373
328.23101276911
327.53576991155
326.79052077573
325.58328537408
322.60126639125
316.14498532076
304.39035975264
293.49595598757
290.27003864109
292.61436373009
298.34807088347
304.96254054852
309.71031540805
312.10760351555
313.29859102661
314.73489843395
317.57614254358
322.88997520113
331.24717617063
342.08594921009
353.4035439242
362.13126876147
365.97856677081
364.60342567889
359.3492922976
352.11295000859
344.36116839595
336.90282020264
330.04977545641
323.81459110614
318.08070199481
312.68718508277
307.48913057154
302.39372270776
297.39859179348
292.63899671213
288.4498338641
285.54933231245
285.2386135523
289.60741042855
301.59054488337
323.6023791261
348.9621507528
344.34695692658
311.97347242668
295.95821053095
294.1654226868
294.44235732253
294.63937579957
294.7242969923
294.75856201913
294.70461133624
294.61549355271
294.51093172992
294.40169000136
294.29453451418
294.19304682396
294.09843163064
294.01072707415
293.92928665355
293.85313713958
293.78114582882
293.7121908721
293.64519168004
293.5790825945
293.51270797258
293.44500970506
293.37555756859
293.30503602057
293.23483473255
293.14818629706
293.08386414398
293.02379548919
292.96923138484
292.92165794507
292.88271951335
292.84988607776
292.82058734352
292.79404373279
292.77142131696
292.7535680977
292.73998901165
292.73079559176
292.72512564691
292.72319891227
292.72392848182
292.72704353606
292.73287466177
292.74096430442
292.75047285311
292.76077534038
292.77256099526
292.78685974872
292.80369460161
292.82250077026
292.84139627082
292.86015218439
292.8783608234
292.89579056464
292.9122310623
292.92768584301
292.94228469181
292.95621993296
292.96911853634
292.98167510729
292.99465287655
362.48543873132
365.62850621809
385.46762513389
332.63311208105
342.11199660645
344.08795535165
343.97945125799
343.36018794518
342.79770758213
342.20905627135
341.61696289693
340.99769527487
340.36070398133
339.73714219416
339.08132701268
338.40470098825
337.71968341131
337.03269521035
336.34258122975
335.65064069185
334.96384068337
334.2875890725
333.6251188017
332.97706330713
332.34099473733
331.71620255199
331.11988489378
330.53181458593
329.95790732699
329.44730494185
329.85829759208
329.75550690754
329.08251660139
328.40074043477
327.71917137139
326.8531802453
325.04220892591
320.47288273923
310.8247029959
297.89975332817
291.89515353285
294.16627266672
301.41926348226
313.22712627778
329.0367782368
343.3794339262
351.71751736813
355.17011995867
357.06250731943
359.44066334193
362.83342188142
366.73094748455
369.66710918214
369.84745572711
366.30717829851
359.51955295743
351.17727999272
343.02725411398
336.07185076058
330.53620012202
326.22540393584
322.84052935068
320.12035607472
317.8737625561
315.9899947321
314.44364931783
313.30578969218
312.74686132101
313.08435007468
314.81956575853
318.58999778955
325.10084528763
334.55273347547
344.38771798461
346.36566883811
331.98272902934