/*--------------------------------*- C++ -*----------------------------------*\
| =========                 |                                                 |
| \\      /  F ield         | OpenFOAM: The Open Source CFD Toolbox           |
|  \\    /   O peration     | Version:  2312                                  |
|   \\  /    A nd           | Website:  www.openfoam.com                      |
|    \\/     M anipulation  |                                                 |
\*---------------------------------------------------------------------------*/
FoamFile
{
    version     2.0;
    format      ascii;
    arch        "LSB;label=32;scalar=64";
    class       volScalarField;
    location    "2e-05";
    object      Y.Liq;
}
// * * * * * * * * * * * * * * * * * * * * * * * * * * * * * * * * * * * * * //

dimensions      [0 0 0 0 0 0 0];

internalField   nonuniform List<scalar> 
109340
(
0.99998995572088
0.99998961686069
0.99998912664033
0.9999884499467
0.99998756521608
0.99998642391924
0.99998496820561
0.99998314188592
0.99998084508912
0.99997790961901
0.99997419025292
0.99996948864788
0.99996355012416
0.99995604982093
0.99994657291861
0.99993458801445
0.99991941074053
0.99990015335858
0.99987565337845
0.99984435655888
0.999804192027
0.99975238783445
0.99968516263436
0.99959738613311
0.99948220148683
0.99933089244213
0.99913465425563
0.9988827019165
0.99855481636478
0.99813075514021
0.99759098388633
0.99691864695696
0.99610734681673
0.99516282418582
0.99410221149538
0.99295322572285
0.99998987513501
0.99998950387341
0.99998897425203
0.99998826471438
0.99998733629307
0.99998614014707
0.99998462116252
0.9999826913821
0.9999802427252
0.99997713857305
0.99997321147634
0.99996824935651
0.9999619822528
0.99995406610527
0.99994406145193
0.999931404691
0.99991536884442
0.99989500927015
0.99986908498969
0.99983592736975
0.9997933300902
0.99973830415781
0.99966677927572
0.99957322784935
0.99945027975393
0.99928856311661
0.99907731327547
0.99880531667483
0.99845403824342
0.99800154163818
0.99742912019917
0.99672157048835
0.99587656293512
0.99490188212684
0.99381811087745
0.9926535192842
0.9999898728414
0.99998949643056
0.99998898498263
0.99998829618174
0.99998738894529
0.9999862122707
0.99998470347398
0.99998278275683
0.99998034611123
0.99997726076665
0.99997335926943
0.9999684298821
0.99996220370145
0.99995433824344
0.99994439613276
0.99993181653956
0.99991587610198
0.9998956350277
0.99986985800311
0.99983688687919
0.99979452644995
0.99973979774712
0.99966864429472
0.99957553500766
0.99945304770184
0.99929156468424
0.99907929362578
0.99880245785088
0.99844504597439
0.99798957258756
0.99741437866318
0.99670566108727
0.99586083595777
0.99488815702318
0.99380769126778
0.99264723658024
0.99998987334013
0.9999895097655
0.99998901840197
0.99998834605063
0.99998745573465
0.9999862980773
0.999984809993
0.99998291084404
0.99998049834711
0.99997744231633
0.9999735770613
0.99996869204847
0.99996251937484
0.99995471740532
0.99994484912153
0.99993235376361
0.99991650706883
0.99989636741619
0.99987069360605
0.99983782596098
0.99979555969589
0.99974089327793
0.99966974346735
0.99957651075136
0.99945363974331
0.99929122910235
0.99907687570765
0.99879569184418
0.99843067475848
0.99796387586199
0.99737907344412
0.99666363953921
0.99581832769298
0.99484705880648
0.99377015108875
0.99261591477566
0.99998989178886
0.99998955328018
0.99998907259233
0.99998841726602
0.9999875480587
0.99998641547023
0.99998495567203
0.99998308687598
0.99998070498551
0.99997767739551
0.9999738349224
0.99996896037723
0.99996277495382
0.9999549198984
0.99994493208665
0.99993221201962
0.99991597565066
0.99989519615366
0.99986850877907
0.99983410048297
0.99978952663679
0.99973144485936
0.99965531467602
0.99955488076927
0.9994217828268
0.99924517214859
0.9990117966602
0.99870671669993
0.99831427230209
0.99782068492622
0.99721503357847
0.99648647042919
0.99563275219234
0.99466190492621
0.99359259796201
0.99244900402475
0.99998992946638
0.99998962987526
0.99998914783199
0.99998845760217
0.99998751128454
0.9999862410514
0.99998455543386
0.99998233314677
0.99997941399358
0.99997558673214
0.99997057252358
0.9999640034732
0.99995539422203
0.99994410453612
0.99992929004752
0.99990983613187
0.9998842646753
0.9998506055067
0.99980619876468
0.99974735916175
0.99966893953726
0.9995637557982
0.99942190686073
0.99922959448202
0.99896967474568
0.99862644272156
0.99818913038966
0.99765217503177
0.99701100611619
0.99625569508056
0.99538407081187
0.99439965759061
0.9932984549918
0.99208220771549
0.99075864473222
0.98933844097451
0.99174503729664
0.99050820231233
0.9892621616831
0.98801546519063
0.9867509273303
0.98541289102595
0.98394641755438
0.98234191750716
0.98064431701894
0.97891954260802
0.97722876214507
0.97560096904927
0.97405755537997
0.97260608738081
0.97124664519562
0.96997632524795
0.9687890210452
0.96767777496385
0.96663587712545
0.96565824496427
0.96473982587432
0.96387445702363
0.96305689090362
0.96228367279093
0.96155151133194
0.96085639008536
0.9601948720225
0.95956459441358
0.95896332166047
0.95838878426863
0.95783880236564
0.95731130231418
0.95680479518975
0.95631809937968
0.95419416569033
0.94747335730295
0.94787583466693
0.94814222289245
0.94840187114154
0.94863286130679
0.94879978719669
0.94889224026517
0.94891805174267
0.94889813318563
0.9488257565825
0.94870638840055
0.94855041493556
0.94836474454488
0.9481579589013
0.94793745105678
0.94770767672507
0.94747164054987
0.94723144018631
0.94698533291859
0.94673175189988
0.94646710802912
0.94618719024054
0.94588897901815
0.94556900846432
0.9452253561283
0.9448569616846
0.94446494830637
0.94405136768077
0.94361738449356
0.94316363321678
0.9426898008028
0.94219366021613
0.94167258329788
0.94112327427901
0.94054141048213
0.9399210546695
0.9392535359581
0.93852824776822
0.93773144677953
0.93684251474545
0.93583654548275
0.93468187650265
0.9333314474959
0.93164895047041
0.9287092099121
0.91358641595053
0.81830184493867
0.48741652226832
0.045840162961431
0.00015180967627087
8.7206907199599e-07
3.0117804815719e-09
6.9787429340283e-12
1.1788870667586e-14
1.5486112574676e-17
1.6670367179342e-20
1.5362796475044e-23
1.2576874157162e-26
9.4395962898875e-30
6.6747802968429e-33
4.5536316172636e-36
3.0613915736817e-39
2.0680657139063e-42
1.4302745537874e-45
1.0322432930055e-48
7.9302009097754e-52
6.5980475999251e-55
6.0093924271188e-58
5.9915492911787e-61
2.5327023900981e-64
2.5007854913294e-66
2.503731246768e-68
2.5230068674781e-70
2.5439926465258e-72
2.5555365852249e-74
2.5483713148476e-76
2.5164702604442e-78
2.4560959430468e-80
2.3633620795219e-82
2.2412180341404e-84
2.0994929642311e-86
1.9663093814522e-88
1.9151133324672e-90
2.0253624778674e-92
2.3516862317878e-94
3.0030886102111e-96
4.2995857794839e-98
7.1371831422511e-100
1.4345649793013e-101
3.7212982952003e-103
1.3680904115771e-104
6.1938370567538e-106
2.9471488969765e-107
1.491832005011e-108
8.1286976642803e-110
4.7780988832268e-111
2.8372688298772e-112
1.5736446059243e-113
8.2625047727273e-115
4.2687017396265e-116
2.2162617361549e-117
1.2108912255094e-118
7.2645223895384e-120
4.514816745227e-121
2.8984830955151e-122
0.99143729483128
0.99019890400883
0.98894810126885
0.98766605028005
0.98631422393576
0.9848655774526
0.98331784201038
0.9816889384132
0.98001283666249
0.97833374512411
0.97669261190618
0.97511745631808
0.97362143017181
0.9722122369934
0.97088942675855
0.96964926383785
0.96848754466132
0.96739976634847
0.96637977303453
0.96542073838272
0.96451753200382
0.96366603064237
0.96286162346781
0.96209984384214
0.96137716964915
0.96069054103642
0.96003707636366
0.95941408672878
0.95881910216122
0.95824997498404
0.95770486942655
0.95718204960749
0.95668009380964
0.95619783678234
0.95240878925015
0.94808057101946
0.94858460960009
0.94903047988216
0.94949457976143
0.94988887767615
0.95011528484046
0.95017989471995
0.95014425103638
0.95001073946597
0.94981281990753
0.94957932758745
0.94932335708277
0.94905209804567
0.94877281329849
0.94849107489248
0.94821348136536
0.94794204269909
0.94768055374128
0.94742880102622
0.94718543936334
0.94693817984326
0.94667903434439
0.94640334796907
0.94610748126985
0.94578756895725
0.94544081329529
0.94506665944211
0.94466409318947
0.9442286430921
0.9437529394081
0.94322867943873
0.94264796460103
0.94199387800743
0.94123005488077
0.94029839630993
0.93912189955896
0.93760594025245
0.93564690088114
0.93315618235276
0.93011262130974
0.92661280562318
0.92285104824219
0.91931720613071
0.91706452717324
0.91531991537134
0.89113716766793
0.74067082885131
0.32645051596299
0.012790727975024
0.00012037787522962
6.7875408630401e-07
2.3336247358976e-09
5.4174974990735e-12
9.195098098721e-15
1.2159451162467e-17
1.3198929681575e-20
1.2286066837513e-23
1.0175944566963e-26
7.7387230687223e-30
5.5517197930518e-33
3.8464128918328e-36
2.6278504807338e-39
1.8045191963288e-42
1.2686304402609e-45
9.3048484896341e-49
7.2616914181053e-52
6.1354401510246e-55
5.6700091952466e-58
5.7196656515676e-61
2.4286133311639e-64
2.3943878164454e-66
2.3907563184294e-68
2.4002135674135e-70
2.4090215424364e-72
2.4074322686656e-74
2.3878237358056e-76
2.3455608377723e-78
2.2778627792904e-80
2.1820700717213e-82
2.0627898098241e-84
1.9310747603155e-86
1.8103804949338e-88
1.760688660747e-90
1.8500241953201e-92
2.1284172825742e-94
2.697520692685e-96
3.8504272539532e-98
6.402119228645e-100
1.2919093174583e-101
3.3635671297483e-103
1.2386852046381e-104
5.6291452547102e-106
2.6967596188687e-107
1.3743550327239e-108
7.5400413548823e-110
4.4602404389724e-111
2.6617336330947e-112
1.4817914261954e-113
7.8023353881363e-115
4.0362691249254e-116
2.0978781459672e-117
1.1472698433808e-118
6.8923648168355e-120
4.2966404645872e-121
2.7668217460338e-122
0.99143471360366
0.99019826867021
0.98891867892305
0.98754702851227
0.98606934430957
0.98451555822623
0.98291894734728
0.98129709796731
0.97966322175805
0.97803711899919
0.97644585237061
0.97491288046424
0.97345268910072
0.97207210674911
0.97077234248026
0.96955124621261
0.96840477689609
0.96732895353865
0.96631883066517
0.96536805583512
0.96447146372548
0.96362552123996
0.96282612649556
0.96206854945192
0.96134921622083
0.96066556482874
0.96001491783929
0.95939442237611
0.95880149927908
0.95823402585813
0.95769037255578
0.95716889371747
0.9566682526268
0.95618669975505
0.95413048400919
0.9480852293006
0.94870252273302
0.94924195996803
0.94996292098059
0.95062438537807
0.95086418841006
0.95085247750262
0.95068665045847
0.95043623887888
0.95016277945129
0.94988430657249
0.94960328868662
0.94932022620095
0.9490355230739
0.94875407331407
0.94847820143325
0.94820849672391
0.94794834621702
0.94769719429767
0.94745125636201
0.9472008454521
0.9469406495081
0.94666718192922
0.94637557365716
0.94605947709476
0.94571176071454
0.94532303193402
0.94487774461303
0.94434897699194
0.94368522095933
0.94279926493464
0.94154479108177
0.93967754051115
0.93682526481048
0.93249187402813
0.92616290648881
0.91750377695478
0.90656473916509
0.89399292505565
0.88090848044329
0.86919389665636
0.86079753222973
0.85808679024184
0.86304319096893
0.87998970182074
0.86492189603911
0.70060113033041
0.27388389463578
0.0086858213159446
7.5362126904035e-05
4.101294259075e-07
1.3816156178712e-09
3.1747410574538e-12
5.3674939173316e-15
7.0998027406396e-18
7.7314942546545e-21
7.2355782796607e-24
6.035237273572e-27
4.628313285909e-30
3.3518563946732e-33
2.3464727978386e-36
1.6210978142581e-39
1.1264847209061e-42
8.0190098121395e-46
5.9579623807908e-49
4.7105123221968e-52
4.0392405735338e-55
3.7938178637129e-58
3.8886822904859e-61
1.6753146471522e-64
1.6626609469572e-66
1.672025333336e-68
1.691235518715e-70
1.7099767469249e-72
1.7208564207409e-74
1.7181130961116e-76
1.6980619586733e-78
1.6584098257553e-80
1.5977621384002e-82
1.5213605694106e-84
1.4396729380415e-86
1.3681533949805e-88
1.3438927361798e-90
1.4111709069118e-92
1.6059971041988e-94
2.0137393538695e-96
2.880130767522e-98
4.8615804458789e-100
9.9980832772889e-102
2.6395358040733e-103
9.8171069921659e-105
4.5228801263344e-106
2.2060872110979e-107
1.1437394380137e-108
6.379064772564e-110
3.8294290124597e-111
2.3108763187614e-112
1.2968866825758e-113
6.8694737363528e-115
3.5608915824259e-116
1.8569307881979e-117
1.0175254378878e-118
6.1275704376256e-120
3.8450057153e-121
2.4916087496401e-122
0.99141219714084
0.99015956284097
0.98877074872056
0.98722605594627
0.98559994365889
0.98396389301601
0.98234874641491
0.98075751533984
0.97918378463431
0.97762989666423
0.97610837599133
0.97463507194344
0.97322403702952
0.97188297957333
0.97061510710273
0.96941976341814
0.96829397550191
0.96723437853879
0.96623701758621
0.96529695800464
0.96440939982002
0.96357089887578
0.96277768116836
0.96202537886815
0.96131056644762
0.96063080402437
0.95998353152912
0.95936599946282
0.95877566665388
0.95821045448609
0.95766872596982
0.95714898188825
0.95664983750433
0.95616941053177
0.95526686771171
0.94805775930882
0.94819794509999
0.94908000369065
0.95058806748589
0.95137522585723
0.95143435137408
0.95122363774543
0.95089481018928
0.95056387520303
0.95025081235758
0.94995358756236
0.94966616506754
0.94938329378218
0.94910410710656
0.94882923119915
0.94855889262661
0.94829352450766
0.9480331971677
0.94777495330669
0.94751340434843
0.94724303100723
0.94695911781284
0.94665578675825
0.94632407368905
0.94594760630871
0.94549750397765
0.94491790528656
0.94409594793361
0.94280239808029
0.94058592586241
0.9366384353027
0.92970282103021
0.9181809104926
0.90081486407007
0.87783717316474
0.85163623360445
0.82551572856654
0.80229884567025
0.78291137982533
0.76810321765622
0.75863335362356
0.75625850223044
0.76262023304897
0.78360080754105
0.82821258981383
0.81993548616199
0.63691252469679
0.20177439348894
0.0047639530652285
3.6390578853847e-05
1.8895944930164e-07
6.2000024605744e-10
1.4057514816035e-12
2.3657617813766e-15
3.1338805748647e-18
3.4324432831622e-21
3.2408571608499e-24
2.7334227359051e-27
2.1231667339314e-30
1.5593251931533e-33
1.1080662289153e-36
7.7762610383379e-40
5.4921699652478e-43
3.9755108953945e-46
3.0045646667791e-49
2.4171030984e-52
2.1104533926974e-55
2.0204500451369e-58
2.1122224563001e-61
9.2712483281403e-65
9.2819808488246e-67
9.4227861147382e-69
9.6270186073717e-71
9.8328481470983e-73
9.9948774437441e-75
1.0077338506922e-76
1.0055473978582e-78
9.912463533668e-81
9.6388007575704e-83
9.2693210189275e-85
8.8727209665161e-87
8.5399028220564e-89
8.4855853950116e-91
8.9777377226235e-93
1.0258217595885e-94
1.2920040632509e-96
1.8638829893367e-98
3.1898998280409e-100
6.6836899895727e-102
1.8039204996722e-103
6.8759380588171e-105
3.2464630602124e-106
1.6250264193428e-107
8.65203794275e-109
4.9513847272755e-110
3.0403924334063e-111
1.8659798081835e-112
1.0598093472198e-113
5.6639098818473e-115
2.9539803023488e-116
1.5482650062464e-117
8.520726977361e-119
5.1576864951805e-120
3.2565611411136e-121
2.1237130141244e-122
0.99124902582944
0.98987664003093
0.98825065576574
0.98653670912991
0.98484605442187
0.9832062178072
0.98162285445629
0.98009069466078
0.97859631603027
0.97712890238348
0.97568953943231
0.97428766841436
0.97293536731258
0.97164186403453
0.97041282978988
0.9692496968722
0.9681506134206
0.96711256034079
0.96613258135998
0.96520709085568
0.96433156634185
0.96350272566027
0.96271742376492
0.96197190342485
0.96126295138409
0.96058816270641
0.95994504795091
0.9593310982664
0.95874397083155
0.95818162636279
0.95764230017422
0.95712468480757
0.95662736100123
0.95614944127795
0.95564631242274
0.94957370429557
0.94753001194434
0.94935186689404
0.95160680300053
0.95195901581456
0.95172369378462
0.9513077913861
0.95090910577159
0.95052947591835
0.95017493272158
0.9498481992601
0.94955237969165
0.94928016137167
0.94901975581849
0.94876268565373
0.94850464088468
0.94824365547779
0.94797619887362
0.94769512919332
0.9473882202524
0.94704293679268
0.94664886143512
0.94618917295025
0.94563163452765
0.94490183953422
0.94383401065457
0.94204976654628
0.93872383819733
0.93221244594405
0.91973004823074
0.89795920767641
0.86562169172825
0.82623750655962
0.78599488024334
0.74965724709882
0.71877599428684
0.69385532298811
0.67483082020287
0.66163244380566
0.65446674362221
0.65421305937326
0.66217028443573
0.68198826634752
0.72066703702216
0.77969241367098
0.76017240354494
0.54938876594597
0.12384208701644
0.0020179535110432
1.3526373741803e-05
6.6851905952716e-08
2.134391549808e-10
4.778644927907e-13
8.0210839874013e-16
1.0672064819801e-18
1.1798897700447e-21
1.1285925156237e-24
9.6686528783016e-28
7.6430157702268e-31
5.7208276803725e-34
4.1475155268925e-37
2.9719012745583e-40
2.1443941281592e-43
1.5865142252841e-46
1.2259702229695e-49
1.0087929137136e-52
9.0136252474283e-56
8.835693848363e-59
9.4616127457809e-62
4.2521318569638e-65
4.3059810163079e-67
4.4240238673116e-69
4.5764101336582e-71
4.7329979460072e-73
4.8709488015929e-75
4.9717592851183e-77
5.021415795656e-79
5.0094179357993e-81
4.9288827372799e-83
4.7962558601152e-85
4.6469503891435e-87
4.529940071435e-89
4.5612385250246e-91
4.8883950154883e-93
5.6535935594638e-95
7.2075726976251e-97
1.053956673713e-98
1.834004089532e-100
3.92526623726e-102
1.0885189633556e-103
4.2919658459158e-105
2.0963537458604e-106
1.0865512296246e-107
5.9945431284152e-109
3.548521192662e-110
2.2433119965534e-111
1.4067173905053e-112
8.1113227101594e-114
4.3828615869999e-115
2.3048589420702e-116
1.2162221117709e-117
6.7335527926449e-119
4.1037639618075e-120
2.6095759156238e-121
1.7136175619329e-122
0.98821624026785
0.98787749417132
0.98682390684855
0.98537202902072
0.98380666003463
0.9822643193191
0.98077197734755
0.97932710607867
0.97792180772174
0.97654716071121
0.97519807050537
0.97387798686065
0.9725947437664
0.97135705192977
0.97017233490141
0.96904482978975
0.96797551325597
0.96696233445094
0.96600309590981
0.96509513184755
0.96423468478672
0.96341822530025
0.96264312529066
0.96190634009397
0.9612048497241
0.96053631719153
0.95989845470028
0.95928900740559
0.95870586648834
0.95814707468711
0.95761088220461
0.95709599401748
0.95660107142897
0.95612473765403
0.95566411903076
0.95279511295581
0.94808432370839
0.9508150546072
0.95235401480268
0.95223510218125
0.95173915269263
0.95122490217584
0.95077663903874
0.95033598552634
0.949887551379
0.94947599009671
0.94915137525628
0.94889846788397
0.94867815407044
0.94845814535203
0.94822236482731
0.94795981827537
0.94765719255539
0.94729220756602
0.94682549678223
0.9462055098962
0.94537088900218
0.94422742155931
0.94258353587149
0.93998777227073
0.93539608921213
0.92656158595681
0.90949263438992
0.87939095872568
0.83540313927259
0.78352420368474
0.73222091661423
0.68657779808017
0.64831648681968
0.61763823139577
0.59420665674805
0.57757067412264
0.56734569185372
0.56349747892604
0.56615329885944
0.57637246316547
0.59622976429365
0.62958338554317
0.6816279444918
0.73261140861497
0.68533018121253
0.43865677157125
0.059678789779997
0.00062120664366501
3.8745530290474e-06
1.8274442992501e-08
5.6936303168852e-11
1.262852410274e-13
2.1220293448535e-16
2.8473701387276e-19
3.1917037805807e-22
3.1072806274336e-25
2.717015806611e-28
2.1966702267087e-31
1.6841572193879e-34
1.2520059299542e-37
9.2063460356195e-41
6.8208180633154e-44
5.183581993043e-47
4.1157793258089e-50
3.4807643201128e-53
3.197685518594e-56
3.224574140662e-59
3.5533558846534e-62
1.6477167019993e-65
1.698047492821e-67
1.7760609873854e-69
1.8702665374478e-71
1.9682305850627e-73
2.0601436057358e-75
2.1376567267775e-77
2.1937390141872e-79
2.2225577253074e-81
2.2197201520018e-83
2.1916655879512e-85
2.1538769631659e-87
2.1297067537177e-89
2.17710380879e-91
2.3711297757318e-93
2.7876077459993e-95
3.6138477425464e-97
5.3786603916663e-99
9.5441732855784e-101
2.0906125845586e-102
5.9703283907427e-104
2.4452789476335e-105
1.2419327102086e-106
6.7032822906622e-108
3.8531297111826e-109
2.3702970952384e-110
1.5481545564787e-111
9.9438257436366e-113
5.8311371812652e-114
3.1889119673119e-115
1.692566529323e-116
8.9996401069999e-118
5.0156407651538e-119
3.0816258820828e-120
1.9765517739443e-121
1.308470771965e-122
0.98210204210135
0.9842573165137
0.98430089496335
0.98386956147461
0.98283330895662
0.98152657630581
0.98016227679292
0.97882011441283
0.97751003439915
0.9762258844422
0.97496250348333
0.97371966243527
0.97250328802644
0.9713200920808
0.97017643018617
0.96907801243515
0.96802866978657
0.96702994294919
0.96608118371223
0.96518057311691
0.96432563500052
0.96351315212615
0.96274050251313
0.9620053370685
0.96130477925583
0.96063624306593
0.95999768798145
0.95938714975703
0.95880268802146
0.95824245919194
0.95770469246499
0.95718800140612
0.95669116557431
0.95621295620899
0.95575152609956
0.95512064393965
0.95044585215521
0.95190509316524
0.9527852405068
0.95240763384533
0.95180262124251
0.95124837798627
0.95066478183945
0.94999399263926
0.94921068416687
0.94847802355833
0.94802235924804
0.94780672759225
0.94769725299315
0.94758263976387
0.94740808617985
0.94713817340199
0.94673527246313
0.94613427182229
0.94520383582876
0.94372873673434
0.94139244804013
0.93771223968632
0.93180023667958
0.92180544909859
0.90420793164655
0.87407320877987
0.82902174742367
0.77262983952327
0.71247568246466
0.65610431363833
0.60728146743192
0.56730139367042
0.53604972144906
0.51297962444359
0.49736720608389
0.48862580087997
0.4863825883796
0.49031350410722
0.5009468090271
0.51921717658922
0.54694567238289
0.58689659332272
0.64032215888851
0.68118558609473
0.63025033213332
0.39829912483127
0.054757997685782
0.00065149854320357
8.6008152689892e-07
3.9073907918723e-09
1.1958594269274e-11
2.6420049374958e-14
4.4663521226197e-17
6.0728334784554e-20
6.9342047818779e-23
6.9033237907754e-26
6.1900966325208e-29
5.1426563522453e-32
4.0575615117747e-35
3.1074673810975e-38
2.3557424467384e-41
1.8002833559385e-44
1.4117315667704e-47
1.1569302077042e-50
1.0100407160906e-53
9.5807624257619e-57
9.9779541702544e-60
1.1371586566628e-62
2.6984180424266e-66
2.8285602351585e-68
3.0124727007359e-70
3.2321141649035e-72
3.4668914644266e-74
3.7001140468761e-76
3.9164533197326e-78
4.1010225097291e-80
4.2398434306205e-82
4.3208461328409e-84
4.3535381944949e-86
4.3658971160788e-88
4.4079380025567e-90
4.6119795130971e-92
5.1538204047072e-94
6.2280283430844e-96
8.3202752321404e-98
1.2803700363057e-99
2.3591582853655e-101
5.4061496014433e-103
1.637524645348e-104
7.271860232158e-106
4.0347268167319e-107
2.3936692496308e-108
1.5131182756661e-109
1.0151403917921e-110
7.1215564548078e-112
4.8171858909072e-113
2.9290273623715e-114
1.643240968546e-115
8.8950760164054e-117
4.806737075071e-118
2.7174321429503e-119
1.7006538588622e-120
1.1122764686253e-121
7.4976158492504e-123
0.76894847188599
0.97863028077105
0.97895803957382
0.97916965033717
0.9791761816179
0.97864492546858
0.97775253703637
0.97669797185
0.97560851470982
0.97452315279401
0.97344586439538
0.97237468887374
0.97131275927
0.97026761797749
0.96924705308527
0.96825688704121
0.96729993527982
0.96637863053379
0.96549467216019
0.96464891245729
0.96384116868956
0.96307006659459
0.96233392495754
0.9616309592259
0.96095911606871
0.9603161807911
0.95970049840925
0.95911057226819
0.95854467737228
0.95800117701942
0.957478560216
0.95697558950791
0.95649099768883
0.95602361176834
0.95557231552663
0.9551110010311
0.95420670947627
0.95337804034312
0.95262280606
0.95199238794855
0.95134117384671
0.95038090896849
0.94837607670771
0.94436723144813
0.93935708381101
0.93629721518423
0.93567997194751
0.93620902255479
0.93697963600749
0.93742170593549
0.93710273473599
0.93580871403644
0.93295693141183
0.92750400246878
0.9177741369524
0.90141680520077
0.8760120169718
0.84007477755051
0.79327688088904
0.73647475435255
0.67314167313721
0.60821085957741
0.54688700599495
0.49293594893382
0.44847177208094
0.4141655590062
0.38959957930616
0.37379827305362
0.36565625719562
0.36418591955388
0.36857078247313
0.37850075954023
0.39385881154947
0.41485368226709
0.44198407987513
0.47584899770337
0.51627381931484
0.55861763549664
0.57869710070982
0.52795647624692
0.34037396415716
0.061371751184495
0.0013876310450607
3.3761809820834e-06
2.0816526397316e-08
9.1881979654198e-11
2.7931669914352e-13
6.2519812580912e-16
1.0879501150612e-18
1.5415475953609e-21
1.8515484735433e-24
1.9526223865143e-27
1.8644187025635e-30
1.6556533055292e-33
1.400099743679e-36
1.1514056519508e-39
9.3848640724124e-43
7.717467364869e-46
6.5153047259929e-49
5.7499432140784e-52
5.407499421532e-55
5.5272669910935e-58
6.1995764986548e-61
7.603843560732e-64
1.6648458204453e-67
1.8768470988345e-69
2.1390163532134e-71
2.4438333271445e-73
2.7784576177623e-75
3.1304333867386e-77
3.4858143692085e-79
3.8276325933761e-81
4.1372006311522e-83
4.3963784889052e-85
4.6098525187899e-87
4.8025954700612e-89
5.0343864678159e-91
5.4792050784377e-93
6.3811223442195e-95
8.0474908613216e-97
1.1256214860623e-98
1.8221279281073e-100
3.551329848191e-102
8.681237429054e-104
2.8509128231579e-105
1.4108891020639e-106
8.8088384278595e-108
5.9060748793835e-109
4.1905500408726e-110
3.1028076500234e-111
2.3516257176182e-112
1.6808573812461e-113
1.0634449693813e-114
6.1416783953107e-116
3.4030445466838e-117
1.8745461889053e-118
1.0782590368355e-119
6.9159658910171e-121
4.6432696127225e-122
3.2047829808983e-123
0.18337330138613
0.9659991251407
0.97486106677973
0.9752278213143
0.97550940826498
0.97564186450942
0.97541643972771
0.97480178721551
0.97398661661388
0.97308890296877
0.97217052304552
0.97125254956448
0.9703334175568
0.96941527152407
0.96850506628458
0.96761028985729
0.96673704209633
0.96588924567131
0.96506871901575
0.96427628409716
0.96351250222505
0.96277769290801
0.96207198310143
0.96139500505487
0.9607458541277
0.96012312352802
0.95952534178831
0.95895112375688
0.95839910635515
0.95786802140836
0.95735664430517
0.95686369216945
0.95638825782861
0.95592920405196
0.95546418168002
0.9545818795216
0.95366596481056
0.95292104937254
0.95225699192295
0.9514661902302
0.94985036780311
0.94553790426154
0.9352470595062
0.91640767645295
0.89431389399343
0.88206309023889
0.87879695702851
0.87927304369113
0.88009353035839
0.87910181505661
0.87478971651072
0.86530910343293
0.84849265759974
0.82209298864439
0.78446956157462
0.73539304116412
0.67642973735141
0.61074081073078
0.54279021549427
0.47777149211833
0.41962776919484
0.37062108912654
0.33201432377183
0.3040156370717
0.28579941870348
0.27601059046373
0.27324433567804
0.27617663701166
0.28402739662154
0.29619249206871
0.31233528428835
0.33231545387952
0.35610002470026
0.38359184977614
0.41420847508006
0.44585828225876
0.47190352151725
0.47503256843849
0.42415903880508
0.27674068502731
0.066384518755173
0.0032089043236769
1.8803545431952e-05
3.3325176840461e-08
2.2131352684665e-10
1.0215230325748e-12
3.2215753355594e-15
7.5220041786288e-18
1.3769853244472e-20
2.0695658951929e-23
2.6555105428707e-26
3.0087921355837e-29
3.0999588751597e-32
2.9799350651032e-35
2.7340479189461e-38
2.443111262569e-41
2.1658347809405e-44
1.938158601491e-47
1.781031084015e-50
1.7107793276587e-53
1.7515188861931e-56
1.9492797832684e-59
2.3805631901922e-62
3.1807378637597e-65
6.4272428625565e-69
7.9407635696988e-71
9.8547571188407e-73
1.2183137710456e-74
1.4899367004899e-76
1.7963148834682e-78
2.1307047641293e-80
2.4817557462403e-82
2.83425997217e-84
3.1716180989563e-86
3.4939514018793e-88
3.8169147444581e-90
4.1936448256752e-92
4.7937849463888e-94
5.8733810349537e-96
7.8036480044464e-98
1.1548829784809e-99
1.9907140910213e-101
4.1644654943765e-103
1.1060632230759e-104
4.0345829927195e-106
2.2923062011735e-107
1.6528148548632e-108
1.2721718148572e-109
1.0167468621437e-110
8.2679889752027e-112
6.7183973699776e-113
5.0434046973841e-114
3.3093611969558e-115
1.965319934704e-116
1.1147690521851e-117
6.2635483858754e-119
3.6736120606222e-120
2.4219728034305e-121
1.6720361622097e-122
1.182698823834e-123
0.042257952476289
0.76758469911504
0.96636056708009
0.97184269493449
0.97239705101974
0.97267828050569
0.9728517296113
0.97274535704632
0.97230601973994
0.97164982432905
0.97089956748354
0.9701122718139
0.96931194330907
0.96850998396925
0.96770794214073
0.96690849587358
0.96611743423591
0.9653404627366
0.96458239968003
0.96384592208528
0.96313203680336
0.9624410628341
0.96177270488513
0.96112673496318
0.96050323270029
0.95990219106352
0.95932350127616
0.95876653592332
0.95822996353682
0.95771256624551
0.95721351112758
0.95673158008779
0.95626672902931
0.95576129231983
0.95489795726408
0.95403172499496
0.95328996068808
0.95259015764035
0.95163641329644
0.94924694396771
0.94200979154395
0.92339096286052
0.88725937420614
0.83908903430156
0.79765693232889
0.77171913168591
0.75766641865234
0.74931831004845
0.74138984887755
0.7306328791745
0.71436084943743
0.69031743642441
0.65657549632717
0.61190715215356
0.55661047959175
0.49335441990686
0.42716586424726
0.36441520516027
0.31035434537152
0.26792209058227
0.23745275986944
0.21763922328735
0.20663260323254
0.20261357042943
0.20405707083576
0.20986592583579
0.21926623924976
0.23171812472663
0.24686539829436
0.26445628839269
0.28425349705559
0.30589029343846
0.32864460985687
0.35093081531293
0.36926998313408
0.37627156215106
0.35855611683306
0.29436612643547
0.16560997857643
0.037335086201058
0.0027562710645587
3.1878987409428e-05
1.0985726215759e-07
1.6035385348054e-10
1.2115537094391e-12
6.2815020317691e-15
2.1380354762315e-17
5.3425206372008e-20
1.0480597486686e-22
1.6949910032886e-25
2.3511493100365e-28
2.8920284257802e-31
3.2458510114017e-34
3.4077186248051e-37
3.4208114520421e-40
3.3484384528379e-43
3.2538126997892e-46
3.192664330655e-49
3.2169267382877e-52
3.3871580760848e-55
3.8020136486493e-58
4.6392454219961e-61
6.2130346348928e-64
9.1048324560296e-67
1.7031041512329e-70
2.3709760939404e-72
3.2714191984811e-74
4.4474010134012e-76
5.9266430776466e-78
7.7278788410464e-80
9.8516839661868e-82
1.2264662513673e-83
1.4897747127079e-85
1.7661119761761e-87
2.0556791139546e-89
2.3677532359178e-91
2.7425162593188e-93
3.3137373895373e-95
4.2980774007232e-97
6.0552076524719e-99
9.5544125566941e-101
1.7703686585809e-102
4.0251933339585e-104
1.1829294968346e-105
4.9258129119159e-107
3.3171833697634e-108
2.8191719012212e-109
2.5014908930675e-110
2.2355745700196e-111
1.9739654560315e-112
1.7019799674504e-113
1.3326032147046e-114
9.0369750593867e-116
5.511671129473e-117