/*--------------------------------*- C++ -*----------------------------------*\
| =========                 |                                                 |
| \\      /  F ield         | OpenFOAM: The Open Source CFD Toolbox           |
|  \\    /   O peration     | Version:  2312                                  |
|   \\  /    A nd           | Website:  www.openfoam.com                      |
|    \\/     M anipulation  |                                                 |
\*---------------------------------------------------------------------------*/
FoamFile
{
    version     2.0;
    format      ascii;
    arch        "LSB;label=32;scalar=64";
    class       volScalarField;
    location    "2e-05";
    object      Ybar.Liq;
}
// * * * * * * * * * * * * * * * * * * * * * * * * * * * * * * * * * * * * * //

dimensions      [0 0 0 0 0 0 0];

internalField   nonuniform List<scalar> 
109340
(
0.99892923137273
0.99889272303845
0.9988347895648
0.99875378496848
0.99864756777799
0.99851087666299
0.99833682266223
0.99811840337794
0.99784373327309
0.99749260668923
0.9970461871947
0.99647930932845
0.99575956482725
0.9948453866312
0.99368339642395
0.99220486810982
0.99032095720451
0.98791609773436
0.98483879372343
0.98088415028521
0.97578917042878
0.96919474731965
0.96062507522007
0.94945203528946
0.93487483251103
0.91594980744533
0.8918740138483
0.86183140059087
0.82435505948275
0.77866409844791
0.7249200872549
0.66437365839754
0.59996459989819
0.53499501556905
0.47286036305034
0.4160130190951
0.99892267970665
0.99888125439631
0.99881769542008
0.99873200908058
0.99862023045219
0.99847700830801
0.99829570097851
0.99806562366955
0.9977733571564
0.99740194223177
0.99693026839277
0.99633147380353
0.99557118191934
0.99460531345168
0.9933772591369
0.991814029077
0.9898211736756
0.9872756254088
0.98401569693891
0.97982227584486
0.97441295495268
0.96740374962151
0.9582841501994
0.9463820702788
0.93084851543166
0.91069430767702
0.88493949238921
0.85282587215495
0.81323967119541
0.7654091986716
0.70980327880943
0.64803273016932
0.58329782441824
0.51885124243994
0.45798617826897
0.40275326831727
0.99892549217896
0.99888247387643
0.99881968909182
0.99873593916872
0.99862669663565
0.99848603422043
0.99830617533559
0.99807725933571
0.99778647911538
0.99741731871311
0.99694871630033
0.99635386257473
0.99559850860054
0.99463876827527
0.99341829110401
0.9918644672142
0.98988331489233
0.98735239435115
0.98411053004589
0.97994055855021
0.97456024529372
0.96758720636656
0.95851199121051
0.94666053535078
0.9311763895799
0.91104129257822
0.88516830786699
0.85253480322854
0.81234989191447
0.76432613558392
0.70863014427374
0.6469783947214
0.58245685429701
0.51829901069715
0.45773453054408
0.40273085051097
0.99892978734039
0.99888656368376
0.99882538913861
0.99874314290801
0.99863559230833
0.99849682758295
0.99831912322521
0.99809255602856
0.99780448004365
0.99743866376136
0.99697427501988
0.99638467050913
0.99563573931322
0.99468372536482
0.99347235425268
0.99192904440181
0.98995972487512
0.98744180427416
0.98421313086774
0.98005692869729
0.97468865414645
0.96772354646017
0.95864806833218
0.94677838928518
0.93124185750761
0.91099375919249
0.88489376971217
0.8518378165569
0.81099213944972
0.76209913218851
0.70590835214583
0.64419632351911
0.58010210877541
0.51646345017732
0.45643913116991
0.40178672071842
0.99893840105164
0.99889507141938
0.99883314788488
0.99875180835293
0.99864621048489
0.99851013345141
0.99833564539565
0.99811263954377
0.99782825036852
0.99746593002853
0.99700445261607
0.99641640504545
0.9956663904744
0.99470861114629
0.99348366126547
0.99191436370091
0.98989909420776
0.98730518442004
0.98395510191585
0.9796148346873
0.97396943241196
0.96659588874997
0.95692937898971
0.94421750223519
0.92751718577802
0.9057368924909
0.87774385076334
0.84259495014708
0.79978766111301
0.74960281713163
0.69325419255633
0.63244847681647
0.56973891284554
0.50793740160764
0.44971282274517
0.39668673303596
0.99895457543725
0.99890511167833
0.99884148014905
0.99875604863467
0.99864201411629
0.99849077987529
0.99829113594187
0.9980283050178
0.99768271992303
0.99722844892702
0.99663104243056
0.99584480197809
0.9948091500469
0.99344387892797
0.9916429506409
0.98926634278488
0.98612895727775
0.98198597503509
0.97651186398465
0.96925889657123
0.95962270335053
0.9467998920184
0.92974512376315
0.90714313337816
0.87764316130379
0.84060951754267
0.7965031839036
0.74664969453854
0.69259346830617
0.63552145931483
0.57715224110895
0.51936826110155
0.4634103796645
0.41050621131467
0.36125334414215
0.31676418051721
0.36554632824947
0.32170462742977
0.28438388563913
0.24912848601885
0.21028134498633
0.16562818005302
0.12169462701738
0.085916203141152
0.059585423808116
0.042069290794351
0.030110196136738
0.021936786310467
0.016371811555908
0.012492959549683
0.0096939124409796
0.0076207333708331
0.0060840267417686
0.0049272170423224
0.0040358556334719
0.0033363687952011
0.0027840674234619
0.0023442040722163
0.0019893312760381
0.0016993937161404
0.0014609235805782
0.0012638836288603
0.0010999344397392
0.00096211465953869
0.00084505780488573
0.00074503373536604
0.00065935136565963
0.00058590877241414
0.0005226648246952
0.0004671865409806
0.0022977995488895
0.0029957101787266
0.0015304873774522
0.0022176587718345
0.0033920922007985
0.0049047918272219
0.0064258817881296
0.0075562450264805
0.0081082711666029
0.0081180356830988
0.0077116116081924
0.0070327143765009
0.0062058789175959
0.0053136604511154
0.0044698536357671
0.0037627907334338
0.0032343407001179
0.0028813509596087
0.0027018633947787
0.0027560234258719
0.0030251459913306
0.0034198954612641
0.0036149892446697
0.0036977977984613
0.0036626500840478
0.0035989754083262
0.0035293453484748
0.0034632193601653
0.0034169563807214
0.0033867008807859
0.003361526195006
0.0033244123259679
0.0032741054154581
0.0032134414686342
0.0031471434718494
0.0030812999771265
0.0030168487438945
0.0029551228272577
0.0028961714175126
0.002841982754202
0.002799093000087
0.0027584786633281
0.0027309371490315
0.002719470361096
0.002765575813329
0.0028503716492466
0.002608058957175
0.0012735663628157
0.00023795562749505
1.0633871832824e-05
3.7058251699667e-08
2.0847246176132e-10
7.0811112787694e-13
1.6196342398798e-15
2.7082097098723e-18
3.528800629463e-21
3.7738469957204e-24
3.4592075989539e-27
2.8192453527622e-30
2.1079412366307e-33
1.4856123870969e-36
1.0105364648029e-39
6.7757312471223e-43
4.5659027437902e-46
3.15035470599e-49
2.268442943621e-52
1.7387770142479e-55
1.4433918060442e-58
1.3116187327408e-61
1.3047886280938e-64
5.5006318053246e-68
5.420266748028e-70
5.4164340004871e-72
5.4487547176999e-74
5.4856096685366e-76
5.502958852224e-78
5.4809775825828e-80
5.4068351029899e-82
5.2725901779594e-84
5.0699268014822e-86
4.8051684777282e-88
4.4993627623472e-90
4.2125079104801e-92
4.1019582050381e-94
4.3377378323234e-96
5.0365330165381e-98
6.4318993046652e-100
9.2097542336868e-102
1.5290679024805e-103
3.0741492323496e-105
7.9768263544136e-107
2.9336590588199e-108
1.3287333110242e-109
6.3254177498664e-111
3.2035551753559e-112
1.7464575174644e-113
1.0271126036812e-114
6.1022077793293e-116
3.3861802496014e-117
1.7787962177029e-118
9.1943337361389e-120
4.7758825618779e-121
2.6107117107627e-122
1.5670198025296e-123
9.7443900975479e-125
6.2587431219724e-126
0.35417750324877
0.31219351994956
0.27241286738395
0.22938632494959
0.18335896326431
0.13953084884307
0.10231363009684
0.073393669922761
0.052051736835705
0.037241401151387
0.027088347599178
0.020055446434503
0.015103840401465
0.011576337121755
0.00902852973945
0.0071549228553828
0.0057433652710294
0.00466276070208
0.00382907874862
0.003177430665734
0.0026600562182834
0.0022446764205019
0.001908409564893
0.0016336819036668
0.0014073208116991
0.0012193521235937
0.0010620714320394
0.00092960480128726
0.00081736135894834
0.00072162984070632
0.00063955246962777
0.00056882858482594
0.00050779876345039
0.00045298181585015
0.0030762724825865
0.0026100413965252
0.0016011875285059
0.0023955197794744
0.0036519989101592
0.0052509744112058
0.0067756266943885
0.0077904112491328
0.0082089965492579
0.0080873089457281
0.0075935450792867
0.0068517948120976
0.0059841776179359
0.0050930619851748
0.0042835457736479
0.003627748035917
0.0031568435147559
0.0028552862613972
0.0027577782318431
0.0028774772949161
0.0031898549727452
0.0035245529722545
0.0036752282842147
0.0037246758550251
0.0036828058910145
0.0036211831992409
0.0035550488939855
0.0034977565103917
0.0034568492194636
0.0034272518773188
0.0033967620592722
0.0033546743692846
0.0032996907816948
0.0032322622986903
0.0031603843782588
0.0030878217405796
0.003015222819475
0.0029318555290239
0.0028390878214197
0.0027377255230785
0.0026313859177965
0.0025264020290865
0.0024364492330893
0.0023818818411676
0.0024194100889558
0.0025313590817284
0.0021499513747681
0.00083373291957148
0.00010415322884343
3.0533937138333e-06
2.9357613340803e-08
1.6223111859486e-10
5.4864331429213e-13
1.2572942284803e-15
2.1123716434968e-18
2.7707923277607e-21
2.9880153367964e-24
2.7664544260783e-27
2.2810687609256e-30
1.7281325113754e-33
1.2356569746005e-36
8.5359350987869e-40
5.8161847989917e-43
3.9840363947816e-46
2.7943059257475e-49
2.0448114887299e-52
1.5921906729804e-55
1.3421825969838e-58
1.2375355694978e-61
1.245570531109e-64
5.2745267762169e-68
5.1896216777128e-70
5.1719987681898e-72
5.1835402746676e-74
5.1945487209697e-76
5.1840202356633e-78
5.1356615333373e-80
5.039612631499e-82
4.8899636134364e-84
4.681011902956e-86
4.422619615137e-88
4.1384353321432e-90
3.8784646963275e-92
3.7711977356342e-94
3.9622182476458e-96
4.5583655277899e-98
5.7774598056339e-100
8.2476674179361e-102
1.3715903627065e-103
2.7684552144319e-105
7.2100222297903e-107
2.6561760523286e-108
1.2075967808411e-109
5.7880294836906e-111
2.9512927987901e-112
1.619988878486e-113
9.5878879138753e-115
5.7247068822812e-116
3.1885479765447e-117
1.6797384935411e-118
8.693746560193e-120
4.5208036767579e-121
2.4735533173111e-122
1.486752225291e-123
9.273517793714e-125
5.9744446106266e-126
0.35419813094912
0.31025619721429
0.26123015849171
0.2075006217095
0.15848288379096
0.11881427176029
0.088556034787905
0.065402855462779
0.047912097050143
0.035069251665449
0.025823099667013
0.019285230085088
0.01461991070928
0.011270555746085
0.0088261120231366
0.0070138065235042
0.0056383816398985
0.0045909915355016
0.0037773820235267
0.0031376296604099
0.0026291696166354
0.0022215877403466
0.0018910335804913
0.0016202208180858
0.0013965388678362
0.0012103992432978
0.0010546101088457
0.00092343743071048
0.00081228719462452
0.00071747879238328
0.00063617790059298
0.00056617738505077
0.00050575931384113
0.00045252538424414
0.0023129537960712
0.0023718089764859
0.0015847863460055
0.0022378229768737
0.0034869284782872
0.0051524799301928
0.0067326349595212
0.0077401319944861
0.0081529857854713
0.0080163188526932
0.0075112510311344
0.0067623581968253
0.0058891142197496
0.005002286430482
0.0042264116077707
0.0036141726454917
0.0031725228458996
0.0028972347122783
0.002827873970171
0.0029638812806807
0.0032476498635879
0.0035407663524076
0.0036834547345862
0.0037330423797889
0.0036921912736535
0.003634816248134
0.0035736911078635
0.0035189742513672
0.0034767695374257
0.0034388803893249
0.0033999258677673
0.0033481009727351
0.0032691760462539
0.00316170982979
0.0030200210738148
0.0028339583571
0.0026023078590652
0.0023376660902213
0.0020695811953635
0.0018244269235869
0.0016212355795703
0.001472050476314
0.0013858908704278
0.0013769206813003
0.0014771710710331
0.0017958120683684
0.0017321019630084
0.00068370043286238
7.7822612704027e-05
2.0808654175532e-06
1.8322741179207e-08
9.7829634072777e-11
3.2440404928271e-13
7.3616805766187e-16
1.2323465864508e-18
1.6171787111336e-21
1.749759300849e-24
1.6288752733521e-27
1.3526483815208e-30
1.0334124814764e-33
7.4595185778344e-37
5.2068426002836e-40
3.5877079817777e-43
2.4869238546227e-46
1.7661962838784e-49
1.3092555743493e-52
1.0327864679775e-55
8.8359384018612e-59
8.2801774456899e-62
8.4681932254491e-65
3.6384278581957e-68
3.6036150017744e-70
3.6171003172803e-72
3.6523828922023e-74
3.687174355339e-76
3.7055636574643e-78
3.6952479728659e-80
3.6483987426993e-82
3.5601535319757e-84
3.4275392706268e-86
3.2617920050779e-88
3.0853247246468e-90
2.9310703799956e-92
2.8784667705178e-94
3.0223262533339e-96
3.4395427962113e-98
4.3129817738059e-100
6.1693008852901e-102
1.0415492329842e-103
2.1425168292992e-105
5.6580508265377e-107
2.1051472033751e-108
9.7028320641539e-110
4.7349464071698e-111
2.4560872560622e-112
1.3705631300502e-113
8.2319627334107e-115
4.9701626400522e-116
2.7907019158967e-117
1.4789247767052e-118
7.669914534734e-120
4.0016270397858e-121
2.1938367334927e-122
1.3217969898604e-123
8.2987906105117e-125
5.380185274315e-126
0.35333139518641
0.29795536150804
0.23046365068983
0.17057098786399
0.12723707434795
0.096236523086449
0.07359567817423
0.05613649821227
0.04246459707749
0.031975190076971
0.024081611694606
0.018246685554445
0.013977467709417
0.010854100031959
0.008544954374227
0.0068164086914575
0.0055127205269481
0.0044990243628404
0.0037047458736019
0.0030858940118482
0.0025908440158012
0.0021918510085051
0.0018675134898218
0.0016016174542756
0.0013818658296213
0.0011988119303043
0.0010453255555357
0.00091585064135524
0.00080599921555358
0.00071235645813038
0.00063202534592766
0.00056288960295263
0.00050290198855518
0.00045063048317455
0.001098711053119
0.0020787402665033
0.0014971714180734
0.0020483436588306
0.003284061024198
0.0049636894152179
0.0065656661889019
0.0075741171626584
0.007993128633789
0.0078661781876469
0.007342060636336
0.0065896232406301
0.0057055840586323
0.0048508155074283
0.0041286659256693
0.0035657877446894
0.0031805833667356
0.0029587963291761
0.0029253298013467
0.0030629374165147
0.0033048181468646
0.0035450466415027
0.0036728079925342
0.0037151581562359
0.0036767196696941
0.0036223182087417
0.0035638359386453
0.0035068486904706
0.0034505745456474
0.0033810076897757
0.0032725313189031
0.0030923416023792
0.0028122104985793
0.0024360028575013
0.0020203109977379
0.0016378957082183
0.001331113313025
0.0011051981024776
0.00094806678639285
0.00083883185453747
0.00076510398616486
0.00072159219141353
0.00071137149945964
0.00074321992145327
0.00085995281916663
0.0012132848980104
0.0012768255308318
0.0004999729490499
5.028584488291e-05
1.1464900120261e-06
8.8090517784699e-09
4.4943176843505e-11
1.4530279765475e-13
3.2556029629462e-16
5.426967819225e-19
7.1339385716735e-22
7.7647307951745e-25
7.2934345571241e-28
6.1247622157591e-31
4.7397031193949e-34
3.4697297740425e-37
2.4585046374186e-40
1.7208168758557e-43
1.2123957814088e-46
8.7554840692064e-50
6.6020954237709e-53
5.2992534919674e-56
4.6164590876534e-59
4.4095501768695e-62
4.5995252241031e-65
2.013459907755e-68
2.0117063142607e-70
2.0383935228186e-72
2.0790107030207e-74
2.1201996585208e-76
2.1521981806847e-78
2.1673743431462e-80
2.1604713535042e-82
2.1279256800714e-84
2.0677215537835e-86
1.9873363382697e-88
1.9014884516781e-90
1.829555177794e-92
1.8175186769777e-94
1.9227823568242e-96
2.1969995138204e-98
2.7672011073736e-100
3.9925009671945e-102
6.8341156351628e-104
1.4322780050594e-105
3.8668813264515e-107
1.4744687077643e-108
6.9646502937775e-110
3.4878560830695e-111
1.8579798134058e-112
1.063837765518e-113
6.5359164055872e-115
4.0133675397782e-116
2.2805921221811e-117
1.219403400234e-118
6.3627881590631e-120
3.3365223208462e-121
1.8371400718474e-122
1.1125959960724e-123
7.0287882194021e-125
4.585796701119e-126
0.34087922044391
0.2472726890645
0.17146018229229
0.12447885149211
0.095813997563045
0.074863227185758
0.059155208806833
0.046724577158456
0.036592505354017
0.028392233589321
0.021945417492029
0.016968533867338
0.013191693526974
0.010342038807617
0.0081953333002894
0.0065734860405127
0.0053325675360979
0.0043741756360182
0.0036238567858743
0.003018551186717
0.0025391212265822
0.0021530716863471
0.0018375609711312
0.0015780663948806
0.0013632946038393
0.0011840561915148
0.0010336084403064
0.00090650943779134
0.00079843652875687
0.00070612750146442
0.00062687873893297
0.000558492702295
0.00049906654537283
0.00044765411626748
0.00047738034673575
0.0018991503728694
0.0013681917970764
0.0018434120793286
0.0028780527079745
0.0042344889675876
0.0059557038438882
0.007273011861524
0.0077650173755533
0.0076639525399075
0.0071095451878767
0.0063163900713741
0.0054421733525654
0.0046443452260375
0.0040047724695467
0.0035218142648868
0.0032003609528096
0.0030438587370214
0.0030415397013787
0.0031678959829733
0.0033584372313091
0.0035387751863545
0.0036440508819188
0.0036697022280277
0.0036257287279794
0.0035596630042745
0.003480014019544
0.0033745043488958
0.0032108813794082
0.0029372588926441
0.0025164952421249
0.0019993106835373
0.0015160430848199
0.0011445460851031
0.00088989533098081
0.00072120665048221
0.00060678653833903
0.00052779085213973
0.00047310492879542
0.00043655969196495
0.00041528918017177
0.00040984330683936
0.0004236871203816
0.0004704515402086
0.0005930661694092
0.0009122408241973
0.00091845823568517
0.00032415032042266
2.8005988711321e-05
4.8709084233787e-07
3.2568689691633e-09
1.5844231217501e-11
4.9905020263421e-14
1.1049576241629e-16
1.8380070465155e-19
2.4275044766903e-22
2.6675988705785e-25
2.5387954404874e-28
2.1657587238874e-31
1.7057848019738e-34
1.2727190791687e-37
9.200776688236e-41
6.5756953228828e-44
4.7332340421346e-47
3.4937476516626e-50
2.69368287477e-53
2.2115286036285e-56
1.9715496622193e-59
1.9282584300093e-62
2.0602487495958e-65
9.2341279572308e-69
9.3321711206832e-71
9.5700673198028e-73
9.8828179215952e-75
1.0205311311104e-76
1.0488474698668e-78
1.0692850563568e-80
1.0788689013156e-82
1.0753743735816e-84
1.057343377705e-86
1.0283126657379e-88
9.9587518339749e-91
9.7047836894639e-93
9.7696987082556e-95
1.0469638497303e-96
1.210836418339e-98
1.5437218901266e-100
2.2576295870728e-102
3.9292503030523e-104
8.4117217001382e-106
2.3333770658729e-107
9.2037744489027e-109
4.4973875540047e-110
2.3321467060063e-111
1.2873208697294e-112
7.6243927995404e-114
4.8225475434763e-115
3.0256562944145e-116
1.7455116620871e-117
9.43626319063e-119
4.9647236084159e-120
2.6210285088584e-121
1.4518395813576e-122
8.8526244932351e-124
5.6324248736503e-125
3.7002841807855e-126
0.18600576128247
0.12450457606577
0.10088059564753
0.082941790359473
0.068196716947583
0.056151502286636
0.046211016331588
0.03791597425378
0.030815280246455
0.024707761522616
0.019601443805874
0.015490579921984
0.012254065838332
0.0097431623366835
0.0078015582441803
0.0062978203299134
0.0051300210258155
0.0042206509891969
0.0035077183129418
0.0029403599980829
0.0024803224694867
0.0021058945491049
0.0018009959870157
0.0015500909490061
0.0013413101201605
0.0011665998361921
0.0010196818330746
0.00089520334968733
0.00078924472815581
0.00069852993325837
0.00062053482128084
0.00055311100861441
0.00049483289689072
0.00044390439627128
0.00040442487707319
0.0018628898090442
0.0013738127933279
0.001815524786554
0.0025357423049942
0.0032710569298305
0.0043575252111441
0.0063298696329313
0.0074160993956673
0.0074130016749288
0.0067943748891974
0.0059559976460067
0.005102155015143
0.0044016011520262
0.0038702309979928
0.0034876758864514
0.0032428214079592
0.003143334871979
0.0031564272188761
0.0032575853357202
0.0033930408297661
0.003508980621016
0.0035617866936789
0.0035387040699138
0.0034472443719806
0.0033040874210772
0.0030877882719867
0.0027465960088514
0.0022577282752616
0.0017054075078758
0.0012296008097586
0.0008911248603322
0.00067018806009684
0.00052665025015761
0.00043139670260959
0.00036682770525248
0.00032268554571597
0.00029289043858605
0.00027390831930499
0.00026410542757986
0.00026312997875604
0.00027297836325992
0.00029924604455712
0.00035726212879669
0.00049057081882535
0.00073447459652992
0.00063750834302962
0.00018463747969566
1.3151890895653e-05
1.4969345054889e-07
9.2730841139193e-10
4.3136268954324e-12
1.3276461156157e-14
2.9146697443141e-17
4.8562726570669e-20
6.4707222622994e-23
7.2111890463847e-26
6.9863520424479e-29
6.0836988299531e-32
4.9010924739548e-35
3.7458625582017e-38
2.7768875826541e-41
2.0366903701885e-44
1.5053300566181e-47
1.1413753031847e-50
9.0422563276479e-54
7.6300808055396e-57
6.9937937315242e-60
7.0367148098328e-63
7.7369451379113e-66
3.5780969952237e-69
3.6799637268261e-71
3.8418569719071e-73
4.0387576191632e-75
4.2438144048662e-77
4.4359701928297e-79
4.5974331161714e-81
4.7132775962044e-83
4.7711422065166e-85
4.7617199982749e-87
4.6989004142792e-89
4.6159169993435e-91
4.5626157595476e-93
4.6631455864582e-95
5.0783586129274e-97
5.9702962192726e-99
7.7402295910755e-101
1.1521491143356e-102
2.0448108021848e-104
4.480181265343e-106
1.2798356071273e-107
5.243798361675e-109
2.6644195224674e-110
1.4388080136774e-111
8.2747536510545e-113
5.0929868399847e-114
3.3282358747219e-115
2.138848591112e-116
1.2548696930352e-117
6.8659259141147e-119
3.6459464409641e-120
1.9395306550085e-121
1.0814634682656e-122
6.6478058177969e-124
4.2661783001921e-125
2.825452671178e-126
0.0085164631196096
0.036790203207334
0.048283993709112
0.050687314343749
0.047480046938742
0.042410522100742
0.036779343227445
0.031445152303986
0.026556887945956
0.022122548476639
0.018140902838605
0.01469544185061
0.011844755365096
0.0095478164177328
0.0077276240270468
0.0062921765802194
0.0051586769814084
0.0042593352795473
0.0035384879021245
0.0029668305985895
0.0025073689407293
0.0021339603238991
0.0018276417423343
0.0015737929756658
0.0013621489157898
0.0011850128437073
0.0010361523228851
0.00091014088637052
0.00080272005851612
0.00071062990716318
0.00063130380064034
0.00056282526565065
0.00050315667530376
0.00045123545519222
0.0004053579914649
0.00073545470728616
0.0018351741343925
0.0021256647426831
0.0026171168721713
0.0031958420922128
0.0037510557610052
0.0044500674714716
0.0058760201283471
0.0071184172250893
0.0065636170747898
0.0056831668424796
0.0048540815295142
0.0042401538881122
0.0038034775950349
0.0035013368153438
0.0033093819942889
0.0032244369032718
0.0032211607625096
0.0032762994229343
0.0033397335860649
0.0033700749804114
0.0033260874682392
0.0031896122051104
0.0029458877083273
0.0025971306635932
0.0021417730619348
0.0016351387469626
0.0011807205121852
0.00084116831842534
0.00060928758050398
0.00045712807743252
0.00035763451350396
0.00029198161485674
0.00024818669219172
0.00021899919750349
0.00019997730250779
0.00018853929802423
0.00018334878761005
0.00018383850632082
0.00019078404176454
0.00020648323485249
0.0002365457910667
0.00029436090309547
0.00041154634492899
0.00057768712792951
0.00048745553374067
0.00014923268281203
1.1920537024315e-05
1.5585338423854e-07
2.0453047658518e-10
9.1829808426653e-13
2.7801765997069e-15
6.0851030650564e-18
1.0206240380855e-20
1.3785999876657e-23
1.5654538530569e-26
1.5512145332e-29
1.3854030420299e-32
1.1469948750028e-35
9.0221805849808e-39
6.8906292885676e-42
5.2105482185234e-45
3.9725330196739e-48
3.1080832640228e-51
2.5414552173259e-54
2.2138633664533e-57
2.0952715046261e-60
2.1772448957426e-63
2.4758479099656e-66
5.8592396014777e-70
6.1295335818553e-72
6.5159840604814e-74
6.9792625240762e-76
7.4748605832993e-78
7.9669529641195e-80
8.4228602345841e-82
8.8109396641035e-84
9.1015135376555e-86
9.2689613218759e-88
9.3338952082213e-90
9.3564499375389e-92
9.4434602199981e-94
9.8785062291177e-96
1.1038312037561e-97
1.3338929112371e-99
1.7820883319765e-101
2.7427050839546e-103
5.054549559743e-105
1.1585698893714e-106
3.5104082782653e-108
1.5594756253309e-109
8.6563710480566e-111
5.1380490013854e-112
3.2496382008582e-113
2.1813160100584e-114
1.5310851212604e-115
1.0362062228774e-116
6.3037074110595e-118
3.538223254761e-119
1.916199942578e-120
1.0359678736257e-121
5.8595678014191e-123
3.6688567443167e-124
2.4007871978992e-125
1.6190222798506e-126
0.00056012555133753
0.00897571547787
0.013258014277676
0.016734716492951
0.01914435285166
0.020048529825252
0.019472536597826
0.018136980070508
0.016454275088945
0.014597624454754
0.012684286733543
0.01080941853848
0.0090834988820981
0.0075745778124972
0.0062995465704158
0.0052454535187832
0.0043833920553589
0.0036822286951953
0.0031110990937468
0.0026410199674645
0.0022527405707266
0.0019314316104463
0.0016638269790223
0.0014389446270958
0.0012514815204485
0.0010943381547712
0.00096144347909747
0.00084807420885297
0.00075086474365793
0.0006671316141408
0.0005945821662759
0.00053156657910682
0.00047668095996438
0.00042888335221847
0.00038615507870777
0.00051527985342404
0.0042913753101362
0.0042383981796779
0.0043311530426329
0.0045019555064789
0.0046670329195838
0.0047904132834015
0.0047012300742947
0.0048564546534025
0.0045466081051465
0.0038073367657451
0.0033793112103127
0.0031754809296475
0.0030675995231506
0.0030035949492893
0.002950371090347
0.0028942312479133
0.002805103123562
0.0026457851529781
0.0023862996768305
0.0020295307865327
0.0016314675264538
0.0012564728841043
0.00094038954488258
0.00068911607457262
0.00049984231027222
0.00036366438749021
0.00026983284007647
0.00020714373218826
0.0001659981711046
0.00013939628299531
0.00012257260601516
0.0001124472374226
0.00010712395963691
0.00010550345926352
0.00010699167721003
0.00011159805359536
0.00011972760749236
0.00013245828693749
0.00015193791653367
0.00018221201429683
0.00023044889407074
0.00030442084377959
0.00036530407564243
0.00029448416170691
0.00010840285151193
1.287301459443e-05
3.2471916212405e-07
7.9567100927476e-10
4.8868452650643e-12
2.1397329529227e-14
6.451786850894e-17
1.4333368177189e-19
2.4778390052558e-22
3.490918799875e-25
4.1723748667906e-28
4.3815394238783e-31
4.1682480650825e-34
3.6895555302019e-37
3.1110664881474e-40
2.5517572193447e-43
2.0748365765683e-46
1.7022917767558e-49
1.4339478220605e-52
1.2627505263905e-55
1.1849602592854e-58
1.2085370090224e-61
1.3525359583507e-64
1.6552625181536e-67
3.6144748802175e-71
4.066667182998e-73
4.6262270049677e-75
5.2766480124193e-77
5.9901387181948e-79
6.7399670288745e-81
7.4963930954179e-83
8.2233073459221e-85
8.8809769553693e-87
9.4308603711615e-89
9.8833660471103e-91
1.0292331611707e-92
1.0785605913799e-94
1.1736204695441e-96
1.3667180914003e-98
1.7236168680349e-100
2.4109924930906e-102
3.9033455047525e-104
7.6091049348454e-106
1.8605255058039e-107
6.1118978868798e-109
3.025874620043e-110
1.8900274750034e-111
1.2678373353396e-112
9.0005119712588e-114
6.6678313946856e-115
5.0563018763758e-116
3.6159849475161e-117
2.2889280344434e-118
1.3225605265968e-119
7.331647921456e-121
4.0404626659224e-122
2.325219639062e-123
1.4920844602862e-124
1.0022602219879e-125
6.9204913464096e-127
3.4143736003248e-05
0.0048018636204719
0.0058798103011438
0.0070067739845089
0.0086922926054867
0.0099717033663675
0.010685578297571
0.01077847356265
0.010426919642911
0.0097687880372982
0.0089470562348074
0.0080229137112004
0.0070524903931049
0.0061080866439692
0.0052393092991185
0.0044725171087998
0.0038121592476525
0.0032518114819654
0.0027814621265213
0.0023883724017411
0.0020601046132448
0.0017850758733918
0.0015524996806704
0.0013546634204056
0.0011856837631714
0.0010411357027723
0.0009174750916174
0.00081157179663727
0.00072053429629039
0.00064196089391729
0.00057354499319476
0.00051388613804301
0.00046169076401979
0.00041483450761697
0.00053118603925513
0.0021456847931327
0.0025487836062653
0.0029276647951094
0.0032941792723966
0.0036049328938231
0.0037940183316298
0.0037390511017245
0.0033413502999615
0.0027360423949986
0.0021295219781538
0.0017934792742329
0.0016668560484091
0.0016316991080011
0.0016235292552241
0.0016023951457554
0.0015463081969138
0.0014400359972508
0.0012804388190066
0.0010811161354485
0.00086886189148794
0.00066962855822995
0.00049940873984325
0.00036423177184869
0.00026354621758621
0.00019296481589694
0.00014544658435811
0.00011398839830965
9.3642718971157e-05
8.0998134711453e-05
7.3688989576834e-05
7.0153557180195e-05
6.9394224371542e-05
7.0820704631303e-05
7.4197842619385e-05
7.9487724449628e-05
8.6876270478266e-05
9.6836781731536e-05
0.00011017679323964
0.00012814359911823
0.00015236107046507
0.00018377587336476
0.00021741109932121
0.00022674531279426
0.000172949216649
7.4558597451215e-05
1.3441873577606e-05
7.2552031812332e-07
4.362602377388e-09
7.7411630700427e-12
5.1341440664994e-14
2.3577244180444e-16
7.392369948985e-19
1.7160908814943e-21
3.1247177186085e-24
4.6738158191871e-27
5.9715837217158e-30
6.7406233391483e-33
6.9217546080318e-36
6.6339689024323e-39
6.0701885695735e-42
5.4108239478968e-45
4.7856298881205e-48
4.2731144359202e-51
3.9182897190672e-54
3.7557706961579e-57
3.8370139186195e-60
4.2610025465159e-63
5.192408347525e-66
6.9227078886849e-69
1.3951500649157e-72
1.7203143351107e-74
2.1311034833636e-76
2.6302720855379e-78
3.2119149649881e-80
3.8672846764434e-82
4.5819277423598e-84
5.3316057716056e-86
6.0838946799772e-88
6.8034534057745e-90
7.4908488565336e-92
8.1799380395848e-94
8.9844711783673e-96
1.0268247863523e-97
1.2579997573337e-99
1.6714382967988e-101
2.4737548799267e-103
4.2646690486364e-105
8.9232547932543e-107
2.3706019590181e-108
8.6500534204132e-110
4.9165680951507e-111
3.5465701306455e-112
2.7311694194028e-113
2.1839956352459e-114
1.7769545084592e-115
1.4447105446112e-116
1.0851079039308e-117
7.1238759658198e-119
4.2326905904449e-120
2.4019892100051e-121
1.350214375476e-122
7.9227285420528e-124
5.2256490942939e-125
3.6092810922878e-126
2.554009442901e-127
7.0725872900581e-06
0.00062788887709504
0.0048322418509864
0.0046723954433566
0.0046048722768717
0.0052711598467677
0.0060722952278258
0.0065333133438248
0.0066855666559845
0.0065777674497113
0.0062861234815502
0.0058690198330606
0.0053607321246792
0.0048134576730284
0.004258127431715
0.0037310623454801
0.0032506322178917
0.0028242764161403
0.0024520044263897
0.002131261298016
0.0018561911948776
0.0016208583740661
0.0014200411733699
0.0012495676783605
0.0011032389343364
0.00097571216732161
0.00086577248195713
0.00076994023718163
0.00068648067767177
0.00061390101214598
0.00054935371184488
0.00049314388949091
0.00044288090253699
0.00083324123656591
0.0021717176660876
0.0025291096685473
0.0028466212074334
0.0031353892071158
0.0033756215264844
0.0034613763096255
0.0032005311265192
0.0025128788074214
0.0017402833750629
0.0012136920244897
0.00092460019394526
0.0007807705579294