/*--------------------------------*- C++ -*----------------------------------*\
| =========                 |                                                 |
| \\      /  F ield         | OpenFOAM: The Open Source CFD Toolbox           |
|  \\    /   O peration     | Version:  2312                                  |
|   \\  /    A nd           | Website:  www.openfoam.com                      |
|    \\/     M anipulation  |                                                 |
\*---------------------------------------------------------------------------*/
FoamFile
{
    version     2.0;
    format      ascii;
    arch        "LSB;label=32;scalar=64";
    class       volScalarField;
    location    "2e-05";
    object      yPlus;
}
// * * * * * * * * * * * * * * * * * * * * * * * * * * * * * * * * * * * * * //

dimensions      [0 0 0 0 0 0 0];

internalField   uniform 0;

boundaryField
{
    inlet
    {
        type            calculated;
        value           uniform 0;
    }
    outlet
    {
        type            calculated;
        value           uniform 0;
    }
    nozzleWalls
    {
        type            calculated;
        value           nonuniform List<scalar> 
144
(
36.480965923652
36.056571035424
35.615362091736
35.18021936771
34.757793937852
34.350418339961
33.95894213477
33.583828081967
33.225156159967
32.883364357242
32.559063910914
32.253040931704
31.966313308801
31.70019467993
31.456382261615
31.237051196921
31.044458490202
30.881122931251
30.74835167594
30.64913164506
30.589321570084
30.580536795498
30.631037043694
30.759723636127
30.995285665142
31.36578874253
31.880738978875
32.526595296789
33.263557675395
34.058258289845
34.903933781436
35.763211982443
36.595628794631
37.349680815559
37.982427324865
38.552467769145
36.725812719411
36.37974834322
35.946444380766
35.505614341986
35.073296346469
34.654484010261
34.251044514785
33.863631345505
33.492602410196
33.138105485755
32.800621250297
32.480810016299
32.179503870823
31.897794079426
31.637074892603
31.399153964681
31.186284693978
31.000798004191
30.844895348943
30.720267608776
30.630126848278
30.582326308511
30.586956839272
30.654995485261
30.80720837755
31.07448411613
31.481046776317
32.03109408744
32.703860598571
33.457363611884
34.265793252794
35.118991050682
35.975535977209
36.793262307696
37.522490390818
38.123949025801
36.575021099253
36.165983054986
35.725548799213
35.287953812337
34.862050319857
34.450783030745
34.05529440656
33.676082080006
33.313260641597
32.967199916614
32.63845890644
32.327782590925
32.036119229491
31.764708389996
31.515134871156
31.289453117174
31.089939090273
30.919096128674
30.778493104719
30.670612543736
30.600180243485
30.577722112675
30.611924571671
30.718899191425
30.924554689888
31.259590785474
31.738768000343
32.354710545343
33.073053911479
33.854524266305
34.68973058393
35.549330986057
36.392746246692
37.171075596717
37.841099523864
38.377263324753
36.659355430393
36.274070531437
35.836015150751
35.396444015335
34.96722809027
34.552140839313
34.152668107062
33.769351097034
33.402411499954
33.052117000901
32.718982068876
32.403711039634
32.10718995892
31.830584742361
31.575378252182
31.343492185193
31.137228300941
30.958975853743
30.810665142058
30.694329143948
30.613867867528
30.578417008236
30.597324165919
30.684163059292
30.861985450031
31.162541380855
31.605461890727
32.189327878323
32.886362771846
33.654528109198
34.476612726526
35.334321761938
36.185647580448
36.985296539034
37.70207108628
38.276798410279
)
;
    }
    tipWalls
    {
        type            calculated;
        value           nonuniform List<scalar> 
304
(
8.031314980455
1.6621553128869
0.98982850804913
0.71024888961845
0.52472099805356
0.39481726532077
0.30350073684238
0.2385770447606
0.19340935406371
0.1585888061245
0.12401585389155
0.084417001451147
0.029284932541408
0.06635723796692
0.090386897587892
0.10378554386712
0.11141497386654
0.11671060488669
0.12183916687245
0.12699046414092
0.13158776322957
0.13518354610436
0.13769164343778
0.13926447897861
0.14016246197231
0.14067366139092
0.14105204455335
0.14139626518095
0.14166301165688
0.14175012568579
0.14156665967747
0.14110276941732
0.14041865529589
0.13957530776816
0.13859992622105
0.13751202946115
0.13636258188434
0.13523196082699
0.13419616331501
0.13330583445213
0.13259493275137
0.13209692168442
0.1318574096148
0.13192353391742
0.13234634253983
0.1331357012958
0.13427381469535
0.13566492996019
0.13717251792089
0.13861369277423
0.1397689329252
0.14041997259371
0.14043299951126
0.13972339747725
0.13820123608402
0.13587886145524
0.13279009690312
0.12900263969636
0.12464939087491
0.11986985534985
0.11484214003637
0.10956383385255
0.10408577542871
0.098805112748484
0.096655633179061
0.18636154396039
0.1794589549406
0.17201652547628
0.16455104611525
0.15739964850036
0.15069319217832
0.14451779230442
0.13901372381581
0.13457725650748
0.13230159034564
0.13461595273185
0.14625185428043
0.2636566866484
0.26300737515364
0.26184463248384
0.2615355076819
0.26185355646155
0.2633159057515
0.26592130664867
0.26935202700999
0.27326064991255
0.2773171099613
0.28148325416456
0.28612467042868
0.29121454143077
0.29592558847103
0.30000493172425
0.30325258345376
0.30521424345918
0.30539239334609
0.30492167571577
0.29566999696194
1.5287626050555
1.2263494496442
0.82967213559023
0.60952631887694
0.45400931805648
0.34520858614773
0.26822927568124
0.21396611204874
0.17541000027715
0.14174122995788
0.10503447517878
0.05988004205466
0.045545097391872
0.080218200512683
0.098021368741229
0.10811090208875
0.1141615979555
0.11924862165682
0.1244481136478
0.1293933629969
0.13352403859218
0.13656773730303
0.13858005567211
0.13978021284228
0.14044714477886
0.14086942956513
0.14122853808562
0.14154519042476
0.14173472836321
0.14169535594997
0.14136668105049
0.1407839055239
0.1400144429549
0.13910326373939
0.13806790273443
0.13694016642481
0.13578966054446
0.13469864001124
0.13373048356176
0.13292605019433
0.13231683065392
0.13194139435974
0.13184905714524
0.13208846644392
0.13269666005969
0.13366586145175
0.13494224948157
0.13641631051507
0.13791385897734
0.13924353179596
0.14016716517188
0.14051222093472
0.14017764811088
0.13906358445217
0.13713849991056
0.1344271687465
0.13097727491008
0.12688561148026
0.1222987169157
0.11737759749147
0.11225827289758
0.10682880758225
0.10137206751446
0.096788730502531
0.098228196268754
0.18309833747918
0.17576781327059
0.16825765856571
0.16092552497798
0.15398569276431
0.14753452796647
0.14167192530524
0.13662994807326
0.13310148009888
0.132693628083
0.13850394280739
0.15118532143659
22.157340805545
1.8372864162824
1.0968530716488
0.76748783153583
0.56539242364864
0.42308600584764
0.32347287924862
0.25273187299118
0.20326655507126
0.16693095576273
0.13302125756858
0.09501679803155
0.045007735280123
0.057122876452422
0.085676917341494
0.1011090421777
0.10986364863612
0.11544571660317
0.12053762217498
0.12573297033944
0.130520591261
0.13438867147055
0.13716086804922
0.13894561412397
0.13998597939217
0.1405657488124
0.1409616994537
0.14131401172763
0.14160863879022
0.14174996913628
0.14164026034105
0.14124216576877
0.14060657206398
0.13979909005808
0.13885538327801
0.13779253431587
0.13665150803941
0.13550828668222
0.13444313437128
0.13351278714189
0.13275415507439
0.13219924180667
0.13189001776056
0.13187517014347
0.13220569273126
0.13290493211379
0.13396137710648
0.13529755551956
0.13679484485709
0.13827072117824
0.1395210118282
0.14031292255298
0.14049479807974
0.13997664713884
0.13865763752653
0.13653302389046
0.13363128776187
0.13000910898706
0.12578126200284
0.12109182575967
0.11611097725009
0.11091954354314
0.10545657656675
0.10005593035299
0.096284351840581
5.6784412683229
1.4023879203852
0.90069186958095
0.65766449626119
0.48777632666482
0.36892592051595
0.28512463128647
0.22569041793228
0.18418688530236
0.15023309631201
0.11469302125016
0.0729477141627
0.030745777669014
0.073863606222283
0.094470763678541
0.10610210372243
0.11283025573775
0.11797442703785
0.12314604608794
0.12821348071872
0.13258991218889
0.13590938395377
0.13816344059962
0.13954116190878
0.1403141611856
0.14077404312277
0.1411410246912
0.14147391601838
0.1417057424146
0.14173166228148
0.14147518593131
0.14094964849283
0.14022109052275
0.13934330508945
0.13833726171849
0.13722747186464
0.13607485990695
0.13496177098851
0.13395843941793
0.13311010157978
0.13244895158453
0.13201067758607
0.13184373768976
0.13199451461389
0.13251022767288
0.13338979713565
0.13460111160651
0.13603884716778
0.13754659475351
0.1389393304404
0.13998505893731
0.14048630665234
0.1403280092029
0.13941886069871
0.13769472705798
0.13517665911075
0.1319049008343
0.12796047614847
0.12348757706919
0.11863162658068
0.11356631541887
0.1081991620505
0.10272100713184
0.097681809325115
0.099178368066882
)
;
    }
    wedge1
    {
        type            wedge;
    }
    wedge2
    {
        type            wedge;
    }
    defaultFaces
    {
        type            empty;
    }
}


// ************************************************************************* //
