/*--------------------------------*- C++ -*----------------------------------*\
| =========                 |                                                 |
| \\      /  F ield         | OpenFOAM: The Open Source CFD Toolbox           |
|  \\    /   O peration     | Version:  2312                                  |
|   \\  /    A nd           | Website:  www.openfoam.com                      |
|    \\/     M anipulation  |                                                 |
\*---------------------------------------------------------------------------*/
FoamFile
{
    version     2.0;
    format      ascii;
    arch        "LSB;label=32;scalar=64";
    class       volScalarField;
    location    "0.0008";
    object      cSound;
}
// * * * * * * * * * * * * * * * * * * * * * * * * * * * * * * * * * * * * * //

dimensions      [0 1 -1 0 0 0 0];

internalField   nonuniform List<scalar> 
5000
(
347.6722595
347.6722595
347.6722595
347.6722595
347.6722595
347.6722595
347.6722595
347.6722595
347.6722595
347.6722595
347.6722595
347.6722595
347.6722595
347.6722595
347.6722595
347.6722595
347.6722595
347.6722595
347.6722595
347.6722595
347.6722595
347.6722595
347.6722595
347.6722595
347.6722595
347.6722595
347.6722595
347.6722595
347.6722595
347.6722595
347.6722595
347.6722595
347.6722595
347.6722595
347.6722595
347.6722595
347.6722595
347.6722595
347.6722595
347.6722595
347.6722595
347.6722595
347.6722595
347.6722595
347.6722595
347.6722595
347.6722595
347.6722595
347.6722595
347.6722595
347.6722595
347.6722595
347.6722595
347.6722595
347.6722595
347.6722595
347.6722595
347.6722595
347.6722595
347.6722595
347.6722595
347.6722595
347.6722595
347.6722595
347.6722595
347.6722595
347.6722595
347.6722595
347.6722595
347.6722595
347.6722595
347.6722595
347.6722595
347.6722595
347.6722595
347.6722594
347.6722594
347.6722594
347.6722592
347.672259
347.6722585
347.6722576
347.6722557
347.6722522
347.6722454
347.6722326
347.6722089
347.6721655
347.6720868
347.6719463
347.6716989
347.6712699
347.6705375
347.669307
347.667274
347.6639738
347.6587135
347.6504886
347.6378856
347.6189804
347.5912512
347.5515331
347.4960551
347.4206071
347.3208994
347.1932064
347.0355488
346.8493333
346.6380975
346.4047908
346.1516272
345.8806402
345.593838
345.2931655
344.980443
344.6573228
344.325268
343.9855508
343.6392633
343.287336
342.9305585
342.569601
342.2050338
341.8373447
341.4669542
341.094228
340.7194874
340.3430189
339.9650811
339.5859119
339.2057336
338.8247588
338.4431948
338.0612438
337.6791573
337.2972209
336.9157567
336.5350581
336.1554243
335.7772222
335.4008833
335.0269141
334.6559199
334.2886307
333.9259348
333.5689219
333.2189348
332.8776647
332.547082
332.2297385
331.9287126
331.6472029
331.3864544
331.1386848
330.7688906
330.2820674
329.7234042
329.168527
328.645293
328.1447971
327.660872
327.1895772
326.7278787
326.2734828
325.8249762
325.3812857
324.9415728
324.5051479
324.0714315
323.6399501
323.2103237
322.7822551
322.3555558
321.9300943
321.5057317
321.0823568
320.6598755
320.2382061
319.8172806
319.3970509
318.9774827
318.5585502
318.1402388
317.7225374
317.3054356
316.88894
316.4730765
316.0578647
315.6433047
315.229396
314.8161563
314.4036305
313.9918936
313.5810133
313.1710332
312.7620317
312.3540916
311.9472609
311.5416846
311.1375401
310.7349122
310.3339851
309.9350148
309.538254
309.1439773
308.7524921
308.3641588
307.97948
307.598958
307.2231186
306.8527809
306.4888807
306.132535
305.7850971
305.4481946
305.1237543
304.813999
304.5213961
304.2485295
303.9978904
303.771601
303.5711117
303.3969333
303.2484769
303.1240667
303.0211483
302.936642
302.8673461
302.810279
302.7628914
302.7231354
302.6894218
302.660521
302.6354612
302.6134568
302.5938766
302.5762349
302.5601831
302.5454873
302.5319923
302.5195814
302.5081453
302.4975675
302.4877264
302.4785084
302.4698201
302.4615941
302.4537909
302.4463973
302.4394171
302.4328502
302.42667
302.420822
302.4152554
302.4099471
302.4049012
302.4001162
302.3955668
302.3912225
302.3870743
302.3831445
302.3794502
302.3759562
302.372585
302.3692796
302.3660589
302.3629994
302.3601655
302.3575499
302.3550705
302.3526299
302.3501848
302.3477969
302.3455533
302.3435074
302.341639
302.3398862
302.3381869
302.3364771
302.3347392
302.3330934
302.331639
302.3303855
302.3293134
302.3283147
302.3273681
302.3264049
302.3254079
302.3244931
302.3237411
302.3231422
302.3228234
302.3226523
302.3225073
302.3223477
302.3222284
302.3222152
302.3222305
302.3223146
302.322528
302.3228856
302.3234103
302.3241621
302.3251141
302.3262175
302.3275345
302.3290298
302.3306396
302.3324578
302.334488
302.3366953
302.3392905
302.3424327
302.3462124
302.3511668
302.3578228
302.3670166
302.3803287
302.4001736
302.430692
302.4783474
302.5534151
302.6718807
302.8579378
303.1475748
303.5930147
304.2683546
305.276209
306.7550229
308.8864055
311.9014363
316.0844734
321.7729186
329.3524497
339.2475402
351.9098396
367.8177896
387.4442342
411.2907636
439.995627
474.2187751
514.8335409
562.8841165
619.690592
686.6653274
766.2733261
856.6601343
945.827484
1028.355365
1104.616481
1173.894254
1235.972197
1290.879575
1338.8331
1380.20964
1415.504208
1445.287849
1470.168274
1490.756634
1507.642742
1521.377595
1532.462186
1541.342056
1548.406219
1553.988806
1558.372671
1561.79428
1564.449131
1566.497208
1568.068212
1569.266473
1570.1753
1570.860711
1571.374651
1571.757726
1572.041486
1572.250287
1572.402824
1572.513368
1572.592767
1572.649209
1572.688852
1572.716338
1572.73517
1572.747946
1572.75663
1572.762309
1572.765294
1572.765849
1572.764229
1572.760721
1572.755754
1572.750393
1572.745608
1572.741296
1572.737352
1572.733694
1572.730261
1572.727013
1572.72392
1572.72096
1572.718114
1572.715368
1572.71271
1572.71013
1572.707623
1572.705183
1572.702808
1572.700496
1572.698247
1572.69606
1572.693934
1572.691869
1572.689866
1572.687924
1572.686042
1572.684219
1572.682452
1572.680739
1572.679076
1572.677459
1572.675885
1572.674348
1572.672845
1572.671373
1572.669927
1572.668505
1572.667104
1572.665721
1572.664355
1572.663006
1572.661671
1572.660352
1572.659048
1572.65776
1572.65649
1572.655239
1572.654009
1572.6528
1572.651615
1572.650455
1572.64932
1572.648208
1572.647119
1572.64605
1572.645
1572.643965
1572.642944
1572.641932
1572.640928
1572.63993
1572.638937
1572.637948
1572.636962
1572.635981
1572.635006
1572.634039
1572.633084
1572.632144
1572.631221
1572.630319
1572.629443
1572.628595
1572.627779
1572.626996
1572.626248
1572.625534
1572.624855
1572.624212
1572.623603
1572.623027
1572.622482
1572.621966
1572.621476
1572.621009
1572.620561
1572.620129
1572.619712
1572.619309
1572.61892
1572.618546
1572.618186
1572.617841
1572.61751
1572.617194
1572.616896
1572.616617
1572.61636
1572.616127
1572.615919
1572.615738
1572.615587
1572.615465
1572.615374
1572.615314
1572.615282
1572.615272
1572.615272
1572.61528
1572.615302
1572.615342
1572.615405
1572.615492
1572.615602
1572.615731
1572.615871
1572.616015
1572.616161
1572.616311
1572.616471
1572.616649
1572.616849
1572.617075
1572.617325
1572.617598
1572.617891
1572.6182
1572.618522
1572.618854
1572.619196
1572.619549
1572.619913
1572.620292
1572.620687
1572.6211
1572.621535
1572.621992
1572.62247
1572.622968
1572.623483
1572.624015
1572.624562
1572.625123
1572.625699
1572.62629
1572.626897
1572.627522
1572.628163
1572.628819
1572.629489
1572.630173
1572.630868
1572.631576
1572.6323
1572.633039
1572.633796
1572.634568
1572.635357
1572.636161
1572.636979
1572.637808
1572.638646
1572.639494
1572.640352
1572.641222
1572.642104
1572.642998
1572.643905
1572.644823
1572.64575
1572.646684
1572.647623
1572.648566
1572.649513
1572.650467
1572.65143
1572.652405
1572.653391
1572.654387
1572.655392
1572.656404
1572.657419
1572.658432
1572.659441
1572.660447
1572.661453
1572.662462
1572.663478
1572.664501
1572.665531
1572.666567
1572.667607
1572.668649
1572.669695
1572.670747
1572.671807
1572.672875
1572.673953
1572.675043
1572.67614
1572.677241
1572.678342
1572.679435
1572.68052
1572.681601
1572.682679
1572.683758
1572.684842
1572.685936
1572.687041
1572.688158
1572.689284
1572.690419
1572.691558
1572.692701
1572.693846
1572.694994
1572.696149
1572.697315
1572.698494
1572.699685
1572.700886
1572.702092
1572.703297
1572.704498
1572.705699
1572.706902
1572.708106
1572.709312
1572.710525
1572.711749
1572.71298
1572.714218
1572.715459
1572.716693
1572.717917
1572.71914
1572.720363
1572.721589
1572.72282
1572.724065
1572.725323
1572.726591
1572.727868
1572.729148
1572.73042
1572.731684
1572.732949
1572.734218
1572.735497
1572.736794
1572.738115
1572.739454
1572.740803
1572.742155
1572.743496
1572.74481
1572.746106
1572.747392
1572.74868
1572.749974
1572.751293
1572.752644
1572.75403
1572.755444
1572.756881
1572.758317
1572.759724
1572.761102
1572.76246
1572.763811
1572.765166
1572.766544
1572.767954
1572.7694
1572.770878
1572.772381
1572.773886
1572.775366
1572.776811
1572.778224
1572.779617
1572.781007
1572.78242
1572.783864
1572.785342
1572.786856
1572.788398
1572.789955
1572.791519
1572.793097
1572.794672
1572.796224
1572.797766
1572.799317
1572.800882
1572.802461
1572.804052
1572.805643
1572.807212
1572.808767
1572.810326
1572.811901
1572.813509
1572.815172
1572.816905
1572.818689
1572.820497
1572.822307
1572.824083
1572.825789
1572.82743
1572.829035
1572.830633
1572.832248
1572.833913
1572.835663
1572.83751
1572.839446
1572.841456
1572.843497
1572.84549
1572.847388
1572.849196
1572.850935
1572.852647
1572.85438
1572.856167
1572.858025
1572.859955
1572.861946
1572.863972
1572.866003
1572.868035
1572.870056
1572.872052
1572.87403
1572.876027
1572.878062
1572.880136
1572.882244
1572.884369
1572.886461
1572.888475
1572.890426
1572.89235
1572.894283
1572.896256
1572.898325
1572.900521
1572.902837
1572.905241
1572.907698
1572.91012
1572.912415
1572.914584
1572.916652
1572.918673
1572.920699
1572.922806
1572.925045
1572.927429
1572.929941
1572.932554
1572.935192
1572.937776
1572.94029
1572.942741
1572.945152
1572.947562
1572.950055
1572.952663
1572.955385
1572.958198
1572.961063
1572.963873
1572.966548
1572.969115
1572.971631
1572.97416
1572.976761
1572.979539
1572.982532
1572.985722
1572.989064
1572.992481
1572.995813
1572.998935
1573.001844
1573.004575
1573.007223
1573.009894
1573.012708
1573.015732
1573.018974
1573.022401
1573.02594
1573.029447
1573.032795
1573.035968
1573.038998
1573.04197
1573.044984
1573.048159
1573.051555
1573.055162
1573.058929
1573.062749
1573.066417
1573.06979
1573.072878
1573.075767
1573.078604
1573.081536
1573.084728
1573.088272
1573.09216
1573.096323
1573.100629
1573.104822
1573.108694
1573.112224
1573.115468
1573.118577
1573.12173
1573.125121
1573.128858
1573.132938
1573.137295
1573.141786
1573.14613
1573.150119
1573.153763
1573.157159
1573.160489
1573.163942
1573.167747
1573.172024
1573.176749
1573.181823
1573.187054
1573.192054
1573.196519
1573.200444
1573.203942
1573.207266
1573.210689
1573.214531
1573.218972
1573.224008
1573.229531
1573.235326
1573.240943
1573.246027
1573.250584
1573.254744
1573.258764
1573.262936
1573.267632
1573.273027
1573.279084
1573.285661
1573.292457
1573.298874
1573.304542
1573.309507
1573.313976
1573.318308
1573.322875
1573.328081
1573.334148
1573.341073
1573.348682
1573.356616
1573.364213
1573.370932
1573.376677
1573.381611
1573.386191
1573.390909
1573.396164
1573.40227
1573.409277
1573.417002
1573.424993
1573.43247
1573.438801
1573.443933
1573.44811
1573.45182
1573.455587
1573.459936
1573.465385
1573.472173
1573.480228
1573.488903
1573.496636
1573.502224
1573.50628
1573.509861
1573.513479
1573.517166
1573.520985
1573.525444
1573.531489
1573.539784
1573.55096
1573.561644
1573.565756
1573.564816
1573.562562
1573.557638
1573.545194
1573.514795
1573.454087
1573.341157
1573.123447
1572.697487
1571.878503
1570.329183
1567.421741
1562.017469
1552.168588
1534.860931
1506.216815
1466.127901
1429.774344
1408.887533
1398.422511
1393.526401
1391.307983
1390.317342
1389.877834
1389.683401
1389.597484
1389.5595
1389.542552
1389.534754
1389.530955
1389.528994
1389.527807
1389.527437
1389.526983
1389.526761
1389.527198
1389.527058
1389.526928
1389.526925
1389.527166
1389.526922
1389.527043
1389.527165
1389.527043
1389.527043
1389.526921
1389.527043
1389.526921
1389.526921
1389.527286
1389.527165
1389.526921
1389.527043
1389.527043
1389.527043
1389.526557
1389.5268
1389.526921
1389.526921
1389.526921
1389.527165
1389.527043
1389.527165
1389.527165
1389.527043
1389.527043
1389.526678
1389.527165
1389.526921
1389.527165
1389.527286
1389.527043
1389.526921
1389.526921
1389.527043
1389.527043
1389.526921
1389.526921
1389.527043
1389.5268
1389.526557
1389.527165
1389.5268
1389.527165
1389.527165
1389.5268
1389.527043
1389.527043
1389.526921
1389.5268
1389.527043
1389.527043
1389.526921
1389.526921
1389.526678
1389.526678
1389.526678
1389.527043
1389.527043
1389.526921
1389.527043
1389.527165
1389.527165
1389.527165
1389.527165
1389.527165
1389.527043
1389.5268
1389.527165
1389.527165
1389.527043
1389.5268
1389.526921
1389.526678
1389.527043
1389.527043
1389.527043
1389.526921
1389.526921
1389.527043
1389.526921
1389.5268
1389.526921
1389.527043
1389.526921
1389.526921
1389.527043
1389.527043
1389.527043
1389.527043
1389.527165
1389.527043
1389.526678
1389.526921
1389.527043
1389.527286
1389.527165
1389.528016
1389.528381
1389.528502
1389.528624
1389.528259
1389.528259
1389.527773
1389.527286
1389.527043
1389.527043
1389.526921
1389.527165
1389.527165
1389.527043
1389.527043
1389.526921
1389.527165
1389.527165
1389.5268
1389.527043
1389.527043
1389.527165
1389.527043
1389.527043
1389.527043
1389.527043
1389.526678
1389.527165
1389.527043
1389.5268
1389.526921
1389.526921
1389.526921
1389.527894
1389.528016
1389.528259
1389.528137
1389.528016
1389.527773
1389.527165
1389.527651
1389.527043
1389.527043
1389.527043
1389.527043
1389.526921
1389.527043
1389.527165
1389.527165
1389.527043
1389.527043
1389.527043
1389.526921
1389.5268
1389.526921
1389.526678
1389.5268
1389.526557
1389.5268
1389.526678
1389.527043
1389.527043
1389.527286
1389.5268
1389.5268
1389.526921
1389.527165
1389.526921
1389.5268
1389.5268
1389.5268
1389.5268
1389.526921
1389.5268
1389.527043
1389.526921
1389.527165
1389.527773
1389.528259
1389.528137
1389.528259
1389.528381
1389.528259
1389.528624
1389.528502
1389.528137
1389.528259
1389.528137
1389.528381
1389.528502
1389.528624
1389.528624
1389.528624
1389.528745
1389.528745
1389.528867
1389.528624
1389.527773
1389.527165
1389.526921
1389.526557
1389.526921
1389.526313
1389.527043
1389.5268
1389.526557
1389.526678
1389.526921
1389.526921
1389.527165
1389.527043
1389.526921
1389.526921
1389.527043
1389.527043
1389.527043
1389.527165
1389.526921
1389.527043
1389.527165
1389.527043
1389.527165
1389.527043
1389.527165
1389.526921
1389.527043
1389.527043
1389.526921
1389.527043
1389.5268
1389.527165
1389.527043
1389.527043
1389.527043
1389.527043
1389.527165
1389.5268
1389.5268
1389.527043
1389.527286
1389.527043
1389.527165
1389.527043
1389.527043
1389.527165
1389.526921
1389.527165
1389.527043
1389.527043
1389.527286
1389.527043
1389.527286
1389.527165
1389.527043
1389.527043
1389.527043
1389.527043
1389.526921
1389.527043
1389.527043
1389.526921
1389.527043
1389.527165
1389.527043
1389.5268
1389.527043
1389.528016
1389.528259
1389.528624
1389.528624
1389.528867
1389.528137
1389.527894
1389.527286
1389.527043
1389.527043
1389.526921
1389.526678
1389.526678
1389.526678
1389.527043
1389.527043
1389.527165
1389.527043
1389.5268
1389.5268
1389.526557
1389.526557
1389.527043
1389.527043
1389.527165
1389.527043
1389.527043
1389.527165
1389.527043
1389.527165
1389.527043
1389.527043
1389.527165
1389.5268
1389.526435
1389.526678
1389.526678
1389.527043
1389.527165
1389.527165
1389.526678
1389.526921
1389.526921
1389.527165
1389.527165
1389.527165
1389.526921
1389.5268
1389.526678
1389.527043
1389.527165
1389.5268
1389.5268
1389.5268
1389.527043
1389.527043
1389.527043
1389.527043
1389.527165
1389.526921
1389.527043
1389.527043
1389.527165
1389.527043
1389.527043
1389.526921
1389.5268
1389.527043
1389.527043
1389.5268
1389.527043
1389.527286
1389.527165
1389.527165
1389.527043
1389.526921
1389.526921
1389.526921
1389.527043
1389.5268
1389.527165
1389.527043
1389.526921
1389.527043
1389.527043
1389.527043
1389.5268
1389.526921
1389.527165
1389.526921
1389.526921
1389.527043
1389.527043
1389.526921
1389.526921
1389.526921
1389.5268
1389.527165
1389.527165
1389.527043
1389.527043
1389.527043
1389.526678
1389.527043
1389.527043
1389.527043
1389.527043
1389.527043
1389.527043
1389.526678
1389.526921
1389.527165
1389.527043
1389.526921
1389.526921
1389.527043
1389.526921
1389.526921
1389.527165
1389.527043
1389.527043
1389.527165
1389.526921
1389.526678
1389.527165
1389.527043
1389.527165
1389.526678
1389.526921
1389.526921
1389.5268
1389.526678
1389.526921
1389.527043
1389.526921
1389.526921
1389.527043
1389.526921
1389.526921
1389.5268
1389.526921
1389.527043
1389.527286
1389.527043
1389.526921
1389.526435
1389.526921
1389.527043
1389.526921
1389.5268
1389.526921
1389.527165
1389.527043
1389.527165
1389.527286
1389.526921
1389.527043
1389.526921
1389.526921
1389.527043
1389.527043
1389.527165
1389.526921
1389.526921
1389.526921
1389.527165
1389.528016
1389.528016
1389.528259
1389.528137
1389.528624
1389.528137
1389.528259
1389.528502
1389.528259
1389.528502
1389.528137
1389.528016
1389.528745
1389.528745
1389.528624
1389.528745
1389.528381
1389.528624
1389.528381
1389.528624
1389.528016
1389.528502
1389.528745
1389.528624
1389.528745
1389.528502
1389.528624
1389.528624
1389.528624
1389.528502
1389.528381
1389.528502
1389.528381
1389.528381
1389.528502
1389.528016
1389.527043
1389.527165
1389.5268
1389.526921
1389.526921
1389.527043
1389.5268
1389.5268
1389.527043
1389.527165
1389.526921
1389.527165
1389.527043
1389.527165
1389.527165
1389.526921
1389.527043
1389.527043
1389.527043
1389.527165
1389.527043
1389.526921
1389.526921
1389.527043
1389.5268
1389.526678
1389.527043
1389.527043
1389.527043
1389.526921
1389.5268
1389.527165
1389.527043
1389.527043
1389.527043
1389.527043
1389.527043
1389.526921
1389.526921
1389.527165
1389.527043
1389.526921
1389.527165
1389.526921
1389.5268
1389.527165
1389.527043
1389.526921
1389.527043
1389.5268
1389.526921
1389.526678
1389.527043
1389.526921
1389.527286
1389.527043
1389.526921
1389.527043
1389.527043
1389.5268
1389.527043
1389.527043
1389.527043
1389.526921
1389.527043
1389.527043
1389.527286
1389.527043
1389.526921
1389.527043
1389.527043
1389.527043
1389.526921
1389.527043
1389.527043
1389.527043
1389.527165
1389.527165
1389.527165
1389.527165
1389.527286
1389.527043
1389.527286
1389.527043
1389.527043
1389.527043
1389.527043
1389.527165
1389.527043
1389.5268
1389.526678
1389.526921
1389.5268
1389.526921
1389.5268
1389.526921
1389.5268
1389.527043
1389.526921
1389.5268
1389.526921
1389.527043
1389.527043
1389.527165
1389.527165
1389.527165
1389.527165
1389.527043
1389.527043
1389.527043
1389.526921
1389.5268
1389.527043
1389.526678
1389.527043
1389.527043
1389.526921
1389.526921
1389.527165
1389.527286
1389.527165
1389.527043
1389.5268
1389.527043
1389.527165
1389.527043
1389.526921
1389.527043
1389.526921
1389.527043
1389.526921
1389.526921
1389.526921
1389.526921
1389.526921
1389.527043
1389.527043
1389.5268
1389.5268
1389.526678
1389.526921
1389.527043
1389.527043
1389.527043
1389.526921
1389.526921
1389.527165
1389.527165
1389.527165
1389.526921
1389.526921
1389.527043
1389.526921
1389.527043
1389.526921
1389.526921
1389.527043
1389.527043
1389.526921
1389.526921
1389.527165
1389.5268
1389.527286
1389.527043
1389.527165
1389.527043
1389.527043
1389.527043
1389.5268
1389.5268
1389.526557
1389.5268
1389.526921
1389.526921
1389.527165
1389.526921
1389.527043
1389.527043
1389.527043
1389.527043
1389.527043
1389.5268
1389.526678
1389.526921
1389.527165
1389.527043
1389.526557
1389.526678
1389.527043
1389.526921
1389.527165
1389.527043
1389.527165
1389.527043
1389.527043
1389.5268
1389.5268
1389.527165
1389.527165
1389.527043
1389.527043
1389.526557
1389.526921
1389.527165
1389.527165
1389.527043
1389.527165
1389.527043
1389.526921
1389.526921
1389.526921
1389.527165
1389.528381
1389.528867
1389.528624
1389.528502
1389.528259
1389.528259
1389.528259
1389.528016
1389.528016
1389.528381
1389.528381
1389.528502
1389.528137
1389.528137
1389.528137
1389.528381
1389.528259
1389.528137
1389.528502
1389.528745
1389.528502
1389.528745
1389.528867
1389.528502
1389.528259
1389.528259
1389.528381
1389.528259
1389.528502
1389.528502
1389.528259
1389.527408
1389.527043
1389.526921
1389.527043
1389.5268
1389.526921
1389.526921
1389.526678
1389.5268
1389.526921
1389.527043
1389.527043
1389.527043
1389.526921
1389.527043
1389.526921
1389.527165
1389.526921
1389.527043
1389.527043
1389.527165
1389.526921
1389.526921
1389.526921
1389.526921
1389.527043
1389.527043
1389.5268
1389.527165
1389.527043
1389.5268
1389.5268
1389.526557
1389.526921
1389.527043
1389.527043
1389.526921
1389.527043
1389.526921
1389.527043
1389.527043
1389.526921
1389.527043
1389.527043
1389.526921
1389.527043
1389.527043
1389.5268
1389.526921
1389.5268
1389.527165
1389.527043
1389.526921
1389.527043
1389.526921
1389.526921
1389.527286
1389.527286
1389.527043
1389.527043
1389.526921
1389.527165
1389.527043
1389.527165
1389.527043
1389.5268
1389.5268
1389.527043
1389.526921
1389.527043
1389.526921
1389.527043
1389.5268
1389.527043
1389.5268
1389.527043
1389.5268
1389.527043
1389.527043
1389.527165
1389.528137
1389.528259
1389.528502
1389.527773
1389.528259
1389.528624
1389.528745
1389.528867
1389.528867
1389.528745
1389.528624
1389.528502
1389.528381
1389.528381
1389.528137
1389.528259
1389.528745
1389.528381
1389.528016
1389.528381
1389.528381
1389.528137
1389.528259
1389.528624
1389.528502
1389.528624
1389.528259
1389.528502
1389.528624
1389.528502
1389.528137
1389.528259
1389.528259
1389.528624
1389.528381
1389.528502
1389.528381
1389.528381
1389.528745
1389.528381
1389.528502
1389.528745
1389.528502
1389.527773
1389.527773
1389.526921
1389.527286
1389.5268
1389.526435
1389.5268
1389.526921
1389.527043
1389.527286
1389.526921
1389.527043
1389.526678
1389.527165
1389.527043
1389.526678
1389.527286
1389.526921
1389.527043
1389.5268
1389.527043
1389.527286
1389.527286
1389.527043
1389.527043
1389.527043
1389.526921
1389.527043
1389.526921
1389.526921
1389.526921
1389.527043
1389.527043
1389.5268
1389.526921
1389.527043
1389.526921
1389.527043
1389.527043
1389.527165
1389.526921
1389.5268
1389.527043
1389.527043
1389.527043
1389.527529
1389.527043
1389.526921
1389.527165
1389.5268
1389.527043
1389.527165
1389.527043
1389.526921
1389.526921
1389.526557
1389.5268
1389.526921
1389.527043
1389.5268
1389.526921
1389.526921
1389.527043
1389.527043
1389.526921
1389.527043
1389.527165
1389.527043
1389.526921
1389.526921
1389.527043
1389.527165
1389.527043
1389.527894
1389.528502
1389.528502
1389.528259
1389.528502
1389.528502
1389.528137
1389.527773
1389.527165
1389.527043
1389.526921
1389.526921
1389.527043
1389.527043
1389.527165
1389.5268
1389.527165
1389.527165
1389.5268
1389.5268
1389.526678
1389.527043
1389.527043
1389.526921
1389.527043
1389.527165
1389.527286
1389.5268
1389.527165
1389.526921
1389.527043
1389.527043
1389.527165
1389.526921
1389.526921
1389.526921
1389.526921
1389.526921
1389.526921
1389.527165
1389.527165
1389.527043
1389.527043
1389.527043
1389.526921
1389.5268
1389.527043
1389.527165
1389.527165
1389.527165
1389.5268
1389.526921
1389.527043
1389.527043
1389.527165
1389.526921
1389.526921
1389.526921
1389.527043
1389.526921
1389.527043
1389.527043
1389.527165
1389.526921
1389.527165
1389.527043
1389.526921
1389.527043
1389.526921
1389.527043
1389.526921
1389.526921
1389.526921
1389.526678
1389.5268
1389.527165
1389.527043
1389.527043
1389.527043
1389.527165
1389.527043
1389.526921
1389.526921
1389.527043
1389.527043
1389.526921
1389.526921
1389.527165
1389.526921
1389.527043
1389.527165
1389.527286
1389.527165
1389.527043
1389.527043
1389.527043
1389.527043
1389.5268
1389.526921
1389.5268
1389.527165
1389.527043
1389.527043
1389.527043
1389.526921
1389.527286
1389.527043
1389.527043
1389.527043
1389.526921
1389.526678
1389.5268
1389.526921
1389.527165
1389.527043
1389.5268
1389.527165
1389.526921
1389.527286
1389.527165
1389.526921
1389.5268
1389.527043
1389.527043
1389.527043
1389.5268
1389.526678
1389.526921
1389.526921
1389.527165
1389.526921
1389.526921
1389.526921
1389.526678
1389.5268
1389.527043
1389.527043
1389.527043
1389.527165
1389.527043
1389.526921
1389.527043
1389.526678
1389.526921
1389.526921
1389.527043
1389.527165
1389.527043
1389.526921
1389.526921
1389.527165
1389.527165
1389.526921
1389.5268
1389.526921
1389.527043
1389.526921
1389.527043
1389.527043
1389.5268
1389.527043
1389.527043
1389.527043
1389.526921
1389.527043
1389.526921
1389.526921
1389.5268
1389.5268
1389.526921
1389.527043
1389.527043
1389.526921
1389.526678
1389.5268
1389.526921
1389.526678
1389.526921
1389.527043
1389.526921
1389.527043
1389.527043
1389.527043
1389.527043
1389.527286
1389.526921
1389.527043
1389.526921
1389.527043
1389.527043
1389.527043
1389.527043
1389.527043
1389.527043
1389.526921
1389.5268
1389.526921
1389.527043
1389.5268
1389.526921
1389.527043
1389.527043
1389.527165
1389.527043
1389.527043
1389.526921
1389.527043
1389.5268
1389.5268
1389.526678
1389.527165
1389.526678
1389.5268
1389.526921
1389.527043
1389.5268
1389.527043
1389.527165
1389.527043
1389.527043
1389.527043
1389.526921
1389.527165
1389.527165
1389.526921
1389.527165
1389.527894
1389.528137
1389.528259
1389.527894
1389.528259
1389.528137
1389.528502
1389.528624
1389.528624
1389.528745
1389.528502
1389.528502
1389.528745
1389.528624
1389.528381
1389.528137
1389.528381
1389.528381
1389.528745
1389.528745
1389.528624
1389.528745
1389.528624
1389.528745
1389.528624
1389.528381
1389.528381
1389.527894
1389.528502
1389.528259
1389.528137
1389.528624
1389.528259
1389.528259
1389.528624
1389.528502
1389.528745
1389.528745
1389.528745
1389.528502
1389.528259
1389.528381
1389.528381
1389.528624
1389.528259
1389.528016
1389.527894
1389.527165
1389.526921
1389.527043
1389.526921
1389.527043
1389.526921
1389.526678
1389.527165
1389.527043
1389.527043
1389.527286
1389.527043
1389.526921
1389.527165
1389.527043
1389.526921
1389.526921
1389.527043
1389.527043
1389.526921
1389.527165
1389.527165
1389.527043
1389.527043
1389.527043
1389.526921
1389.527408
1389.527894
1389.528381
1389.528381
1389.528624
1389.528624
1389.528867
1389.528624
1389.528745
1389.528502
1389.528259
1389.528259
1389.528624
1389.528624
1389.528745
1389.528381
1389.528502
1389.528624
1389.528624
1389.528137
1389.528259
1389.528381
1389.528502
1389.528016
1389.528624
1389.528502
1389.528381
1389.528381
1389.528624
1389.528502
1389.528624
1389.528502
1389.528624
1389.528381
1389.528381
1389.528502
1389.528745
1389.528624
1389.528502
1389.528745
1389.528745
1389.528259
1389.528381
1389.528624
1389.528624
1389.528745
1389.528745
1389.528867
1389.528745
1389.528381
1389.528502
1389.528624
1389.528016
1389.528259
1389.528624
1389.528624
1389.528259
1389.528137
1389.528137
1389.528137
1389.527773
1389.528137
1389.528381
1389.528502
1389.528624
1389.528624
1389.528259
1389.528259
1389.528137
1389.528745
1389.528745
1389.528745
1389.528502
1389.528381
1389.528624
1389.528624
1389.528624
1389.528381
1389.528502
1389.528381
1389.528259
1389.528137
1389.528624
1389.528016
1389.528624
1389.528502
1389.528502
1389.528624
1389.528381
1389.528137
1389.528867
1389.528259
1389.527894
1389.527894
1389.528016
1389.528016
1389.528259
1389.528016
1389.528259
1389.528624
1389.528502
1389.528624
1389.528502
1389.528016
1389.527165
1389.527165
1389.527165
1389.527043
1389.526921
1389.527043
1389.527043
1389.527165
1389.527165
1389.527043
1389.527043
1389.526921
1389.5268
1389.527043
1389.527043
1389.526921
1389.526921
1389.527043
1389.527165
1389.5268
1389.527043
1389.5268
1389.526921
1389.527043
1389.527165
1389.5268
1389.527043
1389.527043
1389.527043
1389.527043
1389.527165
1389.527165
1389.527773
1389.528259
1389.528381
1389.528259
1389.528137
1389.528381
1389.527894
1389.528259
1389.528502
1389.528381
1389.528624
1389.528624
1389.528381
1389.527651
1389.527043
1389.5268
1389.526557
1389.526921
1389.526921
1389.5268
1389.5268
1389.527043
1389.527165
1389.527043
1389.527165
1389.5268
1389.526921
1389.527043
1389.527043
1389.5268
1389.527043
1389.527043
1389.527043
1389.526678
1389.526921
1389.527043
1389.527043
1389.526921
1389.526921
1389.527408
1389.527043
1389.527165
1389.526921
1389.527043
1389.527043
1389.527043
1389.527043
1389.527043
1389.527165
1389.527286
1389.528137
1389.527894
1389.528137
1389.527773
1389.528137
1389.528016
1389.528259
1389.528259
1389.528016
1389.528381
1389.528502
1389.528502
1389.528502
1389.528624
1389.528989
1389.528745
1389.528137
1389.528624
1389.528867
1389.528867
1389.528745
1389.528381
1389.528381
1389.528259
1389.528259
1389.528381
1389.528502
1389.528745
1389.528624
1389.528745
1389.528381
1389.528259
1389.528259
1389.528137
1389.528259
1389.528624
1389.528867
1389.528381
1389.528624
1389.528502
1389.528502
1389.528259
1389.528624
1389.528381
1389.528016
1389.527043
1389.527043
1389.527043
1389.527165
1389.527043
1389.527165
1389.526678
1389.526921
1389.526678
1389.526921
1389.526921
1389.526921
1389.526678
1389.5268
1389.5268
1389.527043
1389.527165
1389.527165
1389.5268
1389.527043
1389.5268
1389.527286
1389.527165
1389.527286
1389.526921
1389.527408
1389.527043
1389.526921
1389.526678
1389.527043
1389.527043
1389.527043
1389.526921
1389.526921
1389.527165
1389.527043
1389.526921
1389.527043
1389.527043
1389.527043
1389.5268
1389.526921
1389.526921
1389.526921
1389.526921
1389.526921
1389.527043
1389.527043
1389.527043
1389.526921
1389.5268
1389.5268
1389.527043
1389.527043
1389.527043
1389.526678
1389.5268
1389.526921
1389.527043
1389.527043
1389.5268
1389.526921
1389.527043
1389.527043
1389.527043
1389.527165
1389.526678
1389.526557
1389.526557
1389.526921
1389.527165
1389.528137
1389.528137
1389.528381
1389.528259
1389.528867
1389.528502
1389.528259
1389.528259
1389.528137
1389.528381
1389.528259