/*--------------------------------*- C++ -*----------------------------------*\
| =========                 |                                                 |
| \\      /  F ield         | OpenFOAM: The Open Source CFD Toolbox           |
|  \\    /   O peration     | Version:  2312                                  |
|   \\  /    A nd           | Website:  www.openfoam.com                      |
|    \\/     M anipulation  |                                                 |
\*---------------------------------------------------------------------------*/
FoamFile
{
    version     2.0;
    format      ascii;
    arch        "LSB;label=32;scalar=64";
    class       surfaceScalarField;
    location    "0.0008";
    object      phi;
}
// * * * * * * * * * * * * * * * * * * * * * * * * * * * * * * * * * * * * * //

dimensions      [1 0 -1 0 0 0 0];

oriented        oriented;

internalField   nonuniform List<scalar> 
4999
(
3.76389444e-12
4.135459255e-12
7.175897467e-12
5.919521194e-12
8.724688983e-12
1.133408972e-11
1.015092752e-11
8.171183469e-12
6.61808342e-12
7.426007275e-12
7.11992776e-12
4.24721929e-12
8.261281534e-13
-2.709348945e-12
5.113212208e-13
3.417207581e-12
6.998255768e-12
4.380379598e-12
5.42138934e-12
9.156992991e-12
5.643681895e-12
3.93936288e-12
3.633192184e-12
7.204832816e-12
2.767681259e-12
4.074751971e-12
4.457190624e-12
4.466058657e-12
4.269948829e-12
8.014900618e-12
6.866628111e-12
9.952232585e-12
6.455674882e-12
2.990584532e-12
5.471868994e-12
8.981595657e-12
5.617814768e-12
6.835149974e-12
3.119298679e-12
5.191492666e-12
7.987270455e-12
1.138055632e-11
1.490425299e-11
1.404532509e-11
1.476421585e-11
1.592462084e-11
1.212812179e-11
1.223445846e-11
1.503999616e-11
1.301536999e-11
9.163687883e-12
5.484644906e-12
8.391485632e-12
1.268673294e-11
9.540070551e-12
7.714460373e-12
5.948127908e-12
4.74111439e-12
2.246706412e-12
4.407728022e-13
-5.632399102e-13
-2.994687696e-12
1.08984082e-13
1.811991197e-13
-2.703976099e-12
9.478844541e-13
2.293774273e-12
2.302855937e-11
1.140888768e-10
4.554387665e-10
1.7471807e-09
6.659887063e-09
2.502870915e-08
9.408837475e-08
3.107146837e-07
7.836941045e-07
1.78684074e-06
3.815841394e-06
7.870325318e-06
1.597705174e-05
3.205044173e-05
6.358673227e-05
0.0001247502645
0.0002418895985
0.0004633595866
0.0008768916785
0.001639458641
0.003028067097
0.005522217042
0.009938798674
0.0176450885
0.03088763475
0.05328601153
0.09055151779
0.1514967927
0.2493960526
0.4037266144
0.6422570971
1.00333255
1.538033462
2.311659947
3.403742087
4.905548449
6.913878619
9.519624622
12.78827148
16.72340309
21.24556368
26.26482333
31.71555111
37.54251584
43.69232068
50.11318071
56.75642589
63.57774064
70.53783314
77.60257695
84.74277371
91.93369364
99.1545182
106.3877685
113.6187694
120.8351725
128.026546
135.18403
142.3000489
149.3680742
156.3824271
163.3381147
170.2306903
177.0561343
183.8107461
190.4910271
197.0932727
203.6134529
210.046883
216.3890535
222.6362957
228.7842918
234.8278742
240.7611222
246.5770865
252.2674765
257.8223017
263.2294022
268.4738539
273.5372879
278.3980472
283.0287567
287.3942202
291.4557333
295.1765043
298.5982463
301.8777295
307.4042017
314.7072756
322.137889
328.9048005
335.2395195
341.2197938
346.919155
352.3897997
357.6670248
362.7761089
367.7361705
372.561957
377.2648113
381.8533912
386.3345853
390.7143267
394.9980382
399.1905777
403.2954278
407.3153522
411.2526966
415.1094074
418.8870966
422.5871823
426.2110665
429.7600785
433.235439
436.6382788
439.9695251
443.2299406
446.4204429
449.5421684
452.596092
455.5827926
458.5026349
461.3560252
464.1436801
466.8666576
469.5257237
472.1212423
474.6537856
477.123488
479.5300519
481.8742624
484.1567722
486.3773887
488.5365621
490.6346315
492.6714269
494.6465676
496.5596699
498.4106219
500.1992753
501.9254403
503.588577
505.1876187
506.7211299
508.1873395
509.5840292
510.9083817
512.1568465
513.3251797
514.4086879
515.402589
516.3024792
517.1049903
517.8086302
518.4145839
518.927157
519.3536886
519.7039578
519.9892168
520.2210336
520.4101753
520.5658109
520.6952253
520.8040102
520.8964719
520.9760015
521.0452958
521.1064752
521.1611847
521.2106689
521.2558219
521.2972319
521.3352552
521.3701643
521.4022781
521.4319971
521.4597404
521.485845
521.5105215
521.5338755
521.5559496
521.5767547
521.5963256
521.6147293
521.6320699
521.6484788
521.6640454
521.6788184
521.692824
521.7061453
521.7189038
521.7310814
521.7425596
521.7532773
521.763299
521.7728488
521.7822207
521.7915205
521.8004799
521.8087193
521.8161152
521.8229272
521.8295658
521.836213
521.8429473
521.849526
521.8555099
521.860688
521.8652387
521.8695754
521.8738571
521.8783321
521.8829302
521.8872197
521.8907633
521.8936323
521.8958683
521.8977919
521.8995848
521.901552
521.9035917
521.9053481
521.9067631
521.9075962
521.9077429
521.9075255
521.9071082
521.9064385
521.9052405
521.9036765
521.9020639
521.9002584
521.8981784
521.8960723
521.8937519
521.8905989
521.8870698
521.8833323
521.8784723
521.8730218
521.867264
521.860114
521.8521564
521.8435228
521.832942
521.820266
521.8053556
521.7860376
521.7615469
521.7289939
521.6839385
521.6192999
521.5218973
521.3729486
521.1412189
520.7788275
520.2140822
519.3415713
518.0110862
516.0149405
513.0758365
508.8393994
502.8767221
494.7043697
483.8299499
469.8268327
452.4252301
431.6182374
407.7234755
381.3774579
353.3202518
324.7950186
296.4973438
269.3511742
243.8960851
220.4685373
199.13048
179.8694366
163.2402056
149.9636358
140.0866602
132.6348298
126.9123063
122.4499962
118.9401626
116.1602984
113.9475498
112.1803706
110.766463
109.6348521
108.7298605
108.007204
107.4314532
106.9740102
106.6116003
106.325402
106.1002566
105.923876
105.7863122
105.6795437
105.5971043
105.5337539
105.4852824
105.4483851
105.4204585
105.3994518
105.3837578
105.3721261
105.3635864
105.3573815
105.3529212
105.3497624
105.3475732
105.3461044
105.3451693
105.34463
105.3443715
105.3443165
105.3443909
105.3445812
105.3448643
105.345217
105.3456302
105.3461055
105.3466139
105.347126
105.3476321
105.3481369
105.3486378
105.349135
105.3496294
105.3501228
105.3506163
105.3511105
105.3516056
105.352101
105.3525955
105.3530888
105.353581
105.3540726
105.3545642
105.3550557
105.3555474
105.3560388
105.3565301
105.3570214
105.3575127
105.3580042
105.3584958
105.3589872
105.359478
105.3599674
105.3604551
105.3609409
105.3614247
105.3619065
105.3623865
105.3628646
105.3633409
105.3638154
105.3642882
105.3647591
105.3652281
105.3656953
105.3661607
105.3666247
105.3670874
105.3675492
105.3680104
105.3684713
105.3689321
105.369393
105.369854
105.3703153
105.3707773
105.3712402
105.3717043
105.3721699
105.3726371
105.3731061
105.3735771
105.37405
105.3745247
105.3750013
105.3754796
105.3759597
105.376442
105.3769265
105.3774134
105.3779027
105.3783945
105.3788887
105.3793852
105.3798838
105.3803842
105.3808865
105.3813907
105.381897
105.3824058
105.3829172
105.3834311
105.3839476
105.3844666
105.3849882
105.3855122
105.3860388
105.386568
105.3870999
105.3876349
105.3881732
105.3887147
105.3892592
105.3898064
105.390356
105.3909077
105.3914614
105.3920168
105.3925736
105.3931319
105.3936916
105.3942527
105.3948149
105.3953778
105.3959407
105.3965028
105.3970637
105.3976233
105.3981818
105.3987394
105.3992966
105.3998535
105.4004105
105.4009676
105.4015248
105.4020821
105.4026395
105.4031966
105.4037537
105.4043113
105.4048704
105.4054313
105.4059939
105.4065581
105.4071233
105.4076889
105.4082548
105.4088206
105.4093859
105.409951
105.4105165
105.4110832
105.4116517
105.4122222
105.4127947
105.4133688
105.4139444
105.4145209
105.4150976
105.4156742
105.4162511
105.4168291
105.4174093
105.4179921
105.4185779
105.4191667
105.4197585
105.4203533
105.4209506
105.4215502
105.4221525
105.422758
105.4233677
105.4239823
105.4246024
105.4252278
105.4258578
105.4264912
105.4271273
105.4277661
105.4284078
105.4290523
105.4297004
105.4303529
105.4310112
105.4316751
105.4323441
105.4330168
105.4336926
105.4343708
105.4350506
105.4357316
105.4364141
105.4370992
105.4377874
105.4384792
105.4391744
105.4398723
105.440572
105.4412715
105.44197
105.4426679
105.4433657
105.4440641
105.444764
105.4454672
105.4461738
105.4468831
105.4475945
105.4483076
105.4490199
105.4497311
105.4504417
105.4511524
105.4518645
105.4525809
105.4533019
105.4540265
105.4547542
105.4554843
105.4562164
105.4569482
105.4576793
105.4584104
105.4591429
105.459879
105.4606216
105.4613701
105.4621239
105.4628823
105.4636442
105.4644076
105.4651693
105.4659308
105.4666928
105.4674566
105.4682238
105.4689958
105.4697741
105.4705586
105.4713479
105.4721402
105.4729318
105.4737229
105.4745143
105.4753074
105.4761049
105.476911
105.4777258
105.4785475
105.4793748
105.4802069
105.4810418
105.4818745
105.4827055
105.4835364
105.4843683
105.4852045
105.4860497
105.486904
105.4877656
105.488633
105.489505
105.4903787
105.4912487
105.4921165
105.492984
105.4938524
105.4947257
105.495609
105.4965016
105.4974014
105.4983068
105.4992162
105.5001223
105.5010238
105.5019221
105.5028202
105.5037201
105.5046276
105.5055476
105.5064783
105.5074173
105.5083628
105.5093122
105.5102561
105.5111944
105.5121294
105.5130638
105.5140018
105.514953
105.5159195
105.5168991
105.5178888
105.5188859
105.519887
105.5208811
105.5218684
105.5228512
105.523833
105.5248196
105.525822
105.5268412
105.5278746
105.5289186
105.5299701
105.531023
105.5320662
105.5330999
105.5341274
105.5351527
105.5361819
105.5372271
105.5382899
105.5393667
105.5404534
105.5415469
105.5426359
105.5437134
105.5447803
105.5458415
105.5469026
105.5479761
105.5490742
105.5501959
105.5513366
105.5524903
105.5536515
105.5548049
105.5559423
105.5570661
105.5581845
105.5593037
105.560438
105.5616023
105.562795
105.5640107
105.5652424
105.566483
105.5677122
105.5689226
105.5701153
105.5712983
105.5724813
105.5736846
105.5749229
105.576194
105.5774908
105.5788046
105.5801264
105.5814308
105.5827108
105.5839671
105.5852089
105.5864481
105.5877061
105.5890008
105.5903295
105.5916839
105.5930532
105.5944257
105.5957729
105.5970895
105.598379
105.5996537
105.6009304
105.6022405
105.6035968
105.6049978
105.6064336
105.607889
105.6093495
105.6107763
105.6121643
105.6135193
105.6148578
105.6161994
105.6175834
105.6190293
105.6205316
105.6220778
105.6236517
105.6252367
105.6267832
105.6282864
105.629754
105.631204
105.6326606
105.6341741
105.635764
105.6374221
105.6391311
105.6408726
105.6426219
105.6443218
105.6459696
105.6475769
105.6491665
105.6507693
105.6524446
105.6542081
105.6560515
105.6579543
105.6598905
105.6618182
105.6636834
105.6654778
105.6672171
105.6689322
105.6706654
105.6724871
105.674412
105.6764312
105.6785204
105.680647
105.6827549
105.6847865
105.6867252
105.6885869
105.6904093
105.6922468
105.6941822
105.6962347
105.6983967
105.7006396
105.7029208
105.7051683
105.7073202
105.7093549
105.7112927
105.7131844
105.7150947
105.7171222
105.7192904
105.7215892
105.7239835
105.7264218
105.7288131
105.7310837
105.7332104
105.7352212
105.7371784
105.7391644
105.7413018
105.7436156
105.7460896
105.7486793
105.7513264
105.7539221
105.7563738
105.7586542
105.7607958
105.7628724
105.764982
105.7672738
105.7697805
105.7724856
105.7753375
105.7782586
105.7811177
105.7838006
105.7862696
105.7885618
105.7907673
105.793007
105.7954671
105.7981947
105.8011711
105.8043329
105.8075882
105.8107775
105.8137469
105.8164539
105.8189511
105.8213497
105.8238025
105.8265469
105.8296294
105.8330168
105.836627
105.8403565
105.8440073
105.8473938
105.8504736
105.8533159
105.8560649
105.8589015
105.8621048
105.8657204
105.8696987
105.8739338
105.8782912
105.8825251
105.8864517
105.8899961
105.8932095
105.8962594
105.8993656
105.9028424
105.9067714
105.9111256
105.9157771
105.9205284
105.925075
105.9292259
105.9328462
105.9359713
105.9388211
105.9416813
105.9449094
105.9486254
105.9528165
105.9573534
105.9620206
105.9665035
105.9705103
105.9737937
105.9763446
105.9784559
105.9806175
105.9834597
105.9870702
105.9912522
105.9956913
106.0001785
106.0045527
106.0087193
106.0123378
106.0150445
106.0169624
106.0190049
106.0217956
106.0248814
106.0281359
106.0283099
106.0244028
106.0140504
105.9914418
105.9427672
105.8436476
105.6530963
105.2938151
104.6153821
103.3367421
100.9501635
96.56688176
88.73409226
75.42617747
54.35534477
29.86201125
14.68004134
6.820493317
3.082352815
1.37503684
0.6097926272
0.2697122866
0.1191534995
0.05261185818
0.02322504521
0.01025134532
0.004524605929
0.001996948901
0.000881341223
0.0003889689976
0.0001716638345
7.575878192e-05
3.343306815e-05
1.475390883e-05
6.510801427e-06
2.873562948e-06
1.267751827e-06
5.577722391e-07
2.444782012e-07
1.067940616e-07
4.672813247e-08
1.993379328e-08
7.554490367e-09
1.992361831e-09
-4.058620107e-11
-1.05694653e-09
-1.298417374e-09
-1.747878287e-09
-1.574221642e-09
-1.922103365e-09
-2.342858352e-09
-2.7915803e-09
-2.925958142e-09
-3.012473826e-09
-2.34831532e-09
-1.986848019e-09
-1.792841431e-09
-2.143849542e-09
-2.292154022e-09
-2.106844477e-09
-2.111676167e-09
-2.203933036e-09
-2.308638614e-09
-2.068759386e-09
-1.785053882e-09
-1.096623237e-09
-1.189221166e-09
-5.998685992e-10
-4.440039447e-10
-8.036522559e-10
-8.379856808e-10
-7.730704965e-10
-7.27538918e-10
-8.544702723e-10
-9.343921192e-10
-9.908944776e-10
-6.43126441e-10
-6.285745258e-10
-4.557705324e-10
5.451852303e-10
5.234710443e-10
1.097475888e-09
1.255443749e-09
1.414548478e-09
1.420687568e-09
1.155797236e-09
9.707150639e-10
1.518174031e-09
2.116451014e-09
2.13998419e-09
2.091553597e-09
1.978946784e-09
1.901696578e-09
1.99850092e-09
1.937394245e-09
2.388276243e-09
2.539991328e-09
2.495596618e-09
2.970523383e-09
3.230582024e-09
3.021341399e-09
2.903448149e-09
2.902993401e-09
2.650608621e-09
2.489230155e-09
2.530612164e-09
2.696253887e-09
2.398110155e-09
2.020556167e-09
1.678643002e-09
2.016747658e-09
2.336093985e-09
2.577166924e-09
2.311537628e-09
2.114234121e-09
1.856278686e-09
1.863952548e-09
1.910962055e-09
1.560920282e-09
1.187970611e-09
1.181547304e-09
1.604519184e-09
1.322064236e-09
1.479861567e-09
2.202057203e-09
2.978822522e-09
3.392074177e-09
3.017134986e-09
3.045784069e-09
3.047205155e-09
3.478817234e-09
3.575962637e-09
3.269576609e-09
2.587967174e-09
2.259014309e-09
3.168906915e-09
3.394063697e-09
3.531170023e-09
3.870525234e-09
3.889567779e-09
3.381785518e-09
2.397314347e-09
2.101273822e-09
2.163289992e-09
2.488832251e-09
2.857234449e-09
2.985132141e-09
2.584897629e-09
2.008960109e-09
1.882312972e-09
1.824105311e-09
2.077115369e-09
2.29761099e-09
2.237527497e-09
2.526178378e-09
2.564433998e-09
2.29510988e-09
2.239175956e-09
2.519016107e-09
2.592571491e-09
2.073022642e-09
1.467412858e-09
1.309786057e-09
1.306204922e-09
8.874394553e-10
7.262883628e-10
6.642153494e-10
8.42078407e-10
7.999574336e-10
6.456843948e-10
1.135731509e-10
-3.20142135e-10
-1.234639058e-10
2.721094461e-10
1.117257398e-09
2.008050615e-09
2.463821147e-09
2.330750704e-09
1.994692411e-09
1.868215804e-09
1.760611212e-09
1.471391897e-09
1.181945208e-09
7.425455806e-10
4.825437827e-10
3.283275873e-10
-1.80762072e-11
6.497202776e-11
6.278355613e-10
9.765130926e-10
1.189107479e-09
1.231796887e-09
1.651869752e-09
1.825867457e-09
1.732757937e-09
2.299941571e-09
1.661419446e-09
1.004934802e-09
3.589093467e-10
-1.070930011e-10
-1.855937626e-10
2.836486601e-11
-2.548858902e-10
-1.279431672e-09
-1.512148629e-09
-1.510102265e-09
-1.169212283e-09
-6.444338396e-10
-1.13857368e-10
-2.791011866e-10
3.103082236e-10
8.616893865e-10
7.904077393e-10
1.983835318e-11
-6.987193046e-10
2.745537131e-10
6.235723049e-10
6.099298844e-10
-1.934949978e-10
-4.631601769e-10
-4.354205885e-10
-3.203126653e-10
-6.082245818e-12
5.788365343e-10
1.42654244e-09
2.274873623e-09
2.128729193e-09
1.89425009e-09
1.524767868e-09
2.080867034e-09
1.786474968e-09
7.286757864e-10
-2.650608621e-10
-3.641389412e-10
-3.423110684e-10
-1.13459464e-10
6.440927791e-10
4.528146746e-10
7.379981071e-10
1.449507181e-10
5.871925168e-11
5.960600902e-10
1.242312919e-09
1.710304787e-09
1.493845048e-09
1.433818397e-09
1.273804173e-09
1.352816525e-09
1.406363026e-09
1.123737547e-09
1.168871222e-09
1.243392944e-09
9.709424376e-10
9.073914953e-10
8.675442587e-10
5.880451681e-10
3.624904821e-10
5.564402272e-10
6.482423487e-10
8.840288501e-10
6.664322427e-10
3.428795026e-10
-1.007265382e-10
-7.1776185e-10
-5.26824806e-10
1.208491085e-10
4.440607881e-10
4.050662028e-10
5.969127415e-10
1.075932232e-09
1.485602752e-09
1.614807843e-09
2.03374384e-09
2.4547262e-09
2.682270406e-09
2.4676865e-09
2.306649094e-09
2.322337878e-09
2.19102958e-09
2.088540896e-09
2.148738076e-09
2.396006948e-09
2.720696557e-09
2.643162134e-09
2.86223667e-09
2.837509783e-09
2.700744517e-09
2.292438239e-09
2.156127721e-09
2.100193797e-09
2.081492312e-09
2.133390353e-09
2.101785412e-09
2.16874696e-09
2.344449967e-09
2.723027137e-09
3.416744221e-09
3.48472895e-09
3.362174539e-09
3.447041763e-09
3.520710834e-09
3.126785941e-09
2.553861123e-09
2.601439064e-09
2.68931899e-09
2.765716545e-09
2.469107585e-09
2.397769094e-09
2.295394097e-09
1.808984962e-09
1.633452484e-09
1.276987405e-09
1.456612608e-09
1.60594027e-09
1.350997536e-09
8.144525054e-10
1.027046892e-09
9.423501979e-10
4.186517799e-10
1.558078111e-10
2.53237431e-10
2.596038939e-10
3.244053914e-10
7.833591553e-10
6.438654054e-10
3.863078746e-10
3.548734639e-10
8.125766726e-10
5.207425602e-10
4.513367458e-10
3.859668141e-10
5.708216122e-10
4.489493222e-10
1.870148481e-11
-2.934825716e-10
-3.317381925e-10
1.740545486e-10
4.949924914e-10
7.069616004e-10
3.57999852e-10
-3.532250048e-10
-7.483436093e-10
-4.377511686e-10
-8.402025742e-10
-1.06325615e-09
-1.251862614e-09
-1.308876563e-09
-1.363218871e-09
-1.357022938e-09
-9.676455193e-10
-5.300648809e-10
-9.679297364e-10
-1.524256277e-09
-1.373905434e-09
-7.345306585e-10
-1.614353096e-10
2.242472874e-10
1.91619165e-10
2.141860023e-10
3.558966455e-10
-5.189804142e-11
-1.892885848e-10
-4.044977686e-10
-4.600337888e-10
2.074784788e-11
1.872990651e-10
1.647890713e-10
4.113189789e-10
6.721165846e-10
6.343725545e-10
7.609628483e-10
1.337980393e-09
1.470255029e-09
1.288185558e-09
1.206274192e-09
1.178420916e-09
1.453940968e-09
1.624357537e-09
1.256069027e-09
1.129535576e-09
1.569901542e-09
2.037211289e-09
2.628439688e-09
3.121556347e-09
3.184084107e-09
2.668116394e-09
2.553179002e-09
2.66521738e-09
3.243258107e-09
3.892012046e-09
3.837840268e-09
3.535831183e-09
3.259344794e-09
2.982972092e-09
2.757190032e-09
2.325805326e-09
2.483773187e-09
3.098648449e-09
3.27025873e-09
3.443062724e-09
3.415834726e-09
3.155207651e-09
2.540446076e-09
2.11139195e-09
1.951093509e-09
2.454271453e-09
2.633726126e-09
2.568015134e-09
2.597516868e-09
2.500144092e-09
2.404533461e-09
2.190347459e-09
2.187960035e-09
2.060914994e-09
2.22661356e-09
2.570743618e-09
2.414139999e-09
1.740886546e-09
1.515559234e-09
1.392209015e-09
9.192149264e-10
9.636096365e-10
9.896439224e-10
8.039933164e-10
5.768470146e-10
1.326895926e-09
1.149601303e-09
1.07888809e-09
9.912923815e-10
1.163641627e-09
1.355090262e-09
1.323485321e-09
1.442685971e-09
1.389082627e-09
1.231910574e-09
8.870983947e-10
1.027160579e-09
1.729802079e-09
1.980026809e-09
2.088597739e-09
2.126398613e-09
2.27066721e-09
2.518390829e-09
2.206377303e-09
1.736168542e-09
1.278465334e-09
1.859405074e-09
2.141007371e-09
2.664933163e-09
2.222634521e-09
2.066201432e-09
2.341153049e-09
2.398849119e-09
1.865430477e-09
1.993896603e-09
1.900104962e-09
2.165279511e-09
1.765670277e-09
1.866567345e-09
1.761009116e-09
1.812338724e-09
1.8185915e-09
2.032265911e-09
2.198646598e-09
2.191541171e-09
1.825810614e-09
1.83638349e-09
1.543583039e-09
1.61958269e-09
2.071942617e-09
2.692274848e-09
2.390095233e-09
2.846547886e-09
3.188802111e-09
3.058175935e-09
3.064315024e-09
3.504567303e-09
4.006835752e-09
4.227956651e-09
5.110450729e-09
4.481194082e-09
3.3698484e-09
2.635601959e-09
2.691137979e-09
2.345416306e-09
1.888679435e-09
1.884416179e-09
1.931766747e-09
2.481840511e-09
2.723425041e-09
2.200295057e-09
1.645162229e-09
1.239868652e-09
9.921450328e-10
1.185185283e-09
1.162277385e-09
1.061891908e-09
1.500552571e-09
2.260776455e-09
2.522256182e-09
2.642309482e-09
2.307103841e-09
1.835985586e-09
1.68591896e-09
1.217131285e-09
5.973674888e-10
4.351932148e-10
5.159108696e-10
4.424691724e-10
2.328874871e-10
1.119246917e-10
1.30285116e-10
-6.428990673e-11
-1.261923899e-11
3.67094799e-10
5.463220987e-10
8.321876521e-10
7.077005648e-10
5.160245564e-10
6.86554813e-10
8.906795301e-10
1.398177574e-09
1.534090188e-09
1.567002528e-09
1.515559234e-09
1.348553269e-09
1.028695351e-09
7.779590305e-10
9.377458809e-10
1.464229626e-09
1.523233095e-09
7.830749382e-10
8.094502846e-11
1.949729267e-11
8.607798918e-10
7.890434972e-10
6.536424735e-10
9.386553756e-10
1.440810138e-09
1.351679657e-09
1.272212558e-09
1.425064511e-09
1.507544312e-09
1.094292656e-09
6.951950127e-10
5.653078006e-10
5.40126166e-10
8.446363609e-10
1.004138994e-09
9.409859558e-10
6.882601156e-10
9.428617886e-10
7.814833225e-10
8.552092368e-10
5.346123544e-10
8.325855561e-10
9.254677025e-10
1.093326318e-09
7.291305337e-10
7.08268999e-10
7.204334906e-10
6.719460544e-10
1.131297722e-09
1.053820142e-09
1.010278083e-09
9.30015176e-10
8.785718819e-10
1.105433967e-09
1.035289188e-09
8.1087137e-10
9.881091501e-10
8.446363609e-10
1.047283149e-09
9.888481145e-10
9.331984074e-10
5.805986802e-10
4.628191164e-10
3.266791282e-10
4.522462405e-10
7.362359611e-10
8.330971468e-10
7.358380572e-10
8.206484381e-10
7.416929293e-10
7.426592674e-10
3.32761374e-10
3.039986041e-10
1.302282726e-10
-3.115019354e-11
-2.336264515e-11
-2.388560461e-10
-5.519495971e-11
-3.071818355e-10
2.57443844e-10
6.817799658e-10
6.579057299e-10
4.165485734e-10
8.697043086e-12
-1.65016445e-10
-2.409024091e-10
0
-6.338609637e-10
-7.900666787e-10
-4.625348993e-10
-8.796519069e-10
-1.196724497e-09
-1.112653081e-09
-1.209230049e-09
-1.44433443e-09
-1.263515514e-09
-1.233274816e-09
-1.136697847e-09
-1.277442152e-09
-1.753505785e-09
-1.96973815e-09
-2.364970442e-09
-1.755211088e-09
-1.249020443e-09
-1.662840532e-09
-1.836212959e-09
-1.617024736e-09
-1.681655704e-09
-1.875434918e-09
-2.29312036e-09
-2.080867034e-09
-1.255500592e-09
-1.452349352e-09
-1.367311597e-09
-1.548812634e-09
-1.623334356e-09
-1.348439582e-09
-2.635260898e-10
-5.246647561e-11
-2.660272003e-10
-5.728679753e-10
-6.016307452e-10
-6.193658919e-10
-5.354650057e-11
1.186890586e-10
6.826894605e-11
-1.094804247e-10
-3.709601515e-10
-7.372022992e-10
-6.482423487e-10
-2.413003131e-10
-2.797264642e-10
-3.240074875e-12
4.292246558e-10
3.186073627e-10
6.792788554e-10
6.736513569e-10
6.314166967e-10
5.998685992e-10
1.033072294e-09
1.303419594e-09
1.559214979e-09
1.549778972e-09
1.5020305e-09
1.652722403e-09
1.914713721e-09
1.950013484e-09
2.120600584e-09
1.874582267e-09
1.615205747e-09
2.131798738e-09
1.879527645e-09
1.97587724e-09
2.078763828e-09
2.163858426e-09
1.933074145e-09
1.732757937e-09
1.433136276e-09
1.572232122e-09
1.585192422e-09
1.866396815e-09
1.992361831e-09
1.831608643e-09
1.872194844e-09
2.079332262e-09
1.929265636e-09
1.979003628e-09
1.786077064e-09
1.666080607e-09
1.377543413e-09
8.080860425e-10
5.875335773e-10
6.479012882e-10
6.402274266e-10
5.621814125e-10
4.74301487e-10
7.7761797e-10
9.271161616e-10
1.278863238e-09
1.731677912e-09
1.537046046e-09
1.344233169e-09
1.015393991e-09
9.055156625e-10
1.195303412e-09
1.677165073e-09
1.363559932e-09
1.529315341e-09
1.332466582e-09
9.821974345e-10
1.053763299e-09
1.239072844e-09
1.089972557e-09
3.490185918e-10
-3.876721166e-11
-2.308979674e-10
-5.841229722e-10
-6.023128662e-10
-4.791331776e-10
-3.65730557e-10
-5.360334399e-11
9.580958249e-10
5.776428225e-10
-1.062232968e-09
-1.421824436e-09
-1.001865257e-09
-8.248548511e-10
-4.746425475e-10
-4.507683116e-11
3.70619091e-11
-6.749587556e-10
-1.780279035e-09
-2.066599336e-09
-2.158969892e-09
-1.90937044e-09
-1.724572485e-09
-1.881517164e-09
-1.68574843e-09
-1.232365321e-09
3.973354978e-10
7.736389307e-10
6.576783562e-10
8.005258678e-10
5.708784556e-10
1.318198883e-10
-8.542428986e-10
-3.678337634e-10
1.57967861e-10
6.460822988e-10
1.07223741e-09
9.36665856e-10
6.474465408e-10
6.891696103e-10
8.490701475e-10
1.128000804e-09
8.969323062e-10
9.735003914e-10
1.075420641e-09
6.622258297e-10
5.547349247e-10
8.710685506e-10
1.156877261e-09
1.40460088e-09
1.350144885e-09
1.156024609e-09
1.609066658e-09
2.030844826e-09
2.327226412e-09
2.404192401e-09
2.409251465e-09
2.496904017e-09
2.681360911e-09
2.293404577e-09
1.723719834e-09
1.263003924e-09
1.16068577e-09
1.338605671e-09
1.421540219e-09
1.342073119e-09
1.361968316e-09
1.531020644e-09
1.029775376e-09
8.930101103e-10
8.102460924e-10
6.787104212e-10
1.531930138e-09
1.295745733e-09
1.146361228e-09
1.355090262e-09
1.527496352e-09
1.523005722e-09
9.871428119e-10
6.573941391e-10
6.252207641e-10
7.274252312e-10
6.393179319e-10
9.004565982e-10
9.16315912e-10
4.6969717e-10
7.198650565e-10
9.512746146e-10
1.352020718e-09
1.732189503e-09
1.758508006e-09
1.603325472e-09
1.640785285e-09
1.697003427e-09
1.667160632e-09
1.558532858e-09
1.374019121e-09
1.439445896e-09
1.223327217e-09
8.849951882e-10
7.776748134e-10
1.095884272e-09
1.313537723e-09
7.606786312e-10
7.858034223e-10
1.269711447e-09
1.994123977e-09
2.279307409e-09
1.804778549e-09
1.341845746e-09
1.12129328e-09
8.688516573e-10
9.24046617e-10
9.862333172e-10
9.243308341e-10
8.60268301e-10
1.194393917e-09
1.115665782e-09
1.162561603e-09
1.254932158e-09
1.684782092e-09
2.115029929e-09
2.363037765e-09
3.133095561e-09
3.585910235e-09
3.224783995e-09
3.482057309e-09
3.06408765e-09
2.735191629e-09
2.853710157e-09
3.004629434e-09
2.930221399e-09
2.027661594e-09
1.728096777e-09
1.77004722e-09
1.829619123e-09
9.476366358e-10
1.019941465e-09
1.096225333e-09
1.1651764e-09
1.088949375e-09
1.503849489e-09
1.877310751e-09
1.447631348e-09
7.368043953e-10
1.944044925e-10
5.550759852e-10
3.466880116e-10
-3.78634013e-10
-7.320295481e-10
-2.04920525e-10
-1.035118657e-10
1.663238436e-10
-1.941771188e-10
2.593765203e-10
1.04364517e-09
1.057685495e-09
1.071384759e-09
4.633875506e-10
1.055411758e-09
4.828279998e-10
-3.847162588e-10
-4.319531399e-10
4.658318176e-10
6.639879757e-10
7.528910828e-10
1.635953595e-10
2.671072252e-10
2.442561708e-10
7.287326298e-11
3.353761713e-11
-1.299440555e-10
-4.708908818e-10
-6.771188055e-10
-8.498659554e-10
-2.606270755e-10
-3.802824722e-10
1.578541742e-10
7.5766593e-10
6.724008017e-10
1.200533006e-10
-8.668621376e-11
-2.376054908e-11
3.042259777e-10
1.631406121e-10
3.716422725e-10
1.288071871e-10
2.480078365e-10
3.025775186e-10
4.204707693e-10
-4.729372449e-11
-3.294644557e-10
-3.842046681e-10
-3.31397132e-10
-3.080344868e-10
-8.730580703e-10
-1.112255177e-09
-1.305977548e-09
-1.396188054e-09
-1.491514467e-09
-1.203886768e-09
-1.013575002e-09
-1.17847776e-09
-1.148805495e-09
-4.886828719e-10
-2.768842933e-10
-1.610374056e-10
-5.640004019e-10
-8.634515325e-11
-1.779767445e-10
2.845013114e-10
-5.809397408e-11
1.608668754e-10
2.758042683e-10
1.773514668e-11
-2.593196768e-10
-4.0319037e-10
-7.725589057e-10
-3.009859029e-10
1.374473868e-10
2.264641807e-10
2.273736754e-10
4.011440069e-10
3.631726031e-10
2.153228706e-10
-1.538182914e-10
-6.712070899e-10
-1.216903911e-09
-1.954674644e-09
-2.45887577e-09
-2.650097031e-09
-2.427611889e-09
-2.688864242e-09
-2.445347036e-09
-1.996795618e-09
-1.776925274e-09
-1.617991074e-09
-1.630041879e-09
-1.21389121e-09
-3.402078619e-10
-2.965521162e-10
-3.025775186e-10
-4.255298336e-10
-2.418119038e-10
-3.049080988e-10
-5.196625352e-10
-5.295532901e-10
-4.085904948e-10
-2.872866389e-10
-3.48904905e-10
-9.230234355e-10
-1.052910648e-09
-9.090967978e-10
-9.550262803e-10
-6.523919183e-10
-4.679918675e-10
-4.677644938e-10
-8.515144145e-11
2.018509804e-10
5.745164344e-10
5.350102583e-10
3.078071131e-10
-2.808064892e-10
-8.083702596e-10
-1.869580046e-10
2.687556844e-10
4.172306944e-11
-3.866489351e-10
-6.987193046e-10
-2.489741746e-10
-6.417621989e-11
-6.48014975e-12
7.827338777e-11
1.616058398e-10
-3.922195901e-11
4.58840077e-10
2.679030331e-10
-3.813624971e-10
-3.710169949e-10
-1.925855031e-10
1.088551471e-10
6.818936527e-10
5.650804269e-10
4.088178684e-10
3.702780305e-10
6.770051186e-11
7.109406397e-10
8.777192306e-10
1.030684871e-09
1.252431048e-09
1.247371983e-09
1.146304385e-09
1.322405296e-09
1.248679382e-09
1.216676537e-09
1.380612957e-09
1.310979769e-09
1.616854206e-09
1.929095106e-09
2.137596766e-09
2.270098776e-09
2.225476692e-09
2.935848897e-09
3.159129847e-09
3.029015261e-09
2.83131385e-09
2.608260274e-09
2.657770892e-09
2.882813988e-09
3.180048225e-09
3.214893241e-09
3.213813216e-09
3.300044682e-09
3.39628059e-09
3.203695087e-09
3.200852916e-09
4.00979161e-09
3.97204758e-09
3.931631909e-09
4.015589639e-09
4.149910637e-09
4.475680271e-09
4.59903049e-09
4.629328032e-09
4.875289505e-09
5.102720024e-09
4.903938589e-09
5.075605714e-09
5.411038728e-09
5.695312666e-09
5.855952168e-09
5.769265954e-09
5.677748049e-09
5.7045213e-09
5.894492006e-09
5.911203971e-09
6.108791695e-09
6.173650036e-09
6.111122275e-09
5.927404345e-09
6.0124421e-09
5.571621386e-09
5.443212103e-09
5.683261861e-09
5.561616945e-09
5.328331554e-09
5.939568837e-09
5.935760328e-09
5.385288659e-09
4.701405487e-09
4.168612122e-09
4.266553333e-09
4.058620107e-09
4.073513082e-09
4.042135515e-09
3.686864147e-09
3.657760317e-09
3.535660653e-09
3.345462574e-09
3.193918019e-09
3.126729098e-09
3.394916348e-09
3.352170097e-09
3.288846528e-09
2.841488822e-09
2.627359663e-09
2.389299425e-09
2.177330316e-09
2.175625013e-09
2.859792403e-09
3.045784069e-09
2.939657406e-09
2.628780749e-09
2.235708507e-09
2.24855512e-09
2.376395969e-09
2.276294708e-09
2.092178875e-09
2.579326974e-09
2.589160886e-09
3.087677669e-09
3.241041213e-09
2.857518666e-09
2.894864792e-09
2.710748959e-09
2.571539426e-09
2.586261871e-09
2.605474947e-09
2.510887498e-09
2.637932539e-09
2.703927748e-09
2.558579126e-09
2.458818926e-09
2.648221198e-09
2.566991952e-09
2.802494237e-09
2.823014711e-09
2.706656232e-09
2.493720785e-09
2.474450866e-09
2.622869033e-09
2.609112926e-09
2.599335858e-09
2.161982593e-09
2.388674147e-09
2.41465159e-09
1.981561581e-09
1.721787157e-09
1.359069302e-09
1.592525223e-09
1.609521405e-09
1.506805347e-09
1.909143066e-09
2.094054707e-09
1.932789928e-09
2.148851763e-09