/*--------------------------------*- C++ -*----------------------------------*\
| =========                 |                                                 |
| \\      /  F ield         | OpenFOAM: The Open Source CFD Toolbox           |
|  \\    /   O peration     | Version:  2312                                  |
|   \\  /    A nd           | Website:  www.openfoam.com                      |
|    \\/     M anipulation  |                                                 |
\*---------------------------------------------------------------------------*/
FoamFile
{
    version     2.0;
    format      ascii;
    arch        "LSB;label=32;scalar=64";
    class       volScalarField;
    location    "0.0008";
    object      rho;
}
// * * * * * * * * * * * * * * * * * * * * * * * * * * * * * * * * * * * * * //

dimensions      [1 -3 0 0 0 0 0];

internalField   nonuniform List<scalar> 
5000
(
11582.11721
11582.11721
11582.11721
11582.11721
11582.11721
11582.11721
11582.11721
11582.11721
11582.11721
11582.11721
11582.11721
11582.11721
11582.11721
11582.11721
11582.11721
11582.11721
11582.11721
11582.11721
11582.11721
11582.11721
11582.11721
11582.11721
11582.11721
11582.11721
11582.11721
11582.11721
11582.11721
11582.11721
11582.11721
11582.11721
11582.11721
11582.11721
11582.11721
11582.11721
11582.11721
11582.11721
11582.11721
11582.11721
11582.11721
11582.11721
11582.11721
11582.11721
11582.11721
11582.11721
11582.11721
11582.11721
11582.11721
11582.11721
11582.11721
11582.11721
11582.11721
11582.11721
11582.11721
11582.11721
11582.11721
11582.11721
11582.11721
11582.11721
11582.11721
11582.11721
11582.11721
11582.11721
11582.11721
11582.11721
11582.11721
11582.11721
11582.11721
11582.11721
11582.11721
11582.11721
11582.11721
11582.11721
11582.11721
11582.11721
11582.11721
11582.11721
11582.1172
11582.11719
11582.11717
11582.11713
11582.11705
11582.1169
11582.11659
11582.116
11582.11487
11582.11276
11582.10882
11582.10159
11582.08851
11582.06514
11582.02401
11581.95269
11581.83093
11581.62638
11581.28847
11580.73998
11579.86584
11578.49928
11576.40573
11573.26615
11568.66287
11562.0726
11552.87339
11540.37353
11523.87255
11502.7692
11476.75683
11446.09261
11411.38767
11373.15492
11331.78334
11287.63068
11241.04887
11192.37703
11141.9311
11089.99665
11036.82566
10982.63651
10927.61613
10871.92331
10815.69243
10759.03718
10702.05398
10644.82496
10587.42056
10529.9017
10472.32153
10414.72699
10357.16008
10299.65888
10242.25855
10184.99214
10127.89143
10070.98893
10014.32083
9957.928426
9901.857579
9846.14922
9790.844769
9735.99466
9681.657664
9627.902323
9574.810087
9522.478793
9471.027068
9420.600004
9371.376157
9323.571774
9277.447251
9233.342842
9191.662749
9152.822255
9116.931124
9084.62928
9037.938217
8971.02573
8892.989372
8817.889099
8747.932931
8681.507893
8617.727763
8555.991828
8495.870299
8437.066158
8379.364792
8322.605335
8266.664498
8211.443821
8156.862215
8102.853654
8049.366111
7996.359063
7943.80228
7891.674387
7839.955353
7788.628866
7737.680377
7687.096872
7636.868014
7586.98595
7537.444031
7488.23691
7439.360072
7390.808651
7342.57877
7294.669644
7247.082106
7199.815629
7152.868488
7106.239521
7059.929201
7013.941583
6968.282631
6922.955152
6877.963151
6833.314034
6789.009807
6745.056555
6701.470187
6658.258852
6615.434103
6573.014697
6531.019775
6489.472271
6448.396246
6407.820263
6367.77896
6328.303344
6289.434134
6251.232933
6213.773914
6177.143431
6141.444416
6106.800871
6073.361207
6041.300039
6010.817594
5982.134326
5955.478603
5931.067168
5909.08016
5889.634265
5872.759146
5858.383562
5846.337117
5836.369374
5828.182231
5821.466643
5815.934188
5811.337098
5807.475511
5804.194263
5801.373917
5798.920997
5796.760705
5794.833378
5793.093307
5791.507613
5790.054042
5788.717397
5787.48599
5786.34921
5785.296118
5784.315299
5783.395269
5782.525599
5781.698024
5780.90708
5780.149658
5779.424231
5778.730421
5778.06815
5777.437529
5776.83765
5776.266242
5775.720373
5775.197538
5774.696927
5774.217738
5773.757369
5773.312343
5772.879632
5772.458445
5772.050455
5771.657615
5771.278937
5770.910362
5770.549088
5770.195278
5769.852305
5769.522411
5769.205195
5768.89872
5768.597373
5768.297585
5767.999177
5767.705656
5767.4207
5767.145823
5766.87917
5766.619825
5766.364078
5766.105341
5765.847099
5765.58948
5765.336711
5765.091213
5764.851438
5764.617888
5764.386704
5764.147302
5763.909872
5763.672266
5763.439095
5763.209044
5762.98012
5762.750399
5762.520135
5762.291197
5762.066052
5761.842707
5761.613748
5761.383215
5761.154615
5760.917053
5760.675984
5760.438988
5760.192488
5759.939792
5759.693334
5759.430434
5759.151253
5758.87467
5758.559718
5758.206485
5757.817719
5757.336987
5756.75434
5755.974719
5754.894778
5753.331322
5750.981173
5747.406332
5741.908605
5733.482435
5720.671725
5701.443697
5673.053223
5631.936291
5573.684719
5493.182792
5384.987621
5244.003704
5066.431398
4850.917307
4599.408908
4317.816726
4013.601501
3697.764769
3382.362583
3076.063728
2786.568883
2518.437994
2274.157832
2053.776234
1858.622734
1695.935625
1572.029264
1479.452618
1409.480353
1355.539568
1313.457604
1280.35233
1254.152778
1233.335672
1216.755919
1203.537505
1192.999936
1184.607742
1177.935673
1172.64363
1168.458062
1165.158269
1162.566128
1160.537808
1158.957219
1157.730853
1156.783607
1156.055329
1155.498
1155.073511
1154.751798
1154.509222
1154.327282
1154.191574
1154.090941
1154.016787
1153.962509
1153.923074
1153.894667
1153.874412
1153.86014
1153.850237
1153.843472
1153.83899
1153.836057
1153.834284
1153.833425
1153.833313
1153.83385
1153.834918
1153.836365
1153.837976
1153.839534
1153.841029
1153.84248
1153.843893
1153.845275
1153.846632
1153.847969
1153.849289
1153.850594
1153.851886
1153.853164
1153.854427
1153.855677
1153.856913
1153.858136
1153.859347
1153.860546
1153.861731
1153.862903
1153.864062
1153.865207
1153.866339
1153.867459
1153.868566
1153.869661
1153.870745
1153.871817
1153.872879
1153.87393
1153.874972
1153.876005
1153.877032
1153.878051
1153.879066
1153.880076
1153.881082
1153.882086
1153.883087
1153.884086
1153.885083
1153.886077
1153.887067
1153.888054
1153.889037
1153.890015
1153.890988
1153.891955
1153.892917
1153.893875
1153.894827
1153.895774
1153.896717
1153.897656
1153.898592
1153.899526
1153.900459
1153.901392
1153.902326
1153.903262
1153.9042
1153.905141
1153.906085
1153.907031
1153.90798
1153.908931
1153.909885
1153.910841
1153.911799
1153.91276
1153.913723
1153.914687
1153.915653
1153.916617
1153.917581
1153.918542
1153.919501
1153.920457
1153.921411
1153.922362
1153.923311
1153.924258
1153.925203
1153.926147
1153.927089
1153.928029
1153.928968
1153.929906
1153.930844
1153.931782
1153.93272
1153.933658
1153.934596
1153.935534
1153.93647
1153.937404
1153.938334
1153.93926
1153.940182
1153.941102
1153.942019
1153.942934
1153.943847
1153.944756
1153.945664
1153.946571
1153.947477
1153.948381
1153.949282
1153.950179
1153.951071
1153.951959
1153.952845
1153.953729
1153.954612
1153.955493
1153.956371
1153.957245
1153.958114
1153.958977
1153.959834
1153.960687
1153.961537
1153.962385
1153.963232
1153.964077
1153.96492
1153.96576
1153.966598
1153.967435
1153.96827
1153.969106
1153.969943
1153.970784
1153.971628
1153.972474
1153.973323
1153.974172
1153.975022
1153.975874
1153.976728
1153.977584
1153.978443
1153.979306
1153.980173
1153.981043
1153.981914
1153.982786
1153.983657
1153.984527
1153.985397
1153.986269
1153.987145
1153.988027
1153.988912
1153.989802
1153.990697
1153.991595
1153.992493
1153.99339
1153.994287
1153.995187
1153.99609
1153.996997
1153.997909
1153.998827
1153.999751
1154.000679
1154.001609
1154.002539
1154.003468
1154.004397
1154.005327
1154.00626
1154.007198
1154.00814
1154.009087
1154.010037
1154.010989
1154.01194
1154.012888
1154.013837
1154.014785
1154.015735
1154.016688
1154.017647
1154.018611
1154.019579
1154.020549
1154.021517
1154.02248
1154.023438
1154.024394
1154.025347
1154.0263
1154.027255
1154.028217
1154.029186
1154.030161
1154.031141
1154.03212
1154.033097
1154.034074
1154.035051
1154.03603
1154.037015
1154.038011
1154.039018
1154.040036
1154.041062
1154.042094
1154.043129
1154.044165
1154.0452
1154.046235
1154.047273
1154.048321
1154.049381
1154.050452
1154.051532
1154.052618
1154.053702
1154.05478
1154.055855
1154.056927
1154.058
1154.059077
1154.060163
1154.061265
1154.062379
1154.063504
1154.064635
1154.065765
1154.066889
1154.068008
1154.069126
1154.070243
1154.071364
1154.072499
1154.073649
1154.074812
1154.075986
1154.077166
1154.078344
1154.079514
1154.080679
1154.081842
1154.083005
1154.084175
1154.085361
1154.086565
1154.087784
1154.089016
1154.090254
1154.091488
1154.092715
1154.093939
1154.09516
1154.096383
1154.097618
1154.098872
1154.100144
1154.101429
1154.102723
1154.104015
1154.105296
1154.10657
1154.10784
1154.109108
1154.110379
1154.111666
1154.112976
1154.114306
1154.115652
1154.117005
1154.11835
1154.119681
1154.121002
1154.122319
1154.123636
1154.124959
1154.126306
1154.12768
1154.12908
1154.130497
1154.131922
1154.133338
1154.134731
1154.136103
1154.137466
1154.138831
1154.140212
1154.141629
1154.143085
1154.144575
1154.146087
1154.147608
1154.149109
1154.150582
1154.152029
1154.153458
1154.154878
1154.156303
1154.157763
1154.159265
1154.160807
1154.162382
1154.163974
1154.165554
1154.16711
1154.168644
1154.170164
1154.171678
1154.173207
1154.174776
1154.176387
1154.178032
1154.179696
1154.181359
1154.182993
1154.1846
1154.186186
1154.187764
1154.189343
1154.190951
1154.192614
1154.194334
1154.196098
1154.197886
1154.199669
1154.201406
1154.203087
1154.204725
1154.206339
1154.207954
1154.209611
1154.211338
1154.213139
1154.214999
1154.216893
1154.21878
1154.220616
1154.222391
1154.224112
1154.225798
1154.22747
1154.229182
1154.23097
1154.232839
1154.234776
1154.236756
1154.238735
1154.240659
1154.242525
1154.244347
1154.246145
1154.247941
1154.2498
1154.251763
1154.253828
1154.255971
1154.258161
1154.260331
1154.262416
1154.264418
1154.26636
1154.268276
1154.2702
1154.27222
1154.274377
1154.276669
1154.279066
1154.281523
1154.283959
1154.286302
1154.288547
1154.290712
1154.292834
1154.294957
1154.297184
1154.299554
1154.302069
1154.304694
1154.30737
1154.310003
1154.312523
1154.314926
1154.317239
1154.319505
1154.321784
1154.32419
1154.326771
1154.329525
1154.332407
1154.335336
1154.338195
1154.340892
1154.34342
1154.345809
1154.348123
1154.350445
1154.352917
1154.3556
1154.3585
1154.361562
1154.364689
1154.367743
1154.37062
1154.373304
1154.375829
1154.378264
1154.38071
1154.383332
1154.386201
1154.389317
1154.39261
1154.395963
1154.399204
1154.402218
1154.405
1154.407605
1154.410121
1154.412668
1154.415454
1154.418561
1154.421988
1154.425649
1154.429396
1154.433015
1154.436348
1154.439379
1154.442162
1154.444805
1154.447458
1154.450379
1154.453678
1154.457366
1154.461345
1154.465444
1154.46941
1154.473044
1154.476323
1154.479318
1154.482157
1154.485012
1154.488215
1154.491901
1154.496072
1154.5006
1154.505267
1154.509743
1154.51379
1154.517404
1154.520689
1154.523806
1154.526975
1154.530607
1154.534855
1154.539712
1154.545013
1154.550493
1154.555731
1154.560465
1154.564693
1154.568528
1154.57216
1154.575865
1154.580067
1154.584934
1154.590481
1154.596531
1154.602738
1154.608643
1154.613917
1154.618488
1154.62247
1154.62612
1154.629818
1154.633999
1154.63892
1154.64465
1154.650981
1154.657442
1154.663532
1154.668835
1154.673214
1154.676778
1154.679813
1154.682733
1154.686109
1154.690374
1154.695752
1154.702053
1154.708589
1154.714563
1154.71937
1154.723023
1154.725901
1154.728496
1154.731252
1154.734479
1154.738514
1154.743892
1154.750896
1154.758837
1154.766273
1154.771947
1154.772917
1154.769011
1154.762633
1154.752218
1154.725904
1154.671559
1154.572438
1154.384455
1154.016434
1153.306836
1151.966073
1149.455409
1144.796873
1136.324344
1121.499133
1097.011716
1061.135321
1029.690982
1011.591667
1002.528433
998.2853771
996.361596
995.5021966
995.1208434
994.9521251
994.8775798
994.8446629
994.8301316
994.8237175
994.8208866
994.8196371
994.8190857
994.8188423
994.8187349
994.8186875
994.8186666
994.8186573
994.8186533
994.8186515
994.8186507
994.8186503
994.8186502
994.8186501
994.8186501
994.8186501
994.8186501
994.8186501
994.8186501
994.8186501
994.8186501
994.8186501
994.8186501
994.8186501
994.8186501
994.8186501
994.8186501
994.8186501
994.8186501
994.81865
994.81865
994.81865
994.81865
994.81865
994.81865
994.8186501
994.8186501
994.8186501
994.81865
994.81865
994.8186501
994.8186501
994.81865
994.81865
994.81865
994.81865
994.81865
994.8186501
994.8186501
994.8186501
994.8186501
994.8186501
994.8186501
994.8186501
994.8186501
994.8186501
994.81865
994.81865
994.8186501
994.8186501
994.8186501
994.8186501
994.8186501
994.8186501
994.8186501
994.8186501
994.8186501
994.8186501
994.8186501
994.8186501
994.8186501
994.8186501
994.8186501
994.8186501
994.8186501
994.8186501
994.8186501
994.8186501
994.8186501
994.8186501
994.8186501
994.8186501
994.8186501
994.8186501
994.8186501
994.8186501
994.8186501
994.8186501
994.8186501
994.8186501
994.8186501
994.8186501
994.8186501
994.8186501
994.8186501
994.8186501
994.8186501
994.8186501
994.8186501
994.8186501
994.8186501
994.8186501
994.8186501
994.8186501
994.8186501
994.8186501
994.8186501
994.8186501
994.8186501
994.8186501
994.8186501
994.8186501
994.8186501
994.8186501
994.8186501
994.8186501
994.8186501
994.8186501
994.8186501
994.8186501
994.8186501
994.8186501
994.8186501
994.8186501
994.8186501
994.8186501
994.8186501
994.8186501
994.8186501
994.8186501
994.8186501
994.8186501
994.8186501
994.8186501
994.8186501
994.8186501
994.8186501
994.8186501
994.8186501
994.8186501
994.8186501
994.8186501
994.8186501
994.8186501
994.8186501
994.8186501
994.8186501
994.8186501
994.8186501
994.8186501
994.8186501
994.8186501
994.8186501
994.8186501
994.8186501
994.8186501
994.8186501
994.8186501
994.8186501
994.8186501
994.8186501
994.8186501
994.8186501
994.8186501
994.8186501
994.8186501
994.8186501
994.8186501
994.8186501
994.8186501
994.8186501
994.8186501
994.8186501
994.8186501
994.8186501
994.8186501
994.8186501
994.8186501
994.8186501
994.8186501
994.8186501
994.8186501
994.8186501
994.8186501
994.8186501
994.8186501
994.8186501
994.8186501
994.8186501
994.8186501
994.8186501
994.8186501
994.8186501
994.8186501
994.8186501
994.8186501
994.8186501
994.8186501
994.8186501
994.8186501
994.8186501
994.8186501
994.8186501
994.8186501
994.8186501
994.8186501
994.8186501
994.8186501
994.8186501
994.8186501
994.8186501
994.8186501
994.8186501
994.8186501
994.8186501
994.8186501
994.8186501
994.8186501
994.8186501
994.8186501
994.8186501
994.8186501
994.8186501
994.8186501
994.8186501
994.8186501
994.8186501
994.8186501
994.8186501
994.8186501
994.8186501
994.8186501
994.8186501
994.8186501
994.8186501
994.8186501
994.8186501
994.8186501
994.8186501
994.8186501
994.8186501
994.8186501
994.8186501
994.8186501
994.8186501
994.8186501
994.8186501
994.8186501
994.8186501
994.8186501
994.8186501
994.8186501
994.8186501
994.8186501
994.8186501
994.8186501
994.8186501
994.8186501
994.8186501
994.8186501
994.8186501
994.8186501
994.8186501
994.8186501
994.8186501
994.8186501
994.8186501
994.8186501
994.8186501
994.8186501
994.8186501
994.8186501
994.8186501
994.8186501
994.8186501
994.8186501
994.8186501
994.8186501
994.8186501
994.8186501
994.8186501
994.8186501
994.8186501
994.8186501
994.8186501
994.8186501
994.8186501
994.8186501
994.8186501
994.8186501
994.8186501
994.8186501
994.8186501
994.8186501
994.8186501
994.8186501
994.8186501
994.8186501
994.8186501
994.8186501
994.8186501
994.8186501
994.8186501
994.8186501
994.8186501
994.8186501
994.8186501
994.8186501
994.8186501
994.8186501
994.8186501
994.8186501
994.8186501
994.8186501
994.8186501
994.8186501
994.8186501
994.8186501
994.8186501
994.8186501
994.8186501
994.8186501
994.8186501
994.8186501
994.8186501
994.8186501
994.8186501
994.8186501
994.8186501
994.8186501
994.8186501
994.8186501
994.8186501
994.8186501
994.8186501
994.8186501
994.8186501
994.8186501
994.8186501
994.8186501
994.8186501
994.8186501
994.8186501
994.8186501
994.8186501
994.8186501
994.8186501
994.8186501
994.8186501
994.8186501
994.8186501
994.8186501
994.8186501
994.8186501
994.8186501
994.8186501
994.8186501
994.8186501
994.8186501
994.8186501
994.81865
994.81865
994.8186501
994.8186501
994.8186501
994.8186501
994.8186501
994.8186501
994.8186501
994.8186501
994.8186501
994.8186501
994.8186501
994.8186501
994.8186501
994.8186501
994.8186501
994.8186501
994.8186501
994.8186501
994.8186501
994.8186501
994.8186501
994.8186501
994.8186501
994.8186501
994.8186501
994.8186501
994.8186501
994.8186501
994.8186501
994.8186501
994.8186501
994.8186501
994.8186501
994.8186501
994.8186501
994.8186501
994.8186501
994.8186501
994.8186501
994.8186501
994.8186501
994.8186501
994.8186501
994.8186501
994.8186501
994.8186501
994.8186501
994.8186501
994.8186501
994.8186501
994.8186501
994.8186501
994.8186501
994.8186501
994.8186501
994.8186501
994.8186501
994.8186501
994.8186501
994.8186501
994.8186501
994.8186501
994.8186501
994.8186501
994.8186501
994.8186501
994.8186501
994.8186501
994.8186501
994.8186501
994.8186501
994.8186501
994.8186501
994.8186501
994.8186501
994.8186501
994.8186501
994.8186501
994.8186501
994.8186501
994.8186501
994.8186501
994.8186501
994.8186501
994.8186501
994.8186501
994.8186501
994.8186501
994.8186501
994.8186501
994.8186501
994.8186501
994.8186501
994.8186501
994.8186501
994.8186501
994.8186501
994.8186501
994.8186501
994.8186501
994.8186501
994.8186501
994.8186501
994.8186501
994.8186501
994.8186501
994.8186501
994.8186501
994.8186501
994.8186501
994.8186501
994.8186501
994.8186501
994.8186501
994.8186501
994.8186501
994.8186501
994.8186501
994.8186501
994.8186501
994.8186501
994.8186501
994.8186501
994.8186501
994.8186501
994.8186501
994.8186501
994.8186501
994.8186501
994.8186501
994.8186501
994.8186501
994.8186501
994.8186501
994.8186501
994.8186501
994.8186501
994.8186501
994.8186501
994.8186501
994.8186501
994.8186501
994.8186501
994.8186501
994.8186501
994.8186501
994.8186501
994.8186501
994.8186501
994.8186501
994.8186501
994.8186501
994.8186501
994.8186501
994.8186501
994.8186501
994.8186501
994.8186501
994.8186501
994.8186501
994.8186501
994.8186501
994.8186501
994.8186501
994.8186501
994.8186501
994.8186501
994.8186501
994.8186501
994.8186501
994.8186501
994.8186501
994.8186501
994.8186501
994.8186501
994.8186501
994.8186501
994.8186501
994.8186501
994.8186501
994.8186501
994.8186501
994.8186501
994.8186501
994.8186501
994.8186501
994.8186501
994.8186501
994.8186501
994.8186501
994.8186501
994.8186501
994.8186501
994.8186501
994.8186501
994.8186501
994.8186501
994.8186501
994.8186501
994.8186501
994.8186501
994.8186501
994.8186501
994.8186501
994.81865
994.81865
994.81865
994.8186501
994.81865
994.81865
994.81865
994.81865
994.81865
994.81865
994.81865
994.81865
994.81865
994.81865
994.81865
994.81865
994.81865
994.81865
994.81865
994.81865
994.81865
994.81865
994.81865
994.81865
994.81865
994.81865
994.81865
994.81865
994.81865
994.81865
994.81865
994.81865
994.8186501
994.8186501
994.8186501
994.81865
994.81865
994.81865
994.81865
994.81865
994.8186501
994.8186501
994.8186501
994.8186501
994.8186501
994.8186501
994.8186501
994.8186501
994.8186501
994.8186501
994.8186501
994.8186501
994.8186501
994.8186501
994.8186501
994.8186501
994.8186501
994.8186501
994.8186501
994.8186501
994.8186501
994.8186501
994.8186501
994.8186501
994.8186501
994.8186501
994.8186501
994.8186501
994.8186501
994.8186501
994.8186501
994.8186501
994.8186501
994.8186501
994.8186501
994.8186501
994.8186501
994.8186501
994.8186501
994.8186501
994.81865
994.81865
994.8186501
994.8186501
994.81865
994.81865
994.81865
994.81865
994.81865
994.81865
994.81865
994.81865
994.81865
994.81865
994.81865
994.81865
994.81865
994.81865
994.81865
994.81865
994.81865
994.81865
994.81865
994.81865
994.81865
994.81865
994.81865
994.81865
994.81865
994.81865
994.81865
994.81865
994.81865
994.81865
994.81865
994.81865
994.81865
994.81865
994.81865
994.81865
994.81865
994.8186501
994.8186501
994.8186501
994.8186501
994.8186501
994.8186501
994.8186501
994.8186501
994.8186501
994.8186501
994.8186501
994.8186501
994.8186501
994.8186501
994.8186501
994.8186501
994.8186501
994.8186501
994.8186501
994.8186501
994.8186501
994.8186501
994.8186501
994.8186501
994.8186501
994.8186501
994.8186501
994.8186501
994.8186501
994.8186501
994.8186501
994.8186501
994.8186501
994.8186501
994.8186501
994.8186501
994.81865
994.81865
994.81865
994.81865
994.81865
994.8186501
994.81865
994.8186501
994.8186501
994.8186501
994.8186501
994.8186501
994.8186501
994.8186501
994.8186501
994.8186501
994.8186501
994.8186501
994.8186501
994.8186501
994.8186501
994.8186501
994.8186501
994.8186501
994.8186501
994.8186501
994.8186501
994.8186501
994.8186501
994.8186501
994.8186501
994.8186501
994.8186501
994.8186501
994.8186501
994.8186501
994.8186501
994.8186501
994.8186501
994.8186501
994.8186501
994.8186501
994.8186501
994.8186501
994.8186501
994.8186501
994.8186501
994.81865
994.8186501
994.8186501
994.8186501
994.8186501
994.8186501
994.8186501
994.8186501
994.8186501
994.8186501
994.8186501
994.8186501
994.8186501
994.8186501
994.8186501
994.8186501
994.8186501
994.8186501
994.8186501
994.8186501
994.8186501
994.8186501
994.8186501
994.8186501
994.8186501
994.8186501
994.8186501
994.8186501
994.8186501
994.8186501
994.8186501
994.8186501
994.8186501
994.8186501
994.8186501
994.8186501
994.8186501
994.8186501
994.8186501
994.8186501
994.8186501
994.8186501
994.8186501
994.8186501
994.8186501
994.8186501
994.8186501
994.8186501
994.8186501
994.8186501
994.8186501
994.8186501
994.8186501
994.8186501
994.8186501
994.8186501
994.8186501
994.8186501
994.8186501
994.8186501
994.8186501
994.8186501
994.8186501
994.8186501
994.8186501
994.8186501
994.8186501
994.8186501
994.8186501
994.8186501
994.8186501
994.8186501
994.8186501
994.8186501
994.8186501
994.8186501
994.8186501
994.81865
994.81865
994.81865
994.81865
994.81865
994.81865
994.81865
994.81865
994.81865
994.81865
994.81865
994.81865
994.81865
994.81865
994.81865
994.81865
994.81865
994.81865
994.81865
994.81865
994.81865
994.81865
994.81865
994.81865
994.81865
994.81865
994.81865
994.81865
994.81865
994.81865
994.81865
994.81865
994.81865
994.81865
994.81865
994.81865
994.81865
994.81865
994.8186501
994.8186501
994.8186501
994.8186501
994.8186501
994.8186501
994.8186501
994.8186501
994.8186501
994.8186501
994.8186501
994.8186501
994.8186501
994.8186501
994.8186501
994.8186501
994.8186501
994.8186501
994.8186501
994.8186501
994.8186501
994.8186501
994.8186501
994.8186501
994.8186501
994.8186501
994.8186501
994.8186501
994.8186501
994.8186501
994.8186501
994.8186501
994.8186501
994.8186501
994.8186501
994.8186501
994.8186501
994.8186501
994.8186501
994.8186501
994.8186501
994.8186501
994.8186501
994.81865
994.81865
994.81865
994.81865
994.81865
994.81865
994.81865
994.8186501
994.8186501
994.81865
994.81865
994.81865
994.81865
994.81865
994.81865
994.81865
994.81865
994.81865
994.81865
994.81865
994.8186501
994.8186501
994.81865
994.81865
994.81865
994.81865
994.81865
994.81865
994.81865
994.81865
994.81865
994.81865
994.81865
994.81865
994.81865
994.81865
994.81865
994.81865
994.81865
994.81865
994.81865
994.81865
994.81865
994.81865
994.81865
994.81865
994.81865
994.81865
994.8186501
994.8186501
994.81865
994.8186501
994.8186501
994.8186501
994.8186501
994.8186501
994.8186501
994.8186501
994.8186501
994.8186501
994.8186501
994.8186501
994.8186501
994.8186501
994.8186501
994.8186501
994.8186501
994.81865
994.8186501
994.8186501
994.8186501
994.8186501
994.8186501
994.8186501
994.8186501
994.8186501
994.8186501
994.81865
994.8186501
994.81865
994.81865
994.8186501
994.8186501
994.81865
994.81865
994.81865
994.81865
994.81865
994.81865
994.81865
994.81865
994.8186501
994.8186501
994.81865
994.81865
994.8186501
994.81865
994.81865
994.81865
994.81865
994.81865
994.81865
994.81865
994.81865
994.81865
994.81865
994.81865
994.81865
994.81865
994.81865
994.81865
994.81865
994.81865
994.81865
994.81865
994.81865
994.81865
994.81865
994.81865
994.81865
994.81865
994.81865
994.81865
994.81865
994.81865
994.81865
994.81865
994.81865
994.81865
994.81865
994.81865
994.81865
994.8186501
994.8186501
994.8186501
994.8186501
994.8186501
994.8186501
994.8186501
994.8186501
994.8186501
994.8186501
994.8186501
994.8186501
994.8186501
994.8186501
994.8186501
994.81865
994.81865
994.81865
994.81865
994.81865
994.81865
994.81865
994.81865
994.81865
994.8186501
994.81865
994.81865
994.81865
994.81865
994.81865
994.81865
994.81865
994.81865
994.81865
994.81865
994.81865
994.81865
994.81865
994.81865
994.81865
994.81865
994.81865
994.81865
994.81865
994.81865
994.81865
994.81865
994.81865
994.81865
994.81865
994.81865
994.81865
994.81865
994.81865
994.81865
994.81865
994.81865
994.81865
994.81865
994.81865
994.81865
994.81865
994.81865
994.81865
994.81865
994.81865
994.81865
994.81865
994.81865
994.8186501
994.81865
994.81865
994.81865
994.81865
994.81865
994.81865
994.81865
994.81865
994.81865
994.81865
994.81865
994.8186501
994.8186501
994.8186501
994.8186501
994.8186501
994.8186501
994.8186501
994.8186501
994.8186501
994.8186501
994.8186501
994.8186501
994.8186501
994.8186501
994.8186501
994.8186501
994.8186501
994.8186501
994.8186501
994.8186501
994.8186501
994.8186501
994.8186501
994.8186501
994.8186501
994.8186501
994.8186501
994.8186501
994.8186501
994.8186501
994.8186501
994.8186501
994.8186501
994.8186501
994.8186501
994.8186501
994.8186501
994.8186501
994.8186501
994.8186501
994.8186501
994.8186501
994.8186501
994.8186501
994.8186501
994.8186501
994.8186501
994.8186501
994.8186501
994.8186501
994.8186501
994.8186501
994.8186501
994.8186501
994.8186501
994.8186501
994.8186501
994.8186501
994.8186501
994.8186501
994.8186501
994.8186501
994.81865
994.81865
994.81865
994.81865
994.81865
994.81865
994.81865
994.81865
994.81865
994.81865
994.81865
994.81865
994.8186501
994.8186501
994.8186501
994.8186501
994.8186501
994.8186501
994.8186501
994.8186501
994.8186501
994.8186501
994.8186501
994.8186501
994.8186501
994.8186501
994.8186501
994.8186501
994.8186501
994.8186501
994.8186501
994.8186501
994.8186501
994.8186501
994.8186501
994.8186501
994.8186501
994.8186501
994.8186501
994.8186501
994.8186501
994.8186501
994.8186501
994.8186501
994.8186501
994.8186501
994.8186501
994.8186501
994.8186501
994.8186501
994.8186501
994.8186501
994.8186501
994.8186501
994.8186501
994.8186501
994.8186501
994.8186501
994.8186501
994.8186501
994.8186501
994.8186501
994.8186501
994.8186501
994.8186501
994.8186501
994.8186501
994.8186501
994.8186501
994.8186501
994.8186501
994.8186501
994.8186501
994.8186501
994.8186501
994.8186501
994.8186501
994.8186501
994.8186501
994.8186501
994.8186501
994.8186501
994.8186501
994.8186501
994.8186501
994.8186501
994.8186501
994.8186501
994.8186501
994.8186501
994.8186501
994.8186501
994.8186501
994.8186501
994.8186501
994.8186501
994.8186501
994.8186501
994.8186501
994.8186501
994.8186501
994.8186501
994.8186501
994.8186501
994.8186501
994.8186501
994.8186501
994.8186501
994.8186501
994.8186501
994.8186501
994.8186501
994.8186501
994.8186501
994.8186501
994.8186501
994.81865
994.8186501
994.8186501
994.8186501
994.8186501
994.8186501
994.8186501
994.8186501
994.8186501
994.8186501
994.8186501
994.8186501
994.8186501
994.8186501
994.8186501
994.8186501
994.8186501
994.8186501
994.8186501
994.8186501
994.8186501
994.8186501
994.8186501
994.8186501
994.8186501
994.8186501
994.8186501
994.8186501
994.8186501
994.8186501
994.8186501
994.8186501
994.8186501
994.8186501
994.8186501
994.8186501
994.8186501
994.8186501
994.8186501
994.8186501
994.8186501
994.8186501
994.8186501
994.8186501
994.8186501
994.8186501
994.8186501
994.8186501
994.8186501
994.8186501
994.8186501
994.8186501
994.8186501
994.8186501
994.8186501
994.8186501
994.8186501
994.8186501
994.8186501
994.8186501
994.8186501
994.8186501
994.8186501
994.8186501
994.8186501
994.8186501
994.8186501
994.8186501
994.8186501
994.81865
994.81865
994.81865
994.81865
994.81865
994.81865
994.81865
994.81865
994.81865
994.81865
994.81865
994.81865
994.8186501
994.8186501
994.8186501
994.8186501
994.8186501
994.8186501
994.8186501
994.8186501
994.8186501
994.8186501
994.8186501
994.8186501
994.8186501
994.8186501
994.8186501
994.8186501
994.8186501
994.8186501
994.8186501
994.8186501
994.8186501
994.8186501
994.8186501
994.8186501
994.8186501
994.8186501
994.8186501
994.8186501
994.8186501
994.8186501
994.8186501
994.8186501
994.8186501
994.8186501
994.8186501
994.8186501
994.8186501
994.8186501
994.8186501
994.8186501
994.8186501
994.8186501
994.8186501
994.8186501
994.8186501
994.8186501
994.8186501
994.8186501
994.8186501
994.8186501
994.8186501
994.8186501
994.8186501
994.8186501
994.8186501
994.8186501
994.8186501
994.8186501
994.8186501
994.8186501
994.8186501
994.8186501
994.8186501
994.8186501
994.8186501
994.81865
994.81865
994.81865
994.81865
994.81865
994.81865
994.81865
994.81865
994.81865
994.81865
994.81865
994.81865
994.81865
994.81865
994.81865
994.81865
994.81865
994.81865
994.81865
994.81865
994.81865
994.81865
994.81865
994.81865
994.81865
994.81865
994.81865
994.81865
994.81865
994.81865
994.81865
994.81865
994.81865
994.81865
994.81865
994.81865
994.81865
994.81865
994.8186501
994.8186501
994.81865
994.81865
994.8186501
994.8186501
994.8186501
994.8186501
994.8186501
994.8186501
994.81865
994.81865
994.8186501
994.8186501
994.8186501
994.8186501
994.8186501
994.8186501
994.8186501
994.8186501
994.8186501
994.8186501
994.8186501
994.8186501
994.8186501
994.8186501
994.8186501
994.8186501
994.8186501
994.8186501
994.8186501
994.8186501
994.8186501
994.8186501
994.8186501
994.8186501
994.8186501
994.8186501
994.8186501
994.8186501
994.8186501
994.8186501
994.8186501
994.8186501
994.8186501
994.8186501
994.8186501
994.8186501
994.8186501
994.8186501
994.8186501
994.8186501
994.8186501
994.8186501
994.8186501
994.8186501
994.8186501
994.8186501
994.8186501
994.8186501
994.8186501
994.8186501
994.8186501