/*--------------------------------*- C++ -*----------------------------------*\
| =========                 |                                                 |
| \\      /  F ield         | OpenFOAM: The Open Source CFD Toolbox           |
|  \\    /   O peration     | Version:  2312                                  |
|   \\  /    A nd           | Website:  www.openfoam.com                      |
|    \\/     M anipulation  |                                                 |
\*---------------------------------------------------------------------------*/
FoamFile
{
    version     2.0;
    format      ascii;
    arch        "LSB;label=32;scalar=64";
    class       volScalarField;
    location    "0.0008";
    object      thermo:psiLiqEff;
}
// * * * * * * * * * * * * * * * * * * * * * * * * * * * * * * * * * * * * * //

dimensions      [-2 4 2 0 0 0 0];

internalField   nonuniform List<scalar> 
5000
(
2.294871566e-13
2.294871566e-13
2.294871566e-13
2.294871566e-13
2.294871566e-13
2.294871566e-13
2.294871566e-13
2.294871566e-13
2.294871566e-13
2.294871566e-13
2.294871566e-13
2.294871566e-13
2.294871566e-13
2.294871566e-13
2.294871566e-13
2.294871566e-13
2.294871566e-13
2.294871566e-13
2.294871566e-13
2.294871566e-13
2.294871566e-13
2.294871566e-13
2.294871566e-13
2.294871566e-13
2.294871566e-13
2.294871566e-13
2.294871566e-13
2.294871566e-13
2.294871566e-13
2.294871566e-13
2.294871566e-13
2.294871566e-13
2.294871566e-13
2.294871566e-13
2.294871566e-13
2.294871566e-13
2.294871566e-13
2.294871566e-13
2.294871566e-13
2.294871566e-13
2.294871566e-13
2.294871566e-13
2.294871566e-13
2.294871566e-13
2.294871566e-13
2.294871566e-13
2.294871566e-13
2.294871566e-13
2.294871566e-13
2.294871566e-13
2.294871566e-13
2.294871566e-13
2.294871566e-13
2.294871566e-13
2.294871566e-13
2.294871566e-13
2.294871566e-13
2.294871566e-13
2.294871566e-13
2.294871566e-13
2.294871566e-13
2.294871566e-13
2.294871566e-13
2.294871566e-13
2.294871566e-13
2.294871566e-13
2.294871566e-13
2.294871566e-13
2.294871566e-13
2.294871566e-13
2.294871566e-13
2.294871566e-13
2.294871566e-13
2.294871566e-13
2.294871566e-13
2.294871567e-13
2.294871568e-13
2.29487157e-13
2.294871574e-13
2.294871583e-13
2.2948716e-13
2.294871635e-13
2.294871702e-13
2.294871832e-13
2.294872079e-13
2.294872543e-13
2.294873406e-13
2.294874989e-13
2.294877856e-13
2.294882977e-13
2.294891991e-13
2.294907621e-13
2.294934308e-13
2.294979142e-13
2.295053209e-13
2.295173447e-13
2.295365098e-13
2.295664768e-13
2.296123991e-13
2.29681295e-13
2.29782372e-13
2.29927203e-13
2.301296119e-13
2.30405093e-13
2.307695409e-13
2.312369398e-13
2.318150681e-13
2.324994295e-13
2.332777144e-13
2.341397511e-13
2.3507807e-13
2.360858302e-13
2.371562237e-13
2.382826079e-13
2.394587291e-13
2.406788858e-13
2.419380122e-13
2.432316933e-13
2.445561327e-13
2.459080926e-13
2.472848229e-13
2.486839886e-13
2.501036014e-13
2.515419586e-13
2.529975909e-13
2.54469217e-13
2.559557058e-13
2.574560442e-13
2.589693093e-13
2.604946446e-13
2.620312382e-13
2.635783024e-13
2.651350537e-13
2.667006789e-13
2.682741977e-13
2.698544564e-13
2.714401282e-13
2.730299795e-13
2.746227226e-13
2.762167606e-13
2.778101948e-13
2.794007717e-13
2.809857757e-13
2.825619065e-13
2.84125124e-13
2.856704473e-13
2.87191709e-13
2.886812782e-13
2.901300258e-13
2.915260801e-13
2.928551741e-13
2.941023596e-13
2.952618911e-13
2.963337513e-13
2.979129581e-13
3.001160049e-13
3.026946352e-13
3.052346985e-13
3.076368425e-13
3.099467401e-13
3.121916406e-13
3.143896455e-13
3.165542026e-13
3.186949916e-13
3.208185449e-13
3.229297934e-13
3.250325554e-13
3.271299378e-13
3.29224548e-13
3.313185293e-13
3.334135885e-13
3.355110562e-13
3.376118436e-13
3.397165667e-13
3.418258486e-13
3.439401862e-13
3.460600146e-13
3.481857204e-13
3.503176092e-13
3.524558915e-13
3.546007259e-13
3.567522251e-13
3.589104601e-13
3.610755058e-13
3.632474133e-13
3.654261177e-13
3.676114666e-13
3.698033534e-13
3.720017471e-13
3.742066026e-13
3.764177874e-13
3.786350051e-13
3.808578264e-13
3.830859143e-13
3.853189496e-13
3.875564257e-13
3.897979609e-13
3.920431389e-13
3.942910095e-13
3.965407361e-13
3.987916006e-13
4.010424038e-13
4.03291717e-13
4.055379742e-13
4.077794787e-13
4.100142728e-13
4.122400281e-13
4.144540876e-13
4.166534389e-13
4.188343009e-13
4.209916167e-13
4.231195173e-13
4.252109878e-13
4.27257549e-13
4.292490126e-13
4.311733247e-13
4.330165636e-13
4.347632438e-13
4.363970777e-13
4.37902242e-13
4.392650505e-13
4.404758008e-13
4.415304365e-13
4.424315776e-13
4.431885064e-13
4.438159766e-13
4.443321093e-13
4.447559704e-13
4.451054768e-13
4.453960617e-13
4.456401917e-13
4.458475647e-13
4.460256777e-13
4.461804353e-13
4.463165919e-13
4.464379584e-13
4.465474618e-13
4.466472064e-13
4.467386098e-13
4.46822626e-13
4.468999814e-13
4.469713449e-13
4.470374187e-13
4.470989375e-13
4.471566138e-13
4.472110677e-13
4.472627696e-13
4.473120167e-13
4.473589496e-13
4.474036067e-13
4.474459997e-13
4.474862097e-13
4.475243929e-13
4.475607296e-13
4.475953625e-13
4.47628376e-13
4.476598575e-13
4.476899081e-13
4.477186441e-13
4.477461783e-13
4.477725596e-13
4.477978371e-13
4.478221414e-13
4.478456462e-13
4.478684556e-13
4.478905463e-13
4.479118258e-13
4.47932196e-13
4.479516734e-13
4.479703889e-13
4.479885571e-13
4.480063189e-13
4.480235563e-13
4.480401966e-13
4.480562e-13
4.480716325e-13
4.480865608e-13
4.481010471e-13
4.481152309e-13
4.481292258e-13
4.481427058e-13
4.481554998e-13
4.481677975e-13
4.481795414e-13
4.481910476e-13
4.482022389e-13
4.482132384e-13
4.482241487e-13
4.48234609e-13
4.482445084e-13
4.482542267e-13
4.482630495e-13
4.482714402e-13
4.482796066e-13
4.482877128e-13
4.482956626e-13
4.483033241e-13
4.483109194e-13
4.483182671e-13
4.483251052e-13
4.483314565e-13
4.483374985e-13
4.483429199e-13
4.483476841e-13
4.48352298e-13
4.483563974e-13
4.483598387e-13
4.483632671e-13
4.483663048e-13
4.483685502e-13
4.483708982e-13
4.483727925e-13
4.483732695e-13
4.483736642e-13
4.483728122e-13
4.483698157e-13
4.48365364e-13
4.483572895e-13
4.483452211e-13
4.483262354e-13
4.482967421e-13
4.482512759e-13
4.481800608e-13
4.480695524e-13
4.478985647e-13
4.476368144e-13
4.472415059e-13
4.4665386e-13
4.457957886e-13
4.445674583e-13
4.428467185e-13
4.404923042e-13
4.373531328e-13
4.332836835e-13
4.281648246e-13
4.219327877e-13
4.145819343e-13
4.062864891e-13
3.972842005e-13
3.877619105e-13
3.781288548e-13
3.686945629e-13
3.597709824e-13
3.515680471e-13
3.442961004e-13
3.378837869e-13
3.325358985e-13
3.288806657e-13
3.263946654e-13
3.244683232e-13
3.230027726e-13
3.218738233e-13
3.209927636e-13
3.203003201e-13
3.197538718e-13
3.193217654e-13
3.189796944e-13
3.187087081e-13
3.184941792e-13
3.183246733e-13
3.181911221e-13
3.180864011e-13
3.180048737e-13
3.179418844e-13
3.178935941e-13
3.178569003e-13
3.17829299e-13
3.178087764e-13
3.177937483e-13
3.177830086e-13
3.177755905e-13
3.177706893e-13
3.177676652e-13
3.17766023e-13
3.177653805e-13
3.177654431e-13
3.17765988e-13
3.177668554e-13
3.177679258e-13
3.177691012e-13
3.177703101e-13
3.177715007e-13
3.177726158e-13
3.177736108e-13
3.177744195e-13
3.177750298e-13
3.177754945e-13
3.177760264e-13
3.177767568e-13
3.177777444e-13
3.177790143e-13
3.177805316e-13
3.177820251e-13
3.177832485e-13
3.177842696e-13
3.177851348e-13
3.177858832e-13
3.177865421e-13
3.177871295e-13
3.177876581e-13
3.177881375e-13
3.177885754e-13
3.177889783e-13
3.177893518e-13
3.177897003e-13
3.177900268e-13
3.177903328e-13
3.177906192e-13
3.177908868e-13
3.177911359e-13
3.177913671e-13
3.177915807e-13
3.17791777e-13
3.177919558e-13
3.177921172e-13
3.177922611e-13
3.17792388e-13
3.177924985e-13
3.177925937e-13
3.177926751e-13
3.177927439e-13
3.177928014e-13
3.177928486e-13
3.177928866e-13
3.177929164e-13
3.177929389e-13
3.177929549e-13
3.177929648e-13
3.177929692e-13
3.177929683e-13
3.177929623e-13
3.177929515e-13
3.177929357e-13
3.177929152e-13
3.177928899e-13
3.177928595e-13
3.177928238e-13
3.177927825e-13
3.177927351e-13
3.177926811e-13
3.177926199e-13
3.177925516e-13
3.177924764e-13
3.177923948e-13
3.177923073e-13
3.177922145e-13
3.17792117e-13
3.177920155e-13
3.177919105e-13
3.177918024e-13
3.177916912e-13
3.177915771e-13
3.177914601e-13
3.177913401e-13
3.177912169e-13
3.177910898e-13
3.177909578e-13
3.177908198e-13
3.177906747e-13
3.177905212e-13
3.177903577e-13
3.177901827e-13
3.177899948e-13
3.177897933e-13
3.17789578e-13
3.177893492e-13
3.17789107e-13
3.177888518e-13
3.177885837e-13
3.17788303e-13
3.177880105e-13
3.177877068e-13
3.177873928e-13
3.177870693e-13
3.177867376e-13
3.177863989e-13
3.177860546e-13
3.177857052e-13
3.17785351e-13
3.177849914e-13
3.17784626e-13
3.177842548e-13
3.177838778e-13
3.177834948e-13
3.177831055e-13
3.177827095e-13
3.177823066e-13
3.177818963e-13
3.177814784e-13
3.177810524e-13
3.177806175e-13
3.177801722e-13
3.177797162e-13
3.17779249e-13
3.177787707e-13
3.177782825e-13
3.177777869e-13
3.177772873e-13
3.177767848e-13
3.177762779e-13
3.177757654e-13
3.177752462e-13
3.177747197e-13
3.17774186e-13
3.177736463e-13
3.177731027e-13
3.177725581e-13
3.17772014e-13
3.177714697e-13
3.177709236e-13
3.177703735e-13
3.177698173e-13
3.177692538e-13
3.177686829e-13
3.177681044e-13
3.17767519e-13
3.177669277e-13
3.177663322e-13
3.177657339e-13
3.177651328e-13
3.177645287e-13
3.177639207e-13
3.177633076e-13
3.177626878e-13
3.177620595e-13
3.177614209e-13
3.177607715e-13
3.177601119e-13
3.177594434e-13
3.177587674e-13
3.177580843e-13
3.177573943e-13
3.177566973e-13
3.177559932e-13
3.177552812e-13
3.177545605e-13
3.177538307e-13
3.177530927e-13
3.177523475e-13
3.177515964e-13
3.177508406e-13
3.177500805e-13
3.177493152e-13
3.177485427e-13
3.177477613e-13
3.177469705e-13
3.177461706e-13
3.177453616e-13
3.177445439e-13
3.177437191e-13
3.177428896e-13
3.177420568e-13
3.177412202e-13
3.177403781e-13
3.177395294e-13
3.177386736e-13
3.177378101e-13
3.17736938e-13
3.17736058e-13
3.177351723e-13
3.177342831e-13
3.177333916e-13
3.177324988e-13
3.177316043e-13
3.177307067e-13
3.177298042e-13
3.177288938e-13
3.177279762e-13
3.177270524e-13
3.177261232e-13
3.177251903e-13
3.177242568e-13
3.177233251e-13
3.177223952e-13
3.177214661e-13
3.177205367e-13
3.177196042e-13
3.177186657e-13
3.177177216e-13
3.177167724e-13
3.177158195e-13
3.177148664e-13
3.177139154e-13
3.17712965e-13
3.177120138e-13
3.177110608e-13
3.177101046e-13
3.17709143e-13
3.177081733e-13
3.177071966e-13
3.177062145e-13
3.177052303e-13
3.177042494e-13
3.177032729e-13
3.177022987e-13
3.17701325e-13
3.177003499e-13
3.1769937e-13
3.176983798e-13
3.176973785e-13
3.17696367e-13
3.176953469e-13
3.176943203e-13
3.176932897e-13
3.176922578e-13
3.176912257e-13
3.176901918e-13
3.176891533e-13
3.176881056e-13
3.176870457e-13
3.17685975e-13
3.176848954e-13
3.176838101e-13
3.176827263e-13
3.176816475e-13
3.176805708e-13
3.176794944e-13
3.176784174e-13
3.176773376e-13
3.176762489e-13
3.176751482e-13
3.176740374e-13
3.176729181e-13
3.176717941e-13
3.176706736e-13
3.176695601e-13
3.1766845e-13
3.176673407e-13
3.176662304e-13
3.176651158e-13
3.176639884e-13
3.176628472e-13
3.176616945e-13
3.176605324e-13
3.176593656e-13
3.176582035e-13
3.176570484e-13
3.176558959e-13
3.176547431e-13
3.176535867e-13
3.176524188e-13
3.176512319e-13
3.176500282e-13
3.176488123e-13
3.176475881e-13
3.17646365e-13
3.176451548e-13
3.17643956e-13
3.176427629e-13
3.176415705e-13
3.176403745e-13
3.176391622e-13
3.176379259e-13
3.176366663e-13
3.176353876e-13
3.176340947e-13
3.176328037e-13
3.176315302e-13
3.176302723e-13
3.176290248e-13
3.176277809e-13
3.176265341e-13
3.176252694e-13
3.176239786e-13
3.176226624e-13
3.176213252e-13
3.176199733e-13
3.176186246e-13
3.176172945e-13
3.176159837e-13
3.176146883e-13
3.176134007e-13
3.176121108e-13
3.176107993e-13
3.176094595e-13
3.17608092e-13
3.17606701e-13
3.176052935e-13
3.176038855e-13
3.176024871e-13
3.176010947e-13
3.175997086e-13
3.175983306e-13
3.17596948e-13
3.175955413e-13
3.175941078e-13
3.175926508e-13
3.175911756e-13
3.175896963e-13
3.175882364e-13
3.175867975e-13
3.175853718e-13
3.175839493e-13
3.175825188e-13
3.175810627e-13
3.175795596e-13
3.175780124e-13
3.175764335e-13
3.17574836e-13
3.175732424e-13
3.175716846e-13
3.175701655e-13
3.175686729e-13
3.175671911e-13
3.175657061e-13
3.175641925e-13
3.175626221e-13
3.175609896e-13
3.175593028e-13
3.175575753e-13
3.175558361e-13
3.175541325e-13
3.175524819e-13
3.175508789e-13
3.175493083e-13
3.175477485e-13
3.175461636e-13
3.175445269e-13
3.175428306e-13
3.175410809e-13
3.175392927e-13
3.175374935e-13
3.175357179e-13
3.175339722e-13
3.175322556e-13
3.175305611e-13
3.175288742e-13
3.175271558e-13
3.175253844e-13
3.175235561e-13
3.175216815e-13
3.175197815e-13
3.175178986e-13
3.175160757e-13
3.175143112e-13
3.175125876e-13
3.175108799e-13
3.175091631e-13
3.175073856e-13
3.175055157e-13
3.175035526e-13
3.175015163e-13
3.174994352e-13
3.174973687e-13
3.174953834e-13
3.174934813e-13
3.174916441e-13
3.174898393e-13
3.174880333e-13
3.1748616e-13
3.174841764e-13
3.174820782e-13
3.174798846e-13
3.174776256e-13
3.174753664e-13
3.174731766e-13
3.174710607e-13
3.174690032e-13
3.17466976e-13
3.174649447e-13
3.174628275e-13
3.174605881e-13
3.174582289e-13
3.174557751e-13
3.17453267e-13
3.174507925e-13
3.174484244e-13
3.174461532e-13
3.174439467e-13
3.174417596e-13
3.174395419e-13
3.174371959e-13
3.17434684e-13
3.174320132e-13
3.174292209e-13
3.174263698e-13
3.174235766e-13
3.17420931e-13
3.174184355e-13
3.17416061e-13
3.174137458e-13
3.174114151e-13
3.174089561e-13
3.174063166e-13
3.174034935e-13
3.174005254e-13
3.173974863e-13
3.173944992e-13
3.173916646e-13
3.173889943e-13
3.173864576e-13
3.17383986e-13
3.173814931e-13
3.173788528e-13
3.173760068e-13
3.17372957e-13
3.173697535e-13
3.173664924e-13
3.173633329e-13
3.173603902e-13
3.173576683e-13
3.173551143e-13
3.17352631e-13
3.173501035e-13
3.173473736e-13
3.17344366e-13
3.173410844e-13
3.17337594e-13
3.173340133e-13
3.173305399e-13
3.173273209e-13
3.173243672e-13
3.173216263e-13
3.173189894e-13
3.173163172e-13
3.173134172e-13
3.173102015e-13
3.173066719e-13
3.17302902e-13
3.1729903e-13
3.172952887e-13
3.172918469e-13
3.172887111e-13
3.172858116e-13
3.172830155e-13
3.172801646e-13
3.172770244e-13
3.172734862e-13
3.172695533e-13
3.17265319e-13
3.172609562e-13
3.172567598e-13
3.172529618e-13
3.172495765e-13
3.172465196e-13
3.172436193e-13
3.172406696e-13
3.172373598e-13
3.17233543e-13
3.1722922e-13
3.172245044e-13
3.172196026e-13
3.172148773e-13
3.172106035e-13
3.172067796e-13
3.172032974e-13
3.171999635e-13
3.171965403e-13
3.171926507e-13
3.17188141e-13
3.171830304e-13
3.171774654e-13
3.171717148e-13
3.171662494e-13
3.171613627e-13
3.17157038e-13
3.171531301e-13
3.171493884e-13
3.171455115e-13
3.171411043e-13
3.17135985e-13
3.17130146e-13
3.171237546e-13
3.171171472e-13
3.171108407e-13
3.171052354e-13
3.171004081e-13
3.170962325e-13
3.170923825e-13
3.1708845e-13
3.170840358e-13
3.170788714e-13
3.170729002e-13
3.170663099e-13
3.170595403e-13
3.170531823e-13
3.170477184e-13
3.170432446e-13
3.170396051e-13
3.170364439e-13
3.170333236e-13
3.170297171e-13
3.170251793e-13
3.170194912e-13
3.17012785e-13
3.170057001e-13
3.169993034e-13
3.169944127e-13
3.169907727e-13
3.169877504e-13
3.169848684e-13
3.169818699e-13
3.169785609e-13
3.169745491e-13
3.169691614e-13
3.16961975e-13
3.16953112e-13
3.169447242e-13
3.169399494e-13
3.169397946e-13
3.169428463e-13
3.169483291e-13
3.1695905e-13
3.169857271e-13
3.170399971e-13
3.171398882e-13
3.173308915e-13
3.177051424e-13
3.1842737e-13
3.197984199e-13
3.223884405e-13
3.272685546e-13
3.363930879e-13
3.531777122e-13
3.833013819e-13
4.323663237e-13
4.82827303e-13
5.152010848e-13
5.324385325e-13
5.407538801e-13
5.445764145e-13
5.462946616e-13
5.47059231e-13
5.473979059e-13
5.475476244e-13
5.476137515e-13
5.476429466e-13
5.476558338e-13
5.476615219e-13
5.476640324e-13
5.476651404e-13
5.476656294e-13
5.476658453e-13
5.476659405e-13
5.476659825e-13
5.476660011e-13
5.476660093e-13
5.476660129e-13
5.476660145e-13
5.476660152e-13
5.476660155e-13
5.476660156e-13
5.476660157e-13
5.476660157e-13
5.476660157e-13
5.476660157e-13
5.476660157e-13
5.476660157e-13
5.476660157e-13
5.476660157e-13
5.476660157e-13
5.476660157e-13
5.476660157e-13
5.476660157e-13
5.476660157e-13
5.476660157e-13
5.476660157e-13
5.476660157e-13
5.476660157e-13
5.476660157e-13
5.476660157e-13
5.476660157e-13
5.476660157e-13
5.476660157e-13
5.476660157e-13
5.476660157e-13
5.476660157e-13
5.476660157e-13
5.476660157e-13
5.476660157e-13
5.476660157e-13
5.476660157e-13
5.476660157e-13
5.476660157e-13
5.476660157e-13
5.476660157e-13
5.476660157e-13
5.476660157e-13
5.476660157e-13
5.476660157e-13
5.476660157e-13
5.476660157e-13
5.476660157e-13
5.476660157e-13
5.476660157e-13
5.476660157e-13
5.476660157e-13
5.476660157e-13
5.476660157e-13
5.476660157e-13
5.476660157e-13
5.476660157e-13
5.476660157e-13
5.476660157e-13
5.476660157e-13
5.476660157e-13
5.476660157e-13
5.476660157e-13
5.476660157e-13
5.476660157e-13
5.476660157e-13
5.476660157e-13
5.476660157e-13
5.476660157e-13
5.476660157e-13
5.476660157e-13
5.476660157e-13
5.476660157e-13
5.476660157e-13
5.476660157e-13
5.476660157e-13
5.476660157e-13
5.476660157e-13
5.476660157e-13
5.476660157e-13
5.476660157e-13
5.476660157e-13
5.476660157e-13
5.476660157e-13
5.476660157e-13
5.476660157e-13
5.476660157e-13
5.476660157e-13
5.476660157e-13
5.476660157e-13
5.476660157e-13
5.476660157e-13
5.476660157e-13
5.476660157e-13
5.476660157e-13
5.476660157e-13
5.476660157e-13
5.476660157e-13
5.476660157e-13
5.476660157e-13
5.476660157e-13
5.476660157e-13
5.476660157e-13
5.476660157e-13
5.476660157e-13
5.476660157e-13
5.476660157e-13
5.476660157e-13
5.476660157e-13
5.476660157e-13
5.476660157e-13
5.476660157e-13
5.476660157e-13
5.476660157e-13
5.476660157e-13
5.476660157e-13
5.476660157e-13
5.476660157e-13
5.476660157e-13
5.476660157e-13
5.476660157e-13
5.476660157e-13
5.476660157e-13
5.476660157e-13
5.476660157e-13
5.476660157e-13
5.476660157e-13
5.476660157e-13
5.476660157e-13
5.476660157e-13
5.476660157e-13
5.476660157e-13
5.476660157e-13
5.476660157e-13
5.476660157e-13
5.476660157e-13
5.476660157e-13
5.476660157e-13
5.476660157e-13
5.476660157e-13
5.476660157e-13
5.476660157e-13
5.476660157e-13
5.476660157e-13
5.476660157e-13
5.476660157e-13
5.476660157e-13
5.476660157e-13
5.476660157e-13
5.476660157e-13
5.476660157e-13
5.476660157e-13
5.476660157e-13
5.476660157e-13
5.476660157e-13
5.476660157e-13
5.476660157e-13
5.476660157e-13
5.476660157e-13
5.476660157e-13
5.476660157e-13
5.476660157e-13
5.476660157e-13
5.476660157e-13
5.476660157e-13
5.476660157e-13
5.476660157e-13
5.476660157e-13
5.476660157e-13
5.476660157e-13
5.476660157e-13
5.476660157e-13
5.476660157e-13
5.476660157e-13
5.476660157e-13
5.476660157e-13
5.476660157e-13
5.476660157e-13
5.476660157e-13
5.476660157e-13
5.476660157e-13
5.476660157e-13
5.476660157e-13
5.476660157e-13
5.476660157e-13
5.476660157e-13
5.476660157e-13
5.476660157e-13
5.476660157e-13
5.476660157e-13
5.476660157e-13
5.476660157e-13
5.476660157e-13
5.476660157e-13
5.476660157e-13
5.476660157e-13
5.476660157e-13
5.476660157e-13
5.476660157e-13
5.476660157e-13
5.476660157e-13
5.476660157e-13
5.476660157e-13
5.476660157e-13
5.476660157e-13
5.476660157e-13
5.476660157e-13
5.476660157e-13
5.476660157e-13
5.476660157e-13
5.476660157e-13
5.476660157e-13
5.476660157e-13
5.476660157e-13
5.476660157e-13
5.476660157e-13
5.476660157e-13
5.476660157e-13
5.476660157e-13
5.476660157e-13
5.476660157e-13
5.476660157e-13
5.476660157e-13
5.476660157e-13
5.476660157e-13
5.476660157e-13
5.476660157e-13
5.476660157e-13
5.476660157e-13
5.476660157e-13
5.476660157e-13
5.476660157e-13
5.476660157e-13
5.476660157e-13
5.476660157e-13
5.476660157e-13
5.476660157e-13
5.476660157e-13
5.476660157e-13
5.476660157e-13
5.476660157e-13
5.476660157e-13
5.476660157e-13
5.476660157e-13
5.476660157e-13
5.476660157e-13
5.476660157e-13
5.476660157e-13
5.476660157e-13
5.476660157e-13
5.476660157e-13
5.476660157e-13
5.476660157e-13
5.476660157e-13
5.476660157e-13
5.476660158e-13
5.476660157e-13
5.476660158e-13
5.476660157e-13
5.476660157e-13
5.476660157e-13
5.476660157e-13
5.476660157e-13
5.476660157e-13
5.476660157e-13
5.476660157e-13
5.476660157e-13
5.476660157e-13
5.476660157e-13
5.476660157e-13
5.476660157e-13
5.476660157e-13
5.476660157e-13
5.476660157e-13
5.476660157e-13
5.476660157e-13
5.476660157e-13
5.476660157e-13
5.476660157e-13
5.476660157e-13
5.476660157e-13
5.476660157e-13
5.476660157e-13
5.476660157e-13
5.476660157e-13
5.476660157e-13
5.476660157e-13
5.476660157e-13
5.476660157e-13
5.476660157e-13
5.476660157e-13
5.476660158e-13
5.476660157e-13
5.476660157e-13
5.476660157e-13
5.476660157e-13
5.476660157e-13
5.476660157e-13
5.476660157e-13
5.476660157e-13
5.476660157e-13
5.476660157e-13
5.476660157e-13
5.476660157e-13
5.476660157e-13
5.476660157e-13
5.476660157e-13
5.476660157e-13
5.476660157e-13
5.476660157e-13
5.476660157e-13
5.476660157e-13
5.476660157e-13
5.476660157e-13
5.476660157e-13
5.476660157e-13
5.476660157e-13
5.476660157e-13
5.476660157e-13
5.476660157e-13
5.476660157e-13
5.476660157e-13
5.476660157e-13
5.476660157e-13
5.476660157e-13
5.476660157e-13
5.476660157e-13
5.476660157e-13
5.476660157e-13
5.476660157e-13
5.476660157e-13
5.476660157e-13
5.476660157e-13
5.476660157e-13
5.476660157e-13
5.476660157e-13
5.476660157e-13
5.476660157e-13
5.476660157e-13
5.476660157e-13
5.476660157e-13
5.476660157e-13
5.476660157e-13
5.476660157e-13
5.476660157e-13
5.476660157e-13
5.476660157e-13
5.476660157e-13
5.476660157e-13
5.476660157e-13
5.476660157e-13
5.476660157e-13
5.476660157e-13
5.476660157e-13
5.476660157e-13
5.476660157e-13
5.476660157e-13
5.476660157e-13
5.476660157e-13
5.476660157e-13
5.476660157e-13
5.476660157e-13
5.476660157e-13
5.476660157e-13
5.476660157e-13
5.476660157e-13
5.476660157e-13
5.476660157e-13
5.476660157e-13
5.476660157e-13
5.476660157e-13
5.476660157e-13
5.476660157e-13
5.476660157e-13
5.476660157e-13
5.476660157e-13
5.476660157e-13
5.476660157e-13
5.476660157e-13
5.476660157e-13
5.476660157e-13
5.476660157e-13
5.476660157e-13
5.476660157e-13
5.476660157e-13
5.476660157e-13
5.476660157e-13
5.476660157e-13
5.476660157e-13
5.476660157e-13
5.476660157e-13
5.476660157e-13
5.476660157e-13
5.476660157e-13
5.476660157e-13
5.476660157e-13
5.476660157e-13
5.476660157e-13
5.476660157e-13
5.476660157e-13
5.476660158e-13
5.476660157e-13
5.476660157e-13
5.476660157e-13
5.476660157e-13
5.476660157e-13
5.476660157e-13
5.476660157e-13
5.476660157e-13
5.476660157e-13
5.476660157e-13
5.476660157e-13
5.476660157e-13
5.476660157e-13
5.476660157e-13
5.476660157e-13
5.476660157e-13
5.476660157e-13
5.476660157e-13
5.476660157e-13
5.476660157e-13
5.476660157e-13
5.476660157e-13
5.476660157e-13
5.476660157e-13
5.476660157e-13
5.476660157e-13
5.476660157e-13
5.476660157e-13
5.476660157e-13
5.476660157e-13
5.476660157e-13
5.476660157e-13
5.476660157e-13
5.476660157e-13
5.476660157e-13
5.476660157e-13
5.476660157e-13
5.476660157e-13
5.476660157e-13
5.476660157e-13
5.476660157e-13
5.476660157e-13
5.476660157e-13
5.476660157e-13
5.476660157e-13
5.476660157e-13
5.476660157e-13
5.476660157e-13
5.476660157e-13
5.476660157e-13
5.476660157e-13
5.476660157e-13
5.476660157e-13
5.476660157e-13
5.476660157e-13
5.476660157e-13
5.476660157e-13
5.476660157e-13
5.476660157e-13
5.476660157e-13
5.476660157e-13
5.476660157e-13
5.476660157e-13
5.476660157e-13
5.476660157e-13
5.476660157e-13
5.476660157e-13
5.476660157e-13
5.476660157e-13
5.476660157e-13
5.476660157e-13
5.476660157e-13
5.476660157e-13
5.476660157e-13
5.476660157e-13
5.476660157e-13
5.476660157e-13
5.476660157e-13
5.476660157e-13
5.476660157e-13
5.476660157e-13
5.476660157e-13
5.476660157e-13
5.476660157e-13
5.476660157e-13
5.476660157e-13
5.476660157e-13
5.476660157e-13
5.476660157e-13
5.476660157e-13
5.476660157e-13
5.476660157e-13
5.476660157e-13
5.476660157e-13
5.476660157e-13
5.476660157e-13
5.476660157e-13
5.476660157e-13
5.476660157e-13
5.476660157e-13
5.476660157e-13
5.476660157e-13
5.476660157e-13
5.476660157e-13
5.476660157e-13
5.476660157e-13
5.476660157e-13
5.476660157e-13
5.476660157e-13
5.476660157e-13
5.476660157e-13
5.476660157e-13
5.476660157e-13
5.476660157e-13
5.476660157e-13
5.476660157e-13
5.476660157e-13
5.476660157e-13
5.476660157e-13
5.476660157e-13
5.476660157e-13
5.476660157e-13
5.476660157e-13
5.476660157e-13
5.476660157e-13
5.476660157e-13
5.476660157e-13
5.476660157e-13
5.476660157e-13
5.476660157e-13
5.476660157e-13
5.476660157e-13
5.476660157e-13
5.476660157e-13
5.476660157e-13
5.476660157e-13
5.476660157e-13
5.476660157e-13
5.476660157e-13
5.476660157e-13
5.476660157e-13
5.476660157e-13
5.476660157e-13
5.476660157e-13
5.476660157e-13
5.476660157e-13
5.476660157e-13
5.476660157e-13
5.476660157e-13
5.476660157e-13
5.476660157e-13
5.476660157e-13
5.476660157e-13
5.476660157e-13
5.476660157e-13
5.476660157e-13
5.476660157e-13
5.476660157e-13
5.476660157e-13
5.476660157e-13
5.476660157e-13
5.476660157e-13
5.476660157e-13
5.476660157e-13
5.476660157e-13
5.476660157e-13
5.476660157e-13
5.476660157e-13
5.476660157e-13
5.476660157e-13
5.476660157e-13
5.476660157e-13
5.476660157e-13
5.476660157e-13
5.476660157e-13
5.476660157e-13
5.476660157e-13
5.476660157e-13
5.476660157e-13
5.476660157e-13
5.476660157e-13
5.476660157e-13
5.476660157e-13
5.476660157e-13
5.476660157e-13
5.476660157e-13
5.476660157e-13
5.476660157e-13
5.476660157e-13
5.476660157e-13
5.476660157e-13
5.476660157e-13
5.476660157e-13
5.476660157e-13
5.476660157e-13
5.476660157e-13
5.476660157e-13
5.476660157e-13
5.476660157e-13
5.476660157e-13
5.476660157e-13
5.476660157e-13
5.476660157e-13
5.476660157e-13
5.476660157e-13
5.476660157e-13
5.476660157e-13
5.476660157e-13
5.476660157e-13
5.476660157e-13
5.476660157e-13
5.476660157e-13
5.476660157e-13
5.476660157e-13
5.476660157e-13
5.476660157e-13
5.476660157e-13
5.476660157e-13
5.476660157e-13
5.476660157e-13
5.476660157e-13
5.476660157e-13
5.476660157e-13
5.476660157e-13
5.476660157e-13
5.476660157e-13
5.476660157e-13
5.476660157e-13
5.476660157e-13
5.476660157e-13
5.476660157e-13
5.476660157e-13
5.476660157e-13
5.476660157e-13
5.476660157e-13
5.476660157e-13
5.476660157e-13
5.476660157e-13
5.476660157e-13
5.476660157e-13
5.476660157e-13
5.476660157e-13
5.476660157e-13
5.476660157e-13
5.476660157e-13
5.476660157e-13
5.476660157e-13
5.476660157e-13
5.476660157e-13
5.476660157e-13
5.476660157e-13
5.476660157e-13
5.476660157e-13
5.476660157e-13
5.476660157e-13
5.476660157e-13
5.476660157e-13
5.476660157e-13
5.476660157e-13
5.476660157e-13
5.476660157e-13
5.476660157e-13
5.476660157e-13
5.476660158e-13
5.476660158e-13
5.476660158e-13
5.476660158e-13
5.476660158e-13
5.476660158e-13
5.476660158e-13
5.476660158e-13
5.476660158e-13
5.476660158e-13
5.476660158e-13
5.476660158e-13
5.476660157e-13
5.476660157e-13
5.476660157e-13
5.476660157e-13
5.476660157e-13
5.476660157e-13
5.476660157e-13
5.476660157e-13
5.476660157e-13
5.476660157e-13
5.476660157e-13
5.476660157e-13
5.476660158e-13
5.476660157e-13
5.476660157e-13
5.476660157e-13
5.476660157e-13
5.476660157e-13
5.476660157e-13
5.476660157e-13
5.476660157e-13
5.476660157e-13
5.476660157e-13
5.476660157e-13
5.476660157e-13
5.476660157e-13
5.476660157e-13
5.476660157e-13
5.476660157e-13
5.476660157e-13
5.476660157e-13
5.476660157e-13
5.476660157e-13
5.476660157e-13
5.476660157e-13
5.476660157e-13
5.476660157e-13
5.476660157e-13
5.476660157e-13
5.476660157e-13
5.476660157e-13
5.476660157e-13
5.476660157e-13
5.476660157e-13
5.476660157e-13
5.476660157e-13
5.476660157e-13
5.476660157e-13
5.476660157e-13
5.476660157e-13
5.476660157e-13
5.476660157e-13
5.476660157e-13
5.476660157e-13
5.476660157e-13
5.476660157e-13
5.476660157e-13
5.476660157e-13
5.476660157e-13
5.476660157e-13
5.476660157e-13
5.476660157e-13
5.476660157e-13
5.476660157e-13
5.476660157e-13
5.476660157e-13
5.476660157e-13
5.476660157e-13
5.476660157e-13
5.476660157e-13
5.476660157e-13
5.476660157e-13
5.476660157e-13
5.476660157e-13
5.476660157e-13
5.476660157e-13
5.476660157e-13
5.476660157e-13
5.476660157e-13
5.476660157e-13
5.476660157e-13
5.476660157e-13
5.476660157e-13
5.476660157e-13
5.476660157e-13
5.476660157e-13
5.476660157e-13
5.476660157e-13
5.476660157e-13
5.476660157e-13
5.476660157e-13
5.476660157e-13
5.476660157e-13
5.476660157e-13
5.476660157e-13
5.476660157e-13
5.476660157e-13
5.476660157e-13
5.476660157e-13
5.476660157e-13
5.476660157e-13
5.476660157e-13
5.476660157e-13
5.476660157e-13
5.476660157e-13
5.476660157e-13
5.476660157e-13
5.476660157e-13
5.476660157e-13
5.476660157e-13
5.476660157e-13
5.476660157e-13
5.476660157e-13
5.476660157e-13
5.476660157e-13
5.476660157e-13
5.476660157e-13
5.476660157e-13
5.476660157e-13
5.476660157e-13
5.476660157e-13
5.476660157e-13
5.476660157e-13
5.476660157e-13
5.476660157e-13
5.476660157e-13
5.476660157e-13
5.476660157e-13
5.476660157e-13
5.476660157e-13
5.476660157e-13
5.476660157e-13
5.476660157e-13
5.476660157e-13
5.476660157e-13
5.476660157e-13
5.476660157e-13
5.476660157e-13
5.476660157e-13
5.476660157e-13
5.476660157e-13
5.476660157e-13
5.476660157e-13
5.476660157e-13
5.476660157e-13
5.476660157e-13
5.476660157e-13
5.476660157e-13
5.476660157e-13
5.476660157e-13
5.476660157e-13
5.476660157e-13
5.476660157e-13
5.476660157e-13
5.476660157e-13
5.476660157e-13
5.476660157e-13
5.476660157e-13
5.476660157e-13
5.476660157e-13
5.476660157e-13
5.476660157e-13
5.476660157e-13
5.476660157e-13
5.476660157e-13
5.476660157e-13
5.476660157e-13
5.476660157e-13
5.476660157e-13
5.476660157e-13
5.476660157e-13
5.476660157e-13
5.476660157e-13
5.476660157e-13
5.476660157e-13
5.476660157e-13
5.476660157e-13
5.476660157e-13
5.476660157e-13
5.476660157e-13
5.476660157e-13
5.476660157e-13
5.476660157e-13
5.476660157e-13
5.476660157e-13
5.476660157e-13
5.476660157e-13
5.476660157e-13
5.476660157e-13
5.476660157e-13
5.476660157e-13
5.476660157e-13
5.476660157e-13
5.476660157e-13
5.476660157e-13
5.476660157e-13
5.476660157e-13
5.476660157e-13
5.476660157e-13
5.476660157e-13
5.476660157e-13
5.476660157e-13
5.476660157e-13
5.476660157e-13
5.476660157e-13
5.476660157e-13
5.476660157e-13
5.476660157e-13
5.476660157e-13
5.476660157e-13
5.476660157e-13
5.476660157e-13