/*--------------------------------*- C++ -*----------------------------------*\
| =========                 |                                                 |
| \\      /  F ield         | OpenFOAM: The Open Source CFD Toolbox           |
|  \\    /   O peration     | Version:  2312                                  |
|   \\  /    A nd           | Website:  www.openfoam.com                      |
|    \\/     M anipulation  |                                                 |
\*---------------------------------------------------------------------------*/
FoamFile
{
    version     2.0;
    format      ascii;
    arch        "LSB;label=32;scalar=64";
    class       volScalarField;
    location    "0.0008";
    object      thermo:psiGasEff;
}
// * * * * * * * * * * * * * * * * * * * * * * * * * * * * * * * * * * * * * //

dimensions      [-2 4 2 0 0 0 0];

internalField   nonuniform List<scalar> 
5000
(
8.634e-14
8.634e-14
8.634e-14
8.634e-14
8.634e-14
8.634e-14
8.634e-14
8.634e-14
8.634e-14
8.634e-14
8.634e-14
8.634e-14
8.634e-14
8.634e-14
8.634e-14
8.634e-14
8.634e-14
8.634e-14
8.634e-14
8.634e-14
8.634e-14
8.634e-14
8.634e-14
8.634e-14
8.634e-14
8.634e-14
8.634e-14
8.634e-14
8.634e-14
8.634e-14
8.634e-14
8.634e-14
8.634e-14
8.634e-14
8.634e-14
8.634e-14
8.634e-14
8.634e-14
8.634e-14
8.634e-14
8.634e-14
8.634e-14
8.634e-14
8.634e-14
8.634e-14
8.634e-14
8.634e-14
8.634e-14
8.634e-14
8.634e-14
8.634e-14
8.634e-14
8.634e-14
8.634e-14
8.634e-14
8.634e-14
8.634e-14
8.634e-14
8.634e-14
8.634e-14
8.634e-14
8.634e-14
8.634e-14
8.634e-14
8.634e-14
8.634e-14
8.634e-14
8.634e-14
8.634e-14
8.634e-14
8.634e-14
8.634e-14
8.634e-14
8.634000001e-14
8.634000002e-14
8.634000006e-14
8.634000014e-14
8.634000032e-14
8.634000068e-14
8.634000139e-14
8.634000281e-14
8.634000562e-14
8.63400111e-14
8.634002168e-14
8.634004184e-14
8.634007977e-14
8.634015022e-14
8.63402795e-14
8.634051364e-14
8.634093179e-14
8.634166786e-14
8.634294424e-14
8.634512345e-14
8.634878461e-14
8.635483317e-14
8.636465271e-14
8.638030569e-14
8.640478476e-14
8.644230614e-14
8.649861901e-14
8.658128119e-14
8.669982144e-14
8.68656776e-14
8.709176796e-14
8.739151219e-14
8.777699901e-14
8.825548253e-14
8.882429147e-14
8.947433803e-14
9.019829209e-14
9.099106091e-14
9.184804631e-14
9.276461916e-14
9.373621106e-14
9.475849149e-14
9.58275048e-14
9.693974665e-14
9.809218652e-14
9.928225166e-14
1.005077878e-13
1.01767009e-13
1.030584443e-13
1.043808869e-13
1.057333479e-13
1.071150154e-13
1.085252194e-13
1.099634013e-13
1.114290876e-13
1.129218665e-13
1.144413671e-13
1.159872392e-13
1.175591339e-13
1.191566826e-13
1.207794488e-13
1.224268114e-13
1.240979264e-13
1.257917202e-13
1.275071678e-13
1.292431324e-13
1.309980813e-13
1.327700763e-13
1.34556694e-13
1.363548824e-13
1.38160792e-13
1.399695607e-13
1.417750359e-13
1.435694294e-13
1.453429969e-13
1.470837831e-13
1.487760872e-13
1.504008399e-13
1.51937625e-13
1.533773437e-13
1.54701101e-13
1.566535013e-13
1.594680744e-13
1.628293782e-13
1.661736657e-13
1.69380085e-13
1.725069864e-13
1.755874019e-13
1.786439914e-13
1.81693722e-13
1.847487834e-13
1.878179574e-13
1.909080797e-13
1.940246331e-13
1.971722613e-13
2.003550543e-13
2.035765774e-13
2.068398619e-13
2.10147473e-13
2.135014738e-13
2.169035096e-13
2.203552639e-13
2.238582704e-13
2.274140204e-13
2.310239742e-13
2.346894812e-13
2.384117652e-13
2.421919996e-13
2.460313002e-13
2.499307435e-13
2.538914547e-13
2.579145202e-13
2.62000804e-13
2.661510251e-13
2.703660089e-13
2.746467094e-13
2.789940495e-13
2.834087973e-13
2.878913718e-13
2.924419399e-13
2.970608965e-13
3.017485431e-13
3.06504765e-13
3.113298556e-13
3.162237588e-13
3.211852055e-13
3.26213449e-13
3.31307481e-13
3.364652021e-13
3.416840878e-13
3.469609663e-13
3.522921972e-13
3.576732414e-13
3.63098361e-13
3.685614395e-13
3.74054745e-13
3.795673813e-13
3.850853626e-13
3.90591884e-13
3.960664032e-13
4.01483666e-13
4.068128676e-13
4.120170401e-13
4.170528662e-13
4.218713944e-13
4.264201414e-13
4.30646773e-13
4.345041393e-13
4.379560048e-13
4.409824118e-13
4.435832732e-13
4.457788686e-13
4.476067293e-13
4.49115629e-13
4.503584321e-13
4.513857422e-13
4.522417019e-13
4.529622742e-13
4.535755821e-13
4.54103414e-13
4.545629346e-13
4.549679622e-13
4.553295732e-13
4.556562785e-13
4.559542027e-13
4.56227481e-13
4.564789172e-13
4.567106597e-13
4.569246727e-13
4.571230027e-13
4.57307795e-13
4.574811867e-13
4.576450944e-13
4.578010158e-13
4.579499262e-13
4.580923485e-13
4.582285051e-13
4.583584484e-13
4.584822649e-13
4.586000948e-13
4.587122306e-13
4.58819097e-13
4.589211423e-13
4.590187656e-13
4.591121682e-13
4.592015666e-13
4.592873991e-13
4.593701485e-13
4.594502424e-13
4.59527912e-13
4.596031247e-13
4.596757412e-13
4.597458598e-13
4.598138927e-13
4.598800895e-13
4.599444456e-13
4.600066716e-13
4.600667059e-13
4.60124742e-13
4.60180901e-13
4.602358116e-13
4.602898806e-13
4.603431977e-13
4.603953912e-13
4.604460624e-13
4.604951641e-13
4.60543045e-13
4.605894848e-13
4.606347735e-13
4.606799335e-13
4.607244679e-13
4.607686854e-13
4.608119749e-13
4.608541583e-13
4.608955352e-13
4.609356711e-13
4.609749373e-13
4.610150556e-13
4.610540098e-13
4.610925463e-13
4.611302981e-13
4.611675997e-13
4.612046026e-13
4.612414136e-13
4.61278229e-13
4.613146267e-13
4.613500263e-13
4.613847021e-13
4.614197706e-13
4.614544022e-13
4.614881168e-13
4.615228087e-13
4.615574132e-13
4.615908231e-13
4.616254073e-13
4.616603443e-13
4.616936245e-13
4.617289765e-13
4.617657055e-13
4.618002547e-13
4.618388363e-13
4.618796485e-13
4.619203915e-13
4.619671297e-13
4.620158994e-13
4.620733694e-13
4.621415083e-13
4.622268516e-13
4.623418295e-13
4.625006075e-13
4.627307213e-13
4.630688674e-13
4.635700677e-13
4.643120412e-13
4.654017154e-13
4.669822574e-13
4.692397234e-13
4.724066689e-13
4.767609084e-13
4.826184023e-13
4.903162739e-13
5.001682935e-13
5.124270147e-13
5.271221881e-13
5.446014019e-13
5.646634672e-13
5.863627667e-13
6.094827376e-13
6.331098239e-13
6.566589591e-13
6.794868075e-13
7.022117329e-13
7.218038674e-13
7.343044348e-13
7.44431987e-13
7.542403356e-13
7.607109277e-13
7.656059488e-13
7.69401059e-13
7.723502972e-13
7.746623667e-13
7.764884814e-13
7.779398206e-13
7.790952168e-13
7.800122579e-13
7.807374898e-13
7.813082122e-13
7.817542185e-13
7.821010211e-13
7.823702356e-13
7.825779562e-13
7.827363932e-13
7.828554484e-13
7.829430768e-13
7.830056611e-13
7.830486498e-13
7.830770557e-13
7.830947113e-13
7.831041574e-13
7.83107328e-13
7.831057788e-13
7.831007325e-13
7.830931249e-13
7.830836938e-13
7.830731124e-13
7.830619014e-13
7.830503584e-13
7.830387127e-13
7.830271763e-13
7.830158116e-13
7.830049226e-13
7.829941573e-13
7.829842334e-13
7.82974559e-13
7.829648173e-13
7.829546052e-13
7.829433635e-13
7.829310325e-13
7.829180193e-13
7.829049225e-13
7.828925572e-13
7.828808971e-13
7.828696959e-13
7.828588459e-13
7.828482612e-13
7.828378659e-13
7.828275995e-13
7.82817426e-13
7.828073243e-13
7.827972871e-13
7.827873188e-13
7.827774244e-13
7.82767604e-13
7.827578535e-13
7.827481683e-13
7.827385455e-13
7.827289861e-13
7.827194934e-13
7.827100722e-13
7.827007232e-13
7.82691445e-13
7.826822354e-13
7.826730909e-13
7.826640081e-13
7.82654986e-13
7.826460247e-13
7.826371269e-13
7.826282912e-13
7.826195141e-13
7.826107911e-13
7.826021168e-13
7.825934849e-13
7.825848889e-13
7.825763224e-13
7.825677785e-13
7.82559251e-13
7.82550735e-13
7.825422275e-13
7.825337274e-13
7.825252357e-13
7.82516755e-13
7.825082892e-13
7.824998429e-13
7.824914198e-13
7.824830237e-13
7.824746562e-13
7.82466318e-13
7.824580063e-13
7.8244972e-13
7.824414604e-13
7.824332263e-13
7.824250143e-13
7.824168209e-13
7.824086419e-13
7.824004711e-13
7.823923017e-13
7.823841257e-13
7.823759332e-13
7.823677166e-13
7.823594715e-13
7.823511966e-13
7.823428915e-13
7.823345551e-13
7.823261853e-13
7.823177803e-13
7.823093383e-13
7.82300856e-13
7.822923288e-13
7.822837522e-13
7.82275125e-13
7.822664508e-13
7.822577375e-13
7.822489954e-13
7.822402329e-13
7.822314562e-13
7.822226682e-13
7.822138708e-13
7.822050661e-13
7.821962559e-13
7.821874402e-13
7.821786179e-13
7.821697895e-13
7.821609582e-13
7.821521274e-13
7.821432983e-13
7.821344685e-13
7.821256322e-13
7.821167839e-13
7.821079212e-13
7.820990438e-13
7.820901502e-13
7.820812405e-13
7.820723193e-13
7.820633943e-13
7.820544738e-13
7.820455649e-13
7.820366706e-13
7.820277854e-13
7.820188961e-13
7.820099997e-13
7.820010961e-13
7.819921885e-13
7.819832803e-13
7.819743714e-13
7.819654582e-13
7.819565422e-13
7.819476325e-13
7.819387379e-13
7.819298646e-13
7.819210131e-13
7.819121766e-13
7.819033456e-13
7.818945154e-13
7.818856951e-13
7.818768945e-13
7.818681177e-13
7.818593715e-13
7.818506597e-13
7.818419812e-13
7.818333315e-13
7.818247033e-13
7.818160818e-13
7.818074579e-13
7.817988297e-13
7.817902046e-13
7.817815945e-13
7.817729998e-13
7.817644158e-13
7.817558368e-13
7.817472527e-13
7.817386499e-13
7.817300121e-13
7.817213239e-13
7.817125803e-13
7.817037876e-13
7.816949583e-13
7.816861028e-13
7.81677222e-13
7.816683113e-13
7.816593676e-13
7.816503874e-13
7.816413621e-13
7.816322825e-13
7.816231476e-13
7.816139671e-13
7.816047553e-13
7.815955264e-13
7.815862925e-13
7.815770577e-13
7.815678113e-13
7.815585289e-13
7.815491886e-13
7.815397844e-13
7.815303198e-13
7.815207946e-13
7.815112102e-13
7.815015831e-13
7.814919405e-13
7.814822969e-13
7.814726437e-13
7.814629608e-13
7.814532321e-13
7.814434509e-13
7.814336083e-13
7.81423692e-13
7.814137052e-13
7.814036738e-13
7.813936204e-13
7.81383557e-13
7.813734956e-13
7.813634329e-13
7.813533565e-13
7.813432454e-13
7.813330695e-13
7.813228348e-13
7.813125521e-13
7.813022302e-13
7.812918839e-13
7.812815428e-13
7.812712243e-13
7.812609137e-13
7.812506016e-13
7.812402806e-13
7.812299244e-13
7.812195033e-13
7.812090254e-13
7.811985032e-13
7.811879536e-13
7.811774223e-13
7.811669395e-13
7.811564957e-13
7.811460764e-13
7.811356689e-13
7.811252593e-13
7.811148159e-13
7.811042965e-13
7.810937013e-13
7.810830376e-13
7.810723322e-13
7.810616368e-13
7.810509724e-13
7.810403184e-13
7.810296607e-13
7.810189815e-13
7.81008245e-13
7.8099739e-13
7.809864095e-13
7.809753169e-13
7.809641322e-13
7.809528809e-13
7.80941592e-13
7.809302986e-13
7.809190142e-13
7.809077209e-13
7.80896386e-13
7.808849554e-13
7.808733882e-13
7.808617016e-13
7.808499171e-13
7.808380712e-13
7.808262413e-13
7.808144736e-13
7.808027448e-13
7.807910313e-13
7.807793144e-13
7.807675633e-13
7.807557005e-13
7.807436842e-13
7.807315369e-13
7.807192805e-13
7.807069563e-13
7.806946523e-13
7.806824188e-13
7.806702308e-13
7.806580619e-13
7.806458901e-13
7.806336775e-13
7.806213196e-13
7.806087981e-13
7.805961363e-13
7.805833601e-13
7.805705193e-13
7.805577141e-13
7.80544987e-13
7.805323093e-13
7.805196514e-13
7.805069885e-13
7.804942367e-13
7.804812958e-13
7.804681678e-13
7.804548832e-13
7.804414694e-13
7.804280044e-13
7.804146092e-13
7.80401296e-13
7.803880321e-13
7.803747845e-13
7.80361519e-13
7.803481119e-13
7.803344814e-13
7.80320647e-13
7.803066538e-13
7.802925482e-13
7.802784654e-13
7.802645152e-13
7.802506686e-13
7.802368829e-13
7.802231162e-13
7.802093241e-13
7.801953517e-13
7.801811204e-13
7.80166655e-13
7.801520137e-13
7.801372692e-13
7.801225951e-13
7.801080944e-13
7.800937243e-13
7.800794259e-13
7.800651433e-13
7.800508086e-13
7.800362219e-13
7.800213284e-13
7.800061571e-13
7.799907819e-13
7.799752938e-13
7.799598866e-13
7.799446995e-13
7.799296983e-13
7.799147968e-13
7.798998954e-13
7.798848471e-13
7.798694328e-13
7.798536246e-13
7.798374813e-13
7.798210964e-13
7.798046355e-13
7.79788383e-13
7.797724236e-13
7.79756715e-13
7.797411667e-13
7.797256816e-13
7.797100836e-13
7.796940775e-13
7.796776082e-13
7.796607252e-13
7.796435221e-13
7.796261771e-13
7.796090327e-13
7.795921818e-13
7.795755762e-13
7.795591217e-13
7.795427094e-13
7.795261035e-13
7.795090151e-13
7.794914219e-13
7.794734153e-13
7.794551405e-13
7.794368513e-13
7.794188953e-13
7.794013001e-13
7.7938399e-13
7.793668351e-13
7.793496972e-13
7.793322498e-13
7.793142161e-13
7.792955603e-13
7.792763989e-13
7.792569357e-13
7.792374913e-13
7.792184998e-13
7.792000451e-13
7.791820364e-13
7.791642709e-13
7.791465301e-13
7.791283465e-13
7.791094503e-13
7.790897928e-13
7.790695235e-13
7.790489045e-13
7.790283828e-13
7.79008447e-13
7.789891648e-13
7.789704389e-13
7.789520518e-13
7.789337513e-13
7.789149701e-13
7.788953316e-13
7.788747714e-13
7.788534629e-13
7.788316851e-13
7.788099518e-13
7.787888777e-13
7.787684988e-13
7.787486562e-13
7.78729091e-13
7.787095377e-13
7.78689291e-13
7.786679062e-13
7.786453752e-13
7.786219486e-13
7.785979793e-13
7.785741677e-13
7.785512504e-13
7.785292145e-13
7.785078252e-13
7.784867299e-13
7.78465561e-13
7.78443369e-13
7.784197298e-13
7.783946594e-13
7.783684774e-13
7.783416534e-13
7.783150891e-13
7.78289576e-13
7.782651221e-13
7.782414977e-13
7.782182956e-13
7.781950025e-13
7.781705211e-13
7.78144425e-13
7.781167289e-13
7.78087815e-13
7.780583215e-13
7.780293336e-13
7.780016655e-13
7.779753428e-13
7.779500778e-13
7.779253524e-13
7.779004911e-13
7.778742343e-13
7.778460766e-13
7.778160092e-13
7.777845124e-13
7.777524488e-13
7.777211093e-13
7.776914968e-13
7.776637166e-13
7.776374248e-13
7.776119314e-13
7.775863165e-13
7.775590828e-13
7.77529572e-13
7.774977428e-13
7.774641803e-13
7.774299287e-13
7.773965343e-13
7.773651705e-13
7.773359667e-13
7.773085098e-13
7.772819847e-13
7.772552615e-13
7.772265576e-13
7.771951062e-13
7.771609174e-13
7.771247247e-13
7.770878138e-13
7.770521065e-13
7.770189337e-13
7.769883541e-13
7.769597886e-13
7.769322278e-13
7.769043143e-13
7.768738385e-13
7.768398999e-13
7.768025126e-13
7.767625785e-13
7.767216699e-13
7.766821644e-13
7.766457853e-13
7.766126934e-13
7.765822632e-13
7.765532629e-13
7.765240441e-13
7.764918769e-13
7.764555626e-13
7.76415027e-13
7.763713072e-13
7.763262783e-13
7.762827734e-13
7.762430349e-13
7.76207273e-13
7.761747037e-13
7.761438324e-13
7.761126972e-13
7.760777714e-13
7.760375566e-13
7.759920494e-13
7.759425984e-13
7.758915247e-13
7.758424828e-13
7.757981532e-13
7.757585423e-13
7.757225361e-13
7.756882933e-13
7.756534045e-13
7.756134938e-13
7.755669151e-13
7.755137812e-13
7.75455819e-13
7.7539592e-13
7.753387408e-13
7.752871948e-13
7.752412645e-13
7.751996526e-13
7.751601424e-13
7.751196874e-13
7.750737841e-13
7.750205913e-13
7.749599562e-13
7.74893767e-13
7.74825758e-13
7.747610039e-13
7.747032478e-13
7.7465326e-13
7.746098076e-13
7.745699277e-13
7.745294469e-13
7.74483748e-13
7.744300373e-13
7.743676125e-13
7.742986727e-13
7.742282019e-13
7.741618469e-13
7.741042518e-13
7.740567793e-13
7.740181713e-13
7.739851396e-13
7.739531819e-13
7.739162173e-13
7.738695636e-13
7.738108312e-13
7.737419077e-13
7.736701151e-13
7.73604687e-13
7.73552687e-13
7.735133534e-13
7.73482001e-13
7.73453349e-13
7.734230631e-13
7.733881196e-13
7.733447107e-13
7.732867616e-13
7.732108924e-13
7.731231142e-13
7.730407006e-13
7.729817549e-13
7.729732858e-13
7.730132412e-13
7.730796974e-13
7.731924443e-13
7.734765275e-13
7.740616758e-13
7.751325294e-13
7.771730491e-13
7.811895991e-13
7.890145534e-13
8.041060779e-13
8.334875978e-13
8.921690599e-13
1.014886796e-12
1.295005975e-12
2.066696439e-12
5.179179374e-12
1.96953835e-11
8.764757915e-11
4.207678351e-10
2.092161974e-09
1.055434312e-08
5.338284334e-08
2.679550205e-07
1.314676582e-06
6.125595436e-06
2.567394536e-05
8.879821683e-05
0.0002306225591
0.0004326806774
0.000617876702
0.0007397203021
0.0008052603006
0.0008369879023
0.000851588641
0.0008581551677
0.0008610760273
0.0008623697696
0.0008629421973
0.0008631962272
0.0008633077665
0.0008633563694
0.0008633784633
0.0008633873793
0.0008633915764
0.000863392927
0.0008633939105
0.0008633938923
0.0008633942718
0.0008633943768
0.0008633948555
0.0008633947098
0.0008633947037
0.0008633946373
0.0008633947177
0.0008633942133
0.0008633947348
0.0008633939355
0.0008633952866
0.0008633958254
0.0008633961198
0.0008633958009
0.000863395125
0.0008633953454
0.0008633942752
0.000863394787
0.0008633943082
0.0008633953695
0.0008633953868
0.0008633946144
0.0008633951914
0.0008633950551
0.0008633948385
0.0008633945514
0.0008633951025
0.0008633954485
0.0008633955968
0.0008633943006
0.0008633944944
0.0008633943171
0.0008633934848
0.0008633947178
0.0008633941284
0.0008633950489
0.0008633946259
0.000863394713
0.0008633949591
0.0008633948992
0.0008633940062
0.0008633938475
0.0008633941818
0.0008633940684
0.0008633937417
0.0008633937474
0.0008633935675
0.0008633936767
0.0008633943457
0.0008633937082
0.0008633939758
0.0008633935323
0.0008633936663
0.0008633936657
0.0008633937191
0.0008633938922
0.0008633940081
0.0008633935253
0.0008633930942
0.0008633927252
0.0008633932838
0.0008633925547
0.000863392325
0.0008633917095
0.0008633922925
0.0008633921346
0.0008633922371
0.0008633922249
0.0008633921807
0.0008633928075
0.0008633919796
0.0008633921987
0.0008633918533
0.0008633919875
0.0008633921089
0.0008633925563
0.0008633925672
0.0008633921196
0.0008633925185
0.0008633924319
0.0008633931417
0.0008633933882
0.0008633940049
0.000863392843
0.0008633930506
0.0008633932798
0.0008633929244
0.0008633931462
0.0008633921696
0.0008633928203
0.0008633927645
0.0008633932619
0.0008633937891
0.000863393115
0.000863393417
0.0008633932772
0.0008633932539
0.0008633935294
0.0008633938267
0.0008633926516
0.0008633931738
0.0008633930553
0.0008633931175
0.0008633929854
0.0008633924823
0.0008633932724
0.0008633938121
0.0008633926302
0.0008633931745
0.000863393545
0.0008633933401
0.0008633927162
0.0008633930456
0.0008633937058
0.0008633934158
0.0008633925876
0.0008633926425
0.0008633935318
0.0008633928938
0.0008633932994
0.0008633931124
0.0008633929364
0.0008633940522
0.000863393636
0.0008633934827
0.0008633935178
0.0008633928854
0.0008633924804
0.000863391853
0.0008633933883
0.0008633931866
0.0008633935551
0.0008633934717
0.0008633930951
0.0008633934588
0.0008633937575
0.0008633942227
0.0008633944055
0.0008633941369
0.0008633943554
0.0008633940506
0.0008633935342
0.0008633926114
0.0008633923813
0.0008633918506
0.000863391596
0.0008633911844
0.000863391488
0.0008633912006
0.0008633929424
0.0008633929161
0.0008633926952
0.0008633922002
0.0008633921404
0.0008633921398
0.0008633928134
0.0008633929076
0.0008633933759
0.0008633927982
0.0008633923539
0.0008633922884
0.0008633924836
0.0008633937027
0.0008633938018
0.000863393193
0.0008633927213
0.000863393773
0.0008633937645
0.0008633929638
0.000863392838
0.0008633927692
0.0008633927092
0.0008633927013
0.0008633921539
0.0008633913717
0.0008633919621
0.0008633923693
0.0008633934838
0.0008633932281
0.0008633935097
0.0008633934955
0.0008633932476
0.0008633927292
0.0008633928879
0.0008633936664
0.0008633938274
0.0008633941738
0.0008633940813
0.0008633940606
0.0008633928245
0.0008633939008
0.0008633923212
0.0008633932534
0.0008633933235
0.0008633933168
0.0008633932377
0.0008633929676
0.0008633927817
0.0008633927251
0.0008633928066
0.0008633931227
0.0008633924607
0.0008633923458
0.0008633918187
0.0008633916563
0.0008633919515
0.0008633916529
0.0008633915756
0.0008633920907
0.0008633920287
0.0008633919439
0.0008633916755
0.0008633913645
0.0008633913446
0.000863391505
0.0008633916788
0.0008633914277
0.0008633910865
0.0008633904956
0.0008633908675
0.0008633909567
0.0008633919839
0.0008633918567
0.0008633915817
0.0008633918921
0.0008633914022
0.0008633912653
0.0008633920863
0.000863392017
0.0008633922935
0.0008633924118
0.0008633926836
0.0008633926849
0.0008633925844
0.0008633921508
0.0008633925379
0.0008633930587
0.0008633928878
0.0008633929486
0.0008633926783
0.0008633931738
0.0008633932389
0.0008633929978
0.0008633926237
0.0008633926948
0.0008633931055
0.0008633931496
0.0008633926895
0.0008633927054
0.000863392705
0.0008633933274
0.0008633934413
0.0008633934097
0.0008633933662
0.0008633930517
0.00086339363
0.000863393183
0.0008633929725
0.0008633928925
0.0008633931516
0.0008633928336
0.0008633937918
0.0008633925619
0.000863392849
0.0008633928153
0.0008633932882
0.0008633927057
0.0008633920721
0.0008633927747
0.0008633936457
0.0008633940997
0.0008633939949
0.0008633945316
0.00086339385
0.000863394165
0.0008633938632
0.0008633934369
0.0008633942807
0.000863394373
0.0008633948628
0.0008633937297
0.0008633941022
0.0008633942002
0.0008633946826
0.0008633948592
0.000863394888
0.0008633943154
0.000863394103
0.0008633936142
0.0008633933132
0.0008633936374
0.0008633927518
0.0008633936415
0.0008633936783
0.0008633936792
0.0008633931287
0.0008633935562
0.0008633933453
0.0008633939295
0.0008633941617
0.0008633940058
0.0008633934961
0.0008633934568
0.0008633930939
0.0008633941907
0.0008633942436
0.0008633936599
0.0008633932413
0.0008633932548
0.0008633929731
0.0008633939387
0.0008633936482
0.0008633938733
0.0008633947085
0.0008633940131
0.0008633940124
0.0008633938964
0.0008633938399
0.0008633940746
0.00086339404
0.0008633939052
0.0008633939717
0.0008633942359
0.0008633941558
0.0008633942538
0.0008633941122
0.0008633941896
0.0008633942884
0.0008633940599
0.000863393955
0.0008633940943
0.0008633942414
0.000863393759
0.0008633942188
0.0008633949701
0.0008633953012
0.0008633943919
0.0008633948796
0.0008633943584
0.0008633945439
0.0008633943367
0.0008633949151
0.0008633949103
0.0008633946965
0.0008633947322
0.0008633948716
0.0008633941052
0.0008633948925
0.0008633940233
0.0008633945492
0.0008633944343
0.0008633942052
0.0008633940728
0.0008633942063
0.0008633944312
0.000863394263
0.0008633942917
0.0008633941411
0.0008633938246
0.0008633937579
0.0008633935422
0.0008633938249
0.0008633939108
0.0008633932099
0.000863392881
0.0008633934656
0.000863394124
0.0008633936981
0.0008633936488
0.0008633939751
0.0008633936921
0.0008633935925
0.0008633937996
0.0008633936501
0.0008633939206
0.0008633938762
0.000863393622
0.0008633934387
0.000863392919
0.0008633939366
0.0008633933355
0.0008633936868
0.000863393399
0.0008633935271
0.0008633937292
0.0008633930584
0.0008633933199
0.0008633934279
0.0008633940657
0.0008633933553
0.0008633926525
0.0008633932198
0.0008633925293
0.0008633927036
0.0008633924459
0.0008633920549
0.0008633927974
0.0008633925486
0.0008633923411
0.0008633920687
0.0008633921952
0.0008633923455
0.0008633926739
0.0008633926823
0.0008633922765
0.0008633921507
0.0008633925711
0.0008633925204
0.0008633929982
0.0008633928741
0.000863392807
0.000863392773
0.0008633923514
0.000863392654
0.0008633929915
0.0008633929697
0.0008633937007
0.0008633934662
0.0008633932095
0.0008633923713
0.0008633922563
0.0008633924442
0.0008633921112
0.0008633914046
0.0008633923331
0.0008633930074
0.0008633927141
0.0008633933877
0.0008633938515
0.000863393643
0.0008633936685
0.0008633936421
0.0008633926639
0.0008633929977
0.000863393115
0.000863392605
0.0008633923366
0.0008633926023
0.0008633931153
0.0008633930171
0.0008633934382
0.0008633923688
0.0008633925269
0.0008633937409
0.0008633932634
0.0008633933075
0.0008633936959
0.0008633940163
0.0008633936958
0.0008633938332
0.0008633933355
0.0008633932196
0.0008633936407
0.0008633938418
0.0008633930391
0.0008633934775
0.000863393443
0.0008633935709
0.0008633941919
0.0008633936237
0.0008633934715
0.0008633930986
0.000863393602
0.0008633938314
0.0008633937538
0.0008633940759
0.0008633940868
0.0008633942302
0.000863393547
0.0008633935358
0.0008633939377
0.0008633937058
0.0008633932544
0.0008633937123
0.0008633937068
0.0008633936713
0.0008633933171
0.0008633930605
0.0008633930831
0.0008633933068
0.0008633937047
0.0008633926965
0.0008633930186
0.000863393997
0.0008633944149
0.000863394135
0.0008633944853
0.0008633938564
0.0008633945017
0.0008633944274
0.000863394677
0.0008633943717
0.0008633946254
0.0008633942722
0.0008633941258
0.0008633942487
0.0008633947336
0.0008633947534
0.0008633940861
0.0008633939181
0.0008633934937
0.0008633934322
0.0008633935779
0.0008633943597
0.0008633938564
0.0008633945387
0.0008633940556
0.0008633940912
0.0008633932546
0.0008633937447
0.0008633933355
0.000863394445
0.0008633944259
0.0008633945218
0.0008633942942
0.0008633937908
0.0008633937364
0.0008633934777
0.0008633942143
0.0008633939679
0.0008633930715
0.0008633939745
0.0008633937325
0.0008633938517
0.0008633939697
0.0008633934379
0.0008633938114
0.0008633940503
0.0008633941058
0.0008633936521
0.0008633945261
0.000863394174
0.0008633941153
0.0008633937385
0.0008633940633
0.0008633938822
0.0008633940021
0.0008633941009
0.0008633941531
0.000863394415
0.0008633943958
0.0008633943672
0.0008633947067
0.0008633947921
0.0008633948126
0.0008633949902
0.0008633943707
0.0008633947768
0.0008633944603
0.0008633944851
0.0008633946902
0.000863394717
0.0008633953995
0.0008633948256
0.0008633952129
0.0008633950941
0.0008633950171
0.0008633957644
0.0008633957363
0.0008633959749
0.0008633956297
0.00086339593
0.0008633962569
0.0008633966109
0.0008633963748
0.0008633959428
0.0008633954736
0.0008633951033
0.0008633953203
0.0008633955674
0.0008633957879
0.000863395417
0.0008633955716
0.0008633951041
0.000863395601
0.0008633956726
0.0008633956115
0.0008633958752
0.0008633953001
0.0008633951472
0.0008633946535
0.00086339463
0.0008633951449
0.0008633950363
0.0008633950036
0.0008633951615
0.0008633953471
0.0008633949069
0.0008633935221
0.000863393866
0.0008633940022
0.0008633940988
0.0008633944148
0.0008633945618
0.0008633939698
0.0008633944281
0.000863394235
0.0008633938913
0.0008633939026
0.0008633933368
0.0008633933995
0.0008633934261
0.0008633937626
0.0008633934952
0.0008633940862
0.0008633941354
0.000863393677
0.0008633936653
0.0008633935964
0.0008633935892
0.0008633934981
0.0008633940595
0.0008633933149
0.0008633938376
0.0008633937205
0.0008633935942
0.0008633927737
0.0008633933652
0.0008633938163
0.0008633944368
0.0008633937656
0.0008633944022
0.0008633947669
0.0008633938389
0.0008633945161
0.0008633938576
0.0008633944029
0.0008633941019
0.0008633941937
0.0008633943537
0.0008633943288
0.0008633947023
0.0008633948961
0.0008633957041
0.0008633956328
0.0008633957721
0.00086339601
0.000863395337
0.0008633950394
0.0008633951409
0.0008633952867
0.0008633956971
0.0008633960812
0.0008633954619
0.0008633958913
0.0008633961061
0.0008633952239
0.0008633959508
0.0008633957964
0.0008633958753
0.0008633959016
0.0008633954248
0.0008633957759
0.000863396071
0.0008633964156
0.0008633969204
0.0008633969327
0.0008633961458
0.0008633954101
0.0008633956578
0.000863395651
0.0008633962726
0.0008633960945
0.0008633961515
0.0008633955574
0.0008633950812
0.0008633950333
0.0008633950718
0.0008633942819
0.0008633959861
0.0008633954605
0.000863395666
0.0008633954595
0.0008633953098
0.0008633948801
0.0008633947655
0.0008633945265
0.0008633947764
0.0008633950867
0.0008633950582
0.0008633953503
0.0008633943495
0.0008633949911
0.0008633955025
0.0008633950951
0.0008633945698
0.0008633948413
0.000863395641
0.0008633954414
0.0008633954788
0.0008633960471
0.0008633957769
0.0008633952195
0.0008633938007
0.0008633938968
0.0008633941425
0.0008633939112
0.0008633941436
0.0008633941016
0.0008633948888
0.0008633952236
0.0008633954945
0.0008633949577
0.0008633941979
0.0008633941307
0.0008633952798
0.0008633950876
0.0008633953734
0.0008633941066
0.0008633944105
0.0008633950104
0.000863395055
0.0008633943962
0.0008633943873
0.0008633944787
0.0008633942701
0.0008633949995
0.0008633949143
0.0008633946027
0.0008633951765
0.0008633953372
0.0008633947052
0.0008633942204
0.0008633936929
0.0008633942212
0.0008633944131
0.0008633943722
0.0008633933857
0.0008633943443
0.0008633942082
0.0008633941747
0.0008633943532
0.0008633937515
0.0008633943649
0.0008633942116
0.0008633943443
0.0008633936793
0.0008633936297
0.0008633939796
0.0008633945166
0.0008633943356
0.0008633944234
0.000863394779
0.0008633946822
0.0008633946789
0.0008633946948
0.0008633944738
0.0008633942534
0.0008633944874
0.0008633945453
0.0008633954119
0.0008633947546
0.000863394464
0.0008633946525
0.0008633940097
0.0008633945245
0.0008633942979
0.0008633942257
0.000863393838
0.0008633933815
0.0008633938681
0.0008633937232
0.0008633936092
0.0008633936305
0.0008633929448
0.00086339304
0.0008633924119
0.0008633930959
0.0008633937876
0.0008633935309
0.0008633933932
0.0008633934764
0.0008633922729
0.00086339215
0.0008633925591
0.0008633926342
0.0008633915632
0.0008633928353
0.0008633923255
0.0008633927426
0.0008633924494
0.0008633920045
0.0008633928636
0.0008633925836
0.0008633930828
0.0008633941365
0.0008633941647
0.0008633945666
0.0008633945226
0.0008633947218
0.0008633943182
0.0008633946377
0.0008633944934
0.0008633938707
0.0008633935555
0.0008633938209
0.0008633946165
0.0008633939017
0.0008633940565
0.0008633948009
0.0008633954778
0.0008633949401
0.0008633949249
0.0008633951929
0.000863395054
0.0008633955793
0.0008633943805
0.0008633948814
0.0008633946554
0.0008633945013
0.0008633939301
0.0008633945653
0.0008633945705
0.0008633955646
0.0008633951267
0.0008633955932
0.0008633960413
0.0008633954804
0.0008633956862
0.0008633946228
0.0008633950575
0.0008633946711
0.0008633944327
0.0008633933892
0.0008633946718
0.0008633944378
0.0008633948694
0.0008633948533
0.0008633948063
0.0008633947123
0.0008633948717
0.0008633951961
0.0008633953158
0.0008633951634
0.0008633952762
0.0008633943308
0.0008633953904
0.0008633945279
0.0008633945958
0.0008633953827
0.0008633954064
0.0008633952589
0.0008633952109
0.0008633958819
0.0008633967696
0.0008633960759
0.0008633957393
0.0008633954912
0.0008633953463
0.000863395353
0.0008633959186
0.0008633956544
0.0008633956886
0.0008633955855
0.0008633959484
0.0008633958184
0.0008633946249
0.000863395153
0.0008633955614
0.0008633955995
0.0008633953426
0.0008633955161
0.0008633959536
0.0008633956223
0.0008633947665
0.000863395412
0.0008633954107
0.0008633953891
0.0008633953837
0.0008633945675
0.0008633938781
0.0008633945225
0.0008633939382
0.000863394589
0.0008633943345
0.0008633943033
0.0008633939845
0.0008633939768
0.0008633933531
0.000863394188
0.0008633939254
0.000863394408
0.0008633943205
0.0008633944941
0.000863393998
0.0008633945533
0.000863394322
0.0008633942831
0.0008633946871
0.0008633946332
0.000863394071
0.0008633933556
0.000863393647
0.0008633936786
0.0008633937835
0.0008633938605
0.0008633940919
0.0008633941556
0.0008633934154
0.0008633926818
0.0008633936334
0.0008633936714
0.0008633941217
0.0008633945221
0.0008633942387
0.0008633950917
0.0008633948363
0.0008633945697
0.0008633948905