/*--------------------------------*- C++ -*----------------------------------*\
| =========                 |                                                 |
| \\      /  F ield         | OpenFOAM: The Open Source CFD Toolbox           |
|  \\    /   O peration     | Version:  2312                                  |
|   \\  /    A nd           | Website:  www.openfoam.com                      |
|    \\/     M anipulation  |                                                 |
\*---------------------------------------------------------------------------*/
FoamFile
{
    version     2.0;
    format      ascii;
    arch        "LSB;label=32;scalar=64";
    class       volVectorField;
    location    "0.0008";
    object      U;
}
// * * * * * * * * * * * * * * * * * * * * * * * * * * * * * * * * * * * * * //

dimensions      [0 1 -1 0 0 0 0];

internalField   nonuniform List<vector> 
5000
(
(2.59564007e-13 0 0)
(1.125259805e-12 0 0)
(9.59383609e-13 0 0)
(1.799069304e-12 0 0)
(1.018328665e-12 0 0)
(2.438253596e-12 0 0)
(2.780298229e-12 0 0)
(1.681448931e-12 0 0)
(1.725073878e-12 0 0)
(8.990093922e-13 0 0)
(2.587773244e-12 0 0)
(3.256390876e-13 0 0)
(1.527047983e-12 0 0)
(-1.13624739e-12 0 0)
(-1.4860876e-13 0 0)
(4.251515941e-13 0 0)
(9.791122707e-13 0 0)
(1.786093357e-12 0 0)
(2.509476227e-13 0 0)
(2.293732247e-12 0 0)
(1.27652515e-12 0 0)
(1.511219613e-12 0 0)
(-5.46418009e-14 0 0)
(1.820655834e-12 0 0)
(9.048105134e-13 0 0)
(4.885871024e-13 0 0)
(1.213872131e-12 0 0)
(6.787553931e-13 0 0)
(1.075077215e-12 0 0)
(1.066911786e-12 0 0)
(1.912061839e-12 0 0)
(1.424464581e-12 0 0)
(2.543256767e-12 0 0)
(4.423351515e-13 0 0)
(8.278626732e-13 0 0)
(1.576912247e-12 0 0)
(2.058028775e-12 0 0)
(6.244293673e-13 0 0)
(1.932539982e-12 0 0)
(-2.607775902e-13 0 0)
(2.147868133e-12 0 0)
(1.5234325e-12 0 0)
(3.333083174e-12 0 0)
(3.110523104e-12 0 0)
(2.920784415e-12 0 0)
(3.415614312e-12 0 0)
(3.50625137e-12 0 0)
(1.847759752e-12 0 0)
(3.46563067e-12 0 0)
(3.01594573e-12 0 0)
(2.521233833e-12 0 0)
(1.323577136e-12 0 0)
(1.050190037e-12 0 0)
(2.912181891e-12 0 0)
(2.151634292e-12 0 0)
(2.10580357e-12 0 0)
(1.356259555e-12 0 0)
(1.044160457e-12 0 0)
(8.891489587e-13 0 0)
(2.571364907e-13 0 0)
(-1.624487498e-13 0 0)
(3.14145745e-14 0 0)
(-1.552066353e-12 0 0)
(1.636699331e-12 0 0)
(-1.525177592e-12 0 0)
(1.902445481e-13 0 0)
(3.87319314e-13 0 0)
(6.730114864e-13 0 0)
(1.089239425e-11 0 0)
(4.50090356e-11 0 0)
(1.770373258e-10 0 0)
(6.743518534e-10 0 0)
(2.572272207e-09 0 0)
(9.503370767e-09 0 0)
(3.612664191e-08 0 0)
(1.047097063e-07 0 0)
(2.5278383e-07 0 0)
(5.575167182e-07 0 0)
(1.169294601e-06 0 0)
(2.392328328e-06 0 0)
(4.828827153e-06 0 0)
(9.638905733e-06 0 0)
(1.902891259e-05 0 0)
(3.714044285e-05 0 0)
(7.162616722e-05 0 0)
(0.0001364632653 0 0)
(0.0002568407301 0 0)
(0.0004775751752 0 0)
(0.0008770445465 0 0)
(0.001589941448 0 0)
(0.002843862012 0 0)
(0.005016516494 0 0)
(0.008722909292 0 0)
(0.01494436323 0 0)
(0.02521327689 0 0)
(0.04186774527 0 0)
(0.06838678465 0 0)
(0.1098072401 0 0)
(0.1732045372 0 0)
(0.2681887006 0 0)
(0.4073239013 0 0)
(0.6063272566 0 0)
(0.8838476358 0 0)
(1.260572917 0 0)
(1.757342686 0 0)
(2.391699859 0 0)
(3.17188678 0 0)
(4.091962117 0 0)
(5.136938724 0 0)
(6.292428721 0 0)
(7.547052212 0 0)
(8.890589725 0 0)
(10.31307124 0 0)
(11.80485635 0 0)
(13.35691438 0 0)
(14.96103849 0 0)
(16.60995179 0 0)
(18.2973199 0 0)
(20.01769915 0 0)
(21.7664482 0 0)
(23.53962464 0 0)
(25.33388065 0 0)
(27.14636575 0 0)
(28.9746404 0 0)
(30.81660163 0 0)
(32.67042 0 0)
(34.53448661 0 0)
(36.40736853 0 0)
(38.28777112 0 0)
(40.17450541 0 0)
(42.06645943 0 0)
(43.96257176 0 0)
(45.86180329 0 0)
(47.76306739 0 0)
(49.66514693 0 0)
(51.56670686 0 0)
(53.46617114 0 0)
(55.36205263 0 0)
(57.25282602 0 0)
(59.13668668 0 0)
(61.011501 0 0)
(62.8747591 0 0)
(64.72346636 0 0)
(66.55401074 0 0)
(68.36199728 0 0)
(70.14203607 0 0)
(71.88748479 0 0)
(73.59026415 0 0)
(75.24044962 0 0)
(76.82549686 0 0)
(78.33059332 0 0)
(79.74108602 0 0)
(81.04766146 0 0)
(82.37235253 0 0)
(84.10813497 0 0)
(86.58779972 0 0)
(89.49241776 0 0)
(92.2593368 0 0)
(94.87984183 0 0)
(97.38348567 0 0)
(99.80142156 0 0)
(102.1556802 0 0)
(104.4615563 0 0)
(106.7296607 0 0)
(108.9676486 0 0)
(111.1813294 0 0)
(113.3751706 0 0)
(115.5525786 0 0)
(117.7161808 0 0)
(119.8681405 0 0)
(122.010384 0 0)
(124.1445698 0 0)
(126.27189 0 0)
(128.393206 0 0)
(130.5091829 0 0)
(132.6203545 0 0)
(134.7271412 0 0)
(136.8298521 0 0)
(138.9287503 0 0)
(141.0240797 0 0)
(143.1160332 0 0)
(145.204761 0 0)
(147.2903719 0 0)
(149.3728925 0 0)
(151.4523098 0 0)
(153.5286704 0 0)
(155.6020466 0 0)
(157.6723993 0 0)
(159.7395566 0 0)
(161.8032989 0 0)
(163.8634248 0 0)
(165.9198287 0 0)
(167.9724394 0 0)
(170.0209824 0 0)
(172.0650882 0 0)
(174.1044406 0 0)
(176.13844 0 0)
(178.1664457 0 0)
(180.1881262 0 0)
(182.2028292 0 0)
(184.2097514 0 0)
(186.2081258 0 0)
(188.196832 0 0)
(190.174489 0 0)
(192.139566 0 0)
(194.0904104 0 0)
(196.0253002 0 0)
(197.9421858 0 0)
(199.8388327 0 0)
(201.7120859 0 0)
(203.5579249 0 0)
(205.3716466 0 0)
(207.147646 0 0)
(208.8791816 0 0)
(210.5581471 0 0)
(212.1749358 0 0)
(213.7184992 0 0)
(215.1766585 0 0)
(216.5367217 0 0)
(217.7864642 0 0)
(218.9154552 0 0)
(219.916554 0 0)
(220.7872311 0 0)
(221.5303243 0 0)
(222.1539586 0 0)
(222.670573 0 0)
(223.095264 0 0)
(223.4438548 0 0)
(223.7311873 0 0)
(223.9700119 0 0)
(224.1706088 0 0)
(224.3409849 0 0)
(224.4873471 0 0)
(224.6145795 0 0)
(224.7265756 0 0)
(224.8264244 0 0)
(224.9165054 0 0)
(224.9985535 0 0)
(225.073762 0 0)
(225.142926 0 0)
(225.2066232 0 0)
(225.2653844 0 0)
(225.3197819 0 0)
(225.3704384 0 0)
(225.4179604 0 0)
(225.4628666 0 0)
(225.5055401 0 0)
(225.5462271 0 0)
(225.5850603 0 0)
(225.6221037 0 0)
(225.6574023 0 0)
(225.6909893 0 0)
(225.7229253 0 0)
(225.7532946 0 0)
(225.7822064 0 0)
(225.8097841 0 0)
(225.8361316 0 0)
(225.8613533 0 0)
(225.885524 0 0)
(225.9086865 0 0)
(225.9309223 0 0)
(225.9523353 0 0)
(225.9730225 0 0)
(225.9930601 0 0)
(226.0125022 0 0)
(226.031349 0 0)
(226.0495463 0 0)
(226.0670772 0 0)
(226.0839571 0 0)
(226.1002737 0 0)
(226.1160901 0 0)
(226.1314438 0 0)
(226.1463965 0 0)
(226.1609771 0 0)
(226.1751506 0 0)
(226.1889031 0 0)
(226.202287 0 0)
(226.215337 0 0)
(226.2280449 0 0)
(226.2404985 0 0)
(226.2525965 0 0)
(226.2644482 0 0)
(226.2759494 0 0)
(226.2871365 0 0)
(226.2980994 0 0)
(226.3088218 0 0)
(226.3192923 0 0)
(226.3296203 0 0)
(226.3395735 0 0)
(226.3494325 0 0)
(226.3593554 0 0)
(226.368784 0 0)
(226.3780551 0 0)
(226.3870891 0 0)
(226.395892 0 0)
(226.4044687 0 0)
(226.4128759 0 0)
(226.4211983 0 0)
(226.4294017 0 0)
(226.4373847 0 0)
(226.4453122 0 0)
(226.453269 0 0)
(226.461088 0 0)
(226.4687115 0 0)
(226.4764578 0 0)
(226.4840006 0 0)
(226.491155 0 0)
(226.4984332 0 0)
(226.5054533 0 0)
(226.5119173 0 0)
(226.5186722 0 0)
(226.5252027 0 0)
(226.5310657 0 0)
(226.5375031 0 0)
(226.5435811 0 0)
(226.5492385 0 0)
(226.5552957 0 0)
(226.5609217 0 0)
(226.5668153 0 0)
(226.5724611 0 0)
(226.5780019 0 0)
(226.5836592 0 0)
(226.5891028 0 0)
(226.5946333 0 0)
(226.6001633 0 0)
(226.6059053 0 0)
(226.6123138 0 0)
(226.620275 0 0)
(226.6315172 0 0)
(226.6492334 0 0)
(226.6788631 0 0)
(226.7291743 0 0)
(226.8135181 0 0)
(226.9493719 0 0)
(227.1553252 0 0)
(227.4675665 0 0)
(227.9582059 0 0)
(228.6166712 0 0)
(229.0357768 0 0)
(229.2200058 0 0)
(229.2458424 0 0)
(229.2078041 0 0)
(229.0943473 0 0)
(228.8354166 0 0)
(227.7404329 0 0)
(225.7592065 0 0)
(225.0011293 0 0)
(225.8945387 0 0)
(227.012717 0 0)
(227.4048139 0 0)
(227.6528684 0 0)
(227.8285648 0 0)
(227.9542848 0 0)
(228.0429716 0 0)
(228.1047458 0 0)
(228.1467239 0 0)
(228.1748791 0 0)
(228.1937953 0 0)
(228.206548 0 0)
(228.2152165 0 0)
(228.2212761 0 0)
(228.2256066 0 0)
(228.2285731 0 0)
(228.230564 0 0)
(228.2319605 0 0)
(228.2330243 0 0)
(228.2339213 0 0)
(228.234773 0 0)
(228.2356299 0 0)
(228.2364559 0 0)
(228.2371931 0 0)
(228.2378764 0 0)
(228.2385384 0 0)
(228.2391963 0 0)
(228.2398624 0 0)
(228.2405492 0 0)
(228.2412595 0 0)
(228.2419789 0 0)
(228.2426872 0 0)
(228.2433895 0 0)
(228.2440932 0 0)
(228.2448039 0 0)
(228.2455376 0 0)
(228.246276 0 0)
(228.2470156 0 0)
(228.2477639 0 0)
(228.2484542 0 0)
(228.2492626 0 0)
(228.2501337 0 0)
(228.2509334 0 0)
(228.2516901 0 0)
(228.2524545 0 0)
(228.2532126 0 0)
(228.2539839 0 0)
(228.2547812 0 0)
(228.255581 0 0)
(228.2563802 0 0)
(228.2571797 0 0)
(228.2579805 0 0)
(228.2587843 0 0)
(228.2595926 0 0)
(228.2604051 0 0)
(228.2612213 0 0)
(228.2620399 0 0)
(228.2628595 0 0)
(228.2636796 0 0)
(228.2645007 0 0)
(228.2653236 0 0)
(228.266149 0 0)
(228.2669772 0 0)
(228.2678079 0 0)
(228.2686407 0 0)
(228.2694758 0 0)
(228.2703136 0 0)
(228.2711541 0 0)
(228.2719975 0 0)
(228.2728431 0 0)
(228.2736904 0 0)
(228.2745379 0 0)
(228.2753841 0 0)
(228.2762285 0 0)
(228.2770706 0 0)
(228.2779102 0 0)
(228.2787473 0 0)
(228.2795818 0 0)
(228.2804137 0 0)
(228.2812427 0 0)
(228.282069 0 0)
(228.2828921 0 0)
(228.2837118 0 0)
(228.284528 0 0)
(228.2853407 0 0)
(228.2861503 0 0)
(228.2869576 0 0)
(228.2877631 0 0)
(228.2885678 0 0)
(228.2893724 0 0)
(228.2901774 0 0)
(228.2909834 0 0)
(228.2917906 0 0)
(228.2925994 0 0)
(228.2934102 0 0)
(228.2942236 0 0)
(228.2950403 0 0)
(228.2958607 0 0)
(228.2966852 0 0)
(228.2975142 0 0)
(228.2983476 0 0)
(228.2991856 0 0)
(228.3000278 0 0)
(228.3008737 0 0)
(228.3017229 0 0)
(228.3025756 0 0)
(228.3034321 0 0)
(228.304293 0 0)
(228.3051584 0 0)
(228.3060285 0 0)
(228.3069035 0 0)
(228.3077834 0 0)
(228.308668 0 0)
(228.3095569 0 0)
(228.3104494 0 0)
(228.3113452 0 0)
(228.3122445 0 0)
(228.3131479 0 0)
(228.3140565 0 0)
(228.3149708 0 0)
(228.3158911 0 0)
(228.3168175 0 0)
(228.3177498 0 0)
(228.318688 0 0)
(228.3196322 0 0)
(228.3205823 0 0)
(228.3215382 0 0)
(228.3225002 0 0)
(228.3234689 0 0)
(228.324445 0 0)
(228.3254286 0 0)
(228.3264195 0 0)
(228.3274167 0 0)
(228.3284193 0 0)
(228.3294266 0 0)
(228.3304386 0 0)
(228.3314545 0 0)
(228.3324737 0 0)
(228.3334961 0 0)
(228.3345218 0 0)
(228.3355511 0 0)
(228.3365838 0 0)
(228.3376197 0 0)
(228.3386572 0 0)
(228.3396942 0 0)
(228.3407293 0 0)
(228.341762 0 0)
(228.3427921 0 0)
(228.3438202 0 0)
(228.3448472 0 0)
(228.3458737 0 0)
(228.3469004 0 0)
(228.3479276 0 0)
(228.3489559 0 0)
(228.3499857 0 0)
(228.3510168 0 0)
(228.3520487 0 0)
(228.3530808 0 0)
(228.3541135 0 0)
(228.355149 0 0)
(228.3561882 0 0)
(228.3572313 0 0)
(228.3582784 0 0)
(228.3593292 0 0)
(228.3603828 0 0)
(228.3614385 0 0)
(228.362496 0 0)
(228.3635536 0 0)
(228.3646105 0 0)
(228.3656675 0 0)
(228.3667265 0 0)
(228.3677895 0 0)
(228.368857 0 0)
(228.3699294 0 0)
(228.3710062 0 0)
(228.3720867 0 0)
(228.3731697 0 0)
(228.3742535 0 0)
(228.3753365 0 0)
(228.3764187 0 0)
(228.3775018 0 0)
(228.3785882 0 0)
(228.37968 0 0)
(228.3807779 0 0)
(228.3818817 0 0)
(228.3829918 0 0)
(228.384108 0 0)
(228.3852295 0 0)
(228.3863552 0 0)
(228.3874851 0 0)
(228.3886209 0 0)
(228.3897644 0 0)
(228.3909177 0 0)
(228.3920827 0 0)
(228.3932601 0 0)
(228.3944486 0 0)
(228.3956451 0 0)
(228.3968468 0 0)
(228.3980532 0 0)
(228.399265 0 0)
(228.400482 0 0)
(228.4017046 0 0)
(228.4029349 0 0)
(228.4041766 0 0)
(228.4054317 0 0)
(228.4066986 0 0)
(228.4079743 0 0)
(228.4092565 0 0)
(228.4105438 0 0)
(228.4118347 0 0)
(228.4131268 0 0)
(228.4144198 0 0)
(228.4157168 0 0)
(228.4170202 0 0)
(228.4183305 0 0)
(228.4196491 0 0)
(228.4209746 0 0)
(228.4223049 0 0)
(228.4236367 0 0)
(228.4249653 0 0)
(228.4262908 0 0)
(228.4276148 0 0)
(228.4289387 0 0)
(228.4302642 0 0)
(228.4315962 0 0)
(228.4329356 0 0)
(228.4342814 0 0)
(228.4356326 0 0)
(228.4369882 0 0)
(228.4383446 0 0)
(228.4396966 0 0)
(228.4410452 0 0)
(228.4423925 0 0)
(228.443741 0 0)
(228.4450976 0 0)
(228.4464639 0 0)
(228.4478394 0 0)
(228.4492228 0 0)
(228.4506131 0 0)
(228.4520092 0 0)
(228.4534072 0 0)
(228.4548016 0 0)
(228.4561932 0 0)
(228.4575845 0 0)
(228.4589803 0 0)
(228.4603886 0 0)
(228.4618102 0 0)
(228.463244 0 0)
(228.464689 0 0)
(228.4661431 0 0)
(228.4676017 0 0)
(228.4690572 0 0)
(228.4705068 0 0)
(228.4719546 0 0)
(228.4734034 0 0)
(228.4748565 0 0)
(228.4763178 0 0)
(228.477792 0 0)
(228.4792804 0 0)
(228.4807811 0 0)
(228.48229 0 0)
(228.4837997 0 0)
(228.4853035 0 0)
(228.4868045 0 0)
(228.4883059 0 0)
(228.4898123 0 0)
(228.4913359 0 0)
(228.492878 0 0)
(228.4944371 0 0)
(228.4960105 0 0)
(228.4975963 0 0)
(228.4991906 0 0)
(228.5007836 0 0)
(228.502367 0 0)
(228.5039452 0 0)
(228.5055221 0 0)
(228.5071031 0 0)
(228.508702 0 0)
(228.5103204 0 0)
(228.5119565 0 0)
(228.5136074 0 0)
(228.5152712 0 0)
(228.5169425 0 0)
(228.518608 0 0)
(228.520262 0 0)
(228.5219099 0 0)
(228.5235559 0 0)
(228.5252072 0 0)
(228.5268783 0 0)
(228.5285698 0 0)
(228.5302794 0 0)
(228.5320038 0 0)
(228.5337408 0 0)
(228.5354792 0 0)
(228.5372028 0 0)
(228.5389131 0 0)
(228.5406156 0 0)
(228.542316 0 0)
(228.5440281 0 0)
(228.5457651 0 0)
(228.5475264 0 0)
(228.5493082 0 0)
(228.5511071 0 0)
(228.5529196 0 0)
(228.5547292 0 0)
(228.5565195 0 0)
(228.5582952 0 0)
(228.5600632 0 0)
(228.5618316 0 0)
(228.5636241 0 0)
(228.5654483 0 0)
(228.5673034 0 0)
(228.5691838 0 0)
(228.5710843 0 0)
(228.5729999 0 0)
(228.5749098 0 0)
(228.5767962 0 0)
(228.5786647 0 0)
(228.5805235 0 0)
(228.5823845 0 0)
(228.584275 0 0)
(228.5862011 0 0)
(228.5881615 0 0)
(228.5901495 0 0)
(228.5921587 0 0)
(228.5941806 0 0)
(228.5961877 0 0)
(228.5981647 0 0)
(228.6001175 0 0)
(228.6020568 0 0)
(228.6039967 0 0)
(228.6059668 0 0)
(228.6079739 0 0)
(228.6100169 0 0)
(228.6120883 0 0)
(228.6141816 0 0)
(228.6162797 0 0)
(228.6183487 0 0)
(228.6203819 0 0)
(228.6223882 0 0)
(228.6243818 0 0)
(228.6263931 0 0)
(228.6284521 0 0)
(228.6305639 0 0)
(228.6327238 0 0)
(228.634921 0 0)
(228.6371471 0 0)
(228.6393808 0 0)
(228.6415778 0 0)
(228.6437297 0 0)
(228.6458484 0 0)
(228.6479519 0 0)
(228.650076 0 0)
(228.6522584 0 0)
(228.6545036 0 0)
(228.6568054 0 0)
(228.6591506 0 0)
(228.6615292 0 0)
(228.6639111 0 0)
(228.6662455 0 0)
(228.6685275 0 0)
(228.6707695 0 0)
(228.6729938 0 0)
(228.6752516 0 0)
(228.6775768 0 0)
(228.6799757 0 0)
(228.6824398 0 0)
(228.6849518 0 0)
(228.6874967 0 0)
(228.6900333 0 0)
(228.6925067 0 0)
(228.6949116 0 0)
(228.6972608 0 0)
(228.6995835 0 0)
(228.7019419 0 0)
(228.7043686 0 0)
(228.7068742 0 0)
(228.7094493 0 0)
(228.712074 0 0)
(228.714729 0 0)
(228.717359 0 0)
(228.7199077 0 0)
(228.7223714 0 0)
(228.7247709 0 0)
(228.7271468 0 0)
(228.7295841 0 0)
(228.7321138 0 0)
(228.7347473 0 0)
(228.7374709 0 0)
(228.7402586 0 0)
(228.7430886 0 0)
(228.745893 0 0)
(228.7485953 0 0)
(228.7511935 0 0)
(228.7537162 0 0)
(228.7562101 0 0)
(228.7587796 0 0)
(228.7614696 0 0)
(228.764291 0 0)
(228.767225 0 0)
(228.7702404 0 0)
(228.7733147 0 0)
(228.7763578 0 0)
(228.7792775 0 0)
(228.7820803 0 0)
(228.7848024 0 0)
(228.7874999 0 0)
(228.7903011 0 0)
(228.7932551 0 0)
(228.7963709 0 0)
(228.7996228 0 0)
(228.802973 0 0)
(228.806389 0 0)
(228.8097463 0 0)
(228.8129503 0 0)
(228.8160143 0 0)
(228.8189839 0 0)
(228.8219341 0 0)
(228.8250197 0 0)
(228.828287 0 0)
(228.831744 0 0)
(228.8353581 0 0)
(228.8390816 0 0)
(228.8428662 0 0)
(228.8465561 0 0)
(228.8500571 0 0)
(228.853378 0 0)
(228.8565775 0 0)
(228.8597633 0 0)
(228.863113 0 0)
(228.8666772 0 0)
(228.8704669 0 0)
(228.874444 0 0)
(228.8785444 0 0)
(228.882703 0 0)
(228.8867362 0 0)
(228.8905346 0 0)
(228.8940955 0 0)
(228.8974885 0 0)
(228.9008552 0 0)
(228.9044018 0 0)
(228.9081934 0 0)
(228.9122491 0 0)
(228.9165251 0 0)
(228.9209408 0 0)
(228.9254135 0 0)
(228.9297235 0 0)
(228.9337408 0 0)
(228.9374581 0 0)
(228.9409638 0 0)
(228.9444394 0 0)
(228.9481297 0 0)
(228.9521137 0 0)
(228.9564121 0 0)
(228.9609695 0 0)
(228.965689 0 0)
(228.9704701 0 0)
(228.9750406 0 0)
(228.9792503 0 0)
(228.9830991 0 0)
(228.9867026 0 0)
(228.990288 0 0)
(228.9941494 0 0)
(228.9983811 0 0)
(229.0030018 0 0)
(229.0079415 0 0)
(229.0130835 0 0)
(229.0183042 0 0)
(229.0232671 0 0)
(229.0277946 0 0)
(229.0318862 0 0)
(229.0356779 0 0)
(229.039441 0 0)
(229.0435392 0 0)
(229.0480892 0 0)
(229.0531193 0 0)
(229.0585472 0 0)
(229.0642277 0 0)
(229.0700129 0 0)
(229.0755004 0 0)
(229.0804526 0 0)
(229.0848595 0 0)
(229.0888809 0 0)
(229.0928401 0 0)
(229.0972018 0 0)
(229.1021173 0 0)
(229.1076293 0 0)
(229.1136395 0 0)
(229.1199722 0 0)
(229.126451 0 0)
(229.1325685 0 0)
(229.1380149 0 0)
(229.1427957 0 0)
(229.1471254 0 0)
(229.1514061 0 0)
(229.1562206 0 0)
(229.1617448 0 0)
(229.1680099 0 0)
(229.1748825 0 0)
(229.1821579 0 0)
(229.1896157 0 0)
(229.1966101 0 0)
(229.2028013 0 0)
(229.2082147 0 0)
(229.2131178 0 0)
(229.2180262 0 0)
(229.2236179 0 0)
(229.2300837 0 0)
(229.2374396 0 0)
(229.2455082 0 0)
(229.2540251 0 0)
(229.2626931 0 0)
(229.2707901 0 0)
(229.2779609 0 0)
(229.2841511 0 0)
(229.2896209 0 0)
(229.295002 0 0)
(229.3010668 0 0)
(229.3080751 0 0)
(229.3161113 0 0)
(229.3249885 0 0)
(229.3343278 0 0)
(229.3437498 0 0)
(229.3524638 0 0)
(229.3599887 0 0)
(229.3661417 0 0)
(229.3712129 0 0)
(229.37606 0 0)
(229.3815682 0 0)
(229.3880876 0 0)
(229.3957583 0 0)
(229.4044053 0 0)
(229.4136144 0 0)
(229.4229646 0 0)
(229.4316705 0 0)
(229.438888 0 0)
(229.4441743 0 0)
(229.4477883 0 0)
(229.4509979 0 0)
(229.4554213 0 0)
(229.4614898 0 0)
(229.4691023 0 0)
(229.4777045 0 0)
(229.4867678 0 0)
(229.4958864 0 0)
(229.5045314 0 0)
(229.5123641 0 0)
(229.5184175 0 0)
(229.5220141 0 0)
(229.524234 0 0)
(229.5286576 0 0)
(229.5347629 0 0)
(229.5384557 0 0)
(229.5444685 0 0)
(229.541153 0 0)
(229.5239595 0 0)
(229.490829 0 0)
(229.4216277 0 0)
(229.2705097 0 0)
(228.971181 0 0)
(228.4100956 0 0)
(227.3580454 0 0)
(225.3703655 0 0)
(221.6389837 0 0)
(214.7362087 0 0)
(202.2454759 0 0)
(180.4967561 0 0)
(145.0510462 0 0)
(93.5733324 0 0)
(48.08813899 0 0)
(22.96048151 0 0)
(10.51442428 0 0)
(4.718949813 0 0)
(2.098425065 0 0)
(0.9292614121 0 0)
(0.4107500283 0 0)
(0.1814088405 0 0)
(0.08008995764 0 0)
(0.03535279321 0 0)
(0.0156039282 0 0)
(0.00688692777 0 0)
(0.003039526795 0 0)
(0.00134146116 0 0)
(0.0005920321044 0 0)
(0.0002612774653 0 0)
(0.0001153034091 0 0)
(5.088723683e-05 0 0)
(2.245438212e-05 0 0)
(9.909742954e-06 0 0)
(4.373739184e-06 0 0)
(1.929598801e-06 0 0)
(8.444080917e-07 0 0)
(3.689365648e-07 0 0)
(1.625021497e-07 0 0)
(6.856670338e-08 0 0)
(2.915761102e-08 0 0)
(8.390222381e-09 0 0)
(1.523599907e-09 0 0)
(-2.214148424e-09 0 0)
(-4.41322491e-09 0 0)
(-2.948761959e-09 0 0)
(-2.621973908e-09 0 0)
(-4.512437851e-09 0 0)
(-4.933878555e-09 0 0)
(-5.951557546e-09 0 0)
(-7.222418844e-09 0 0)
(-7.93978994e-09 0 0)
(-6.866687309e-09 0 0)
(-5.626199683e-09 0 0)
(-5.478261212e-09 0 0)
(-5.081103405e-09 0 0)
(-5.72280569e-09 0 0)
(-5.577051478e-09 0 0)
(-4.503346889e-09 0 0)
(-5.0065542e-09 0 0)
(-5.523870056e-09 0 0)
(-5.186650375e-09 0 0)
(-4.890637746e-09 0 0)
(-3.928588123e-09 0 0)
(-3.467464756e-09 0 0)
(-2.595112159e-09 0 0)
(-1.162862954e-09 0 0)
(-1.941122795e-09 0 0)
(-2.729719452e-09 0 0)
(-1.971813476e-09 0 0)
(-1.893609802e-09 0 0)
(-2.311441332e-09 0 0)
(-2.009338799e-09 0 0)
(-2.022845556e-09 0 0)
(-1.45784489e-09 0 0)
(-1.467642639e-09 0 0)
(-1.682328211e-09 0 0)
(6.253843151e-10 0 0)
(1.292938656e-09 0 0)
(1.774778547e-09 0 0)
(3.160282724e-09 0 0)
(2.240420235e-09 0 0)
(2.929146987e-09 0 0)
(3.884139553e-09 0 0)
(3.082309336e-09 0 0)
(3.109394211e-09 0 0)
(5.360794963e-09 0 0)
(5.916873165e-09 0 0)
(5.181040537e-09 0 0)
(5.263806325e-09 0 0)
(4.282659755e-09 0 0)
(3.979023479e-09 0 0)
(5.288377531e-09 0 0)
(6.487929748e-09 0 0)
(6.604508808e-09 0 0)
(6.455892387e-09 0 0)
(6.949065499e-09 0 0)
(7.828169991e-09 0 0)
(7.735012577e-09 0 0)
(7.34362004e-09 0 0)
(7.573955243e-09 0 0)
(7.126394644e-09 0 0)
(6.114340388e-09 0 0)
(6.047420397e-09 0 0)
(7.156543363e-09 0 0)
(6.924739148e-09 0 0)
(5.630712605e-09 0 0)
(4.210020755e-09 0 0)
(4.810867082e-09 0 0)
(4.889874049e-09 0 0)
(5.688097654e-09 0 0)
(7.139866477e-09 0 0)
(6.005046783e-09 0 0)
(4.825237462e-09 0 0)
(4.504695859e-09 0 0)
(4.800939372e-09 0 0)
(4.963307559e-09 0 0)
(3.352670778e-09 0 0)
(2.831541151e-09 0 0)
(3.691829977e-09 0 0)
(3.356938065e-09 0 0)
(2.901324671e-09 0 0)
(4.003851623e-09 0 0)
(6.782827072e-09 0 0)
(8.035123189e-09 0 0)
(7.548763326e-09 0 0)
(7.799539346e-09 0 0)
(7.744166267e-09 0 0)
(7.825919719e-09 0 0)
(9.018614934e-09 0 0)
(8.516536528e-09 0 0)
(7.436848535e-09 0 0)
(6.583399387e-09 0 0)
(8.88393062e-09 0 0)
(1.029946619e-08 0 0)
(8.558344462e-09 0 0)
(8.910918616e-09 0 0)
(8.753311163e-09 0 0)
(8.958192194e-09 0 0)
(6.76868573e-09 0 0)
(4.453040752e-09 0 0)
(4.905831814e-09 0 0)
(5.59122434e-09 0 0)
(6.738064689e-09 0 0)
(7.539220387e-09 0 0)
(7.35713362e-09 0 0)
(5.753664165e-09 0 0)
(4.643844175e-09 0 0)
(4.339069015e-09 0 0)
(5.0590671e-09 0 0)
(5.927932718e-09 0 0)
(5.597067596e-09 0 0)
(6.37700936e-09 0 0)
(6.64327795e-09 0 0)
(6.255363226e-09 0 0)
(5.635453996e-09 0 0)
(5.792193002e-09 0 0)
(6.613938481e-09 0 0)
(5.739699587e-09 0 0)
(4.467248782e-09 0 0)
(4.351040885e-09 0 0)
(4.26570101e-09 0 0)
(2.142454224e-09 0 0)
(2.054773239e-09 0 0)
(2.373366123e-09 0 0)
(1.426314356e-09 0 0)
(3.818352006e-09 0 0)
(4.118008049e-09 0 0)
(1.044788857e-09 0 0)
(3.826630481e-10 0 0)
(-2.716122673e-12 0 0)
(3.312958318e-10 0 0)
(1.519717982e-10 0 0)
(3.438078981e-09 0 0)
(4.716229796e-09 0 0)
(4.048335048e-09 0 0)
(5.673606038e-09 0 0)
(4.529888517e-09 0 0)
(4.04596271e-09 0 0)
(4.44411089e-09 0 0)
(3.105995412e-09 0 0)
(1.983315114e-09 0 0)
(1.39374382e-09 0 0)
(1.016658214e-09 0 0)
(8.924977794e-10 0 0)
(-2.098988605e-10 0 0)
(1.113462426e-09 0 0)
(2.978251382e-09 0 0)
(2.845197747e-09 0 0)
(3.296586154e-09 0 0)
(3.542983771e-09 0 0)
(4.281343717e-09 0 0)
(5.213334428e-09 0 0)
(5.246568751e-09 0 0)
(4.540206983e-09 0 0)
(3.64725037e-09 0 0)
(1.592236133e-09 0 0)
(-1.94170605e-10 0 0)
(-4.060291328e-10 0 0)
(-3.283466804e-10 0 0)
(-7.739511219e-10 0 0)
(-2.633112406e-09 0 0)
(-3.747910333e-09 0 0)
(-3.845384421e-09 0 0)
(-3.144961959e-09 0 0)
(-2.40535566e-09 0 0)
(-1.745921428e-09 0 0)
(-4.826611741e-10 0 0)
(7.762420262e-10 0 0)
(1.526677056e-09 0 0)
(3.292464579e-09 0 0)
(2.423843042e-09 0 0)
(-8.806810912e-10 0 0)
(-1.760961445e-10 0 0)
(1.846223919e-09 0 0)
(1.510627516e-09 0 0)
(1.454379623e-09 0 0)
(7.546107189e-10 0 0)
(-1.892481722e-09 0 0)
(-1.116309636e-09 0 0)
(-4.440578639e-10 0 0)
(-4.365681226e-10 0 0)
(1.353982644e-09 0 0)
(3.919353298e-09 0 0)
(5.780403365e-09 0 0)
(5.514453638e-09 0 0)
(5.039431929e-09 0 0)
(4.786268961e-09 0 0)
(4.372023056e-09 0 0)
(2.904800773e-09 0 0)
(-9.332666519e-10 0 0)
(-2.808785047e-09 0 0)
(-1.465158256e-09 0 0)
(-3.545937794e-10 0 0)
(1.546131201e-09 0 0)
(2.012079836e-09 0 0)
(2.03001155e-09 0 0)
(1.629703121e-09 0 0)
(-7.640412594e-10 0 0)
(6.26523813e-12 0 0)
(3.512294922e-09 0 0)
(4.669591802e-09 0 0)
(4.788075508e-09 0 0)
(4.325116546e-09 0 0)
(3.140987902e-09 0 0)
(3.794953285e-09 0 0)
(4.377418833e-09 0 0)
(3.649931299e-09 0 0)
(3.068446429e-09 0 0)
(3.228931734e-09 0 0)
(2.641740005e-09 0 0)
(2.273367726e-09 0 0)
(2.132448931e-09 0 0)
(9.389676248e-10 0 0)
(1.142147528e-09 0 0)
(1.41992739e-09 0 0)
(1.540872635e-09 0 0)
(1.726554255e-09 0 0)
(2.006821496e-09 0 0)
(1.523485914e-09 0 0)
(3.185278739e-10 0 0)
(-5.778995727e-10 0 0)
(-1.878994433e-09 0 0)
(-2.416759178e-10 0 0)
(8.754962204e-10 0 0)
(4.312638414e-10 0 0)
(1.087572504e-09 0 0)
(1.624466929e-09 0 0)
(2.988547739e-09 0 0)
(3.69868815e-09 0 0)
(4.076772469e-09 0 0)
(5.389509735e-09 0 0)
(5.916029358e-09 0 0)
(5.182911727e-09 0 0)
(6.132242614e-09 0 0)
(6.226049133e-09 0 0)
(5.532313525e-09 0 0)
(5.523741137e-09 0 0)
(4.862439544e-09 0 0)
(5.980663681e-09 0 0)
(6.440151856e-09 0 0)
(6.383358147e-09 0 0)
(7.644190668e-09 0 0)
(7.483937505e-09 0 0)
(6.759589669e-09 0 0)
(6.036850675e-09 0 0)
(5.586395782e-09 0 0)
(5.182824578e-09 0 0)
(5.530569915e-09 0 0)
(5.482509548e-09 0 0)
(4.666784534e-09 0 0)
(5.506910324e-09 0 0)
(5.887469853e-09 0 0)
(5.806236191e-09 0 0)
(7.198935469e-09 0 0)
(8.727366479e-09 0 0)
(8.457461208e-09 0 0)
(7.763261919e-09 0 0)
(8.290229611e-09 0 0)
(1.058343401e-08 0 0)
(9.439464508e-09 0 0)
(7.21970047e-09 0 0)
(7.324121125e-09 0 0)
(7.526010682e-09 0 0)
(5.718479956e-09 0 0)
(4.976590542e-09 0 0)
(4.592155628e-09 0 0)
(3.768155811e-09 0 0)
(4.050295626e-09 0 0)
(3.085826224e-09 0 0)
(2.922102351e-09 0 0)
(3.98748005e-09 0 0)
(4.045201805e-09 0 0)
(2.793359748e-09 0 0)
(2.38601319e-09 0 0)
(2.91121026e-09 0 0)
(1.816569352e-09 0 0)
(3.038471799e-10 0 0)
(3.260905773e-10 0 0)
(5.314857844e-10 0 0)
(-1.831712386e-11 0 0)
(1.452130772e-09 0 0)
(2.28016741e-09 0 0)
(1.342502905e-09 0 0)
(1.053653146e-09 0 0)
(1.894754888e-09 0 0)
(2.009130501e-09 0 0)
(1.404927488e-09 0 0)
(8.579822182e-10 0 0)
(1.122943684e-09 0 0)
(1.258144735e-09 0 0)
(7.615351261e-10 0 0)
(3.865401373e-10 0 0)
(-1.19641246e-09 0 0)
(-1.725957664e-10 0 0)
(8.144620158e-10 0 0)
(1.802842762e-09 0 0)
(1.959800199e-09 0 0)
(2.863553921e-12 0 0)
(-1.617442882e-09 0 0)
(-1.591717807e-09 0 0)
(-1.865636234e-09 0 0)
(-2.35772524e-09 0 0)
(-2.720144938e-09 0 0)
(-3.167707439e-09 0 0)
(-3.159669098e-09 0 0)
(-3.593102099e-09 0 0)
(-3.268022347e-09 0 0)
(-1.815205597e-09 0 0)
(-1.368932362e-09 0 0)
(-3.569023582e-09 0 0)
(-4.422162384e-09 0 0)
(-2.466885116e-09 0 0)
(-3.248136081e-10 0 0)
(3.409102548e-10 0 0)
(4.608863904e-10 0 0)
(3.425624896e-10 0 0)
(4.371371746e-10 0 0)
(2.82418271e-10 0 0)
(2.031494152e-10 0 0)
(-5.154986034e-10 0 0)
(-1.454653622e-09 0 0)
(-5.496877023e-10 0 0)
(6.29601217e-10 0 0)
(3.254589067e-10 0 0)
(3.29237962e-10 0 0)
(1.734585646e-09 0 0)
(1.797025393e-09 0 0)
(5.816874509e-10 0 0)
(2.386475634e-09 0 0)
(4.225957413e-09 0 0)
(3.242150794e-09 0 0)
(2.845783789e-09 0 0)
(2.796061115e-09 0 0)
(3.545208462e-09 0 0)
(4.120885077e-09 0 0)
(3.313649226e-09 0 0)
(2.95165629e-09 0 0)
(2.598487199e-09 0 0)
(4.700023784e-09 0 0)
(6.766446468e-09 0 0)
(7.345573478e-09 0 0)
(7.955047931e-09 0 0)
(7.336199196e-09 0 0)
(6.718989421e-09 0 0)
(5.863473427e-09 0 0)
(6.891017156e-09 0 0)
(9.312722982e-09 0 0)
(9.780166134e-09 0 0)
(9.15361141e-09 0 0)
(8.013715912e-09 0 0)
(7.85732493e-09 0 0)
(7.421673943e-09 0 0)
(6.247485259e-09 0 0)
(5.893560645e-09 0 0)
(7.194750606e-09 0 0)
(8.549838435e-09 0 0)
(9.159843849e-09 0 0)
(8.725710386e-09 0 0)
(7.97044685e-09 0 0)
(7.205035252e-09 0 0)
(5.246203368e-09 0 0)
(4.943572334e-09 0 0)
(6.334311792e-09 0 0)
(6.289676211e-09 0 0)
(6.52069207e-09 0 0)
(6.444347905e-09 0 0)
(6.416795053e-09 0 0)
(5.828898503e-09 0 0)
(5.181455324e-09 0 0)
(5.580670175e-09 0 0)
(5.067211574e-09 0 0)
(5.264316961e-09 0 0)
(6.117853799e-09 0 0)
(6.519947216e-09 0 0)
(5.059321693e-09 0 0)
(3.950173811e-09 0 0)
(4.061210111e-09 0 0)
(3.076704621e-09 0 0)
(2.255453557e-09 0 0)
(2.720336705e-09 0 0)
(2.101940307e-09 0 0)
(1.10138659e-09 0 0)
(2.898106757e-09 0 0)
(3.46301485e-09 0 0)
(2.7873409e-09 0 0)
(2.058032835e-09 0 0)
(2.600669651e-09 0 0)
(4.094437691e-09 0 0)
(3.153807935e-09 0 0)
(3.398428022e-09 0 0)
(4.403927728e-09 0 0)
(3.900725572e-09 0 0)
(2.192240141e-09 0 0)
(2.000197992e-09 0 0)
(4.483030506e-09 0 0)
(5.114788772e-09 0 0)
(5.406933263e-09 0 0)
(5.191655721e-09 0 0)
(5.100395114e-09 0 0)
(6.147102493e-09 0 0)
(6.233042029e-09 0 0)
(4.744064485e-09 0 0)
(3.045952658e-09 0 0)
(2.782986769e-09 0 0)
(5.591112447e-09 0 0)
(7.74320372e-09 0 0)
(6.02665228e-09 0 0)
(4.965552432e-09 0 0)
(5.516819162e-09 0 0)
(6.28123383e-09 0 0)
(5.454018217e-09 0 0)
(4.389611348e-09 0 0)
(4.360567844e-09 0 0)
(4.004799056e-09 0 0)
(4.714156222e-09 0 0)
(4.75460136e-09 0 0)
(4.267035212e-09 0 0)
(4.658111286e-09 0 0)
(4.626269022e-09 0 0)
(4.879846081e-09 0 0)
(4.523706357e-09 0 0)
(4.975782233e-09 0 0)
(5.592298186e-09 0 0)
(5.211393832e-09 0 0)
(6.600864781e-09 0 0)
(5.866139013e-09 0 0)
(5.440147022e-09 0 0)
(6.483738568e-09 0 0)
(7.334826118e-09 0 0)
(5.765959743e-09 0 0)
(5.678644743e-09 0 0)
(8.60721491e-09 0 0)
(7.600168874e-09 0 0)
(8.060057543e-09 0 0)
(9.264553215e-09 0 0)
(1.060161871e-08 0 0)
(1.452758358e-08 0 0)
(1.301126482e-08 0 0)
(9.567410007e-09 0 0)
(8.053268667e-09 0 0)
(6.184778051e-09 0 0)
(5.245985122e-09 0 0)
(4.746828513e-09 0 0)
(4.698271783e-09 0 0)
(4.877124314e-09 0 0)
(5.555038676e-09 0 0)
(7.318022417e-09 0 0)
(5.435973322e-09 0 0)
(5.202195765e-09 0 0)
(3.358500549e-09 0 0)
(1.931966071e-09 0 0)
(2.84244186e-09 0 0)
(3.224255433e-09 0 0)
(3.244596223e-09 0 0)
(3.280534568e-09 0 0)
(4.420775764e-09 0 0)
(6.156249776e-09 0 0)
(6.298157393e-09 0 0)
(6.518025423e-09 0 0)
(4.946896058e-09 0 0)
(1.053441354e-09 0 0)
(1.243257606e-09 0 0)
(1.601879362e-09 0 0)
(1.434390776e-09 0 0)
(1.688308548e-09 0 0)
(1.133078624e-09 0 0)
(3.148217381e-10 0 0)
(-3.454309465e-10 0 0)
(-6.344920334e-11 0 0)
(1.244798024e-11 0 0)
(2.48855326e-10 0 0)
(7.049884907e-10 0 0)
(1.024434483e-09 0 0)
(1.51881748e-09 0 0)
(1.901251398e-09 0 0)
(1.29972022e-09 0 0)
(1.726453178e-09 0 0)
(2.002099712e-09 0 0)
(2.941093286e-09 0 0)
(4.445742715e-09 0 0)
(4.292086325e-09 0 0)
(3.604007384e-09 0 0)
(3.264316837e-09 0 0)
(3.077557233e-09 0 0)
(1.863098154e-09 0 0)
(1.041093493e-09 0 0)
(4.099294213e-09 0 0)
(4.719315796e-09 0 0)
(2.241284834e-09 0 0)
(7.915551595e-10 0 0)
(1.083270047e-10 0 0)
(1.421563936e-09 0 0)
(1.892555805e-09 0 0)
(1.411989129e-09 0 0)
(2.434003683e-09 0 0)
(3.442860347e-09 0 0)
(3.697381154e-09 0 0)
(3.093255479e-09 0 0)
(2.6858093e-09 0 0)
(4.209155966e-09 0 0)
(3.773933146e-09 0 0)
(1.986776927e-09 0 0)
(2.558195232e-09 0 0)
(2.277203213e-09 0 0)
(1.364240456e-09 0 0)
(3.290405076e-09 0 0)
(3.335612521e-09 0 0)
(1.76286952e-09 0 0)
(1.904651789e-09 0 0)
(2.096075703e-09 0 0)
(1.833315434e-09 0 0)
(1.880584361e-09 0 0)
(2.34837839e-09 0 0)
(1.932145621e-09 0 0)
(2.348543897e-09 0 0)
(2.886000138e-09 0 0)
(1.788856254e-09 0 0)
(1.995086607e-09 0 0)
(1.883720235e-09 0 0)
(1.149936478e-09 0 0)
(2.654678972e-09 0 0)
(3.196602498e-09 0 0)
(2.486951646e-09 0 0)
(2.124414698e-09 0 0)
(2.376142132e-09 0 0)
(2.987348139e-09 0 0)
(2.246327509e-09 0 0)
(2.333581703e-09 0 0)
(2.835032646e-09 0 0)
(2.799550533e-09 0 0)
(2.572221031e-09 0 0)
(2.643607081e-09 0 0)
(1.58222665e-09 0 0)
(1.169369434e-09 0 0)