/*--------------------------------*- C++ -*----------------------------------*\
| =========                 |                                                 |
| \\      /  F ield         | OpenFOAM: The Open Source CFD Toolbox           |
|  \\    /   O peration     | Version:  2312                                  |
|   \\  /    A nd           | Website:  www.openfoam.com                      |
|    \\/     M anipulation  |                                                 |
\*---------------------------------------------------------------------------*/
FoamFile
{
    version     2.0;
    format      ascii;
    arch        "LSB;label=32;scalar=64";
    class       volScalarField;
    location    "0.0002";
    object      alphat;
}
// * * * * * * * * * * * * * * * * * * * * * * * * * * * * * * * * * * * * * //

dimensions      [1 -1 -1 0 0 0 0];

internalField   nonuniform List<scalar> 
109340
(
0.47624457995317
0.32659967026296
0.17624922947619
0.14728831306023
0.14267487836848
0.14559044114058
0.15101270785966
0.16050032087396
0.1398840372456
0.12441977767682
0.11218072939599
0.10219710435506
0.093878911676627
0.086833966338509
0.080787433064531
0.075539562535481
0.070941108572405
0.066878063220149
0.063261710551576
0.060021905761587
0.057102396341336
0.05445748243009
0.052049584791017
0.049847445016889
0.047824770964087
0.045959195418765
0.044231448746008
0.042624674770667
0.04112382342929
0.039715046091251
0.038384989282547
0.037119790194587
0.035903333252746
0.034713720002855
0.033515118762614
0.032238836993847
0.47071134768847
0.2282554520768
0.16721167750899
0.15296010499801
0.15193048577928
0.15495362664643
0.13874027426462
0.12068698899199
0.10665983881747
0.095554719056532
0.086563842702383
0.079140498066618
0.07290940336218
0.067605739405237
0.06303752281287
0.059062206612785
0.055571735766205
0.052482699507885
0.049729667526046
0.047260542162265
0.045033238217883
0.043013315025282
0.041172273563749
0.039486309926105
0.037935360291032
0.036502343219382
0.035172545743648
0.033933094552913
0.03277246295748
0.031679971156316
0.030645178568973
0.029656987171217
0.028702062761381
0.027761659922476
0.026804105188896
0.025765358650477
0.27645731016457
0.19481090635201
0.16791243762224
0.1576099506826
0.1260837120029
0.10511381490152
0.089907649057571
0.078447935360225
0.069541555360949
0.062450370304788
0.056687800361948
0.051921346586043
0.04791816513329
0.04451138315229
0.041578751310854
0.039028888399629
0.0367922200678
0.034814871374434
0.03305434362141
0.031476352598829
0.030052810326754
0.028760616882374
0.027580807481701
0.026497804507729
0.025498672927134
0.02457258751
0.023710401382757
0.022904140479915
0.022146746446572
0.021431673955832
0.020752464843895
0.020102212324496
0.019472411444197
0.018851142510035
0.018218763497931
0.017531744709634
0.15887540660869
0.16048527014612
0.10071725763605
0.073319936152324
0.057676304145083
0.04757468691439
0.040534320089794
0.035358363504805
0.031400764596985
0.028282363517443
0.025766100216088
0.02369600112257
0.02196525694405
0.020498366629514
0.019240593784279
0.018151359525343
0.017199875062196
0.016362006417518
0.015616163823559
0.014943850818079
0.014331301420792
0.01376875257128
0.013249123738927
0.012767140283947
0.012318694048336
0.011900412278399
0.011509139971533
0.01114245660247
0.010798050524304
0.010473648976437
0.010166661246761
0.0098731923452328
0.0095869208937729
0.009300020675086
0.0090031733560677
0.0086753457177841
0.095679262209328
0.031277351468955
0.019018525220058
0.013791978189236
0.010911883444496
0.0091038972690239
0.0078740264530791
0.0069902746634824
0.0063292846079021
0.0058200159602255
0.0054189587936215
0.0050985186947925
0.0048404188558749
0.0046323465548509
0.0044659264023708
0.0043352923046817
0.0042352546886087
0.0041571330960243
0.004086716725123
0.0040163785958168
0.0039454429127283
0.0038761654826979
0.0038109389609089
0.0037513891076572
0.0036983889711128
0.0036523303048296
0.0036132335116828
0.0035808788990628
0.0035553185932335
0.0035361072634527
0.0035221843947982
0.0035123671563629
0.003504949709253
0.0034966936948173
0.0034793255116347
0.0034288484010339
0.00024095114677838
0.00035963074631752
0.00046270838547611
0.00054312862627862
0.00060060595053593
0.00063850301642585
0.0006612787148671
0.00067310820335821
0.00067731376475651
0.00067665175605019
0.00067271681117065
0.00066676538366877
0.00065966120798793
0.0006519869247811
0.00064413319508288
0.00063637758321354
0.00062890005346824
0.00062182030250544
0.00061526039094838
0.00060937042518645
0.00060401232792949
0.00059909359769027
0.0005945622556821
0.00059038245666628
0.00058651928868101
0.0005829325662215
0.00057957352927662
0.00057638121849227
0.00057327559838144
0.00057014623173477
0.00056683336557903
0.00056308136979628
0.00055845713125245
0.00055206536703295
0.00054127849589084
0.0005144271404083
0.028484703827864
0.015316472724513
0.0082535246771541
0.0050797325614218
0.0034025432383794
0.0022944966920737
0.0015501363988272
0.0010341476398602
0.00069812206648611
0.00051019804759886
0.00041972227907894
0.00041257178611193
0.00038120132289174
0.0003410355516051
0.00029447776187714
0.00024765562134779
0.00020723010596614
0.00017252490194325
0.00014399287467133
0.0001215929475739
0.00010319219468988
8.7911136822553e-05
7.3682826561021e-05
5.9600601219035e-05
4.8738227211105e-05
4.0172549744365e-05
3.3495170020774e-05
2.8261554965207e-05
2.3824149904428e-05
2.0469178494181e-05
1.7537394664541e-05
1.5229876713853e-05
1.3247932640056e-05
1.1607735056613e-05
1.0225055347162e-05
9.040335860739e-06
8.0414961250046e-06
7.17576736516e-06
6.4306697404647e-06
5.7913215853801e-06
5.2195500541309e-06
4.739211945549e-06
4.2928045611591e-06
3.9249055081235e-06
3.5739938496488e-06
3.2856586125195e-06
3.0099540468061e-06
2.7780124298978e-06
2.5623434492346e-06
2.3707671634786e-06
2.1976618251329e-06
2.0400756751105e-06
1.8980160179904e-06
1.7687797519307e-06
1.6511924560685e-06
1.5438362381639e-06
1.4457054928272e-06
1.355802974537e-06
1.2733084865995e-06
1.197434573719e-06
1.1274941072529e-06
1.062890355494e-06
1.0031340022005e-06
9.4779945949792e-07
8.9651317154819e-07
8.695016309129e-07
7.3633228771239e-05
0.00090111885059471
0.0010087854250174
0.00090086915518673
0.00081434584402492
0.00074829807619937
0.00069595309834394
0.00065340465808479
0.00061815174833775
0.00058841343505794
0.00056296253441721
0.00054098841965879
0.0005219045315564
0.0005052137780347
0.00049045931642461
0.00047722586476404
0.00046516373160925
0.00045402435437997
0.00044239726298279
0.00043295225212042
0.00042444555997889
0.00041710221407153
0.00041114874053139
0.00040669984826702
0.00040369818101839
0.00040194012769613
0.00040114794613104
0.00040106574148992
0.00040153977466994
0.00040257335079
0.00040424928676113
0.00040661975300646
0.00040949252920715
0.00041215826296963
0.00041329929795019
0.00041095006393837
0.00040259012586759
0.00038560347355476
0.00034999887521719
0.0003098728689386
0.00026166240095137
0.00021171160064677
0.00017108236337779
0.00014344844504073
0.00012631642053324
0.00011659402185877
0.0001115409704573
0.00010890817362542
0.00010744601746536
0.00010660599464711
0.00010604715029968
0.00010558361743814
0.0001051483630622
0.00010470054826258
0.00010423978892962
0.0001037515269679
0.00010328486980117
0.00010285717585608
0.0001024866719344
0.00010217970343923
0.0001019303981633
0.00010171778127662
0.00010151919247867
0.00010130609763321
0.000101061143284
0.00010079385758622
0.00010052119780802
0.00010026948052474
0.00010006732225992
9.9930519748472e-05
9.9841144435762e-05
9.9654585563882e-05
9.9163065472981e-05
9.7885328361774e-05
0.021831574702701
0.011830130747658
0.0069627279819957
0.0045477016612181
0.0030333912475706
0.0020525873287614
0.0013752024301334
0.00091486858558076
0.0006086966740124
0.00041294121006772
0.00029148069303059
0.00022368264438845
0.00018312676456902
0.00015428230218635
0.00013399125884971
0.00011849292724754
0.00010626359118828
9.6376534018819e-05
8.7355373034737e-05
7.9201827788681e-05
7.1926722658437e-05
6.5445728691081e-05
5.9638561537678e-05
5.4487349230259e-05
4.5477863411518e-05
3.7638332546313e-05
3.1439564272402e-05
2.6502651618428e-05
2.2522459940206e-05
1.9277631654861e-05
1.6623807964785e-05
1.4420858892638e-05
1.2591608929636e-05
1.1047314587507e-05
9.7477187740561e-06
8.637175379111e-06
7.6915549256741e-06
6.8748663272689e-06
6.17237745331e-06
5.5592674687157e-06
5.0270141849431e-06
4.5583301812472e-06
4.147905210897e-06
3.7839534781508e-06
3.4625449634013e-06
3.1760617953083e-06
2.9207572620563e-06
2.6923766719111e-06
2.4872094492722e-06
2.3028477655571e-06
2.1361299982461e-06
1.9852681574141e-06
1.8481470366886e-06
1.7235668139007e-06
1.6100172035234e-06
1.5063450822621e-06
1.4114965994775e-06
1.3245530986747e-06
1.2446795893664e-06
1.1711446496493e-06
1.1033080613888e-06
1.0406193858726e-06
9.8259978194012e-07
9.2882949238764e-07
8.7892957078719e-07
1.6521908358998e-06
0.00019016281367797
0.0010078869372492
0.00098104728407373
0.00087557407275392
0.00079516041113783
0.0007332379688802
0.0006837989597815
0.00064338810141062
0.0006097350039633
0.00058122153347672
0.00055675176399005
0.0005355903881015
0.00051718212722231
0.00050104254187165
0.00048672529617349
0.00047383032686316
0.00046203077447288
0.00045110751242159
0.00044217985249224
0.00043273314549852
0.00042423588624119
0.00041690409143535
0.00041096167942333
0.00040652224637323
0.00040352752488279
0.00040177325099968
0.00040098151281133
0.0004008964740057
0.00040136479196741
0.00040238925306751
0.00040405250454813
0.00040640753288887
0.00040926417417668
0.00041191650376651
0.00041305205163797
0.0004107121290947
0.00040238267324643
0.00038545282720157
0.00034995632736736
0.00030992441414757
0.0002617804794572
0.00021180734528925
0.00017106141221274
0.00014328681127509
0.00012603666808217
0.00011622406242964
0.00011110295290944
0.00010841843406499
0.00010691173456825
0.00010602983007125
0.00010543636344412
0.00010494505641916
0.00010448867253414
0.00010402540544999
0.0001035558500868
0.00010306766590439
0.0001026098108726
0.00010219555789629
0.00010184267615077
0.00010155596143477
0.00010132804113322
0.00010113931412331
0.00010096665953336
0.00010078118409586
0.00010056527339702
0.00010033037108195
0.00010009304218762
9.9878758593698e-05
9.9715397985225e-05
9.961371928686e-05
9.9556281506355e-05
9.9396132922733e-05
9.8925031755624e-05
9.7663818754864e-05
0.015906828083415
0.0079172527209714
0.0047635708777582
0.003216126437026
0.0021385218232054
0.0014549654014716
0.00099167583282087
0.0006857926132797
0.0004830263427219
0.00034939195406254
0.00026865794131775
0.00021207675118906
0.00017392784923833
0.00014663260877289
0.00012541254133138
0.00010854203195159
9.5134227209116e-05
8.3871449602388e-05
7.3790048155042e-05
6.5208169396958e-05
5.8177647485071e-05
5.2242525164882e-05
4.7199984198645e-05
4.3001053203409e-05
3.9454660094436e-05
3.6375118439938e-05
3.0765778311915e-05
2.593302136625e-05
2.2043870905853e-05
1.8873206430952e-05
1.6273540042573e-05
1.4124042433486e-05
1.2331422973769e-05
1.0828357479639e-05
9.5553851990006e-06
8.4753005375601e-06
7.5492101804855e-06
6.7541532518771e-06
6.0652500314017e-06
5.4676320591433e-06
4.9453051885767e-06
4.4875971446372e-06
4.0846718428577e-06
3.7284782991535e-06
3.4130832317691e-06
3.1319392337307e-06
2.8816890397165e-06
2.6570790768725e-06
2.4559586380711e-06
2.2744033126394e-06
2.1107347506891e-06
1.9623168515523e-06
1.8275303220839e-06
1.7048302373484e-06
1.5929565661963e-06
1.4908258066573e-06
1.3973621607733e-06
1.311661229806e-06
1.2328928405979e-06
1.160350201583e-06
1.0934116208812e-06
1.0315392867404e-06
9.7426000998986e-07
9.2116022011966e-07
8.7186396805649e-07
1.7975971463839e-06
0.00019934903824132
0.0010105348360209
0.00097932784744568
0.00087393563419664
0.00079381806041322
0.00073218074306771
0.00068297611131384
0.00064272945852862
0.00060918405431143
0.00058074894608266
0.00055634173217194
0.00053523092501269
0.00051686227936112
0.0005007533392695
0.00048646057927211
0.00047358666278123
0.00046180658471823
0.00045090080544362
0.00044200857746661
0.00043258097649098
0.00042410202875311
0.00041678810898881
0.00041085895167828
0.00040642734259088
0.00040343548681375
0.00040167962710957
0.00040088317718072
0.00040079057205615
0.00040125282358371
0.0004022700991702
0.00040392623285867
0.0004062753127853
0.00040913061689432
0.00041179210228447
0.00041295399864275
0.00041066676603964
0.00040242213937025
0.0003856132431703
0.00035031511032766
0.00031044107772194
0.00026239639607875
0.00021232508403169
0.00017127115221678
0.00014313552141443
0.000125561691924
0.0001154985399446
0.00011019074009516
0.00010737007238689
0.0001057543199518
0.00010477217329754
0.00010410070551166
0.00010354922869658
0.00010304783350486
0.0001025541898672
0.0001020697751433
0.00010158796541453
0.00010115305494057
0.00010077310028441
0.00010046488727361
0.00010022784288891
0.00010005259933395
9.9920103470282e-05
9.9807956042219e-05
9.9684004638004e-05
9.953366297026e-05
9.936546421007e-05
9.9199863257219e-05
9.9060240954856e-05
9.8971798757755e-05
9.894375279718e-05
9.8951763664863e-05
9.8850400679376e-05
9.8427190880411e-05
9.7208401545889e-05
0.0082778770464655
0.004417071548522
0.002698299605992
0.0017393036954404
0.0012071396643239
0.00086814548393608
0.00064715234598806
0.00049704445053718
0.00039125023640612
0.00031736645696653
0.00025887073846976
0.00021179210054527
0.00017474326832656
0.00014572901320618
0.00012326771834948
0.00010603523785904
9.2027740783718e-05
8.0432094147319e-05
7.0478755995133e-05
6.173541298006e-05
5.4120578554366e-05
4.7918498214982e-05
4.2801485226716e-05
3.8446640607134e-05
3.4800369981574e-05
3.1823962227675e-05
2.925943871245e-05
2.5371426864378e-05
2.1574118429414e-05
1.8484346032803e-05
1.5941245791298e-05
1.3837569119557e-05
1.2082087792212e-05
1.0609645686975e-05
9.3627985359438e-06
8.3034443957909e-06
7.3966168325978e-06
6.6178887481252e-06
5.9442529592858e-06
5.3596562352324e-06
4.8487596243084e-06
4.401895000103e-06
4.0080156449516e-06
3.6607578342201e-06
3.3523350680609e-06
3.0781244476043e-06
2.8331197290442e-06
2.6137051563091e-06
2.4166666356047e-06
2.2390154661335e-06
2.0786957628339e-06
1.9332883665315e-06
1.8012751353342e-06
1.6809353906022e-06
1.5711995366977e-06
1.4709482705277e-06
1.379185928188e-06
1.2950148093412e-06
1.2176311020442e-06
1.146340287972e-06
1.0805295926881e-06
1.0196765820588e-06
9.6332457791917e-07
9.1107053817515e-07
8.6254038090255e-07
2.0186722292968e-06
0.00021251563534151
0.0010131444696478
0.00097687692476062
0.00087168523097911
0.00079195401103042
0.00073069206414706
0.00068180208896056
0.00064178224509116
0.00060839050694385
0.00058006830018819
0.00055575117722386
0.00053471300348053
0.00051640127364882
0.00050033648299739
0.00048607914724727
0.0004732358758939
0.00046148462003755
0.00045060728337771
0.00044176216288013
0.0004323639291854
0.00042391452366609
0.00041662791613813
0.00041071996320479
0.00040630158915064
0.00040331491949068
0.00040155722581615
0.00040075419711278
0.00040065268438877
0.00040110635521914
0.00040211534828573
0.00040376390056531
0.00040610770585334
0.00040896474168381
0.00041164407704858
0.00041285005850506
0.00041064635816258
0.00040253430867032
0.00038591186485046
0.00035091665067235
0.00031128570434848
0.00026340365956705
0.00021320993282103
0.00017169089216936
0.00014298674740792
0.00012489820723005
0.00011443271469905
0.00010883182101154
0.00010579478242315
0.00010401260318408
0.00010288247920475
0.00010209430962788
0.00010145505099789
0.00010089043517513
0.00010035770723983
9.9859359321183e-05
9.9395132950458e-05
9.8999015335928e-05
9.8678189709188e-05
9.8443099032429e-05
9.8287744536035e-05
9.8199919385205e-05
9.8159198361528e-05
9.8140785573385e-05
9.81137121901e-05
9.8065361031029e-05
9.80006324996e-05
9.793778687929e-05
9.7904648094962e-05
9.7922787456929e-05
9.7996777878029e-05
9.8097251141884e-05
9.8080107622131e-05
9.7724434182644e-05
9.6567352403923e-05
0.0032053875986202
0.0022642512282603
0.0015942933142103
0.001211183183297
0.00092604386824553
0.00071706526619983
0.00057009017277442
0.00046531726937071
0.00038713444400734
0.00031509037706679
0.00026135232748193
0.00021714846820671
0.00018062077975442
0.00015097669142598
0.00012652472211751
0.000106940341554
9.1764739295633e-05
7.9239896838531e-05
6.8661609686293e-05
5.9877037096471e-05
5.260062041517e-05
4.6304072517151e-05
4.1020724335303e-05
3.6690814000353e-05
3.301979488575e-05
2.985639327927e-05
2.7228677866317e-05
2.4767970117332e-05
2.1093465633927e-05
1.8089717693811e-05
1.5614549660109e-05
1.3561307342728e-05
1.184709000998e-05
1.0405096252667e-05
9.1859622887434e-06
8.1472561352895e-06
7.2588569771869e-06
6.4945684579988e-06
5.8344062636264e-06
5.2604309123482e-06
4.7596979002056e-06
4.3207368732723e-06
3.9343528144203e-06
3.5930769273762e-06
3.2903746324015e-06
3.0213941307164e-06
2.781144711488e-06
2.5662238045538e-06
2.3730309229787e-06
2.1992796239896e-06
2.042315062112e-06
1.9001477272162e-06
1.7710521787843e-06
1.65343049156e-06
1.5460917640771e-06
1.447928923753e-06
1.3580551881804e-06
1.2755920320971e-06
1.1997701959075e-06
1.1298925746573e-06
1.0653597560058e-06
1.0056638988879e-06
9.5036995089992e-07
8.9908871760479e-07
8.51432280075e-07
2.341730029875e-06
0.00023076016589813
0.0010162273076349
0.00097380679866696
0.0008689107321111
0.00078963411560342
0.00072880794493826
0.00068029363633185
0.00064055456264947
0.00060735958872729
0.00057918401556788
0.00055498388170532
0.00053403964131125
0.00051580144818226
0.0004997938148852
0.0004855825237109
0.0004727793224592
0.00046106617133493
0.00045022753646151
0.00044143834834051
0.00043207965448736
0.00042366994392291
0.0004164193187799
0.0004105398679235
0.00040613943072831
0.00040315970166759
0.00040139955003736
0.00040058790771935
0.00040047509706154
0.0004009176128221
0.0004019163909989
0.00040355596715225
0.00040589395269713
0.00040875453000537
0.00041145879261259
0.00041272449041857
0.0004106335108347
0.00040269969888158
0.0003863248749405
0.00035173666302706
0.00031243538675127
0.00026478486667529
0.00021446177627055
0.00017233325856978
0.00014286115202422
0.00012406597526142
0.00011304752578849
0.00010704580170362
0.00010371833626365
0.00010171097460359
0.00010039189356773
9.9451504281913e-05
9.8702332449525e-05
9.8063668085401e-05
9.74937101031e-05
9.6993172630823e-05
9.6565118121267e-05
9.6234461960808e-05
9.6004806818976e-05
9.5880480162271e-05
9.5847588517841e-05
9.5889163918891e-05
9.5981825987851e-05
9.609630971039e-05
9.6202927056905e-05
9.6289579115073e-05
9.6357175310523e-05
9.642372092462e-05
9.6517609023448e-05
9.6663756515418e-05
9.6860931841599e-05
9.7072534826945e-05
9.7155249446293e-05
9.6878671331219e-05
9.5797982712156e-05
0.0010984643127755
0.00095825597800722
0.00098922586487404
0.0010340578923062
0.0010737056810698
0.00093743792154364
0.0007115348455953
0.00054141004831838
0.00041993351000462
0.00033807914729718
0.00027560351993163
0.0002272816362596
0.00018853430135617
0.00015701638293221
0.00013143776289026
0.00011056739391774
9.3484310603766e-05
7.9538403150103e-05
6.8229257679217e-05
5.899829334164e-05
5.145158360364e-05
4.5324914063067e-05
4.015589500722e-05
3.5755988120326e-05
3.209603520125e-05
2.8981103370858e-05
2.6285420915672e-05
2.3982652583173e-05
2.0577593576608e-05
1.7676391205059e-05
1.5280356411188e-05
1.3283707157456e-05
1.1614637348709e-05
1.0208681677459e-05
9.0168224735313e-06
8.0007598570381e-06
7.1309685779609e-06
6.3817495198243e-06
5.7336579084072e-06
5.1702725562786e-06
4.6786601019388e-06
4.2471731578002e-06
3.8675062018917e-06
3.5319213428323e-06
3.2345501288439e-06
2.9699026880196e-06
2.7337617994114e-06
2.522435855747e-06
2.3326424777938e-06
2.1618162344126e-06
2.0074460691602e-06
1.8677382227654e-06
1.7408201534871e-06
1.6253272461912e-06
1.5199618506366e-06
1.4236680955466e-06
1.3355146981822e-06
1.2546527877675e-06
1.1803382813301e-06
1.1118673371498e-06
1.0486658276883e-06
9.902080665996e-07
9.3603664287265e-07
8.8576524339408e-07
8.3903464609471e-07
2.7445846365251e-06
0.00025618557355909
0.0010196692657031
0.00097015897546991
0.00086565633182261
0.00078690669056463
0.00072656165535923
0.00067846802084558
0.00063905479375995
0.00060609696128904
0.00057810079358449
0.00055404350961952
0.00053321353813417
0.00051506482003109
0.00049912697105644
0.00048497216998335
0.00047221838202165
0.00046055250696082
0.00044976224965724
0.00044103700546977
0.0004317278713574
0.00042336759189932
0.00041616175244905
0.00041031825804411
0.00040594057485583
0.00040296959733194
0.00040120630352298
0.00040038384107965
0.00040025696539785
0.00040068552110075
0.00040167170040162
0.00040330046067464
0.00040563174399286
0.0004084971023528
0.00041123248570774
0.00041257236765964
0.00041062197989606
0.00040291081437249
0.0003868403567552
0.00035276668888956
0.00031388007024195
0.00026653245993881
0.00021609310146139
0.00017322973937576
0.00014279782035287
0.00012310041487202
0.00011137439112466
0.00010486177795342
0.00010116954968488
9.8880130809384e-05
9.7337110543042e-05
9.6217453768082e-05
9.5343656331296e-05
9.4630802177088e-05
9.4036436504123e-05
9.3558096654677e-05
9.3197532685958e-05
9.2970825263205e-05
9.2877793246248e-05
9.2913423904874e-05
9.3053906365362e-05
9.3274878119378e-05
9.3546889953505e-05
9.3834592348378e-05
9.4108434010097e-05
9.4352738165808e-05
9.4571005392018e-05
9.4784160530792e-05
9.502046973702e-05
9.5305156065414e-05
9.5634115261497e-05
9.5965347145782e-05
9.6152979282706e-05
9.5959719126606e-05
9.4964252419084e-05
1.5056032214538e-05
0.00019816074836402
0.00028252992288429
0.0003791961990612
0.00046482536613979
0.00054018582402505
0.00061132948950581
0.00066159442211422
0.00050964991564709
0.00039559764077494
0.00031371366915611
0.00025435863462453
0.00020835730745113
0.00017194396279111
0.00014281210262959
0.00011916071922891
9.9797727980031e-05
8.4096489952923e-05
7.1418275175416e-05
6.1153462735172e-05
5.2876906650164e-05
4.6154677686352e-05
4.0683966722614e-05
3.6191453073894e-05
3.2290990793292e-05
2.9117791694573e-05
2.6386216250936e-05
2.4037969047445e-05
2.0821042636196e-05
1.7887483088508e-05
1.5465593562911e-05
1.3449579533016e-05
1.1757762423865e-05
1.033095942117e-05
9.1224347625896e-06
8.0924420810558e-06
7.208627525348e-06
6.4479539814642e-06
5.789974322522e-06
5.218036548312e-06
4.7185755122763e-06
4.280848084243e-06
3.8957347775004e-06
3.5553796436277e-06
3.2537735333715e-06
2.985628799488e-06
2.7465816535813e-06
2.5326398573552e-06
2.3406317060076e-06
2.1679223330494e-06
2.0120803220014e-06
1.8711140578703e-06
1.7431228236606e-06
1.6267415350598e-06
1.5206884437669e-06
1.4238634170051e-06
1.335254016503e-06
1.2539914064704e-06
1.1793472843168e-06
1.1106329355581e-06
1.0472447000199e-06
9.8864495836887e-07
9.3439282015975e-07
8.841107189096e-07
8.3741874089631e-07
9.2957609405117e-07
0.00011414756979084
0.00095951659709799
0.00099323584304843
0.00088525996887947
0.0008012919376846
0.00073760422605349
0.00068733492446766
0.0006463875389129
0.0006122725436325
0.00058337171453645
0.00055858313197025
0.00053714375489693
0.00051848231071999
0.00050212031299782
0.00048762740021744
0.00047461592593144
0.0004627589436489
0.00045182013177175
0.00044055904263716
0.00043130956002048
0.0004230085473895
0.00041585566721205
0.00041005445116584
0.0004057036026859
0.00040274282409787
0.00040097566554953
0.00040014039250563
0.00039999705646265
0.00040040933946932
0.00040138099039123
0.00040299719252774
0.00040532043675196
0.00040819104813465
0.00041096275884034
0.00041239009286953
0.0004106066377653
0.00040316568456778
0.00038747727558189
0.00035466097653771
0.00031653826264035
0.00026977537159208
0.00021920729328322
0.00017506037459694
0.00014288290174904
0.00012149284858433
0.0001084313905736
0.00010095273056326
9.6584287901601e-05
9.3783254142976e-05
9.1843325174905e-05
9.0429864042238e-05
8.9361177798436e-05
8.8556450453785e-05
8.7973926364625e-05
8.7596539045098e-05
8.742289554762e-05
8.7453838541859e-05
8.7672914091052e-05
8.8058803285354e-05
8.8568292184006e-05
8.9152965440231e-05
8.9755323691765e-05
9.0343641263745e-05
9.0895829504451e-05
9.1404132625041e-05
9.1868939860286e-05
9.2313139795933e-05
9.2768563362423e-05
9.3261432994976e-05
9.3785346863281e-05
9.429267876336e-05
9.4628262226399e-05
9.4563734413112e-05
9.3703440206782e-05
3.3515313157053e-06
2.2991981149512e-05
4.886554817269e-05
7.8922743028566e-05
0.00011443389069922
0.00015587343252034
0.00019832053097285
0.00024197967276094
0.00028240460824817
0.00030940825862681
0.00031614400486459
0.00026273016406267
0.0002117507598533
0.00017248817915003
0.00014201111254129
0.00011797929433916
9.8388370910829e-05
8.2545027616758e-05
6.9824405606136e-05
5.9558686601121e-05
5.1235466173462e-05
4.4484499079699e-05
3.896317968189e-05
3.4426020841971e-05
3.0728966711009e-05
2.7659689332689e-05
2.4935289687262e-05
2.2005057026488e-05
1.8897201242702e-05
1.6325540056456e-05
1.418677939533e-05
1.239101259784e-05
1.0880021227671e-05
9.5989862516297e-06
8.5068952026293e-06
7.5688778326623e-06
6.7617151434728e-06
6.0635076942976e-06
5.4570345273856e-06
4.9272779247585e-06
4.4633798363963e-06
4.0555655610812e-06
3.6956353787348e-06
3.3767251011964e-06
3.0933632339574e-06
2.8410419537848e-06
2.6155285817158e-06
2.4133795421962e-06
2.2316235470162e-06
2.0679518887549e-06
1.9201354693735e-06
1.7862471063677e-06
1.6646557341006e-06
1.554000787609e-06
1.4531467108255e-06
1.361027101669e-06
1.2767082028541e-06
1.1993506485366e-06
1.1282432094036e-06
1.0627620485961e-06
1.0023412377022e-06
9.4649160725483e-07
8.9478868274418e-07
8.4686753616017e-07
8.0239578487613e-07
4.7686085405056e-06
0.00036562409014052
0.0010259507020401
0.00095415603109527
0.00085268559832756
0.00077636287287398
0.00071783090885273
0.0006712329435409
0.00063301732739857
0.00060098367202738
0.00057370776074531
0.00055022448899033
0.0005298506786569
0.00051205913167794
0.00049640177717642
0.00048247643953767
0.00046992552696461
0.00045845521888802
0.0004478651130972
0.00043937932535855
0.00043027711572179
0.00042212110539155
0.00041509729842795
0.0004093989358737
0.00040511323815952
0.00040217678203222
0.00040039950758405
0.00039953241265577
0.00039934862878782
0.00039972123435977
0.00040065762325692
0.0004022435079518
0.00040454726328568
0.00040742958049857
0.0004102867632822
0.00041192228695697
0.00041053946852078
0.00040374529043003
0.00038896939909083
0.00035778667275632
0.00032101919958805
0.00027534546786577
0.00022486475654407
0.00017885748198205
0.0001438396365322
0.00011952639825145
0.00010402954301036
9.4808351208931e-05
8.9256709021654e-05
8.5611519606474e-05
8.306870183041e-05
8.1269385750351e-05
8.0019159369983e-05
7.9249806104963e-05
7.8907852750255e-05
7.8946993404432e-05
7.9329341794415e-05
8.0013246462355e-05
8.0946960695532e-05
8.2044966011471e-05
8.3223230607332e-05
8.4411065540755e-05
8.5555921822144e-05
8.6615558312422e-05
8.7568542393145e-05
8.8414066545776e-05
8.9169110117888e-05
8.9862154486959e-05
9.0539351809885e-05
9.1233666684693e-05
9.1938853083025e-05
9.259775438309e-05
9.3059579400767e-05
9.3130872324341e-05
9.244340807548e-05
3.0565258382689e-06
7.7284992397447e-06
1.4898576811619e-05
2.4872756746013e-05
3.8108505630521e-05
5.4438947560103e-05
7.4214846905356e-05
9.6492153048553e-05
0.00012065670661614
0.00014535687326008
0.00016648366655281
0.00017718669188067
0.00017640047833689
0.00016436000745946
0.00014228102298971
0.00011758253097581
9.8380193293233e-05
8.2810457970946e-05
7.0141474293051e-05
5.9793823503958e-05
5.141408838419e-05
4.4580858008602e-05
3.8976516645579e-05
3.4349690770553e-05
3.0511663260457e-05
2.7310755131377e-05
2.3813790007376e-05
2.0504624078716e-05
1.773557902275e-05
1.5405294994083e-05
1.3440331514733e-05
1.1781873212097e-05
1.0374297562827e-05
9.1763772990678e-06
8.1486603013364e-06
7.2661894538042e-06
6.505347726271e-06
5.8460043727323e-06
5.2706024196169e-06
4.7666143454313e-06
4.3241933591042e-06
3.9340351317131e-06
3.5887381253448e-06
3.2818777191848e-06
3.0090238933928e-06
2.7654073758085e-06
2.5473530161804e-06
2.3514482746216e-06
2.1751402075797e-06
2.0161652835767e-06
1.8724127291157e-06
1.7420981159603e-06
1.6236384875692e-06
1.5158268505261e-06
1.4174761103697e-06
1.3275914353943e-06
1.2452684691413e-06
1.1697242872502e-06
1.1003021024338e-06
1.0363526073024e-06
9.7733687791341e-07
9.2278105381815e-07
8.7227397571372e-07
8.2547008490407e-07
7.8175166412146e-07
8.5133913081535e-06
0.00046943808459772
0.001024746391406
0.00093890894380954
0.00084111345539162
0.00076726554568775
0.00071039786567298
0.00066503984507901
0.00062779936636379
0.00059654039541845
0.00056988159473726
0.00054689082804114
0.00052690678301478
0.00050942094448947
0.00049400580712424
0.00048028113882681
0.00046790966645651
0.00045661320722325
0.0004462001450582
0.00043791261317337
0.00042899286676422
0.00042101539335614
0.00041414960569782
0.00040857594127563
0.00040436809879185
0.00040145956054883
0.0003996682861172
0.00039876104526452
0.00039852710128589
0.00039885101898319
0.00039974434557182
0.00040129293758914
0.00040357133174918
0.00040646369542935
0.0004094177158154
0.00041129709538151
0.0004103917868478
0.00040438027622835
0.00039073211059438
0.0003615302965322
0.00032649985117261
0.00028232065099882
0.00023236511360182
0.00018462555722213
0.00014636767449408
0.00011847984982796
9.9683460889021e-05
8.8126095378187e-05
8.1077277084562e-05
7.6487623461993e-05
7.3387849438911e-05
7.1366310234962e-05
7.0189115524912e-05
6.9834114415657e-05
7.0165617054073e-05
7.1061515135894e-05
7.2415654754054e-05
7.4102749668115e-05
7.5997257266797e-05
7.7978925026263e-05
7.9927181143653e-05
8.1752599891736e-05
8.3393537711113e-05
8.4821902260211e-05
8.6039290817518e-05
8.7069775875258e-05
8.7953503456249e-05
8.8742893547559e-05
8.9497246141639e-05
9.025376143147e-05
9.1008191628287e-05
9.1706388716996e-05
9.2202771639993e-05
9.2355306886004e-05
9.1828954405795e-05
2.7336927649069e-06
4.8813293169065e-06
6.8411746943195e-06
1.0919746426221e-05
1.6625637067881e-05
2.4089889135241e-05
3.3455134298578e-05
4.4709822557807e-05