/*--------------------------------*- C++ -*----------------------------------*\
| =========                 |                                                 |
| \\      /  F ield         | OpenFOAM: The Open Source CFD Toolbox           |
|  \\    /   O peration     | Version:  2312                                  |
|   \\  /    A nd           | Website:  www.openfoam.com                      |
|    \\/     M anipulation  |                                                 |
\*---------------------------------------------------------------------------*/
FoamFile
{
    version     2.0;
    format      ascii;
    arch        "LSB;label=32;scalar=64";
    class       volScalarField;
    location    "0.0002";
    object      cSound;
}
// * * * * * * * * * * * * * * * * * * * * * * * * * * * * * * * * * * * * * //

dimensions      [0 1 -1 0 0 0 0];

internalField   nonuniform List<scalar> 
109340
(
555.98276318191
554.91941552602
552.89069035597
550.42494081448
547.68773353158
544.8198219
541.87618376613
538.88523039436
535.88032819299
532.79294317216
529.48991108277
525.84926070811
521.7311328184
516.97496081068
511.40423443583
504.8328576084
497.07083894656
487.93340199769
477.2507932663
464.88034200662
450.7174640163
434.71098354837
416.87475264088
397.2955686433
376.13297981873
353.61323442795
330.01392470959
305.6420773107
280.80740196534
255.79397706609
230.83341030699
206.0807423064
181.59719618989
157.35601990499
133.30096402783
109.48731503526
556.14128586823
554.77666960418
552.49923418327
549.86496743358
547.04555284457
544.16431675093
541.25767256239
538.32395590137
535.32140251553
532.18164229338
528.80078906124
525.05400538994
520.79493795597
515.85757635822
510.06138073876
503.21669568221
495.13426986599
485.63166508939
474.54400355213
461.73618211278
447.11530640345
430.64509077856
412.35690648979
392.35613110079
370.82031805142
347.99074241307
324.155375325
299.62531238376
274.70714994303
249.67461447018
224.74154472594
200.0365581018
175.57930297294
151.28165023533
126.95166432346
102.64222426415
556.73279028514
555.15528967371
552.64994075258
549.95387167743
547.15848495705
544.3185042659
541.42754920927
538.48559696042
535.47303641405
532.32464139414
528.93959208355
525.19218670891
520.93489232344
516.00093644022
510.20947833251
503.37152236966
495.29706135485
485.8033941651
474.72489886819
461.92579858468
447.31190786617
430.84594940597
412.55851017927
392.55426093804
371.01053198494
348.16865493404
324.31717056835
299.76820685359
274.82971138938
249.77636206474
224.82194848211
200.09093678736
175.57986995028
151.13171205459
126.3896984075
100.9604628591
557.55488822401
555.65675050309
553.02755924568
550.25751539833
547.40965066762
544.51157571526
541.57291035542
538.59773955635
535.56269230448
532.40152863925
529.0136295965
525.27202829269
521.02732834759
516.11106862051
510.34036014625
503.52399092967
495.47001884121
485.99368213319
474.92659532566
462.13114231341
447.50943576384
431.02228270131
412.69891945491
392.64339627187
371.03443174633
348.11557576599
324.17911368294
299.54192938154
274.51723882993
249.38454524247
224.36109333026
199.57170407096
174.98665558619
150.36486715276
125.0897291283
97.912904710946
558.84843982408
556.38700598542
553.37737263144
550.41977353551
547.49512980064
544.56897230929
541.62141535951
538.64982341494
535.62442693834
532.47627539425
529.10599812223
525.38570501782
521.16296769061
516.26485666554
510.50232361565
503.67618750821
495.58528409002
486.03480227069
474.83727892456
461.85099817083
446.96375450207
430.13165338309
411.38490391892
390.83457979352
368.67672277796
345.17845233744
320.66214643891
295.47813915898
269.97322975489
244.45742578178
219.17017505026
194.26563109676
169.69774898799
145.16760565498
119.78338862074
90.870267122811
561.25216891717
556.77506882878
553.46124972857
550.44219510473
547.51392184599
544.5937754375
541.65338025005
538.67716721729
535.61784545504
532.37829889838
528.82131166827
524.77113043686
520.0189313445
514.32902357288
507.44759666081
499.11513181792
489.0831134912
477.14086227379
463.150203038
446.94151679333
428.49766535393
407.90607259631
385.37096748685
361.2095531207
335.83136608997
309.70262179411
283.30410527628
257.08774193223
231.43899507209
206.64858575931
182.88743824725
160.24721736367
138.57980380261
117.53739046307
96.19699793037
70.961706460847
86.94548660051
68.052385801842
54.114533328242
44.676483514603
38.465492702459
34.287660931936
31.489545598763
29.669567463069
28.592293644398
28.098492568135
28.018695564303
28.397665646325
29.01553223018
29.808928894925
30.72496006148
31.692729039112
32.673580934104
33.636537944988
34.562707912657
35.443534527239
36.273380768421
37.049699782452
37.774011359476
38.449212902271
39.07804151513
39.663121407868
40.209445745941
40.720189538404
41.195726267045
41.643838677292
42.062188637624
42.456894175322
42.827807924805
43.178062427955
43.509069398817
43.822272273057
44.119464485897
44.401549459758
44.669911053188
44.925616620064
45.169255868194
45.402354247967
45.624707510342
45.838238706423
46.042222002564
46.238632318475
46.426720723852
46.608060170534
46.782315223982
46.950304486297
47.112261888729
47.268513527278
47.419466960958
47.565374743884
47.706521358159
47.843155166103
47.975515529806
48.103819770287
48.228273486348
48.349063889959
48.466366029905
48.580345045324
48.69115658135
48.798946561429
48.903852246834
49.005940399206
49.283145245537
50.332038409318
50.800612069828
51.176761669102
51.525886576947
51.852415533505
52.158641659668
52.44673497215
52.718575451364
52.975797289536
53.219823740579
53.45191573747
53.673302474275
53.885330547327
54.089526807357
54.287532098608
54.480921726776
54.670955798133
54.881684505135
55.065764147187
55.245700297219
55.419651695586
55.585580284497
55.741835236486
55.887698859662
56.023721178427
56.151780234498
56.274948812079
56.397073709814
56.522399284064
56.655948857225
56.802822889759
56.967438596499
57.152551930268
57.358308620764
57.581693236921
57.816735740034
58.055333619319
58.345525259308
58.557380505761
58.739344473845
58.880729493913
58.975104432447
59.029502079623
59.063069101095
59.094274178569
59.132912495382
59.182125967385
59.242370830636
59.313282910875
59.394243899265
59.484673149079
59.584223570347
59.692988998356
59.811640730111
59.941218330794
60.082778414067
60.23674139235
60.40263068985
60.578829685657
60.76273181373
60.950929355692
61.139401939326
61.323586438065
61.499345935728
61.663283942492
61.812671854332
61.945939900718
62.063045927646
62.167621648216
62.270470088665
62.397908372028
62.607840101708
63.007376214939
79.516315890003
61.201313125964
48.749513359539
40.834934616116
35.771184248905
32.391808069648
30.207799709072
28.875449471426
28.177949570474
27.96321481069
28.125303953484
28.573180699695
29.271480370981
30.107519751848
31.027559231991
31.990249801684
32.956491474839
33.901963428196
34.810717033196
35.673075601606
36.484634861476
37.24455564674
37.953794029826
38.614745179191
39.230501181703
39.804600567897
40.340239732906
40.840866998807
41.309345871462
41.748453279843
42.160895550318
42.548815447094
42.914483300043
43.259564874818
43.585983811834
43.895074871647
44.188392778199
44.467022061137
44.73222631739
44.984878965164
45.226025516161
45.456373085156
45.676781290229
45.88783715659
46.090239597984
46.284494896584
46.471157363136
46.650688409921
46.823522236312
46.990071173666
47.150688403493
47.305724634639
47.455481501628
47.600270575456
47.74035141246
47.87597863192
48.007381679322
48.134776464391
48.258361527305
48.378322749423
48.494833233151
48.608056548896
48.718145211657
48.825243477312
48.929484435872
49.031230262131
49.603995129882
50.476148882278
50.900308223931
51.268475261766
51.611691791233
51.932861216061
52.234259560951
52.518002977692
52.785920806544
53.039596859202
53.280408205187
53.509596359518
53.728412267028
53.938249274438
54.140673211981
54.337324835004
54.529718481598
54.71898239234
54.882224385041
55.066242797006
55.246115786292
55.419995167683
55.585845463391
55.742020945251
55.887808512081
56.023760731383
56.151755413798
56.274862157883
56.396923384299
56.522177507334
56.655641618521
56.802412228797
56.966906625111
57.151886198237
57.35750769188
57.580769635988
57.815715601151
58.054254500739
58.344436862973
58.556364601098
58.7384980744
58.880194199951
58.975029097439
59.029980075837
59.064181836948
59.096206152958
59.135982210941
59.186750740482
59.249031340839
59.322498352947
59.406545214864
59.500588057778
59.604287225657
59.717757143505
59.841697055848
59.977147898969
60.125115165227
60.285902625718
60.458882344484
60.642227508313
60.833090452103
61.027806282226
61.222068911113
61.411055130882
61.590457944786
61.756804227027
61.907340929066
62.040536506868
62.156485003748
62.259093298381
62.359371989509
62.483956125098
62.69115331102
63.088413852793
75.628537509364
56.195128030342
44.645823533456
37.502149817838
33.264664461496
30.677545047305
29.084075343065
28.206704255894
27.84573574759
27.843016554572
28.195192774044
28.747062249903
29.467677420345
30.306181114376
31.213423258574
32.153722319592
33.096577000462
34.020613919449
34.910137815613
35.755661387701
36.553371594586
37.302129243079
38.002191887016
38.655665065257
39.26548931108
39.834596784217
40.365994289418
40.862950194082
41.328423760323
41.764926943679
42.175104775464
42.561161274271
42.92511123679
43.268848310952
43.5939785618
43.902072187267
44.19441091513
44.472284894211
44.736736644017
44.988824440838
45.229407151528
45.459327527427
45.679316341611
45.890042813863
46.092138760816
46.286131072891
46.472578707387
46.651902870067
46.824587178089
46.99097941734
47.151487462961
47.306417024153
47.45609409028
47.600803487505
47.740816986007
47.876387479307
48.00774269694
48.135097095031
48.258648098385
48.378581512207
48.495069953382
48.608275656026
48.718349926653
48.825437332752
48.929666519867
49.031444998523
49.618235637078
50.481191019306
50.903984334254
51.271986063843
51.615116958687
51.936169223231
52.237404863745
52.520960326921
52.788684986555
53.042170707608
53.282797505239
53.511812682265
53.730474409253
53.940180396694
54.142495492135
54.339054044042
54.531359663757
54.720527360086
54.883494432055
55.067393203313
55.247125398915
55.420843894933
55.586518683286
55.742515614907
55.888132468121
56.023927872237
56.151779555094
56.274750031824
56.396673207121
56.521773723346
56.655055414435
56.80160571031
56.965841686533
57.150535992814
57.355867925634
57.578865062187
57.813599147587
58.052002312004
58.342140611505
58.554199366498
58.736676113753
58.879027287368
58.974852501082
59.031015329194
59.066614306993
59.100455193003
59.142762469987
59.197005666036
59.263852107132
59.343059300479
59.434059859775
59.536254491283
59.649312579864
59.773390144461
59.909243734758
60.057907462245
60.220264893734
60.396344712207
60.585145773057
60.784353625126
60.990572225719
61.199564224946
61.406414149955
61.60573244622
61.79287834768
61.964212704248
62.116952376936
62.249665711489
62.362822596085
62.46084493975
62.555285972748
62.673458617951
62.874529758531
63.266666225261
68.491396578919
48.234868010171
38.440279657065
33.122484192457
30.187243944168
28.650225999053
27.851830641297
27.551646794778
27.583074742231
27.851999014854
28.372335214324
29.004339134886
29.74500022319
30.573023691826
31.45410821633
32.365472016451
33.279305279057
34.175257494161
35.040258278033
35.865604784944
36.64610138441
37.379963118126
38.068222573015
38.712113473077
39.313831519066
39.876309981659
40.402448137557
40.894830958193
41.356324426029
41.789595779352
42.196903247034
42.580503455655
42.942324821339
43.284215826345
43.607733284281
43.914398292678
44.205483740812
44.48222642152
44.745680833472
44.996875041311
45.23665025216
45.465862871391
45.685198853064
45.895362745526
46.096921325787
46.290464014542
46.476475192131
46.655433969818
46.827765421681
46.99385770566
47.154088705776
47.308775645718
47.45823972501
47.602753346838
47.742592774651
47.878003868837
48.009216681701
48.136442893148
48.259879790319
48.379711590293
48.496109255198
48.609233466281
48.719235018304
48.826257845042
48.930425736118
49.032075574456
49.638693652826
50.488559166719
50.909437068561
51.27712721
51.620085993403
51.94094697199
52.241941319822
52.525224947867
52.792670708176
53.045881266858
53.2862416377
53.515007729933
53.73344795694
53.942966047402
54.14512523773
54.341550579732
54.533730571048
54.72276342682
54.885421681928
55.069140831781
55.248658865585
55.422131716374
55.58753999045
55.743266313496
55.888624752402
56.024182923646
56.151818415378
56.274583810503
56.396298500667
56.521167232784
56.654173628881
56.800391290795
56.964236537168
57.148498773221
57.353391142711
57.575985211815
57.810395983012
58.048590705003
58.338645036563
58.550889747579
58.733873911106
58.877211935204
58.974542410082
59.032558113216
59.070301778572
59.106938905196
59.153172923986
59.212830676548
59.286838494852
59.375100812258
59.477109865166
59.592241114076
59.720153780641
59.861051305012
60.015779919095
60.185315487295
60.370331501374
60.570373944762
60.783785647826
61.007441621037
61.237061088366
61.467529853243
61.693030361318
61.907370904156
62.105493828886
62.283536790391
62.438723202775
62.569867037053
62.678074217171
62.768495684251
62.853616947371
62.961751299906
63.153291684801
63.537351543263
53.630288705975
36.702179459785
30.655570678464
28.258568170962
27.268472991121
26.941203517536
26.982349856919
27.21822315717
27.609350252665
28.114089216376
28.698066741485
29.362657895632
30.104236937777
30.909461443277
31.758256370068
32.628839175689
33.504085574158
34.366169337907
35.201352782955
36.001019552588
36.760400311837
37.477217650499
38.150604937841
38.782414238816
39.374388912209
39.92871552745
40.447871176797
40.934652725554
41.391379058257
41.820563199055
42.224427600549
42.605059816914
42.964355712097
43.304015200814
43.625635605811
43.930594926381
44.220204347306
44.495614707969
44.75790854132
45.008027913854
45.246868730406
45.475213883459
45.693783525209
45.90323354029
46.104155945417
46.297112623908
46.482586181135
46.661058945306
46.832935139033
46.998624282873
47.15847326804
47.312820119489
47.461968846589
47.606200790951
47.745780168044
47.880948985589
48.011939565312
48.138961866004
48.262213234638
48.381875187778
48.498117280536
48.611099072326
48.720970840755
48.827875487032
48.931930282705
49.033331777864
49.666259842991
50.49823205298
50.916699440519
51.283923929615
51.626598045778
51.94717754244
52.24784771938
52.530776135887
52.797858286745
53.050709675348
53.290722907508
53.519165484993
53.737318859424
53.946594137924
54.148552135481
54.344805657805
54.536823714548
54.72568313992
54.887995719108
55.071476466326
55.250707867509
55.423851209161
55.588902976903
55.744267925162
55.889281626544
56.024523659671
56.151871332282
56.274364089655
56.395801555821
56.520362061029
56.6530022523
56.798777114108
56.962101585905
57.14578699807
57.350091310073
57.572144999475
57.806121853754
58.04403841379
58.3339530518
58.546436173227
58.73008515051
58.874722702592
58.974054468618
59.034562379685
59.075212630638
59.11566589322
59.1673053694
59.234490897293
59.318533228875
59.419574396709
59.537197691499
59.670727730336
59.81976418164
59.984554883707
60.166014854053
60.364999004731
60.581807964954
60.815218295346
61.062526278897
61.319397597546
61.580282151983
61.838908004886
62.088308551822
62.321351814475
62.532568101713
62.717903184715
62.874695098883
63.002225605259
63.102496951713
63.181688420929
63.253541856882
63.347740841452
63.526187740549
63.898903050159
26.704014141293
24.533377439044
24.76546548151
25.32177765078
25.832068303157
26.370673713747
26.877901539436
27.411277390478
27.949162712081
28.530739803744
29.14855083068
29.819076923559
30.540734799657
31.309013207464
32.113780901678
32.939101173606
33.769922472902
34.591411471014
35.391687725397
36.161897493334
36.89639751952
37.592335907923
38.2491511835
38.86672883396
39.446800702538
39.991327914729
40.502492929133
40.98236871704
41.433327084531
41.857657162355
42.257422693753
42.634492181856
42.990748661518
43.327794130579
43.64711625425
43.950077664928
44.237943129436
44.511816460779
44.772737228713
45.021643895107
45.259403261133
45.486767040343
45.704457867963
45.913105665673
46.113308887912
46.305593542096
46.490463209102
46.668373449127
46.839739448872
47.004953109037
47.164362795166
47.318308964471
47.467085351784
47.610978070276
47.750239616753
47.885114605328
48.015830767834
48.142597753776
48.265611421251
48.385052712155
48.501091322265
48.613885223712
48.723583735633
48.830321498985
48.934223770444
49.035264970872
49.701757152385
50.51009975684
50.925778004922
51.292386230064
51.634646781583
51.954841277602
52.255099733841
52.537589551738
52.804224456854
53.056633677918
53.296220427309
53.524267048775
53.742070576954
53.951050501838
54.152764147573
54.348808987406
54.540630075835
54.729277842295
54.891207202948
55.074391874321
55.253265120529
55.425996222326
55.590602701371
55.745516996149
55.890101239669
56.02494987273
56.151939654651
56.274093672056
56.395186738784
56.519364296853
56.651549297538
56.796773269847
56.959448882306
57.142414219915
57.345982694344
57.567358544382
57.800790805009
58.038365914091
58.328056479173
58.540835700464
58.725298607343
58.871526813954
58.973333060604
59.036971139703
59.081312569239
59.126659782001
59.185316343635
59.262394366013
59.359761451253
59.477920174355
59.616582974616
59.774970039361
59.952534087233
60.149483010154
60.366767360567
60.604990788561
60.863792201291
61.140805916831
61.431720874869
61.730516138256
62.030016484483
62.322501330724
62.599732713633
62.853695539942
63.078593382335
63.270321005659
63.426535089503
63.547248915794
63.635685266646
63.699370105744
63.75354510153
63.829688375743
63.991399138577
64.349140332272
26.005692426825
22.922279595655
24.120334003901
25.118659393908
25.945810787538
26.646183156385
27.248917956747
27.818257984817
28.381456048235
28.954367847393
29.556027453834
30.191376234201
30.864644098718
31.576640557243
32.322556711338
33.092651428525
33.873835719319
34.653912451278
35.420423806662
36.164314654027
36.879052482097
37.560539501924
38.206696426521
38.8173677643
39.392673195268
39.934002238726
40.443402565959
40.922683321471
41.373716533303
41.798524375618
42.199222225195
42.577554202155
42.935170058877
43.273660842489
43.594520734785
43.899058455795
44.188463968547
44.463882724498
44.72632253213
44.976704575661
45.215876598091
45.444620003633
45.663636519517
45.873555672453
46.074972297309
46.268423790579
46.4544117053
46.633382957581
46.805762364545
46.97194186828
47.132278938225
47.287107958299
47.436726597304
47.581424693406
47.721460497749
47.857077646333
47.98849971702
48.115939719198
48.23959868764
48.359660791627
48.476296668297
48.589664766889
48.699916648663
48.807195767157
48.911634000439
49.013187678648
49.408267064437
50.394802349762
50.840338857998
51.213430150854
51.560927019325
51.885947712972
52.19048115006
52.476703801299
52.746609516146
53.001909486898
53.244068473258
53.474404027077
53.694215687576
53.904898463511
54.107978839664
54.30504378783
54.497571721616
54.686702703792
54.895046694089
55.077878209132
55.256322778716
55.428559819317
55.592633215281
55.747009004647
55.891080762957
56.025460645964
56.152024372324
56.273775473526
56.394458996616
56.518181102484
56.649824221581
56.794391449796
56.956292113576
57.13839552725
57.341080736071
57.561640178508
57.794415972711
58.031599230626
58.3170901081
58.530467118819
58.716397340533
58.865475803955
58.971770328074
59.041194689483
59.092451583965
59.147086047524
59.219258120418
59.315677470659
59.439418676738
59.591792120427
59.772768734319
59.981269426369
60.216191571742
60.477417257005
60.765808471363
61.081220145754
61.421509141585
61.781768640643
62.154358161874
62.52967618505
62.897667103294
63.248173102527
63.571080911151
63.857466364889
64.101353531614
64.298921990316
64.448725643656
64.552412127951
64.615549940724
64.648234265848
64.668188888291
64.710610467121
64.840878280519
65.169643316893
34.289587257833
28.756235663884
28.463349572218
28.487866997325
28.660531189929
28.919886340532
29.255270157522
29.66341009548
30.082168860597
30.54503443278
31.050179872956
31.587917841634
32.160358192437
32.767209773154
33.405165147616
34.067783572286
34.745548991552
35.428426697544
36.107275138466
36.772629946803
37.417855498754
38.038496893981
38.631743349901
39.196296626701
39.731998084598
40.239312490821
40.719011105289
41.172227542154
41.600669623694
42.005821943055
42.389200260525
42.752160016578
43.096238862804
43.422746881806
43.732918586964
44.027859101621
44.30869721172
44.576409370269
44.831902562765
45.075979306342
45.309425451164
45.532948815896
45.747189218064
45.952728647823
46.150113589774
46.33985777472
46.522418003475
46.698222440652
46.867662693201
47.031113545399
47.188910722747
47.341366249078
47.488769667897
47.631389942057
47.769479549908
47.903267555408
48.032970133242
48.158788597206
48.28091413217
48.39952546809
48.514787332834
48.626854300156
48.735868863457
48.841968426139
48.945276992791
49.046686287498
49.837115007502
50.557842226496
50.963654930626
51.327639400221
51.667849258731
51.986202219267
52.284662380256
52.56532812384
52.830125003291
53.08072105692
53.318570185386
53.545018436139
53.761421893603
53.969227453606
54.169972640191
54.365188689103
54.556220957896
54.744009795429
54.904568258324
55.086522651962
55.263900641836
55.434909104424
55.597659471927
55.750702354858
55.893508421249
56.026733512332
56.152249080022
56.273010072037
56.392687716368
56.515290837628
56.645600906804
56.788548725493
56.948531937232
57.128493112379
57.328970552979
57.547473228091
57.778565639048
58.01463375091
58.298455038921
58.512683588299
58.700943729023
58.854571830322
58.968219356113
59.047480158188
59.110994459134
59.182658034068
59.280646657447
59.415473691116
59.593299243847
59.817515513983
60.088588766116
60.404145812294
60.760527682155
61.155441166333
61.587693425226
62.054144260597
62.548010665187
63.057549276395
63.567885162106
64.064032835069
64.531838039567
64.958870811001
65.334228626804
65.650000543542
65.901496854305
66.086651252366
66.206514970036
66.266198945057
66.274588217688
66.245393958961
66.202716938574
66.183058462495
66.256653738007
66.531078396521
37.74852500349
32.599924217196
31.924944585215
31.615752372918
31.470776609621
31.424367048983
31.483139071901
31.629228269714
31.855176627904
32.157037576221
32.505560475563
32.90290014107
33.350321478243
33.839171012588
34.361418767606
34.91322653474
35.487053764024
36.074413315064
36.666786561018
37.25654267042
37.836590338977
38.401253408644
38.946642356252
39.470364627885
39.97115365079
40.44863798339
40.902897411326
41.334545239159
41.744498176214
42.133683175351
42.503240910135
42.854375616069
43.188149011516
43.505678284846
43.80792229627
44.095940102305
44.37067278114
44.632988257495
44.883678510277
45.123501235975
45.353169350148
45.573304371584
45.784505678918
45.987309226978
46.182242406283
46.369762288686
46.550307886794
46.724276736257
46.892051536948
47.05398345644
47.210388860437
47.361565574341
47.507788733673
47.649324712115
47.786412213803
47.919275506763
48.048122484423
48.173149367771
48.294542666173
48.412471403217
48.527095967431
48.638564912127
48.747022081418
48.852601198908
48.955416173553
49.059520150881
49.944299432775
50.598609432608
50.997214185176
51.359003877349
51.697267227287
52.013839541581
52.310614530289
52.589626620202
52.852783505833
53.101775727751
53.338104111476
53.563170799605
53.778377738742
53.985187851939
54.185114433193
54.379625790793
54.569977019736
54.757010118982
54.916471795864
55.097322013607
55.273358344361
55.44282573265
55.603922404289
55.755305804849
55.896541722435
56.028338982787
56.152561490788
56.272103176836
56.390543120842
56.51176875734
56.640434465768
56.781377247466
56.938973871738
57.116250744537
57.313938503035
57.52981386535
57.758721655055
57.993299020361
58.275268036548
58.4903979854
58.681308025456
58.840143539975
58.962435357517
59.053731210127
59.133239811846
59.227805803049
59.362314054674
59.554059552806
59.814954030696
60.152051944064
60.566032680125
61.050220017775
61.593834975039
62.186769258988
62.821639738431
63.48762757932
64.16955074019
64.846438103126
65.497011799192
66.102379871853
66.647936325546
67.122589685406
67.518460146663
67.831450806469
68.060373597801
68.20601271683
68.272515346875
68.268319610588
68.206046402877
68.103004637092
67.985613493532
67.897120406082
67.908220208604
68.116218014923
40.276082341915
35.189096342263
34.39943458042
33.997191438423
33.742416495501
33.583250818019
33.493705316654
33.495370640156
33.579323163231
33.721230845811
33.946204212874
34.221352267922
34.541178184824
34.911518583257
35.327720165294
35.777178904632
36.254681837552
36.75293283915
37.263517153314
37.778963995603
38.292944899303
38.800158742409
39.295731193466
39.776539212657
40.240413216531
40.686059188299
41.112937092112
41.520976975958
41.910450715674
42.281905576141
42.63608482949
42.973792030492
43.295810897426
43.603003917722
43.896244635567
44.176321321985
44.44403255631
44.700071807985
44.94518210081
45.180046578578
45.40526284111
45.62140189834
45.828976732596
46.028535086688
46.220530309433
46.40539619948
46.583525610892
46.755301567867
46.92108768208
47.081199074955
47.235941530073
47.385588363303
47.530408708776
47.670652563285
47.806548204822
47.938310852772
48.066138805477
48.190224430781
48.310743865921
48.427861972541
48.541732433338
48.652500585658
48.760305866753
48.865280459898
48.967548172107
49.079908871473
50.055440676302
50.645756505154
51.037270450099
51.39637887577
51.732280682378
52.046657717506
52.341353279719
52.618346704768
52.879525647322
53.126605144182
53.36114066052
53.584596991319
53.798422622032
54.004090547237
54.203077896637
54.396773451939
54.586323074422
54.772452190383
54.930666900068
55.11018395888
55.284605412966
55.45222804383
55.611355342642
55.760772582743
55.90015651582
56.030276105774
56.152983703117
56.271099863371
56.388094203695
56.50771026237
56.634450053574
56.77303438028
56.927806577029
57.101881974111
57.29621105065
57.508886670479
57.735092879165
57.967776049762
58.247638841804
58.463652248323
58.657413210267
58.821893083247
58.953748580379
59.059037097426
59.158260660512
59.282215536139
59.466288844563
59.739696052572
60.123837393705
60.632474015939
61.26346374316
61.997311968035
62.803611352337
63.654423659854
64.530116178662
65.409136081529
66.267327678187
67.079677992688
67.82427685452
68.485482296076
69.053765647154
69.524434239722
69.896488830081
70.171152291474
70.351185480058
70.439918242996
70.443376161052
70.371580586715
70.238561384198
70.064156382132
69.878364148049
69.727332789558
69.679377330268
69.81463283417
42.519266749996
37.102752489387
36.267815637414
35.828993786627
35.539985537387
35.331338679464
35.186654464537
35.106092610589
35.101410281092
35.156888245374
35.266497092247
35.451648119445
35.689166540863
35.952657265858
36.269731380438
36.63086760075
37.022726048666
37.439121289252
37.874264475366
38.320982939889
38.772520004194
39.223400061885
39.669495688257
40.106812300621
40.532757004729
40.945487493095
41.343796131386
41.72700560089
42.094861111754
42.44745593876
42.785111137751
43.108284851781
43.417543492592
43.713508786037
43.996778962407
44.267985011118
44.527815280432
44.776884905536
45.015773727175
45.245063750776
45.465251289211
45.676863692763
45.880390464262
46.076263571184
46.264923967687
46.446739332091
46.622096217702
46.791351989629
46.954825217697
47.112824336213
47.265619485923
47.413487906706
47.556676005727
47.695412449805
47.829918215612
47.960395028051
48.087040843878
48.210033116264
48.329536843431
48.445711054749
48.55870323423
48.668659197793
48.775703051789
48.879959847972
48.981530277226
49.120560647271
50.168055913199
50.699104856231
51.083873133653
51.43973952961
51.772800466577
52.084544930021
52.376752138047
52.651347804825
52.910204930564
53.155068318702
53.387553441882
53.609189705862
53.821468261195
54.02586246907
54.223798872177
54.416569242213
54.605192031969
54.790260176933
54.947068154935
55.125016460967
55.297548824031
55.463030735732
55.619888561242
55.767054870507
55.904330247187
56.032547815871
56.153545525714
56.270055776774
56.385423504792
56.50322794385
56.627794410939
56.763704512303
56.91525214519
57.085640794364
57.276061255204
57.484966177889
57.707936781099
57.93828616148
58.215720252589
58.432513554591
58.629205189692
58.799576130667
58.941576336814
59.062380042506
59.184744060895
59.344618532557
59.59249528099
59.977339611254
60.535905506121
61.288881393686
62.22239592933
63.284314716851
64.404870346966
65.528609174206
66.623789482568
67.666227771936
68.631884598623
69.500226027859
70.258858401735
70.902250775666
71.431642939884
71.851632026805
72.168118547345
72.386446317064
72.512429833363
72.548236400073
72.501848232516
72.379293933851
72.195220623108
71.970937768565
71.738089870912
71.543814707186
71.44649489953
71.509445016285
44.860494454165
38.595373991499
37.753942224687
37.290022119782
36.989557736271
36.762819152677
36.597311125916
36.478441773613
36.420078620333
36.417839539229
36.465439377865
36.567531694125
36.737709011664
36.936892660634
37.171135495023
37.450393065192
37.769209408531
38.116187873899
38.484086627453
38.867815205627
39.261958780104
39.660581144732
40.059060256597
40.454132003588
40.842545744899
41.222063376902
41.591142411892
41.948768772513
42.294269590359
42.6272650562
42.947663410057
43.255606654151
43.551390792257
43.835390379412
44.108034995011
44.369803183734
44.621186026112
44.862663291652
45.094725012412
45.31788370958
45.532577239016
45.739234586158
45.938284981963
46.130080099303
46.315020236832
46.493484267181
46.665786726783
46.832246774608
46.993145445768
47.148765845914
47.299392649853
47.445262698032
47.58660801814
47.723639051243
47.856559051276
47.985577259137
48.110872482056
48.232613408326
48.350955533711
48.46604577969
48.578029993243
48.687043023088
48.793201903268
48.896618734976
48.997376730472
49.211654049345
50.276645473191
50.758369695353
51.136867493835
51.489044476733
51.818776979761
52.127430217516
52.416722529891
52.688530855418