/*--------------------------------*- C++ -*----------------------------------*\
| =========                 |                                                 |
| \\      /  F ield         | OpenFOAM: The Open Source CFD Toolbox           |
|  \\    /   O peration     | Version:  2312                                  |
|   \\  /    A nd           | Website:  www.openfoam.com                      |
|    \\/     M anipulation  |                                                 |
\*---------------------------------------------------------------------------*/
FoamFile
{
    version     2.0;
    format      ascii;
    arch        "LSB;label=32;scalar=64";
    class       volScalarField;
    location    "0.0002";
    object      dydt;
}
// * * * * * * * * * * * * * * * * * * * * * * * * * * * * * * * * * * * * * //

dimensions      [0 0 -1 0 0 0 0];

internalField   nonuniform List<scalar> 
109340
(
0
0
0
0
0
0
5.7232419225931e-08
0.0014184741526087
0.0090454237240847
0.026749509674927
0.058101051512629
0.10645509285264
0.17507381412015
0.26734382981855
0.38699666689342
0.5383553499306
0.72673660590077
0.95888900373569
1.24358496511
1.5922920546275
2.0202128516497
2.5472359956888
3.1994436823706
4.0112327025011
5.0287094877101
6.314438767179
7.9551272986533
10.073990525978
12.851857238748
16.564811173283
21.654916138935
28.872009235032
39.573995312184
56.386523555116
84.698441900566
136.19078265236
0
0
0
0
0
0
2.4010257327636e-05
0.0022415542046721
0.011432313284417
0.031544098963176
0.066110518220704
0.11846110963838
0.19188213859991
0.28983131068771
0.41617117595342
0.57549310542569
0.77339184790149
1.0170521085151
1.3158607827657
1.6821454639053
2.1321728872966
2.6872221633689
3.3752168934705
4.2330868053198
5.3104658264442
6.6750420882129
8.4211248304024
10.683729955828
13.662885012205
17.667564447893
23.200058989445
31.130085388657
43.082810815128
62.336653770203
96.257676260307
161.53538900544
0
0
0
0
0
0
1.0940348988672e-05
0.001976505381037
0.010749431538182
0.030404324986172
0.064534784736196
0.11651711425688
0.18968029539236
0.28751090376151
0.41387280987592
0.57328963366379
0.77132348578702
1.015094173506
1.3139470745408
1.6801632797701
2.1300131343101
2.6847386283395
3.3722178146002
4.2293420617221
5.3056912906438
6.6689229518259
8.4132871066505
10.673716472187
13.650140185255
17.651697396887
23.181875468113
31.117665962452
43.130680492671
62.727298954002
98.327844386829
172.60360729277
0
0
0
0
0
0
4.2587991705145e-06
0.0017996262933784
0.010355529307866
0.029850097092664
0.063894331938712
0.11584127969741
0.18898510150125
0.28676916041015
0.41302557201294
0.5722601252799
0.77000875114554
1.0133712835139
1.3117308575085
1.6773477297458
2.1266676114345
2.680974055806
3.3682251460873
4.2254912171024
5.3024874189543
6.6672168863986
8.4143839366345
10.679609171547
13.663944499379
17.678753577956
23.232210004572
31.21375017933
43.363638292753
63.501047165621
101.73610789983
192.44428550403
0
0
0
0
0
0
2.4451886010378e-06
0.0016979384238998
0.010030745996269
0.029212509065768
0.0628801337947
0.11440499182887
0.18710124885752
0.28443472287346
0.41026332464917
0.56912162650268
0.76656093864069
1.0096873293344
1.3085630681392
1.6753115481016
2.1273685137944
2.6867277711798
3.3824736031041
4.2534849493436
5.3517031458212
6.7486125418683
8.5438081856547
10.880065938346
13.969235636538
18.139866329967
23.931828538178
32.277335644133
45.072136703738
66.622075270585
109.58106444536
231.70600589098
0
0
0
0
0
0
7.454890682293e-05
0.0032232472021665
0.014893878971703
0.039495997424993
0.080887287585586
0.14270437276308
0.22863766492688
0.34273353096626
0.48974664587364
0.6755506306702
0.90760469884056
1.19508495942
1.5487188023509
1.9911088329298
2.5446028918452
3.2398859252794
4.1177841312514
5.2324633452584
6.6565478236444
8.4888066232421
10.866199230907
13.983632497333
18.128281032781
23.74297614488
31.561182355764
42.79633266772
60.016694965605
89.059933932692
147.97741504592
346.9972387394
231.64769294966
388.21072052262
601.80719940832
853.73219659444
1132.0844607531
1450.9676942979
1815.5305406177
2231.459446779
2694.4558015907
3191.5421334556
3745.551180203
4205.5686108948
4638.5202713571
5010.0804370302
5283.2645231121
5473.6621648421
5581.0501459977
5620.2514903935
5605.8344834931
5545.7386046613
5451.7377718513
5336.927786126
5208.0439257377
5069.2588643535
4926.0430361492
4784.4080353043
4642.568743177
4499.1663859455
4368.3000207141
4233.3408002897
4108.9841831616
3987.4439394918
3870.8366892366
3760.9815809365
3653.6290931201
3553.7733418883
3455.8424702204
3364.7448844758
3275.7413888818
3192.3051931247
3111.5411410391
3034.760642671
2961.6232945464
2890.9659001063
2824.4189056757
2759.4348695479
2698.4683976016
2638.7444524378
2582.4732943293
2527.7074241205
2475.4278036571
2425.2479419961
2376.9268276474
2330.4413222152
2285.6761880076
2242.5515944993
2200.9801283645
2160.8844386753
2122.1878895323
2084.8225165485
2048.7249352025
2013.8348827607
1980.0928549506
1947.442180336
1915.8287632843
1885.1132299064
1929.4148650481
1536.9808156018
1325.8180060163
1233.9513878219
1155.6218157335
1084.9743853369
1020.9692793508
962.75281654379
909.58552032643
860.83345528095
815.95307665933
774.48346497868
736.03912156597
700.2928167932
666.9592601254
635.78605802727
606.55072695047
579.06007393444
549.99172486328
525.71539127562
502.79982372099
481.17384127805
460.78102268315
441.5689150405
423.47145850036
406.37794955482
390.11854152308
374.46489343995
359.14432893801
343.85877996976
328.34723627647
312.43861066488
296.09206931267
279.39741515261
262.52610811432
245.65215046799
228.88129192896
212.22905386174
191.64957331146
175.4484373113
159.76668788629
145.24849531241
133.04300134217
124.0633762497
117.93443021499
113.52962967064
109.81445922357
106.18592994698
102.39445429742
98.359420661341
94.088320121335
89.61286522877
84.973812846698
80.229038221279
75.441337931374
70.684003668988
66.029398945449
61.551345880667
57.315293943006
53.376755801401
49.774748728417
46.533279725916
43.658145445438
41.138101641817
38.956668275761
37.098855874907
35.556387396494
34.346866324257
33.52108147071
33.252276948414
34.003870156051
37.034874862771
45.887729861766
72.150909391451
291.65296037052
497.75496458144
756.00556237987
1039.1343524989
1345.6474212714
1702.005650742
2099.831782679
2536.1307530273
3002.5369183215
3488.174283041
3974.9305210389
4445.9356778361
4822.8744019924
5134.1681043686
5371.3437914226
5524.8133725139
5606.0372332232
5624.5167636359
5591.3078262351
5519.1393848891
5418.5966009408
5298.118896451
5165.2984633891
5025.6434177352
4882.8378735802
4739.6203256496
4598.4518534861
4460.1702891864
4325.8475425845
4196.5020058899
4071.6968263514
3952.2851350879
3837.6980084297
3728.4600516381
3623.8993781813
3524.250741829
3428.9917766886
3338.1914807958
3251.3697149918
3168.5841514945
3089.3545260676
3013.7545805011
2941.3273044531
2872.1499922591
2805.8075878111
2742.3577708133
2681.4676311429
2623.1272484927
2567.1122831955
2513.3413172775
2461.6764971431
2412.0220591857
2364.270961814
2318.299680467
2274.0268971184
2231.3610203051
2190.2222549892
2150.532619265
2112.221298741
2075.2212537693
2039.4694478304
2004.9057133825
1971.4737816633
1939.1227428132
1907.8018722716
1877.331623073
1962.9567048586
1446.7744378651
1299.4481109247
1213.1056043337
1136.9028135517
1068.0419479381
1005.5968341657
948.74446502935
896.76944951369
849.06202688618
805.09960158883
764.44208520734
726.72092683387
691.62114757503
658.86667765825
628.21315372169
599.44593420275
572.3802374395
549.98923190688
525.72978942417
502.82093356481
481.20023985856
460.81213396338
441.60451060635
423.51156853119
406.42289937904
390.1689445267
374.52160159966
359.20835305403
343.93122030667
328.42904179836
312.53021568436
296.19318814537
279.50725326358
262.64321755335
245.77473961911
229.00746287229
212.3570108782
191.77588445292
175.57025725587
159.88030275773
145.3459223671
133.11079714297
124.09477302218
117.93120131191
113.4980463068
109.75673952772
106.10019003532
102.27751502555
98.20879577078
93.902315190166
89.392248922224
84.72132923478
79.950373378616
75.143751941436
70.378857797475
65.728928615117
61.269845818838
57.065319054179
53.168777900333
49.615986163944
46.426990865365
43.604120891606
41.132618253884
38.993970214368
37.171337692602
35.655794943927
34.464888345681
33.651025375185
33.392777195179
34.156194068324
37.207924398804
46.1025630359
72.430567853513
344.01163449585
629.28898468035
936.00958489246
1296.5082247931
1664.9964020523
2047.5743776193
2464.6088934738
2899.3581849815
3343.0061847856
3809.1784027376
4207.411725958
4593.5262206619
4929.3077995296
5200.2965562407
5404.7905554955
5539.8367947639
5608.7191713457
5618.1158826581
5580.077999416
5506.795524677
5406.2694310639
5285.9185246189
5153.7615128215
5014.8943994002
4872.6970214468
4730.3048385948
4589.7970222721
4452.3447598202
4318.691040187
4189.8536055164
4065.8420799053
3946.7570615839
3832.8598791535
3723.8325686431
3619.803131592
3520.3456039268
3425.5056557451
3334.8566508499
3248.3935567892
3165.7238105895
3086.7921495879
3011.2932172153
2939.118905993
2870.0340489523
2803.8978884846
2740.5508985919
2679.8161167139
2621.5858873033
2565.6771035358
2512.015990552
2460.438389202
2410.8674267517
2363.1788472768
2317.2852228632
2273.0809522803
2230.4767410603
2189.3936757773
2149.7553668321
2111.4922234356
2074.536950074
2038.826116841
2004.2996374953
1970.9019496052
1938.5863027841
1907.2970420064
1876.807018688
1959.8385253307
1443.6138090564
1298.385621383
1212.2657710514
1136.1427120082
1067.3463226896
1004.9623997946
948.16929943911
896.25065254932
848.59412783999
804.67779104704
764.0621603233
726.37895252141
691.31332828347
658.58953207569
627.96376631494
599.22220262213
572.18152518419
549.83318394352
525.59487621051
502.70620116598
481.10483175454
460.73625768954
441.54841269179
423.47481054298
406.40485431648
390.16903528748
374.54003593728
359.24437054942
343.985438876
328.50149780622
312.62054012654
296.30010524395
279.62885193806
262.77740382816
245.91994404691
229.16323484395
212.52430597003
191.9574183237
175.76162240353
160.07501620043
145.52839052966
133.24768121342
124.16310673114
117.93029864414
113.43527180544
109.63635896029
105.91664053207
102.02447756291
97.882008960018
93.498290212635
88.913183793955
84.174523517225
79.348686279742
74.505244349972
69.728170108506
65.094280974796
60.681175024086
56.550245008545
52.74937158137
49.307044061157
46.234858889256
43.526632485089
41.161169464194
39.114839633681
37.3674172074
35.90890586194
34.756230422934
33.9686427839
33.730295067043
34.518163965234
37.613806542558
46.599440495121
73.068042358823
465.72154611869
923.08600038103
1350.239603143
1803.6977206524
2257.6125815923
2667.1510354791
3071.7406944605
3458.5783408158
3836.8148508483
4212.877604199
4501.3332251688
4797.4924259273
5067.3528168087
5288.3765061979
5458.7930763608
5566.0750039232
5615.7065935879
5615.0590655561
5571.3672389105
5493.1983138415
5390.6219232664
5271.4639855033
5139.7406795449
5001.2900686567
4860.3164822412
4718.9978399583
4579.1103089407
4442.5059966265
4309.9418036415
4181.6688477653
4058.3990592449
3940.0280623741
3826.6792274335
3718.1911490312
3614.5753749898
3515.5669518184
3421.0501185007
3330.7804906421
3244.5858294019
3162.2110419296
3083.526746925
3008.2646648683
2936.3040880837
2867.4059041269
2801.4689815363
2738.2680910395
2677.7033124434
2619.5948544318
2563.8356756038
2510.2853521208
2458.8254962707
2409.3528388022
2361.7552794687
2315.9484203799
2271.8243395256
2229.2981044893
2188.2857509668
2148.7134256555
2110.5107686863
2073.611355825
2037.952421034
2003.4743157891
1970.1221699346
1937.850740105
1906.6004446957
1875.8339184198
1954.8404067646
1439.4779223729
1296.8946380709
1211.0556250422
1135.0475489548
1066.3441783699
1004.0492295976
947.34185448278
895.50383790471
847.92041504145
804.07031487001
763.51487900108
725.88619108834
690.86962467328
658.18988794204
627.60398627441
598.89915162201
571.89337639956
549.59477934651
525.38709739011
502.52823288977
480.95635125593
460.61733049455
441.45906298358
423.41455835319
406.37284484042
390.16449498728
374.56256633581
359.29376582575
344.06207976962
328.60557037647
312.75149481615
296.45616711571
279.80722623118
262.97499592744
246.13442635778
229.39384305899
212.77240692809
192.22853655442
176.04905097198
160.36884445598
145.80344973516
133.45459580511
124.26744177187
117.92978473067
113.34194632242
109.45485411838
105.64184714734
101.64503546205
97.392253603418
92.894931983349
88.201548065226
83.367974195918
78.468859937836
73.582994189726
68.801965790691
64.208304379525
59.880313008433
55.87459051931
52.229516126286
48.962038986985
46.071146593613
43.538185588983
41.330917807451
39.419427436959
37.778873565407
36.397831591243
35.294199207504
34.537433914335
34.320971043349
35.138049602826
38.295342634615
47.415520824738
74.08520369953
886.07070579219
1720.1211606188
2410.8213910188
2933.9293400767
3339.5805425703
3661.4049060174
3919.5171162042
4160.9579832293
4380.3848129983
4588.5595590852
4809.9935794207
5028.4070466868
5226.6902687924
5391.7308997651
5515.291732429
5594.8596907655
5625.6580259873
5611.4248312601
5560.0499453573
5478.8438815876
5374.3779303816
5253.342226678
5123.1756812203
4986.0339416477
4845.7224417226
4705.3398377697
4566.9780076684
4431.304877042
4299.5767746478
4172.2958607344
4049.7858072324
3932.1770914401
3819.4449907146
3711.6134729251
3608.4587855327
3509.9560445298
3415.8449353968
3325.9785569691
3240.1022739816
3158.0823725917
3079.663314327
3004.6891152661
2932.9583219775
2864.3100696306
2798.5683541858
2735.5697513231
2675.1795150984
2617.2388011211
2561.6345768142
2508.2186540946
2456.8930988822
2407.5368879746
2360.0523296567
2314.339693865
2270.3076300834
2227.869911343
2186.9407833672
2147.4459511883
2109.314052888
2072.480307212
2036.8829427658
2002.4630070642
1969.1654882902
1936.9460226419
1905.7419788182
1874.5036713973
1947.6356517644
1434.3043558741
1294.9864199184
1209.4783361784
1133.6197040532
1065.0404315496
1002.8623161661
946.2662968307
894.53249567297
847.0437810997
803.27957194833
762.80224145468
725.24430433557
690.29141107196
657.66887321253
627.13471958271
598.47747885456
571.51642514076
549.27608112683
525.10850328684
502.28923980022
480.75693231855
460.45745381246
441.33862953726
423.33297585369
406.32897570332
390.15726206889
374.59133689941
359.35840038241
344.16299588757
328.7430471202
312.92484635635
296.66309454502
280.04402934011
263.23755709509
246.41960304691
229.70050465129
213.10208926401
192.5902088245
176.43275084176
160.76135364043
146.1727988617
133.73552283014
124.41240917768
117.93412181456
113.2211876944
109.21655397504
105.27907702636
101.1461934209
96.74970136011
92.108888828756
87.282314087728
82.337160313967
77.360047795643
72.441737771524
67.683168336189
63.172155630804
58.98582053405
55.171081594379
51.752936813711
48.73194811224
46.090195854991
43.791975069217
41.791822943026
40.051545068176
38.541068965133
37.247559401977
36.192955553078
35.459600394509
35.255170628691
36.096885012015
39.326314119017
48.61751790533
75.524574852389
4223.9145853478
5008.3058453104
5053.2614635962
4914.0463804699
4849.3009373433
4789.7389328157
4799.6950413288
4826.6350164485
4907.4928145876
5004.646910252
5130.9130616611
5260.6200977799
5386.4453267565
5496.1549551865
5576.8147685017
5623.240113006
5632.4824609778
5605.6401803981
5546.4747844342
5460.7961293872
5354.9052199281
5234.3457139371
5103.2185465863
4967.3512292656
4828.8225681501
4689.9374614513
4552.4315947916
4418.2759237314
4287.8095187694
4161.5648532006
4039.9177254883
3923.2244296282
3811.2514962384
3704.0502525936
3601.5481401256
3503.5769029614
3409.937884277
3320.4926843242
3235.0388682649
3153.3671567643
3075.2747700751
3000.6086189791
2929.1595613252
2860.7696678356
2795.2564710151
2732.4862934773
2672.2935870369
2614.5442767851
2559.1038485801
2505.8505407697
2454.672996933
2405.451963994
2358.0915422572
2312.4889067591
2268.5616634139
2226.2208554553
2185.3840816908
2145.9747076346
2107.923106232
2071.165259445
2035.638717969
2001.285504056
1968.0548143627
1935.8904644039
1904.7407083021
1872.805354826
1936.6927544881
1428.2741520358
1292.6700272789
1207.5391528405
1131.8635450565
1063.4406300824
1001.4076065884
944.94806381293
893.34106576504
845.96795144957
802.30886932022
761.92713537377
724.45572887073
689.58067891514
657.02808350053
626.55724415467
597.95824053433
571.05177110572
548.87813691923
524.76025992369
501.99030310529
480.50729321254
460.25693813583
441.18711596726
423.229815915
406.27286080899
390.14686882596
374.625876477
359.43775454737
344.28767483162
328.91338365976
313.13997253265
296.92022347391
280.33859466708
263.56442383154
246.77478979313
230.08254290892
213.51286991369
193.04175350565
176.91158077237
161.25252452109
146.63782120829
134.0945013384
124.60398187352
117.94954987113
113.07932657156
108.92730262418
104.83622761314
100.53722048967
95.969132756708
91.162335865284
86.189032257852
81.131616903762
76.090032621463
71.170629057055
66.485717934743
62.122532326533
58.156044761206
54.6161232311
51.509893316352
48.816993218641
46.496541679256
44.492452119913
42.744395416237
41.20336119604
39.834076499969
38.623987536933
37.602005381439
36.868372073946
36.651650009587
37.500783484798
40.802703136941
50.290505600432
77.436107237341
17931.900901882
10795.013826122
8408.0686239071
7121.8425214114
6338.136040321
5873.1373474291
5624.0497132543
5484.6950091517
5417.7574152634
5404.4148743752
5423.7408958906
5468.2820307904
5524.9369831644
5581.3161741409
5625.406773113
5647.319654306
5642.8648538789
5609.3652683973
5548.4717396408
5463.8445239742
5360.148365665
5242.1399312621
5114.4171000809
4979.9157563475
4843.1662351671
4706.1561629871
4569.9027467505
4436.0927135951
4305.9538810926
4180.0991404709
4058.4502280481
3941.3961215932
3829.1884575527
3721.6898956346
3618.7429921902
3520.2567330953
3426.1707632073
3336.2146632491
3250.2377887394
3168.0529788757
3089.4866801082
3014.3257048874
2942.4022874527
2873.5571394617
2807.6181702052
2744.4249529455
2683.8240820108
2625.6880518663
2569.8801814556
2516.2737296847
2464.7498062981
2415.1992756738
2367.5250894515
2321.6245558707
2277.4053409324
2234.7813860982
2193.6764527662
2154.0145930682
2115.7217860476
2078.7304385529
2042.9779821006
2008.405938684
1974.9591588775
1942.5877053183
1911.2450980319
1880.6722708628
1949.6291654471
1491.7268964809
1314.5524289468
1225.3946154566
1147.9374658879
1077.9789076078
1014.6047839874
956.98709566631
904.38118777885
856.14091121652
811.7239778649
770.67499387798
732.61168456216
697.20868445511
664.18377066882
633.28969614032
604.31069784177
577.06153251772
548.40199123908
524.34316129064
501.63188090753
480.2079418782
460.01656463936
441.00539978951
423.10585933142
406.20507919321
390.13357250555
374.66607059394
359.53132207525
344.43524777604
329.11552944953
313.39587121732
297.22666580073
280.69011974494
263.95483071143
247.19918375122
230.53788882285
213.99611062809
193.87487856958
177.78980484828
162.15460398648
147.49737968424
134.76958728991
124.97705472793
117.9982760037
112.83665870448
108.41358486903
104.0450304566
99.452883725859
94.590551036245
89.513785720037
84.322679136428
79.122234624452
74.038980073319
69.210505737111
64.756170107884
60.759046229565
57.284171747668
54.331072061192
51.86332082882
49.817294228817
48.112968747442
46.657215272216
45.362199560803
44.160245401375
43.006693945948
41.892387157923
40.865713484161
40.062058067483
39.757178576337
40.563688048568
43.955078203976
53.757070507413
81.181208847885
11155.002964319
12571.603015482
10534.211404481
9123.464367326
8126.2984340896
7415.8148391179
6890.6971826556
6488.7291900781
6249.3808932685
6068.3018201879
5934.3363180292
5848.6490863013
5792.7991543256
5754.500370494
5721.3944343254
5682.8277788632
5632.3641943203
5566.7239231572
5484.1335931246
5385.9911546803
5275.1161491766
5154.3531873844
5026.781934265
4895.2787495965
4761.8215486783
4628.0359904419
4496.0924200139
4367.1873145059
4241.347937351
4119.3474779762
4001.4793421621
3888.2663725328
3779.3874004148
3674.9492021779
3574.861140698
3479.1393640287
3387.4887821081
3299.8028071227
3215.9046819381
3135.6798342493
3058.8996356506
2985.3993293786
2915.0144868786
2847.6010204198
2782.9948059466
2721.0346511077
2661.5893159226
2604.5278903578
2549.7299015028
2497.0612266155
2446.4157712362
2397.6880893969
2350.7834259573
2305.605696657
2262.0634705825
2220.0766368262
2179.5684305037
2140.4701481798
2102.7114553506
2066.2268999856
2030.955563013
1996.8398500377
1963.8221019854
1931.8549016956
1900.8890758756
1868.4332918164
1880.0926322849
1406.2076328807
1283.5011435643
1199.6164674629
1124.6904515931
1056.9326076772
995.50199607764
939.59632394196
888.49852654529
841.59103494543
798.3563025755
758.36045005071
721.23801492668
686.67685613867
654.4065979063
624.19185446768
595.82899865081
569.14465948489
547.21928456773
523.30689191059
500.74162099907
479.46451098745
459.41951351702
440.55364049924
422.79679548174
406.03488622191
390.09786550877
374.76235877215
359.75938239379
344.79683446447
329.61227440179
314.02604990609
297.98283759963
281.55936381774
264.92210310676
248.2523441712
231.67196838279
215.21500994549
195.28823899444
179.2855648426
163.69801546825
148.98411150184
135.98369467321
125.70214486647
118.17133600901
112.50291877739
107.61546835786
102.79181356593
97.754211969644
92.491304055543
87.119935427877
81.79600067411
76.640735537629
71.833755499917
67.537586565636
63.883024112039
60.940526673904
58.699763362696
57.086046799838
55.977032003672
55.224384507879
54.675060334133
54.171517912193
53.579928850849
52.803930760311
51.792081730477
50.558013048239
49.220231291817
47.976230660904
47.180658373538
47.646977713088
50.947338121142
60.986902635114
88.167412334625
8617.4873079284
10986.291529742
10271.638172641
9349.659899003
8575.797932125
7964.7570779579
7464.0736769761
7060.3114543051
6725.7822804016
6462.0072320781
6251.5735883178
6083.4173306558
5954.1648712899
5849.3405740694
5763.3829878545
5684.2607425518
5604.0794737613
5518.0537741924
5423.4335100137
5319.2254657915
5206.1415758938
5086.1371133057
4961.1732713737
4833.2481047528
4704.1510377278
4575.24447206
4447.8268155926
4322.7621295938
4200.7240800298
4082.4813985372
3968.1244105642
3857.7729140584
3751.5959257628
3649.5367569545
3551.7503447874
3457.9683545322
3368.1014737306
3281.9859702613
3199.5534752074
3120.6145788822
3044.9836311495
2972.5215403344
2903.0833903531
2836.5395282624
2772.7010808388
2711.4524529878
2652.650487296
2596.185413552
2541.9256888541
2489.752080111
2439.5596936732
2391.2492173931
2344.729623176
2299.9020179841
2256.6851139382
2214.9978205384
2174.7688269666
2135.9283320034
2098.4063261032
2062.1427107274
2027.0774803737
1993.1520332319
1960.316299117
1928.5167480645
1897.6931786628
1866.2337610474
1818.6769895193
1389.2693834937
1275.6721959698
1192.6566385911
1118.4043410789
1051.2424795425
990.34595566866
934.92407391418
884.26725167886
837.76280664802
794.89564158832
755.23365448807
718.41274270153
684.12282352169
652.09703455851
622.10485748081
593.94822481793
567.45906624352
545.73796648863
522.00882662059
499.6265332294
478.53318525835
458.67118378299
439.98658052307
422.40720244716
405.81782582479
390.04761902785
374.87580773376
360.03636868925
345.23989725487
330.22406218667
314.80528936991
298.92120606866
282.64135906634
266.12907330769
249.56892107889
233.09112149774
216.7399296624
197.03082334334
181.13189569821
165.61376604817
150.85526512507
137.57908475624
126.74124846077
118.53912359072
112.23766612809
106.78885632675
101.46136878643
96.016331459972
90.489536239096
85.109065481717
80.080290319151
75.567270328495
71.74142814086
68.777407407043
66.781228197432
65.77329600338
65.639034780948
66.171869984565
67.111613075578
68.19883908168
69.171489780011
69.786451215043
69.856757843183
69.266015189387
67.981550989669
66.079685841308
63.788104530848
61.427066109933
59.524664187271
59.053480322278
61.826877003818
71.600187661408
97.220291403063
7508.1994405513
9238.3286513159
9360.851739107
8879.3104479509
8346.6316633928
7881.7367001788
7477.8644444672
7127.5095764807
6819.5664230689
6562.538405228
6340.9933082041
6157.7336783005
5996.6923418853
5866.3141641874
5750.028663754
5647.4013153047
5547.9558138275
5448.1253114547
5345.3235649423
5237.6244165232
5124.6428699598
5006.7659894288
4885.3814376266
4761.9064365262
4637.6642653434
4513.828305653
4391.319996457
4271.0164628975
4153.5719530638
4039.3725140663
3928.6988161641
3821.7827662877
3718.7751833893
3619.6483459519
3524.3721727152
3432.8529976762
3345.0404382433
3260.9023102018
3180.181277676
3102.7653139059
3028.5173966149
2957.3090606888
2889.034809701
2823.4987219429
2760.5955688903
2700.1818653873
2642.1619459263
2586.404082854
2532.7813853764
2481.1963279315
2431.539955211
2383.7292068076
2337.6638641646
2293.2550442886
2250.4230610094
2209.0922652341
2169.1951404357
2130.6589181338
2093.419058336
2057.4135794583
2022.5849022055
1988.8812567827
1956.2516913918
1924.6543115954
1894.0432406534
1866.5242163099
1743.7332108855
1371.795352261
1266.317238696
1184.4331742865
1110.9799769568
1044.5291702999
984.26795478487
929.41815520822
879.28011867019
833.2484205526
790.81149492315
751.53946681202
715.07028566182
681.09690310323
649.357054902
619.62619545851
591.71282077363
565.45504531714
543.96810517594
520.45793831004
498.29476427807
477.4205303834
457.77661947761
439.3074505197
421.93824546448
405.55277688417
389.97938550558
375.00063042888
360.35418159415
345.75422000691
330.93889820612
315.72036128805
300.02799958486
283.92245696851
267.56249636405
251.13555626768
234.78136201187
218.55600026764
199.08508962914
183.30846456306
167.8801957291
153.09950173649
139.57044856545
128.15129727059
119.19336299437
112.15525031953
106.08895405626
100.29377716761
94.59866937402
89.240394509506
84.546710398659
80.744760974597
77.950428428949
76.275305515708
75.862424897716
76.774266668529
78.898994656033
81.95439075036
85.540213068009
89.233217121794
92.606636457136
95.261517848734
96.874248427164
97.223015319244
96.214836265347
93.918324790057
90.4542600812
86.235777948647
81.791447482083
77.873210769455
75.694186237046
77.146284565429
85.616849857685
107.54778185035
7050.153450138
7911.2686690049
8358.2642676296
8231.8355006479
7901.8381643206
7566.8584679275
7254.2715002778
6975.2975939666
6710.0811165247
6485.9373139443
6283.2105600098
6105.5314041789
5933.9080773381
5805.3122060867
5683.6921714107
5567.5642518527
5459.6428953408
5355.3729433124
5250.0493976426
5142.0847884959
5030.9741975771
4916.9021632097
4800.3187592173
4682.1454610626
4563.4421065358
4445.1542010862
4328.1085985588
4212.9719707495
4100.3330371728
3990.6305037821
3884.143259461
3781.0498066081
3681.4632253906
3585.4491930641
3493.0478146446
3404.191834059
3318.7674123015
3236.7154723693
3157.887844333
3082.1980506763
3009.5683899883
2939.8096101146
2872.8113555229
2808.4599309611
2746.6183189488
2687.2103998391
2630.0835475962
2575.1341898142
2522.2563724092
2471.3468385266
2422.3280941016
2375.089986284
2329.5503165792
2285.6260716483
2243.2404778014
2202.3286032475
2162.8129965891
2124.6290942108
2087.7146856514
2052.0120830335
2017.4678100971
1984.0375465988
1951.658529734
1920.293791589
1889.8725720533
1873.7176075541
1654.657785211
1354.3642851491
1255.5810339105
1174.976327229
1102.4522132151
1036.8281636682
977.30282067942
923.11235132395
873.56951532259
828.07774280179
786.1303924547
747.30085979156
711.23028929293
677.61590584697
646.20122382385
616.76878306275
589.13453368155
563.14345683817
541.91993476449
518.663652009
496.75502268226
476.13357977382
456.74127226721
438.51961449078
421.39097932807
405.23795609331
389.8890823825
375.12997543682
360.70333261065
346.32784559309
331.7426890379
316.75563323475
301.28683281907
285.38621224433
269.20623030226
252.93623393128
236.7259214737
220.64472592148
201.43022939325
185.79316548988
170.47367051845
155.69812601303
141.95553465114
129.97758367331
120.22943630957
112.39353422334
105.7131937598
99.597736460558
94.116783597909
89.755807872933
86.980109409133
85.935520875327
86.508324743156
88.621262945486
92.318986721602
97.563489759233
104.00039143747
111.09993656591
118.2333571642
124.76624479952
130.1692498603
134.01248465256
135.97665845097
135.85984391725
133.76258787785
129.6665694031
123.7980031201
116.76557959345
109.30905911447
102.45451365445
97.650853498359
96.809735512673
102.36384664789
118.32700691986
6976.7020879919
6945.9293596599
7446.3841931961
7558.5737502604
7400.1286436159
7171.1646958673
6935.5160211939
6719.3616384667
6502.0207752516
6313.8772410276
6136.9480778472
5969.2922431936
5818.8432520649
5693.5341906789
5572.1185218867
5458.1030258221
5350.3763176941
5244.4282546933
5139.7003213243
5034.6812008812
4927.6066841117
4818.4162684939
4707.5289917498
4595.388979473
4482.7607651012
4370.4853560984
4259.2974755457
4149.7311558681
4042.2408860844
3937.27513649
3835.1618279229
3736.1159740124
3640.2634434879
3547.6570714297
3458.3266910586
3372.2452994052
3289.3772543253
3209.6554591232
3132.9676546445
3059.2224050261
2988.3136670648
2920.1065076774
2854.5353263815
2791.5176853597
2730.8913501144
2672.5619839278
2616.4274298897
2562.3803222187
2510.3484189042
2460.221533829
2411.9020342598
2365.3141071942
2320.3670404224
2276.9954468649
2235.126437525
2194.6816100962
2155.6005022938
2117.816537656
2081.2743227457
2045.9207948073
2011.7023688154
1978.5737860813
1946.4726787714
1915.3481568414
1885.1021726035
1902.0894777566
1568.5006103847
1336.9156605987
1243.5419436798
1164.3074173606
1092.8465648987
1028.1655892562
969.47687750119
916.0327911823
867.16057612123
822.27401967752
780.87306493318
742.53591607796
706.90843567505
673.69353689992
642.64184822948
613.54400278883
586.22418282105
560.53472616305
539.60351428241
516.63561612203
495.01551782851
474.67955585793
455.57067959344
437.62638330629
420.76618869681
404.87142130989
389.77170526469
375.25594471532
361.07301083085
346.94714496984
332.61932530038
317.89318882804
302.67879602204