/*--------------------------------*- C++ -*----------------------------------*\
| =========                 |                                                 |
| \\      /  F ield         | OpenFOAM: The Open Source CFD Toolbox           |
|  \\    /   O peration     | Version:  2312                                  |
|   \\  /    A nd           | Website:  www.openfoam.com                      |
|    \\/     M anipulation  |                                                 |
\*---------------------------------------------------------------------------*/
FoamFile
{
    version     2.0;
    format      ascii;
    arch        "LSB;label=32;scalar=64";
    class       volScalarField;
    location    "0.0002";
    object      k;
}
// * * * * * * * * * * * * * * * * * * * * * * * * * * * * * * * * * * * * * //

dimensions      [0 2 -2 0 0 0 0];

internalField   nonuniform List<scalar> 
109340
(
6.910233189598
6.9065631295783
6.9081728499874
6.9109591388853
6.9112591821619
6.9075477282723
6.899296329194
6.8870446321811
6.8716249869654
6.8527438071168
6.8305350713051
6.8052081744748
6.7769725839647
6.7460276162897
6.712561481797
6.6767558680235
6.6387876794095
6.5988293305956
6.5570500931985
6.5136145908136
6.4686808064839
6.4223975148501
6.3749026321274
6.3263213647544
6.2767638791663
6.2263218674564
6.1750631906029
6.1230247399989
6.0702023752696
6.0165343233694
5.9618726133788
5.9059287677887
5.848154464177
5.7874327868834
5.7211721578842
5.6428252922004
6.9056694966497
6.9045019102682
6.9058012424593
6.9059076273406
6.9026775812639
6.8954702656112
6.8841605643743
6.8684234388515
6.848516004108
6.8248488463571
6.7976826607673
6.7672507429218
6.733788292389
6.6975294281261
6.6587056567593
6.6175440371841
6.5742682795661
6.5290992200067
6.4822550291627
6.4339489468377
6.3843855728004
6.3337552548242
6.2822306641083
6.229964240446
6.1770851478005
6.1236944405055
6.0698603276222
6.015611729682
5.9609264359349
5.9057131353211
5.8497771474645
5.7927535614467
5.7339546555311
5.6719633117648
5.6034974968001
5.5202491887218
6.9002778598115
6.9004571178001
6.9005470428737
6.8976397559524
6.8902803734878
6.8779252262972
6.8603669740906
6.8377248940645
6.8102574659761
6.778347958834
6.742383167833
6.7027304921869
6.6597550841779
6.6138221807912
6.5652951718449
6.5145339547487
6.4618927421352
6.4077260065916
6.3523894109226
6.2962219699828
6.2395377466357
6.1826060805077
6.1256575091909
6.0688860577771
6.0124317247848
5.9563889230335
5.9008169502492
5.8457104041482
5.7910159176977
5.7366042562143
5.6822295723469
5.62747713326
5.5715683194529
5.5129010240717
5.4477533487667
5.3661698986411
6.8891887207914
6.8946688018629
6.8930692444074
6.8836764875748
6.8663149202955
6.8410342291573
6.8081410382475
6.7680989148683
6.7215335788836
6.6692088523174
6.6119681856195
6.5506827962921
6.486225114897
6.4194473901797
6.3511889469826
6.2822638298277
6.2134638932173
6.1457334240288
6.0797829382532
6.0162243473714
5.9555277704974
5.8979651597559
5.8436350788318
5.7925446513266
5.7446417500188
5.6998257809207
5.657829528492
5.6185631585399
5.5818700778387
5.547552524117
5.5152947989777
5.4845628193252
5.4542906638018
5.422079461522
5.3816808162809
5.3139199369419
6.8768178541098
6.9038326057011
6.9107675081852
6.897412328883
6.863146884325
6.8094619734068
6.739568280693
6.6575505728424
6.567839787704
6.4748402304666
6.3826088710302
6.2950119896638
6.21539109262
6.1467412870353
6.0918083933765
6.0531843281778
6.0334195386822
6.0357626241546
6.0605348909584
6.1051164634225
6.165860488183
6.2397162358664
6.3243003415888
6.4177921761814
6.5187755264913
6.6261148226388
6.738850030167
6.8561341822013
6.9780075245926
7.1036950800616
7.2313978370822
7.3587512490388
7.4824336761271
7.5953635073294
7.6776561162641
7.6561163111821
8.3369316263669
12.369318510443
15.807595521649
18.424938382295
20.230706859713
21.355822550284
21.963575116881
22.203054783278
22.19092914147
22.022234382453
21.751907653037
21.422573152892
21.063209674685
20.693141081896
20.325169147308
19.968260215303
19.62814601332
19.308575727973
19.013154987699
18.745480836778
18.501047591692
18.27695119767
18.071711587591
17.884517892402
17.714808915462
17.562159846207
17.426285739476
17.307081810724
17.204688621895
17.119596583154
17.052889028642
17.006767998379
16.984592510068
16.99414237467
17.04377870772
17.124613452568
5.538904567041
5.3993337335422
5.2226387693975
5.0090858899129
4.7591403163776
4.4730989352715
4.1548227751552
3.8108033189864
3.4511710820484
3.0928768819778
2.7515697624324
2.4649639369503
2.2190907746372
1.9917435789095
1.7840916638818
1.5956904468409
1.4289021415179
1.2827737510582
1.1553093686067
1.0451022243426
0.94978999852576
0.86671799771056
0.79446033730261
0.73180704151405
0.67696648336551
0.62794793735463
0.58500804317448
0.54766542032871
0.51209620323448
0.48293686701743
0.4545790239757
0.43042532955095
0.40768215697608
0.38726815305554
0.36867660404081
0.35138201900346
0.33578960529008
0.32121162081812
0.30785603916798
0.29563368418261
0.28394276463633
0.27356318289079
0.26320489652729
0.25425479088608
0.24508849521452
0.2372555497247
0.22925497831795
0.22228098972531
0.21542403666544
0.20906530444508
0.20303655479733
0.19729840318439
0.19188782843683
0.18674338596584
0.18185595419089
0.17720482246056
0.17278305768673
0.16857693263277
0.16457288668396
0.16075185815268
0.15709479757561
0.15358525361186
0.15021258783342
0.14697018014526
0.14385351256116
0.14501422399734
822.08757151899
3844.5987049695
2478.7444383163
1685.9964723442
1218.6544790792
923.43346487668
725.5377572176
586.50346787122
485.04915651468
408.62837000828
349.51999849441
302.80883211455
265.24076333633
234.5641303645
209.15841406483
187.82376981032
169.6577893412
153.98153599668
138.65487104009
126.76194191526
116.20426238655
106.83126033878
98.552562541264
91.302408241053
85.015483581027
79.611898383611
74.995568617328
71.062952115791
67.714637801336
64.865616921576
62.446503237124
60.392544126638
58.619598721932
56.99018277812
55.301617087354
53.275424360537
50.561905837008
46.80399437971
40.360381083125
33.806923806614
26.385680866393
18.994490305883
13.052942877943
9.2846331712168
7.3789570619983
6.5665881431287
6.2596579195765
6.1588157968987
6.1425342847641
6.162984040051
6.1950291162099
6.2241116169366
6.2443473969714
6.2538100145033
6.2542696274802
6.2476382554354
6.2389349521413
6.2321518977397
6.2303343274732
6.2345497072222
6.2439048883967
6.2558489901897
6.2668569236537
6.2724329480703
6.2695052245534
6.2583763683752
6.2403836998598
6.2181191585928
6.1949893324986
6.1751746204339
6.160025659407
6.1466491126474
6.1313092270811
6.1109692240886
5.4051161972868
5.2449102831943
5.0344791841166
4.7788249138487
4.4826891698407
4.1525692059605
3.7962881480512
3.4257259355074
3.0527837918065
2.6886921119419
2.3446702689664
2.0300848460887
1.7594233598292
1.5277706840157
1.3339389589935
1.1763090379018
1.0500644119274
0.94936618118958
0.86568195872146
0.79543600358472
0.7355363821718
0.68380879239168
0.63877309513113
0.59902750516253
0.56338042095244
0.53108366497623
0.50154030515146
0.47448990786701
0.44967151187737
0.42683266743474
0.40602972720042
0.38680578253735
0.36921997188233
0.35283657177297
0.33775342209186
0.32365050340467
0.31062905469591
0.29845851034582
0.28721397513066
0.27665529274883
0.26684741040097
0.25757932262921
0.2489201081863
0.24071755978619
0.23302996210582
0.22576161664547
0.21892819058581
0.21248498259925
0.20639977833292
0.20065458443581
0.19520037500903
0.19001977809675
0.18507811800469
0.18037388424626
0.17588658087092
0.1716098078932
0.16753382973597
0.16364815777772
0.15993731477492
0.15638486464422
0.15297494796342
0.14969495126778
0.14653572821959
0.14349183880717
0.14056038748898
0.3455967686081
2845.0064262363
3447.2688985532
2231.8026496052
1543.0754658967
1130.0962219521
865.03592357154
685.07304082775
557.32404857105
463.29185640332
391.94202576546
336.42556708794
292.34044652262
256.7390357277
227.55977300861
203.30682344881
182.86694724023
165.4012973312
150.2799059579
138.58860248473
126.70558097554
116.15474680399
106.78808136321
98.515219870204
91.270364037141
84.988093466924
79.588391915577
74.975111186143
71.044718079942
67.697940038703
64.849704884925
62.4307016853
60.376322004163
58.602689199055
56.972768371658
55.284378109725
53.25969807733
50.549590088856
46.797652539359
40.364908652922
33.820646287629
26.405781098055
19.012530838133
13.060444251841
9.2780830006579
7.3616765409634
6.5431230409995
6.2324375689864
6.128932900812
6.1102311253402
6.1283658638873
6.1583573192122
6.1858165334139
6.2049294950745
6.2138150136568
6.2142857445434
6.2084726698763
6.2014441949669
6.1969678201677
6.1978523249124
6.2050074769853
6.2173803843373
6.2324346224766
6.2465542525064
6.2551368100952
6.2552351739591
6.2471765190396
6.2322371347897
6.2129563466342
6.1926731754097
6.175327449623
6.1622243448825
6.150296651739
6.1357671009071
6.1158536350172
5.2460175554648
5.0677556816058
4.8324409075079
4.5518764271455
4.236183793119
3.8981367506647
3.5477587582509
3.1950708103043
2.8486785094621
2.5125206449256
2.2065777282643
1.9249520422968
1.6754762320507
1.4592219036332
1.2750547995507
1.121376609929
0.99497651959812
0.89129077593823
0.80350491247911
0.72900827835477
0.66601333091595
0.61274335720607
0.56738668923136
0.5285880131147
0.49517972755991
0.46602094751531
0.44025070093518
0.41730341988025
0.39681979785838
0.37833376102468
0.36160024875774
0.34642001288757
0.33247949917373
0.31962782396494
0.30759380411772
0.29635045512053
0.28572730610285
0.27579859501339
0.266443025084
0.25767756008387
0.24938371633873
0.24155098452255
0.23411693293784
0.22706591148031
0.22038575561929
0.21404158819741
0.20805349502387
0.20236070216318
0.19698520809707
0.19186093734342
0.18699822870444
0.18234892582419
0.17790291453528
0.17364269705658
0.16956451842694
0.16566687015546
0.16194192186685
0.15838130091076
0.15497122798904
0.15169763874226
0.14854699482549
0.14550849013084
0.14257434143901
0.13974061203999
0.13700518012409
0.38859204348385
2964.0825799378
3435.1133296963
2223.1449406916
1537.4420438538
1126.2622586265
862.35802448661
683.16932278216
555.93699608803
462.25163695734
391.14275108847
335.80055943877
291.84469762976
256.3401914783
227.23412174909
203.03709544747
182.64069878914
165.20957338857
150.11605030147
138.46120949618
126.59722907541
116.06272248068
106.71051877518
98.45035408134
91.216615376148
84.943846408622
79.551985513652
74.944955421372
71.019399605121
67.676427758326
64.830931963336
62.413790068571
60.360691628043
58.588265724426
56.960332741219
55.275648688991
53.257714823482
50.558395053265
46.822444084872
40.416234049208
33.893806005981
26.493918284396
19.093968558499
13.111778840033
9.2893802341676
7.3405456169246
6.5018946213302
6.1787510219384
6.0667225197013
6.0412448501051
6.0533202784739
6.0784538828292
6.1022655318407
6.1189588443909
6.1267703122893
6.1276496780775
6.124115919746
6.121134175233
6.1220296254889
6.1293039004852
6.1433502190889
6.1628252044704
6.1850498056124
6.2062299759254
6.2215295791594
6.228297490346
6.2265680304948
6.2178323782124
6.2045325400626
6.1899641103939
6.1777745377831
6.1690435788972
6.1605130170766
6.1483119107282
6.1303260986628
5.1633538481288
4.9023718497776
4.5614173739611
4.1958276129807
3.8452331779366
3.507950444752
3.1862517571933
2.8795698483937
2.5864297103133
2.3056664592521
2.0525846204134
1.8129230356077
1.5940083504081
1.4000859087689
1.2304593129456
1.0860608136491
0.9654013589578
0.86433306856393
0.77766043884427
0.70352074464663
0.63988215268078
0.58513007860331
0.53825115266618
0.49792889727809
0.46306649039632
0.43284872446521
0.40653601151573
0.3834136851157
0.36300643521113
0.34497865770152
0.32887925457846
0.31447375006847
0.30148363388385
0.28971517432084
0.27892785421151
0.26900946311815
0.25984328993551
0.25138026813505
0.24352354699211
0.23621217709518
0.22934572171234
0.22288197791424
0.21672902827983
0.21088380522702
0.20528672070857
0.19995678200228
0.19486953669558
0.19002877018073
0.18541539797239
0.18101035453281
0.1768035284565
0.17276482738141
0.16888637191748
0.16514715510807
0.16155267172093
0.15810183536077
0.15479327984009
0.15162042939454
0.14857234131701
0.1456365926199
0.14280118504005
0.14005705139508
0.13739844237092
0.13482302697944
0.13232940484101
0.46068111649762
3110.8459019566
3411.6482275447
2209.5008408488
1529.088149733
1120.7100074116
858.50960940504
680.43564228949
553.94355482505
460.75603613921
389.99364880828
334.90208011179
291.13199717686
255.76673567492
226.76586420308
202.64925876494
182.3154470455
164.93414924704
149.88135185098
138.27260465749
126.43700152826
115.92739850436
106.59726743679
98.356462547916
91.139536270353
84.881013331919
79.500858300625
74.903196171055
70.985024194275
67.64786959237
64.806816730181
62.392977892668
60.342428336983
58.572529852703
56.948383067385
55.270145666886
53.263229280773
50.581036063942
46.869717304719
40.504154181981
34.015299519646
26.639453935555
19.231480550698
13.202509823206
9.3156285414196
7.3139661037739
6.442312842483
6.0991317038815
5.9734448300514
5.9375198580312
5.9405447244919
5.9584495884133
5.9770336150112
5.9904872116034
5.9972245953317
5.9994221579261
6.0000499625089
6.003681273571
6.0133756311949
6.0309183792901
6.0560727703738
6.0870236992265
6.1207211761859
6.1529257272507
6.1787127099655
6.1957044681523
6.2035965357882
6.2037224078405
6.1988778763076
6.1922277562306
6.1872080641648
6.1844810756033
6.1807980835749
6.1718462090586
6.1567275731615
7.0918531032812
5.8854403249885
4.7888124234007
4.0437757183268
3.4892058572873
3.0559995399277
2.7444574335457
2.5171144626713
2.3119927864189
2.1030501145389
1.8955731196559
1.6960537395575
1.5112751116411
1.3425789944345
1.1912686889796
1.05839000199
0.94434418960192
0.84595301532667
0.76095610441366
0.68775512419899
0.62487741707823
0.57079298112415
0.52377704017636
0.48304993028288
0.44766426261596
0.41675314665727
0.3895911057325
0.36575616839435
0.3447476338487
0.32617063468995
0.30967614619289
0.29497085896467
0.2818217760199
0.26998627445576
0.25929412703009
0.24954890039856
0.24066011748422
0.23252519888298
0.22507726183248
0.21820450190599
0.21184077103347
0.20590159361111
0.20033297566261
0.19509084215967
0.19014513005906
0.18548380997302
0.1810747223383
0.17690945745154
0.17295321555156
0.16920100038407
0.16561428305581
0.1621730008882
0.15885587515143
0.15564711314904
0.15254509430745
0.14955211277512
0.14667318361958
0.14390407763272
0.1412364646859
0.13865841891858
0.13615928021465
0.13373137316645
0.13137075085634
0.12907651417838
0.12684651822862
0.58301878010379
3280.4684789971
3377.083413856
2190.7243318771
1517.9840235571
1113.4692910284
853.5262823557
676.89752833721
551.36033945018
458.81658845128
388.50330446993
333.73664057977
290.20724120392
255.02233088922
226.15775401058
202.14540414277
181.89279571643
164.57625983461
149.57656795734
138.0229515035
126.22485487368
115.74841359934
106.44771317373
98.232818554694
91.038340816012
84.798777756682
79.434174672007
74.848978286831
70.940678426932
67.6112972632
64.776280451661
62.367042219454
60.320141178351
58.553884614958
56.935049660053
55.265654630856
53.273750472399
50.61470867534
46.935865209251
40.624784873685
34.181076290996
26.838747893863
19.423577589795
13.332963440261
9.3581566558075
7.283023376258
6.3652863972039
5.9945095683333
5.8503614897856
5.8004392123898
5.791836814428
5.8004954046809
5.8127275598738
5.8226942146202
5.8290950817966
5.8343455582574
5.8416602619258
5.8553273074696
5.8778961258353
5.9103382782649
5.9515652774049
5.9990179682877
6.0490097835354
6.096584118798
6.136815151949
6.167357855862
6.1875937352924
6.1988330161014
6.2040251873397
6.2067420734039
6.2101252866349
6.2143694127274
6.2161975940849
6.2108075221327
6.1990715157715
11.402711250252
7.5765777930561
5.7921833742639
4.5705451500116
3.7126825883357
3.1210742348928
2.6720059817089
2.3432175161953
2.0827881248147
1.8976308293043
1.7503798884172
1.5974077961719
1.4394989540082
1.288831566688
1.1533633544185
1.0333561319064
0.92672830849499
0.83191488818021
0.74893688530197
0.67685653334215
0.6145477436077
0.5607836392985
0.51439469311007
0.47388506644085
0.43848966044559
0.40747059458262
0.38018581491734
0.35599090030844
0.33458901530375
0.31560461615983
0.29870370116132
0.28356789743669
0.2700312863317
0.25786682647461
0.24688423039541
0.23693252347229
0.22789947675382
0.21967266502531
0.21216896672116
0.20530089516733
0.19898902410434
0.19314298411414
0.18771337551809
0.1826450690149
0.17791235408142
0.17347948968626
0.16932946603375
0.16543690589287
0.16177575875965
0.1583248017325
0.15505392566894
0.15194575742985
0.14897206163934
0.14612088086973
0.14338083524499
0.14075094293518
0.13822986359666
0.13581129192755
0.13348632303574
0.13124027734651
0.12906129191512
0.12694024441041
0.12487087974602
0.1228514229575
0.12088059537088
0.77138855043352
3467.4573021236
3332.9027078719
2167.0913267666
1504.2010541745
1104.5944484677
847.45232137427
672.5857370168
548.20766464637
456.44747182178
386.68223737763
332.31220121557
289.07643396985
254.11150568069
225.41323488286
201.52818404211
181.37481435331
164.13752415225
149.20288525511
137.71307584755
125.96138852273
115.52608905034
106.26197611845
98.079386030633
90.912897613988
84.696940772864
79.351684075672
74.782003656666
70.886005663056
67.566318178315
64.738868419863
62.335448788577
60.293200345349
58.53158205991
56.919430117032
55.26108318485
53.288002079624
50.658099464322
47.019238232814
40.776362144767
34.389103068422
27.09015998279
19.670519218827
13.505545370579
9.4203596086622
7.2504528811418
6.2729033239682
5.8666518333715
5.6992739114239
5.6318325082928
5.6094870442048
5.6074002178027
5.6127164491789
5.6197639760985
5.6274989045125
5.6385109896707
5.6562267070339
5.6843798753501
5.7249998651954
5.7780826626504
5.8413663881023
5.9111648460772
5.9827470168063
6.0501764704933
6.1085753515129
6.1552468178714
6.1896629015962
6.2133871109389
6.2295811345729
6.2421145866612
6.2541012233546
6.2654282219746
6.2725818738449
6.2704670018165
6.2622268277601
6.3610385723984
6.8179774558878
5.1336600058227
4.398779881722
3.7598818925421
3.2347426159039
2.8247311070126
2.4958586230482
2.1735430430123
1.909857565796
1.7022968539864
1.5360715762096
1.4080079012251
1.2829628695232
1.1565271546091
1.039138602799
0.93349043860494
0.84012868176557
0.75785774943782
0.68527980544452
0.62173587940794
0.56649244820879
0.51853253004594
0.47695225085343
0.44053520328962
0.40852235355015
0.38038894612233
0.35551726075045
0.33341148119609
0.31368206880973
0.2960958633736
0.28034142226248
0.26615504482965
0.25337046573633
0.24183635717067
0.23139482975307
0.22189652485158
0.21326278660439
0.20539527726779
0.19820807438199
0.1916169369186
0.18555376511667
0.17995145055123
0.17475155624616
0.16992061073592
0.16542794455962
0.16124936075324
0.1573512387316
0.15370929205538
0.1503007712768
0.14709950941726
0.14408141485427
0.14121758676818
0.13849347619094
0.13589641069972
0.1334209899441
0.13106103211293
0.12881049809742
0.12666121060352
0.12460023297488
0.12261431885433
0.12069155122414
0.11882469326014
0.11701074627932
0.11524688787375
0.13826932689139
1623.7818789866
3672.2660213615
2366.3146750566
1619.9346375404
1176.2333631559
894.52640563808
705.15317271267
571.71706055792
474.01592729804
400.19118395713
342.94617426668
297.60908861867
261.06832671464
231.16635683998
206.35119797999
185.4742350102
167.67086270194
152.28885006122
137.3441503545
125.64754515834
115.26110763934
106.04052988158
97.896464377845
90.763384079973
84.575583249997
79.253388152156
74.702205070204
70.820879914966
67.512764714407
64.69436659826
62.297935857488
60.261288313881
58.505222095527
56.900998908627
55.25572639369
53.305032108617
50.710346255705
47.120021190717
41.055158727239
34.770433897614
27.554223974659
20.135304738491
13.840697886678
9.553459660706
7.2037950147978
6.1117720655424
5.6380319964873
5.4275663876622
5.3284428199921
5.2818277666305
5.2623757409291
5.2574771216999
5.2623943222382
5.2767504035439
5.3030109996654
5.3446716725904
5.4047499380506
5.4838530674639
5.5800725774856
5.6884183241968
5.8023361197289
5.9142207215039
6.0175653697347
6.1076240316254
6.1818080638852
6.2395382607712
6.2827353929884
6.315340426465
6.3419225008428
6.3657599338776
6.3864672900203
6.3999866441852
6.4019254116432
6.3986023905851
4.1626790417826
3.4204868735907
3.1635068480708
2.931847269596
2.7928424480201
2.6353669732904
2.4563883931216
2.2852992812654
2.1121131217745
1.9377368297507
1.7384395299094
1.50461702619
1.3287614996663
1.1854183530966
1.0716902231766
0.97602741334015
0.88280420612191
0.79724134601392
0.72087270666084
0.653894730523
0.59534828749789
0.54404890238382
0.4989105158118
0.45912101138005
0.42409483456329
0.39328250553586
0.36602371137628
0.34181278826123
0.32037794941853
0.30127527851299
0.28416751523271
0.26870494645882
0.2547512753083
0.24210731602083
0.23062709760964
0.220150611711
0.2106044661831
0.20187634818971
0.19388101714247
0.18652856138088
0.17976812860123
0.17353444574712
0.16776945274767
0.16242363732641
0.15746604826659
0.15287218024863
0.14860815896933
0.14464399700148
0.14095064833731
0.137509358903
0.13429444206035
0.13128132674286
0.12844721918772
0.12577483199335
0.1232533170846
0.12087297680607
0.11862598839077
0.11650248739492
0.11449197653985
0.11258220354889
0.11076013962043
0.10901459072617
0.10733736500872
0.10572399256466
0.10417103586519
2.4291078132344
4005.0543388273
3162.9173831663
2072.4066828965
1448.4701958392
1068.967155199
823.20583436541
655.36399301745
535.57678249893
446.93469775233
379.36170309262
326.58019446102
284.51965229426
250.43512132527
222.40312294719
199.02892792778
179.27459612463
162.35664326233
147.6846197388
136.43487695687
124.87343020195
114.60698247077
105.49343774783
97.44427109743
90.393610010815
84.275264280496
79.00993488844
74.504358993887
70.659228164428
67.379691117601
64.583674780983
62.204542077245
60.181707405777
58.439161063641
56.854047721901
55.240165598698
53.343164067
50.833234228554
47.363286509353
41.515802261455
35.410813946768
28.343579813084
20.954506968576
14.471494339488
9.8532979183261
7.1853127406896
5.8785234129366
5.2798615996735
4.993193073928
4.8417523014994
4.7588303249078
4.718217673466
4.7076573400315
4.7243380141693
4.7685351052657
4.841880488089
4.946544494931
5.0829679146843
5.2476071929892
5.4319735324855
5.6258948012205
5.8186731377721
6.0004572061426
6.1625483333725
6.2995904841945
6.4093305286283
6.4926186636762
6.5535741881828
6.5983972122497
6.6332602731211
6.662092083379
6.6848994313373
6.6975399667049
6.6988647751525
6.6989074092936
3.6621788964378
2.0363651574468
2.0920019962329
2.0225242225866
1.9983503120393
1.98020521329
1.9642790201564
1.920414680845
1.8704556695937
1.7896383837755
1.6943047138198
1.5727904830753
1.3916663775779
1.2021591034569
1.0607468168118
0.94687552232396
0.85445698158938
0.77930848094523
0.70839843011118
0.64406190359756
0.58678099172067
0.53631754471922
0.49212443411013
0.45337602626825
0.41915777551699
0.38877770394122
0.36171673461245
0.3376018239077
0.31612127775653
0.29690373523209
0.27968194455528
0.26421206308601
0.25023874003632
0.23758605382317
0.22604674803953
0.21553486119233
0.20592802803482
0.19712224795112
0.18900734990983
0.18151981344672
0.17461015502848
0.16821381599936
0.16227807871495
0.15675580032463
0.15163052854791
0.14686451984489
0.14243082418726
0.13829475003462
0.13443544896556
0.13083185660118
0.12746110938685
0.12430232398652
0.12133493536465
0.11854640070978
0.11592172119628
0.11345072942293
0.11112309939538
0.1089295713147
0.10686102621661
0.10490411037153
0.10304706254745
0.10127910115698
0.0995921896231
0.097981867232749
0.096411143121785
9.097583676261
4235.047144936
3028.2733039207
1994.0660262794
1401.3118058187
1038.6576596097
802.57638983161
640.68606314935
524.77746585693
438.77953691469
373.07410240707
321.64826261073
280.59077911232
247.2580746284
219.79594887033
196.85970322383
177.44836028693
160.80559286727
146.36027253121
135.30815782885
123.91317421665
113.79470686208
104.81335550552
96.881507851563
89.932800528354
83.900392926787
78.705424068395
74.256288571216
70.455983073763
67.211881046887
64.44364321624
62.085959349937
60.080098270155
58.353793419965
56.79125309915
55.214433891376
53.38134308971
50.973357730838
47.65084249854
42.066205646725
36.189994781065
29.321991169753
22.011455435506
15.350199767944
10.351685606492
7.2764475786578
5.6668183855175
4.8936854840235
4.5088930061547
4.2988105989221
4.1837461220078
4.1353975322999
4.1409484984721
4.2019251031527
4.3154957199856
4.4805159492834
4.6949581864633
4.9519758724204
5.2399280419896
5.5435538363428
5.8450997546173
6.1286084619468
6.380852513772
6.5932439190533
6.7623576192398
6.88903419868
6.9776113820365
7.0361460662325
7.0741479776531
7.0998031167553
7.1183742803858
7.1299533589221
7.1318129734506
7.1279605715276
7.1293510752899
3.4048041071012
1.553878894947
1.4755329589055
1.4820772007416
1.4885517406593
1.5095692954993
1.5312460565066
1.5475947254348
1.5528505317802
1.5513688399829
1.5223448159582
1.4627472393325
1.3933622773122
1.2708979619073
1.1002472182613
0.95954553049416
0.85236626038435
0.76582214711107
0.69410719345613
0.63512903044154
0.58078165075184
0.53185497992382
0.48824300116328
0.4496206124426
0.41553446394473
0.38543860750651
0.3587718650382
0.33500313975643
0.31370732049193
0.29456858873258
0.27733334583613
0.26177215501476
0.24767528913531
0.23489095030161
0.22328861587848
0.21273132406454
0.20308982251994
0.19422541616474
0.1860764472545
0.17856214684441
0.17160837283815
0.16515479471664
0.15914136793231
0.15355147128361
0.14834452194768
0.14349390572531
0.13896084414295
0.13472192983305
0.13075817352047
0.12704262902065
0.12355746929273
0.12028031907659
0.1171993086884
0.11430055535174
0.111570035258
0.10899587791483
0.10656647467212
0.10427492521001
0.10211090966218
0.10006398443724
0.09812290630833
0.096277654890969
0.094521934778608
0.092849923507656
0.091093792533135
33.364138556973
4240.4401188238
2873.1661678914
1905.6198731843
1347.7240095132
1004.0000367915
778.90330618891
623.79996152712
512.32360233791
429.35471275803
365.79396558835
315.9271571096
276.02404431546
243.55744029485
216.75289892499
194.32313522171
175.3094380357
158.98646288915
144.80504221822
133.97771179586
122.77827978944
112.83378683523
104.00804368482
96.214266253308
89.385450102275
83.45408006849
78.34182874929
73.959074396562
70.211536815619
67.009198913666
64.273728531093
61.941318194782
59.955253573031
58.247386522694
56.709948228758
55.174419548619
53.41332617266
51.122019428863
47.970875540819
42.688600154355
37.087719221717
30.473787548784
23.306051283126
16.513368533855
11.125136784171
7.5660586110482
5.5626114656087
4.5414067199524
4.0287140250707
3.7595208402871
3.6299670344413
3.6012840020406
3.6676690235413
3.8247136265935
4.0629767165518
4.3735336317294
4.7442626695489
5.1578846362942
5.5916831166241
6.0186123925076
6.4163619586221
6.7673349843704
7.0595499513661
7.2884537519469
7.4558487546858
7.5681286261668
7.6345891059292
7.6679619105575
7.6807072683611
7.6828229533986
7.6797956638703
7.672303180866
7.6598000941538
7.651367945823
7.6539868782998
3.5076567471922
1.3608151313815
1.1437629056009
1.1388610228845
1.1574505219457
1.1870398374317
1.2197156421043
1.2529234614911
1.2840905968692
1.3005473376244
1.3179895683878
1.3072778118384
1.2733382448208
1.2303258950293
1.1415516239352
1.0145655924397
0.87651324983739
0.7748063357132
0.69456506505572
0.62888607322838
0.57382875306735
0.52781434623062
0.4858033608636
0.44791114165804
0.4139998862391
0.38385227430471
0.35710599176835
0.33332529521103
0.31209713992346
0.29307328366449
0.27594878996256
0.26044954513654
0.24635765441954
0.23352458736177
0.22182386134518
0.21114124471852
0.20138541881291
0.19244609742182
0.18423506463809
0.17667039509996
0.16966001418871
0.16316090556136
0.15712624335501
0.15150749490189
0.14627455809471
0.141380723079
0.13680770487335
0.13252704433541
0.12851049880277
0.12473713402384
0.12118165748283
0.11783636289866
0.11468561804961
0.11171534617102
0.10891260403712
0.10626295259417
0.10375963407287
0.10139195856351
0.099150174693913
0.097024959755901
0.095006606095979
0.093087789681628
0.091261231020552
0.089520986185136
0.087866815840675
140.41586302449
4134.8780353498
2704.5390451974
1808.9807622686
1288.8314215732
965.69842138195
752.6265798266
604.99607705017
498.41913864031
418.80801278348
357.62972904302
309.49726176631
270.87979894428
239.37921661715
213.3096770266
191.44753917159
172.88077866599
156.91821402541
143.03497297682
132.4569346223
121.48016911141
111.73382547461
103.08542057041
95.448807365512
88.75623883307
82.939562308791
77.921170297497
73.613765342284
69.926177271754
66.771341548558
64.073177471838
61.769517915696
59.805753574691
58.118052029668
56.607196482395
55.116045796941
53.432702764492
51.269666904464
48.309607766055
43.362014346887
38.07833077654
31.774626610745
24.823451483518
17.981013465405
12.247517140559
8.1724296946881
5.6971262394543
4.3399029117341
3.6510430690332
3.321255623601
3.2010372035366
3.2354476048462
3.4212259453556
3.7338320322532
4.1454266364478
4.6334879580129
5.1752707514448
5.7383485215253
6.2867492605728
6.7928165559227
7.2349944993047
7.5995205826426
7.8815065217172
8.0839413910629
8.2153748697282
8.2879997782734
8.3158012417712
8.314818903654
8.2977915551044
8.2750344090841
8.2518595103275
8.2297387985608
8.2098714154688
8.2035842696715
8.2098509885298
4.1907528849786
1.2283826770651
0.9808763538342
0.91744844709509
0.93234236233688
0.96109850430358
0.9972790799628
1.0301822102724
1.0705123777894
1.0957167340902
1.122428025687
1.1510572999064
1.1479919437471
1.1159697151736
1.0908662582394
1.0257661399558
0.92738206545433
0.8059219214697
0.70950930789847
0.63492359215289
0.57486738736135
0.52519934860865
0.48288217070763
0.44641492887626
0.41334650763061
0.38356447598582
0.35686302917988
0.33297003506078
0.31157635287971
0.29238094191547
0.27514950918804
0.25965076549313
0.24559599627028
0.23277109052876
0.22105787620584
0.21035652392516
0.20054570449766