/*--------------------------------*- C++ -*----------------------------------*\
| =========                 |                                                 |
| \\      /  F ield         | OpenFOAM: The Open Source CFD Toolbox           |
|  \\    /   O peration     | Version:  2312                                  |
|   \\  /    A nd           | Website:  www.openfoam.com                      |
|    \\/     M anipulation  |                                                 |
\*---------------------------------------------------------------------------*/
FoamFile
{
    version     2.0;
    format      ascii;
    arch        "LSB;label=32;scalar=64";
    class       volScalarField;
    location    "0.0002";
    object      nut;
}
// * * * * * * * * * * * * * * * * * * * * * * * * * * * * * * * * * * * * * //

dimensions      [0 2 -1 0 0 0 0];

internalField   nonuniform List<scalar> 
109340
(
0.00071887805085308
0.00049299695026495
0.00026604923652193
0.00022233646503245
0.00021537650770951
0.00021978216429384
0.00022797227097665
0.00024230003589908
0.00021118096718886
0.00018783879662886
0.00016936514246466
0.00015429622305382
0.00014174155689274
0.00013110925131116
0.00012198455512008
0.00011406606438626
0.00010712862063349
0.00010100027400343
9.5547277324066e-05
9.0663950082146e-05
8.6265628873998e-05
8.2283639577045e-05
7.8661645444679e-05
7.5352955655402e-05
7.2318517044629e-05
6.9525392178055e-05
6.6945584975753e-05
6.4555121193172e-05
6.2333311829737e-05
6.0262140589121e-05
5.8325724005813e-05
5.6509775744416e-05
5.4800916804326e-05
5.318538774196e-05
5.1645527284756e-05
5.0151181814339e-05
0.00071052497940116
0.00034454828627851
0.00025240770342319
0.00023089913478573
0.00022934945503223
0.00023391782936999
0.00020944642540784
0.00018219636892427
0.00016102348334416
0.00014426130200475
0.00013069060422494
0.00011948623598716
0.00011008180607517
0.00010207766321161
9.5184102184418e-05
8.9186046922906e-05
8.3920495053703e-05
7.9261659951441e-05
7.5110918080261e-05
7.1389801135027e-05
6.8034994650032e-05
6.4994775612107e-05
6.222645846705e-05
5.9694535718911e-05
5.7369268155774e-05
5.5225585600028e-05
5.3242226581325e-05
5.1401042299991e-05
4.9686416874854e-05
4.8084790500053e-05
4.6584237487837e-05
4.5174057891929e-05
4.3844343207016e-05
4.2585438570675e-05
4.1387048800971e-05
4.0232747168689e-05
0.00041730242897791
0.00029406343224333
0.00025346523514514
0.0002379181046624
0.00019033183129961
0.0001586795310892
0.00013572708777781
0.00011842960902881
0.00010498620519637
9.4282761824022e-05
8.5584876033819e-05
7.8390715610729e-05
7.2348869788175e-05
6.7207507953978e-05
6.2782158634067e-05
5.8934948803293e-05
5.5560929257888e-05
5.2578859396308e-05
4.9924686072305e-05
4.7546775860002e-05
4.540287565971e-05
4.3458296852726e-05
4.1684639270148e-05
4.0058677563501e-05
3.8561258754769e-05
3.7176528554258e-05
3.589132543536e-05
3.4694486765754e-05
3.3576573082598e-05
3.2529449727506e-05
3.1545982797162e-05
3.0619884490884e-05
2.9745372998083e-05
2.8917649214542e-05
2.8135011892667e-05
2.739927056738e-05
0.00023981532722991
0.00024224865202799
0.00015203313658812
0.0001106789422997
8.7066100353632e-05
7.1818521469968e-05
6.119167486697e-05
5.3379019809228e-05
4.7405397300231e-05
4.2698512445479e-05
3.8900562893385e-05
3.5776141166666e-05
3.3164050434114e-05
3.0950352762738e-05
2.9052455126921e-05
2.7409137375394e-05
2.5973961151674e-05
2.4710539043928e-05
2.3586330022631e-05
2.2573470465877e-05
2.1651251290266e-05
2.0805023758993e-05
2.0024212284857e-05
1.9300998988075e-05
1.8629369261701e-05
1.8004476827957e-05
1.7421884183365e-05
1.6878380558042e-05
1.6371093759011e-05
1.5897482152291e-05
1.5454968561736e-05
1.5039776209099e-05
1.4645958807069e-05
1.4268603102199e-05
1.3909348813539e-05
1.3581720458551e-05
0.00014442222128207
4.7212161186082e-05
2.8708474329389e-05
2.0819436996567e-05
1.6472181667134e-05
1.374319445856e-05
1.1886833156443e-05
1.0552916907833e-05
9.5552488897672e-06
8.7866027628688e-06
8.1813083282279e-06
7.6977198272385e-06
7.3082568380158e-06
6.9943426557786e-06
6.7433454986692e-06
6.5464235118222e-06
6.3957584011815e-06
6.2782626710098e-06
6.1724980459972e-06
6.0669682390768e-06
5.9606794013252e-06
5.8570730040218e-06
5.7598088433904e-06
5.6714038416919e-06
5.5932582219349e-06
5.5260732747275e-06
5.4700283742124e-06
5.4249965545149e-06
5.3913480913072e-06
5.368833228334e-06
5.3564859515923e-06
5.3535267765275e-06
5.3591314066485e-06
5.3718138268179e-06
5.3871408864869e-06
5.3969666495826e-06
3.6369525012512e-07
5.4284962220593e-07
6.9845822711554e-07
8.1987022942323e-07
9.0665293491085e-07
9.6388080847386e-07
9.982834554245e-07
1.0161626386159e-06
1.0225332979969e-06
1.0215567624022e-06
1.0156410800209e-06
1.00668419648e-06
9.9599154540921e-07
9.8444454064793e-07
9.7263512709347e-07
9.6098493154514e-07
9.497687494334e-07
9.3917100443576e-07
9.2938043356939e-07
9.2063020176942e-07
9.127194613772e-07
9.0551838084792e-07
8.9896125907789e-07
8.9301069208821e-07
8.8763599334536e-07
8.8280579443871e-07
8.7848592739945e-07
8.7463831191636e-07
8.7121747899847e-07
8.6816504790289e-07
8.6540236504418e-07
8.627951063719e-07
8.6012762933413e-07
8.5689305467315e-07
8.5114424474452e-07
8.3329482044625e-07
4.5048097394043e-05
2.4917227861234e-05
1.4045032463808e-05
9.220518699651e-06
6.721984998808e-06
5.0408440647203e-06
3.8743543908452e-06
3.0120989538078e-06
2.4279719823801e-06
2.1685402215292e-06
2.2378739139949e-06
2.7844538972535e-06
3.2962863935127e-06
3.801966637989e-06
4.2243940949472e-06
4.5541688823216e-06
4.8470976856455e-06
5.0862543014955e-06
5.2992750252075e-06
5.5233848662432e-06
5.7193291290858e-06
5.884691938249e-06
5.8983751678911e-06
5.6484114104867e-06
5.4201659890216e-06
5.2080457718658e-06
5.0154458180557e-06
4.842942121926e-06
4.6727081925606e-06
4.5292200211503e-06
4.3853196156773e-06
4.2593778846599e-06
4.1376346652549e-06
4.0255074165594e-06
3.9211269930045e-06
3.8217119779506e-06
3.7303458748742e-06
3.6430270230033e-06
3.5614596358891e-06
3.4852841381819e-06
3.4109753423437e-06
3.3439146408611e-06
3.2757334083388e-06
3.2160608946961e-06
3.153813387476e-06
3.0999980190494e-06
3.0439856977988e-06
2.9945714344862e-06
2.9451142790522e-06
2.898654857733e-06
2.8539305270379e-06
2.810783051178e-06
2.7696080051261e-06
2.7299808435434e-06
2.6919058730379e-06
2.6552662345314e-06
2.6200356207844e-06
2.5861275487909e-06
2.553465014226e-06
2.5219358684954e-06
2.4914321168929e-06
2.4618656965577e-06
2.4331892269742e-06
2.4053794725206e-06
2.3784174071135e-06
2.4094522690311e-06
0.00018375295339409
0.00048240127348912
0.0004289531927346
0.00038668589170846
0.00035648688088626
0.00033374316438913
0.00031584037147785
0.00030136672937615
0.00028942435829869
0.00027936901347212
0.00027076241337343
0.00026332583674211
0.00025686404947667
0.00025120867279027
0.00024619837586162
0.00024168161394235
0.00023752921287271
0.00023365175868178
0.00022955111716639
0.00022620244333451
0.00022321060857995
0.00022069954137177
0.00021878693400949
0.00021753454475566
0.00021692377758776
0.00021686347336694
0.00021722954441157
0.00021791779455668
0.00021888583448354
0.00022017090412188
0.00022186873730872
0.00022406230019907
0.00022669680822521
0.00022941571970409
0.00023149173534313
0.00023178220765129
0.00022876460660208
0.00022079162894756
0.0002023187678985
0.00018038890839036
0.00015325725889868
0.00012461397756622
0.00010105143748609
8.4918821320238e-05
7.4893687236353e-05
6.9229653542174e-05
6.6337627665235e-05
6.489622952512e-05
6.4169306763426e-05
6.3824651214434e-05
6.3661565726686e-05
6.3568600184266e-05
6.3499670504087e-05
6.3434420452068e-05
6.3374917344887e-05
6.3316965518148e-05
6.3288902604507e-05
6.3304377031142e-05
6.3373108323067e-05
6.3497406895415e-05
6.3668623350061e-05
6.3869019394743e-05
6.4075545683701e-05
6.4258434249097e-05
6.4398481449454e-05
6.4496317319364e-05
6.4556390830853e-05
6.4592237759408e-05
6.4622561018388e-05
6.4667994026985e-05
6.473216084043e-05
6.4793975894746e-05
6.4830874744503e-05
6.481421813823e-05
3.4807766350603e-05
1.9565410884265e-05
1.2190264866034e-05
8.6081333733059e-06
6.3369742794692e-06
4.839555614952e-06
3.740855745489e-06
2.9345199960315e-06
2.3507217348649e-06
1.9578518908819e-06
1.7269458691401e-06
1.681240603855e-06
1.7523200462182e-06
1.8870001373403e-06
2.0956614469774e-06
2.3591210799354e-06
2.6755611717131e-06
3.042629819487e-06
3.4234624673304e-06
3.8133752172027e-06
4.2104386584631e-06
4.6097512416833e-06
5.0056150297338e-06
5.4002760137324e-06
5.276507421089e-06
5.0712810498531e-06
4.884204050973e-06
4.7135133672232e-06
4.5569667149674e-06
4.4123512038173e-06
4.2795600652479e-06
4.1559167908515e-06
4.0417889735827e-06
3.9345668588503e-06
3.8349302713453e-06
3.7409793459989e-06
3.6533980404759e-06
3.5706302823436e-06
3.4932036841023e-06
3.4196049213527e-06
3.3504426617012e-06
3.2844010744467e-06
3.2220803995361e-06
3.1624702918083e-06
3.1060302505353e-06
3.0520904660211e-06
3.0007878073025e-06
2.9518392071389e-06
2.9050535900074e-06
2.860375906218e-06
2.8174898821389e-06
2.7763284787316e-06
2.7366775746333e-06
2.6985857105374e-06
2.6619265928456e-06
2.6266680468979e-06
2.5927374935351e-06
2.5600604648696e-06
2.5285337322339e-06
2.4980575541297e-06
2.4685407844433e-06
2.4399169124683e-06
2.4121395253585e-06
2.3851818409444e-06
2.3590269919489e-06
4.6337109595308e-06
0.00034249603928828
0.00047005948599784
0.00041645839131507
0.00037781348331463
0.00034989734294047
0.00032861686127501
0.00031173428334005
0.00029800568819941
0.00028661247385696
0.0002769710789497
0.00026869321026172
0.00026152896456569
0.00025529362046411
0.00024982163297341
0.00024495406554151
0.00024054427250039
0.00023647175083083
0.00023265939754393
0.00022951135158488
0.00022616723552928
0.00022317832868074
0.00022067006722264
0.00021875966583146
0.00021750857796862
0.0002168980450603
0.00021683693212204
0.0002172013456731
0.00021788732530926
0.00021885275810921
0.00022013467148039
0.00022182869351327
0.0002240179498131
0.00022664841473075
0.00022936517632811
0.00023144286143463
0.00023174143618451
0.00022874048808289
0.00022079449469145
0.00020236760253791
0.0001804747842955
0.0001533642503968
0.00012469227848367
0.00010105002120091
8.4828726299549e-05
7.4731007710276e-05
6.9013836929091e-05
6.6083244610312e-05
6.4613783077496e-05
6.386392593028e-05
6.3499270505126e-05
6.3321000645286e-05
6.3217864168433e-05
6.3143816588301e-05
6.3078423944649e-05
6.3023232822087e-05
6.2976028688244e-05
6.2964602922944e-05
6.300094240803e-05
6.3093377900514e-05
6.3243377706829e-05
6.3440873497563e-05
6.366809271206e-05
6.3901386135674e-05
6.4110248309056e-05
6.4275316991131e-05
6.4397526799497e-05
6.4481084384712e-05
6.4539193804638e-05
6.4590197023703e-05
6.4653138075716e-05
6.4731552024973e-05
6.4803587395966e-05
6.4846489565073e-05
6.4832882423402e-05
2.547490122194e-05
1.3284680584464e-05
8.5800344454745e-06
6.3781609621948e-06
4.765576857574e-06
3.7135341243052e-06
2.9552602468093e-06
2.4273309379084e-06
2.0626659991145e-06
1.8311259422886e-06
1.7407135442701e-06
1.7198003159275e-06
1.7783167610724e-06
1.8970629356971e-06
2.0547813150229e-06
2.246662714707e-06
2.4741831038547e-06
2.7191579536221e-06
2.9558421364306e-06
3.1981894535522e-06
3.4597942867142e-06
3.7295448863112e-06
4.0077686068077e-06
4.3050217100521e-06
4.6181037008732e-06
4.9393722609693e-06
4.8119260843753e-06
4.6405636972364e-06
4.4841999528672e-06
4.3404971244142e-06
4.2081904339615e-06
4.0862081128918e-06
3.9733736465844e-06
3.8689295808338e-06
3.7712779457915e-06
3.6806514992034e-06
3.5954299183022e-06
3.5157098403629e-06
3.4403978194842e-06
3.3695284018328e-06
3.3023091842503e-06
3.2386740780606e-06
3.1781787318716e-06
3.1206566529961e-06
3.0659750121434e-06
3.0137894244073e-06
2.9642164403199e-06
2.9167496773272e-06
2.8715822545892e-06
2.8282146217086e-06
2.7867668856472e-06
2.7468773223117e-06
2.708498673097e-06
2.6715222505021e-06
2.6359325617766e-06
2.601709945263e-06
2.5687698910997e-06
2.5370340593905e-06
2.5063963841863e-06
2.4767639626502e-06
2.4480535032912e-06
2.420202314464e-06
2.3931642914843e-06
2.3669157507996e-06
2.3414355432264e-06
5.0441889709692e-06
0.00035161825577391
0.00046933245690129
0.00041573815293584
0.00037720539249165
0.00034938964448726
0.00032821080974041
0.00031141460831641
0.00029774640881657
0.00028639267094243
0.00027677977604997
0.00026852503837121
0.00026137976818287
0.00025515934565378
0.00024969890133956
0.00024484065321593
0.00024043912528853
0.00023637466699286
0.00023257044993427
0.00022943880588872
0.00022610362511131
0.00022312336013181
0.00022062291580407
0.00021871847542295
0.00021747096903799
0.00021686141695287
0.0002167989706053
0.00021716044220607
0.00021784266321793
0.00021880432406412
0.000220082227721
0.00022177198151196
0.0002239572001136
0.00022658552884694
0.00022930545681879
0.0002313956080989
0.00023172158550134
0.00022876708808888
0.00022089017480597
0.00020257695233047
0.00018077760183217
0.00015372806396908
0.00012500333652205
0.00010118205476632
8.4748172774553e-05
7.4459847374647e-05
6.8595653903961e-05
6.5558301135699e-05
6.4012624731971e-05
6.3204779744782e-05
6.2791080323927e-05
6.2577769843036e-05
6.2452172267318e-05
6.236754476289e-05
6.230335137125e-05
6.2260284695597e-05
6.2239902861412e-05
6.2267520034952e-05
6.2351584732024e-05
6.249938012317e-05
6.2708497201295e-05
6.2966624035804e-05
6.3254848594106e-05
6.3548214492423e-05
6.3814471309169e-05
6.4035023317018e-05
6.420787275628e-05
6.4339964102322e-05
6.4443537164647e-05
6.453656291411e-05
6.4636054857884e-05
6.4744650397014e-05
6.4839975495365e-05
6.4898408303274e-05
6.4896433607286e-05
1.3390864877053e-05
7.6644227181402e-06
5.183317060992e-06
3.7957384697177e-06
3.0463590980074e-06
2.5595690165279e-06
2.252261073315e-06
2.0583920775317e-06
1.9458100624581e-06
1.9156235932713e-06
1.8982624254538e-06
1.9098870934149e-06
1.9552629133789e-06
2.0338468571353e-06
2.15267250076e-06
2.3139036313103e-06
2.5001806478173e-06
2.7048627359812e-06
2.9118220792978e-06
3.1064724609512e-06
3.2881774318794e-06
3.4856733632961e-06
3.6936642264694e-06
3.9029357126403e-06
4.1237421543046e-06
4.3689111472037e-06
4.6203752967423e-06
4.5788905005295e-06
4.4232705165108e-06
4.2803986404401e-06
4.1483328221589e-06
4.0264767283686e-06
3.9136778992843e-06
3.8091474622908e-06
3.7116106162042e-06
3.6207101358944e-06
3.5358353783578e-06
3.4566565489887e-06
3.3824206551329e-06
3.3125399552634e-06
3.2466577284476e-06
3.1846680127616e-06
3.1259044612788e-06
3.0704664298037e-06
3.0177101695157e-06
2.9675362952262e-06
2.9196319700061e-06
2.8739434199955e-06
2.8302940376423e-06
2.7885143432594e-06
2.7485221394103e-06
2.7100567234356e-06
2.6730600137739e-06
2.6373649903481e-06
2.6030170701666e-06
2.5699704413104e-06
2.538165643679e-06
2.5075145900262e-06
2.4779164854545e-06
2.4492775724913e-06
2.4215151551648e-06
2.3945716023543e-06
2.368406673772e-06
2.3429968833266e-06
2.3183191680957e-06
5.6686527538137e-06
0.00036299751140681
0.00046816360932594
0.00041475675011338
0.0003763797074989
0.00034868931793581
0.00032764033491717
0.00031095877265344
0.00029737383164506
0.00028607627815338
0.00027650452707034
0.00026828310325313
0.00026116504496015
0.00025496601463634
0.00024952216663185
0.0002446773798781
0.00024028786457713
0.00023623526857638
0.00023244354038973
0.00022933252915779
0.00022601090399035
0.00022304414482108
0.00022055594335135
0.0002186609250682
0.00021741909066899
0.00021681115160804
0.0002167467927267
0.0002171040213771
0.00021778100694827
0.00021873742301622
0.00022001015319562
0.0002216947324691
0.00022387539977901
0.00022650221693208
0.00022922888413426
0.00023134009636907
0.00023170968306935
0.00022882792770461
0.00022105765292976
0.00020291964866141
0.00018126601197855
0.00015431753500236
0.00012552757667978
0.00010143710473297
8.4670519765371e-05
7.408013102529e-05
6.7981169625738e-05
6.4775399667759e-05
6.3109895425454e-05
6.2213461900555e-05
6.1726941178551e-05
6.1461722997439e-05
6.130460752578e-05
6.1207429025837e-05
6.1149449616398e-05
6.1130306658215e-05
6.1156094851552e-05
6.124650343748e-05
6.1408498777271e-05
6.1644758441443e-05
6.1948215470046e-05
6.2303016434574e-05
6.2687599708023e-05
6.3073800840094e-05
6.3428166734193e-05
6.3732808432273e-05
6.3982693518869e-05
6.418353704766e-05
6.4351114970345e-05
6.4502182769481e-05
6.4652229355e-05
6.4801944519549e-05
6.4930056343927e-05
6.5009218900216e-05
6.5023803934407e-05
5.3664653120899e-06
4.3506256337416e-06
3.6344137848997e-06
3.281148743203e-06
2.9626226241038e-06
2.6930747073066e-06
2.5034079005835e-06
2.3926056007909e-06
2.3387976012976e-06
2.248895146086e-06
2.2273116011848e-06
2.2324473513708e-06
2.2604618630006e-06
2.3162955556116e-06
2.3901231060139e-06
2.4922760059826e-06
2.6341217033e-06
2.7898589544961e-06
2.9481188444113e-06
3.113636804635e-06
3.2866792393719e-06
3.4480181641557e-06
3.6137474760479e-06
3.7930670725938e-06
3.9748753418153e-06
4.1555117685128e-06
4.3535964198767e-06
4.5198856224914e-06
4.3676496912765e-06
4.2268659485546e-06
4.096453425403e-06
3.9755707452242e-06
3.8635196714603e-06
3.7592657664741e-06
3.6621882812252e-06
3.5714096579774e-06
3.4866986351329e-06
3.4074966526251e-06
3.3334121373705e-06
3.2637302685979e-06
3.1981592678909e-06
3.1362577351076e-06
3.077755086214e-06
3.0223779474813e-06
2.9698841026348e-06
2.9201776903645e-06
2.8729555147705e-06
2.828067139474e-06
2.7852370764667e-06
2.7445596971033e-06
2.7057124176515e-06
2.6685437232314e-06
2.6328894694344e-06
2.5985477658454e-06
2.5654617966275e-06
2.5336007055335e-06
2.5029425995946e-06
2.4734028629343e-06
2.4448861481108e-06
2.4172876088893e-06
2.390526192053e-06
2.3645430545906e-06
2.3393086606809e-06
2.3148064858172e-06
2.2909850450033e-06
6.582230190873e-06
0.00037660283327739
0.00046671107803674
0.00041356325058053
0.00037537219154672
0.00034782231995397
0.00032692021622591
0.00031037346761945
0.00029689088499584
0.00028566515006243
0.00027614691695005
0.00026796872432969
0.00026088579233219
0.00025471435278035
0.00024929197031553
0.00024446467701762
0.00024009086346206
0.0002360538975673
0.00023227880195982
0.00022919223571703
0.00022588866815959
0.00022294001489694
0.00022046819512119
0.00021858588724482
0.00021735169755021
0.00021674593297934
0.00021667905004802
0.00021703072174115
0.00021770093017227
0.00021865055766715
0.00021991677055107
0.00022159497941796
0.00022377016784451
0.00022639560592649
0.00022913183125683
0.00023127160267431
0.00023170005505744
0.00022891607996973
0.00022128728418929
0.00020338492965406
0.00018192885297525
0.00015512309252098
0.0001262664217048
0.00010182403256943
8.4608502418033e-05
7.3603656927619e-05
6.7181765902702e-05
6.3745925167722e-05
6.1918963041281e-05
6.0903735377102e-05
6.0324738860376e-05
5.99933274668e-05
5.979942880951e-05
5.9692371389936e-05
5.9651249753705e-05
5.9674690747907e-05
5.9770929768867e-05
5.9954953452175e-05
6.023002130913e-05
6.0593405362933e-05
6.103151568845e-05
6.1523063086004e-05
6.2042475124415e-05
6.2556193976673e-05
6.3029883416997e-05
6.3444820450145e-05
6.3792737135111e-05
6.4079444955263e-05
6.4322014970085e-05
6.454118156939e-05
6.4749965559539e-05
6.4946775567635e-05
6.5111472588818e-05
6.5211970415377e-05
6.5245010296503e-05
2.4463815561482e-06
2.9476219736039e-06
3.6258088617301e-06
4.2912379626724e-06
5.0125437531338e-06
4.894832037991e-06
4.1776502322016e-06
3.5856441072794e-06
3.1711976065493e-06
2.9382259754257e-06
2.7921328741675e-06
2.7136662672883e-06
2.6823072890243e-06
2.6872009905968e-06
2.7234290596852e-06
2.7841438745914e-06
2.863181210356e-06
2.9577142240496e-06
3.0680881794808e-06
3.1905314174256e-06
3.3247806559882e-06
3.4755131988377e-06
3.6262320345399e-06
3.7772664096067e-06
3.9388451224973e-06
4.1034323373179e-06
4.265908790222e-06
4.435998485546e-06
4.3131784532765e-06
4.1760829185251e-06
4.0486285605205e-06
3.9297618603909e-06
3.8192738108705e-06
3.7162560889963e-06
3.6199479103831e-06
3.5298061998689e-06
3.4454855496556e-06
3.366480131968e-06
3.2924000790562e-06
3.2227780855082e-06
3.1572405021757e-06
3.0953126850254e-06
3.0368223006418e-06
2.9814549353028e-06
2.9290805562447e-06
2.8794198082598e-06
2.8323321640018e-06
2.7876160700286e-06
2.7450865899896e-06
2.7046181549502e-06
2.6659886281014e-06
2.6290848604358e-06
2.593681992162e-06
2.5597218460302e-06
2.5271389892796e-06
2.4958919476081e-06
2.4658881368956e-06
2.4370621580843e-06
2.4093464321491e-06
2.3826058758531e-06
2.3567687530051e-06
2.331729314329e-06
2.3074038319181e-06
2.2837632720678e-06
2.2607467532789e-06
7.722893655398e-06
0.00039380723153335
0.00046508599067336
0.00041217307464608
0.00037419953000788
0.00034680732580711
0.00032606371980217
0.00030966571278018
0.00029630104008547
0.00028516153942248
0.00027570881936242
0.00026758345149418
0.00026054320031387
0.00025440525177913
0.00024900900505383
0.00024420312219552
0.000239848640056
0.0002358310284039
0.00023207658312613
0.00022901813149768
0.00022573703192465
0.00022281089947174
0.00022035942559317
0.00021849294416167
0.00021726825893583
0.00021666516165688
0.00021659511416163
0.00021693990542852
0.00021760177056717
0.00021854306728243
0.00021980135393285
0.00022147187728913
0.00022364049488506
0.00022626438440265
0.00022901251575194
0.00023118769693936
0.00023168950818036
0.00022902776967023
0.00022157394634374
0.00020396726288705
0.00018276009732135
0.000156141295058
0.00012722796625723
0.00010236196493417
8.4585748816828e-05
7.3051798012588e-05
6.6216639286262e-05
6.2487083887157e-05
6.0457410502349e-05
5.9293380321485e-05
5.8606259104749e-05
5.8199166129206e-05
5.7967886580983e-05
5.7860311360393e-05
5.7854174573662e-05
5.7946884978681e-05
5.8147327089699e-05
5.8463598153019e-05
5.8895148781297e-05
5.9432228590735e-05
6.0051860356414e-05
6.072551886705e-05
6.142071978225e-05
6.2096969763191e-05
6.271832218138e-05
6.3262167634889e-05
6.3721320796544e-05
6.4103976522038e-05
6.4428505618917e-05
6.4718040916234e-05
6.4985932151943e-05
6.5229527834628e-05
6.5428260318337e-05
6.5546371376915e-05
6.5596596983104e-05
9.8450582503933e-07
1.9088056956929e-06
2.2149943179229e-06
2.7772760821954e-06
3.3667419157765e-06
4.0302250971172e-06
4.8406618474802e-06
5.6651799463059e-06
4.7920039783712e-06
4.1438931516622e-06
3.7123660945589e-06
3.4494015573082e-06
3.2815497121844e-06
3.1832723850238e-06
3.1383062135689e-06
3.1289308205977e-06
3.1435150705796e-06
3.1805821951562e-06
3.2381429583758e-06
3.312446580866e-06
3.4051542555369e-06
3.5134183466983e-06
3.6384367896479e-06
3.7768022031183e-06
3.9083407516965e-06
4.0631230806592e-06
4.2180071275192e-06
4.3763126956519e-06
4.2940284675546e-06
4.1583799554428e-06
4.0322192755633e-06
3.9145644774032e-06
3.8044791926433e-06
3.7015131089584e-06
3.6052072100936e-06
3.5149445883139e-06
3.4300614322484e-06
3.3504063002156e-06
3.2755697581873e-06
3.2051484473182e-06
3.1387182509685e-06
3.0760022083502e-06
3.0167062754667e-06
2.9605360819343e-06
2.9073452998408e-06
2.8569467847091e-06
2.8091806667835e-06
2.7637981674404e-06
2.7206570419965e-06
2.6796400427781e-06
2.6405797395055e-06
2.6033095595389e-06
2.5676117909268e-06
2.5334202683734e-06
2.5006680167685e-06
2.4693124004946e-06
2.4392635333767e-06
2.4104301098761e-06
2.382725938286e-06
2.3560459747441e-06
2.330296516155e-06
2.3053866717418e-06
2.2812690640299e-06
2.2579310428799e-06
2.235323806906e-06
2.5926988857855e-06
0.0002540339178585
0.0004771841851091
0.00042220388267298
0.00038109766919839
0.00035170969313994
0.0003297478602847
0.00031257942737945
0.00029868523451828
0.00028715492451417
0.00027740186908867
0.00026903624092166
0.00026179609945265
0.00025548972054016
0.00024995500918211
0.00024504145867682
0.00024060929704522
0.00023653908730146
0.00023274705048256
0.0002288106385941
0.00022555634798712
0.00022265699348329
0.00022022966411115
0.0002183819599563
0.00021716852373915
0.00021656851292757
0.00021649462712065
0.0002168312070847
0.00021748316948696
0.00021841461611749
0.00021966356467371
0.0002213250537696
0.00022348591722553
0.00022610786584741
0.00022886982515377
0.00023108661157624
0.00023167530375685
0.00022915997539371
0.00022191648554873
0.00020503487238092
0.00018428440441152
0.00015802471546998
0.00012905776110913
0.00010345432845867
8.4659845929564e-05
7.2133614977345e-05
6.451807655789e-05
6.0232181606683e-05
5.7825689302258e-05
5.6391882647948e-05
5.5513640648678e-05
5.4988127018186e-05
5.470824599255e-05
5.4625484558372e-05
5.4717137849894e-05
5.4975876970137e-05
5.5406516239292e-05
5.6009145017403e-05
5.6769484169524e-05
5.7663919573697e-05
5.8651477929361e-05
5.9682864010212e-05
6.0701210312921e-05
6.1662814991839e-05
6.2534075175053e-05
6.3295251822444e-05
6.3936305711985e-05
6.4467918313205e-05
6.491381370088e-05
6.5302149549061e-05
6.564872447008e-05
6.5950872537269e-05
6.6186141703499e-05
6.6322612574914e-05
6.6391830014386e-05
4.9070488466918e-07
1.260186122095e-06
1.5016803489635e-06
1.7748949967209e-06
2.1379626511261e-06
2.6183913452202e-06
3.1635733424296e-06
3.8113290272148e-06
4.5722959646067e-06
5.2662228820215e-06
5.7721201310405e-06
5.2494393318573e-06
4.7113217586931e-06
4.3421576822422e-06
4.099281952159e-06
3.9451780808096e-06
3.8389586225563e-06
3.7746563862483e-06
3.7478430503684e-06
3.7497593248559e-06
3.7749037263749e-06
3.8218721220393e-06
3.886724379654e-06
3.9685854094706e-06
4.0727645735933e-06
4.1922261113804e-06
4.3005429696406e-06
4.2988707418348e-06
4.1606789151148e-06
4.0322668354696e-06
3.9133144643955e-06
3.8025996835747e-06
3.6996716403356e-06
3.6032369989843e-06
3.5126044938302e-06
3.4269941542686e-06
3.3463325923677e-06
3.2701861029157e-06
3.198303617709e-06
3.1302604008953e-06
3.0658941351114e-06
3.0048926331943e-06
2.947001774608e-06
2.8919873578742e-06
2.83972009771e-06
2.7900886297068e-06
2.7428801202924e-06
2.6979345662073e-06
2.6551053271912e-06
2.6143362854281e-06
2.5754712836294e-06
2.5383457915821e-06
2.5028133401764e-06
2.4687854489488e-06
2.4362226189386e-06
2.405062060307e-06
2.3752325648551e-06
2.3466350869508e-06
2.3191789774601e-06
2.292774838622e-06
2.2673352370569e-06
2.2427894724149e-06
2.2190872661699e-06
2.1962008191695e-06
2.1741017120909e-06
1.3459586492823e-05
0.00044378982645366
0.00045735483728354
0.00040619146834936
0.00036950573048901
0.00034288961116833
0.00032274510526058
0.00030686588246677
0.00029392839712095
0.00028312288912947
0.00027393322171909
0.00026601970386975
0.00025914894784051
0.00025314380628561
0.00024785197318306
0.00024313269581821
0.00023885741475506
0.00023491977406374
0.00023125075231868
0.00022829777451179
0.00022510981048675
0.00022227630733025
0.00021990800906753
0.00021810597380517
0.00021691966790845
0.00021632671460358
0.00021624297183494
0.00021655912906074
0.00021718670038563
0.00021809403413447
0.00021932018487185
0.00022095953154019
0.00022310101017963
0.00022571702068614
0.00022851062965081
0.00023082601411187
0.00023162308488957
0.00022946189430814
0.00022273826252565
0.00020680098959351
0.00018685550463457
0.00016126315902288
0.00013238204906179
0.0001057156701637
8.5265906552074e-05
7.102580538548e-05
6.1984734265333e-05
5.6692694930003e-05
5.3626112174819e-05
5.1751404087104e-05
5.0595999227425e-05
4.9945642400742e-05
4.9685427298831e-05
4.9775040826422e-05
5.0187151786197e-05
5.0899925367196e-05
5.1894420111643e-05
5.3144595867927e-05
5.4606180712332e-05
5.6203484261688e-05
5.7856972617985e-05
5.9491323857786e-05
6.104243745037e-05
6.2452584069288e-05
6.3684990112788e-05
6.4722594399578e-05
6.5567545576669e-05
6.6238040820327e-05
6.6774822079601e-05
6.7217069246656e-05
6.7586898058471e-05
6.7886832865617e-05
6.8096917427659e-05
6.8209031983087e-05
6.8274227296261e-05
5.6185842208768e-07
9.6203857136062e-07
1.1470848543933e-06
1.3103427709055e-06
1.5474621483498e-06
1.8501134186902e-06
2.2376096338018e-06
2.7004873288502e-06
3.2522909978314e-06
3.9016603237906e-06
4.5652621398705e-06
5.0769291860185e-06
5.4041926464717e-06
5.4847857173496e-06
5.2592957369207e-06
4.8805727651862e-06
4.6340205976924e-06
4.4602817727396e-06
4.3408613448724e-06
4.2618835189193e-06
4.2218637787027e-06
4.2121847753901e-06
4.2274104898761e-06
4.2633380330093e-06
4.318127424753e-06
4.3896809371705e-06
4.3292654887594e-06
4.1987318586183e-06
4.0735895935438e-06
3.9538885469758e-06
3.8400865086601e-06
3.7329706660555e-06
3.6321003836243e-06
3.5375875624817e-06
3.4486720300914e-06
3.365488066197e-06
3.28773728317e-06
3.2146814885551e-06
3.1454563161402e-06
3.0797345222212e-06
3.0173425706946e-06
2.9579629832403e-06
2.9013876396245e-06
2.8474148422133e-06
2.7960722272103e-06
2.7471245100311e-06
2.7004442001956e-06
2.655833423572e-06
2.6132371953724e-06
2.5725741526066e-06
2.533712803304e-06
2.4965240022752e-06
2.4608752109258e-06
2.4267188916036e-06
2.3939684509732e-06
2.3625753968376e-06
2.3324718653273e-06
2.303591365233e-06
2.2758700036459e-06
2.2492033534803e-06
2.2235150745632e-06
2.1987401818652e-06
2.1748296359095e-06
2.1517658837496e-06
2.1288003645727e-06
2.4083753379796e-05
0.00046666743035859
0.00044970514179671
0.00040048362281814
0.00036524013949505
0.00033949364633743
0.00031992194667144
0.00030447322702073
0.00029188047896155
0.00028135317926428
0.00027238808790542
0.00026465541792444
0.00025792832354123
0.00025203581278458
0.00024683345957897
0.00024218961914068
0.00023798437673211
0.00023411797014981
0.00023052477650819
0.0002276595579774
0.00022455391101778
0.00022180160722509
0.00021950549887011
0.00021775865651695
0.00021660446424283
0.00021601896214141
0.000215922118632
0.00021621253965935
0.00021680985009471
0.00021768752003829
0.00021888569147168
0.00022049761117783
0.00022261421970466
0.00022522021494453
0.00022804765377456
0.00023047675181475
0.00023152087363392
0.00022978681646806
0.00022370228322893
0.00020891198377449
0.00018999482152802
0.00016531593475291
0.00013678550665746
0.00010914271878293
8.6810282091067e-05
7.0476447506901e-05
5.9500053758357e-05
5.2853300661148e-05
4.8948366215846e-05
4.6588607468084e-05
4.5207242497969e-05
4.4564958475216e-05
4.4524026885073e-05
4.5077129905614e-05
4.6149423013718e-05
4.7675332291768e-05
4.9591534114223e-05
5.1810606882353e-05
5.4224754330955e-05
5.6718112845332e-05
5.9167156878355e-05