/*--------------------------------*- C++ -*----------------------------------*\
| =========                 |                                                 |
| \\      /  F ield         | OpenFOAM: The Open Source CFD Toolbox           |
|  \\    /   O peration     | Version:  2312                                  |
|   \\  /    A nd           | Website:  www.openfoam.com                      |
|    \\/     M anipulation  |                                                 |
\*---------------------------------------------------------------------------*/
FoamFile
{
    version     2.0;
    format      ascii;
    arch        "LSB;label=32;scalar=64";
    class       volScalarField;
    location    "0.0002";
    object      omega;
}
// * * * * * * * * * * * * * * * * * * * * * * * * * * * * * * * * * * * * * //

dimensions      [0 0 -1 0 0 0 0];

internalField   nonuniform List<scalar> 
109340
(
9612.5249357631
9900.378526426
10701.292606265
12429.911506885
15313.871138627
19240.97076051
23813.011778994
28423.622004949
32539.035493763
36482.047000423
40330.229537819
44104.826675512
47812.178252655
51453.482868872
55027.962148068
58534.112699938
61970.252581914
65334.766620253
68626.236946126
71843.489996983
74985.610038643
78051.937758982
81042.070707899
83955.848974065
86793.315677267
89554.645754616
92240.036334576
94849.558436684
97382.959401392
99839.372855858
102216.86425675
104511.62989038
106716.36179115
108816.21875095
110777.68896306
112516.29748408
9719.1086828079
10817.528106177
13664.059035034
17963.337364344
22965.83521664
28030.295297605
32868.360254748
37697.916151701
42531.16292032
47308.936988053
52013.552933517
56636.236692975
61170.765019886
65612.09590233
69956.069384971
74199.320022608
78339.245679604
82373.990451458
86302.433718571
90124.20324114
93839.730650988
97450.221116609
100957.54794458
104364.0622281
107672.37139975
110885.09744118
114004.62973409
117032.87444198
119970.94600218
122818.73486201
125574.17407534
128231.86208564
130779.80501287
133190.20543493
135392.53605028
137207.86118771
9961.6398978446
13962.45163177
21388.98461225
28991.655619231
36201.408489795
43344.753914296
50545.304451836
57736.616291634
64868.117227765
71893.820542569
78780.077512395
85504.137064793
92050.575270583
98408.9781356
104572.62564213
110537.70448656
116302.81977722
121868.86669211
127239.44626758
132421.63860956
137426.04749092
142265.26413264
146952.39341024
151499.91030425
155918.96942527
160219.07248118
164407.8862698
168491.04711122
172471.91675732
176351.10044187
180125.29864367
183785.05428182
187308.7394067
190641.39630338
193628.96911327
195850.83060677
11922.792815201
28461.123494988
45339.255632682
62194.997029652
78863.24174859
95254.456498635
111259.2693867
126793.24084738
141788.36085508
156193.00229331
169971.01568275
183101.99430887
195580.00394985
207411.12191485
218611.09222048
229203.26691739
239218.95689818
248708.99874356
257767.22925608
266517.47485908
275066.21629646
283487.54743462
291828.46224873
300116.31288647
308364.80126188
316578.25080872
324754.16946546
332885.20419472
340958.89743262
348957.93377679
356862.2463997
364670.50726506
372409.25880313
380000.72065122
386911.05445876
391255.287072
46687.836560825
146229.96347256
240722.21424566
331296.77474085
416650.75234196
495478.83455622
566977.61228689
630873.02126871
687354.13001513
736899.16401235
780145.25488647
817776.18969566
850461.50270597
878816.15035788
903380.73209785
924655.16739734
943347.00597315
961374.65735944
981860.96549493
1006287.8562805
1034422.4329213
1065330.1114024
1098005.2487065
1131605.5698596
1165470.1549317
1199063.8728846
1231958.8801287
1263804.3385475
1294297.3457499
1323135.7313488
1350026.4730336
1374561.3977879
1396202.6881529
1413929.0288526
1425181.9802082
1418596.187133
4713518.7716019
5536057.786324
6151134.8849991
6580930.5047337
6861783.3001023
7031106.0529247
7120897.6669534
7155974.1973411
7154209.8411565
7129525.3056448
7089785.7525782
7041067.1211107
6987518.1815797
6931941.7013864
6876235.0352249
6821769.2133296
6769459.4763634
6719939.5712337
6673836.5548633
6631789.1014846
6593160.7697624
6557549.4979459
6524768.1500951
6494729.8391133
6467383.1051096
6442694.6761669
6420650.7022505
6401263.9872309
6384585.4241481
6370722.1155725
6359878.7485151
6352446.0660838
6349012.5218406
6350911.9725014
6359633.3479004
6374222.3628338
113840.84968458
114013.40467912
113261.50396312
112676.48725279
113161.93062377
115188.26882007
119304.7265749
125724.96821789
133810.62466007
144361.19554066
157831.17992421
169442.64571923
178797.02590056
182355.10289085
181202.83027705
177400.16470911
171966.24835715
165740.43302754
159208.70451981
152702.00912203
146388.25472455
140350.28330232
134691.38782955
129559.79802664
124897.74016823
120572.66100595
116641.28462288
113085.27059392
109593.02017827
106626.93902311
103659.26860852
101053.56725946
98530.244924598
96203.562180127
94023.122612083
91943.616115174
90015.675906032
88171.627273109
86440.973825924
84823.409645112
83243.863158869
81809.260185048
80349.913658195
79057.828570782
77711.793661535
76534.097204828
75314.078671176
74227.980393275
73146.24026568
72124.938878919
71142.781113197
70193.3943645
69283.388870077
68404.650680062
67556.579898414
66737.120427335
65946.835346843
65185.080570209
64450.809299159
63741.453603492
63054.014801547
62385.715771014
61734.856528286
61100.621263411
60482.87072358
60185.555805036
4473874.0593511
7969710.9362133
5778589.5531262
4360118.9195063
3418511.4359596
2766898.5118149
2297165.9823687
1946145.3793699
1675909.9315826
1462683.2264955
1290873.404989
1149939.6939584
1032611.4685053
933742.16645906
849552.37146809
777153.7385344
714260.7315089
659021.51503335
604026.1217269
560391.56804242
520603.67168851
484057.46416494
450449.94568546
419714.5255417
391914.08395344
367106.07437751
345236.50464064
326099.81328215
309360.53016454
294614.84559135
281456.97313919
269534.60744169
258581.49120342
248414.46284338
238892.40367645
229851.22499433
221021.54082321
211982.64899266
199489.06125888
187411.3220612
172165.94539144
152426.64327755
129171.27358767
109335.39852377
98525.754763702
94852.246214526
94360.593525671
94902.521178288
95723.86853749
96561.186356427
97311.918824093
97911.729987679
98336.689740296
98587.012696503
98686.828945975
98672.420642847
98578.655900047
98447.409010499
98311.957426987
98185.894701038
98068.790557425
97948.098302955
97804.191236842
97612.601697628
97354.861224086
97034.63125477
96665.622404612
96267.281863713
95864.187907004
95490.430982861
95161.749266982
94864.515223332
94573.908669974
94284.393141266
138181.76020192
136970.63797494
133961.65492371
130090.9026425
125951.19631626
122013.66912803
118598.27690284
116031.90623646
114319.53765377
113534.96564646
113569.86217986
114244.71325744
114898.76873272
115339.2289012
115687.80621608
116079.42764105
116582.29051267
116916.12665788
116562.20289567
115678.10071426
114371.15282811
112728.77094699
110872.48782707
108852.72057572
106771.4637718
104723.76895609
102686.18999477
100665.86660526
98677.813555325
96735.877929543
94876.510905309
93073.514702901
91350.63069734
89676.090007039
88072.897860899
86514.91320069
85024.695161727
83587.066356789
82220.792459879
80902.706339361
79645.419231105
78425.051262232
77254.468331126
76116.939472827
75025.013702188
73969.50357759
72956.904867794
71983.928557275
71048.526967929
70149.725425815
69281.65962422
68442.830000997
67628.762598929
66840.153915416
66074.917822171
65333.648877282
64616.580025439
63923.55181582
63252.988376635
62602.586712101
61969.787547148
61352.479054847
60749.275354548
60159.706209383
59584.052225215
74583.15195454
8306684.1653068
7333686.4827551
5359005.1158717
4084225.5082031
3229793.665922
2632354.0435973
2197618.5406609
1870179.230264
1616439.9621858
1415100.9096391
1252080.6415624
1117812.8854985
1005661.7758836
910888.98227173
829979.38000893
760221.58141362
699454.78371126
645922.35492882
603842.0388696
560229.60478346
520457.1048211
483926.44597088
450335.39201923
419617.30838178
391834.29912103
367042.60264476
345187.13939731
326061.72928648
309330.98866828
294591.05396173
281436.54770958
269515.55468896
258562.09613764
248393.27958904
238868.36589834
229823.80257161
220991.00387745
211951.1748006
199463.29425611
187398.18096834
172176.89930825
152475.60690474
129247.31827491
109374.30520759
98508.996018143
94808.857645782
94311.918334801
94854.884033971
95675.783101884
96510.807370497
97256.159196066
97849.185744916
98266.621030065
98509.357480291
98603.093911196
98584.696418547
98490.960112242
98363.097174525
98233.008457484
98113.1574874
98002.755031047
97889.450696487
97753.032136797
97568.438355458
97319.39828196
97009.572098791
96652.176281753
96266.4077497
95876.362989528
95514.736537475
95196.610495377
94906.731230158
94619.880614353
94332.588748355
196063.04003946
191816.21832932
183388.21605754
173006.86270764
162379.29475342
152597.64919121
144185.99185234
137209.80457131
131621.72879396
127055.88444904
123557.08347768
120621.62705084
118334.80772321
116499.20164112
114927.17545699
113485.53686918
111954.98856184
110232.28515477
108080.57285224
105745.27859861
103400.69310125
101138.9170075
98983.932437333
96951.762271308
95037.712880717
93210.362497384
91491.575975099
89925.157180531
88492.88658608
87163.693507974
85927.729372585
84777.868213473
83676.877320495
82614.019533552
81562.220695236
80515.760643101
79469.580160187
78447.485013418
77445.411566951
76472.885625096
75517.979215307
74583.295107977
73663.866223146
72762.221778646
71881.132346612
71020.750973503
70188.361481937
69378.837593159
68598.142289761
67838.181682093
67102.214278326
66384.080695213
65683.220118348
64997.660799548
64328.094309307
63676.149010036
63042.595768481
62427.739322037
61830.295066977
61248.322823599
60679.635729278
60122.448962731
59575.659701401
59039.115352027
58513.32551965
77037.566538508
8429831.3050154
7319147.1827374
5347464.3233782
4075875.0390552
3223513.5654332
2627451.6222323
2193761.3218454
1867149.2908938
1614048.4162399
1413191.226146
1250537.2365856
1116554.2752551
1004627.8760494
910032.52529364
829262.18657164
759613.05619442
698930.96197809
645464.848797
603477.72888662
559908.00241742
520172.88737548
483678.30869368
450123.6298898
419442.72276735
391696.44652411
366938.94482776
345113.29347108
326012.35477035
309301.14406009
294575.952973
281432.26048239
269518.87055842
258570.20094165
248403.73853916
238879.42015462
229834.9319001
221003.79681199
211971.6013897
199510.52468829
187488.96800527
172342.75642556
152747.67130021
129586.01078337
109611.56954828
98583.946593262
94785.810051951
94248.186955746
94773.844145642
95582.088482855
96404.142869433
97134.39609746
97711.021255126
98111.267128664
98337.732681206
98419.878868797
98395.332225733
98303.805447801
98185.629953118
98069.835067259
97966.790678601
97874.473958872
97779.853135065
97661.752190777
97494.023714736
97263.921643499
96975.149046435
96640.283608552
96278.584526026
95914.065312588
95577.840438532
95282.6765002
95011.032468958
94737.483883993
94463.2202096
385587.77909684
363253.3821748
324897.40816381
283747.78829199
246529.48725573
216492.93730919
193003.80979826
174938.32868471
160899.7590125
149532.25205781
140924.25506139
133753.22434181
127893.34162214
123028.50455908
118946.69236849
115547.76933508
112795.33010794
110200.41743097
107297.81768575
104153.66059364
100962.69652052
97888.300373247
95016.367065073
92358.870209739
89913.209781258
87673.545380115
85616.684990144
83735.06312749
82067.428129509
80594.983477064
79279.862218795
78101.469667721
77033.32814869
76057.747091421
75150.085247026
74297.431448953
73488.514631072
72723.530548211
71996.824706755
71308.476361124
70640.560507128
69985.937944274
69333.222100833
68681.358369548
68027.315141901
67381.410742625
66744.55503211
66121.263508042
65511.001862847
64912.828929985
64326.761615401
63749.524461021
63180.912904027
62618.240445467
62063.623620641
61518.931431815
60986.279688085
60466.419616307
59958.574951632
59461.040371904
58971.8320513
58489.39796053
58013.027869108
57542.981784944
57079.890751066
81268.18425907
8569882.1732976
7287299.0543985
5327220.931895
4062621.122414
3214064.6408271
2620280.587926
2188186.0302035
1862785.1407122
1610605.5319001
1410442.1831367
1248315.9619479
1114743.3502109
1003140.5010575
908800.47758502
828230.45949692
758737.63898292
698177.50008698
644807.55885786
602934.98338544
559428.76779813
519750.9156645
483311.69778084
449812.70667011
419188.28742187
391497.45159497
366791.39423701
345010.63451492
325946.8086266
309265.18498553
294562.84534541
281436.44730649
269535.77032827
258595.83471657
248434.5866031
238912.95341518
229870.53702383
221043.98082579
212024.85724216
199606.8613817
187654.04031546
172627.52372988
153205.22437677
130154.63974412
110022.10175671
98730.469324858
94766.137122242
94158.1485435
94651.47723319
95437.86307089
96239.091247181
96945.697221368
97497.298428959
97871.897365182
98074.874474806
98141.535449337
98110.416910582
98024.882019584
97924.159537028
97833.433559788
97760.245786291
97700.30485793
97638.467650605
97551.212156213
97412.758843535
97213.736857936
96957.414491447
96655.975865492
96328.989469168
96000.282321615
95699.84091641
95436.658906703
95191.632836969
94938.015153388
94684.211021739
1321512.8936554
1071662.2382118
802588.08106083
594269.32172892
446281.91802138
346664.40919841
279944.03235517
234406.68798209
202886.98404368
180306.69681082
163763.67454542
151150.62688406
141152.23813682
133033.63796776
126333.6279859
120787.36436693
116164.58375487
111972.31360803
108041.20179413
104328.54157108
100793.6803394
97386.221006615
94101.448525263
91023.296203393
88173.77437053
85550.629155774
83135.415635436
80921.553982321
78932.070613919
77166.070242062
75596.159417442
74195.85208464
72944.309848275
71818.884651239
70803.057384953
69874.062148303
69022.345395516
68239.303684669
67521.58225776
66857.394437725
66238.34314955
65652.000250563
65090.616391132
64548.790902291
64024.427717692
63517.987478996
63027.332448189
62554.900123213
62096.407165083
61649.597406336
61209.122586484
60772.098083453
60335.185732487
59897.73026104
59461.066427878
59027.498866925
58600.298561913
58180.606074822
57768.115212662
57361.159015039
56957.870056933
56556.962626171
56157.938054271
55761.254761135
55367.676233976
88574.656795232
8710684.5438436
7235918.693128
5297192.9415922
4043943.7383527
3201258.881764
2610809.1209811
2180912.9933978
1857114.4057114
1606134.2741703
1406871.7795615
1245431.3144737
1112391.8961229
1001209.1117187
907200.31505357
826890.03012162
757599.8232235
697197.80749518
643952.72704745
602214.7786625
558792.32854879
519190.83997933
482825.71150553
449401.46773827
418852.6790548
391235.84277249
366598.315132
344877.34126463
325863.00100231
309220.78582631
294549.07094781
281446.09766551
269562.92592256
258635.25210808
248481.62452049
238964.29129989
229925.4976836
221105.95586834
212103.76086997
199743.33861798
187881.55771887
173015.81252471
153830.11039313
130941.22383308
110605.39293759
98949.205518687
94747.232551503
94037.533419761
94484.164501999
95239.465633345
96010.972013214
96685.675717702
97203.730463548
97545.030948492
97719.580157406
97769.179615934
97734.137389454
97662.110806912
97590.80269401
97540.94926443
97516.262053625
97508.441019941
97497.879821931
97457.721310082
97363.580880337
97208.216716578
96995.269574142
96736.683977663
96452.59387824
96167.159052253
95909.321850134
95684.032939491
95470.081491482
95240.298407978
95012.193079596
4661051.8386206
2570403.4848786
1597487.2353034
1065087.7881322
740678.34041639
537122.84872789
404417.73473854
317106.64418537
259108.83490737
219812.55882735
192207.76044334
172327.39668301
157190.03680221
145264.79375792
135716.29481961
127932.1720446
121291.34194554
115426.32676981
110209.37283978
105543.61631457
101356.79365549
97566.718126932
94094.238111887
90839.223178264
87765.717773656
84899.856731561
82251.887418906
79802.431545541
77573.654539979
75574.317444658
73778.983845069
72159.053782583
70702.259042838
69388.874259269
68201.045017048
67123.380167754
66144.371662391
65252.921869138
64442.036698646
63703.081540273
63026.248385961
62398.537326627
61812.433173458
61260.382255737
60740.000373876
60248.071222065
59784.466026224
59347.091470587
58932.843630359
58538.68925738
58160.010149541
57794.162416143
57436.517695509
57084.671561617
56736.426390961
56393.043404811
56056.826556083
55727.463280753
55403.540667531
55082.663346294
54761.966676006
54440.386210497
54117.479575399
53793.413905927
53469.321672388
99883.357825903
8804960.9668735
7166207.4857306
5257721.7195165
4019783.3870686
3185037.818613
2599038.9911777
2171973.5484381
1850171.2464061
1600662.8128961
1402502.2422998
1241901.1689996
1109514.4053716
998845.36149947
905241.2977359
825248.18778018
756205.30644227
695996.30406198
642903.66242605
601319.53285518
558000.55245156
518493.88573109
482221.15224891
448890.40425059
418436.16761728
390911.6727635
366359.52931263
344712.99094996
325760.24302695
309167.0626687
294533.52885006
281459.88353726
269598.76106667
258686.67848206
248542.87954587
239031.24567803
229997.4759243
221187.58584281
212205.62709964
199916.20992309
188165.27005868
173497.72827699
154608.45439482
131939.09846557
111370.52920182
99250.847732624
94733.03676512
93885.831573864
94269.2362122
94982.483335531
95714.811521731
96348.463229764
96824.583061827
97126.403988648
97270.403492618
97304.816156124
97274.062113096
97229.388113817
97206.645770686
97221.369611422
97272.03043225
97342.352216354
97406.006279582
97431.106438299
97396.982876026
97297.437757677
97136.450158639
96926.7032725
96689.828123902
96450.919995254
96237.770487496
96052.024749571
95869.611133263
95664.593937001
95465.7271226
6461148.7414452
3571855.1507218
2317685.4063611
1583846.8166423
1116771.6405357
802620.8308359
583542.33284918
440561.22606939
345108.7899458
280047.92943791
235031.08017876
203305.10668672
180235.29483181
162868.16806537
149364.64016006
138436.52724717
129323.94809053
121590.41477638
114928.51519994
109102.47748509
103973.75531916
99453.106406121
95440.838836654
91847.645823111
88569.341053618
85543.950863434
82719.066098085
80079.877387415
77645.382119687
75433.719903148
73432.480512169
71614.971187919
69958.338934882
68450.511528143
67079.738577465
65831.714822017
64691.705741879
63652.813269442
62705.206248288
61840.528649409
61049.422597734
60323.027276429
59651.631322109
59026.997614563
58445.280216706
57903.754261373
57400.850952697
56932.970209371
56497.121718283
56089.91091243
55707.277919511
55345.479113821
54999.58649014
54666.601479372
54344.043187043
54031.636465836
53729.755034504
53438.802299079
53158.111291069
52885.314764881
52617.475074219
52351.977524429
52087.101488255
51822.107963969
51557.133475558
53330.268180949
6391988.489864
7695699.3462008
5604672.936865
4250707.2818048
3344330.2419529
2712758.7874741
2255916.7716968
1914112.2308238
1650732.3637232
1442640.5462655
1274721.1048289
1136797.260314
1021834.9535265
924831.86312764
842107.28704541
770852.32070376
708850.55241739
654310.54763306
600252.46727335
557056.12490906
517662.19347604
481499.7575806
448280.91293546
417939.8676992
390525.76067825
366075.54287243
344517.77525281
325638.43943433
309103.69422388
294515.69127706
281477.10707139
269642.44128666
258749.16768711
248617.30405219
239112.62542123
230085.08565316
221287.9721626
212332.22522519
200235.00515056
188678.11418252
174366.54698419
156017.77502916
133785.58531949
112845.22852374
99867.378295963
94729.607446659
93604.977374118
93860.816068996
94489.535901069
95144.683449189
95700.217961391
96100.268365683
96335.883604199
96436.886337506
96460.689522898
96462.871794855
96497.633312761
96598.606587441
96768.874171898
96986.785755814
97219.465184112
97431.67707885
97588.236452245
97668.735238
97666.221176061
97589.909071046
97455.223580586
97288.081941477
97116.59638521
96967.00103867
96836.736866692
96696.777897341
96527.039015719
96376.352168612
5626051.2368928
2714271.1807557
2106644.6332964
1651842.6583051
1306310.2138614
1006483.2279946
776460.07449131
599606.92581176
461937.09640057
367955.71952831
301178.6813931
250988.56897884
215002.58249161
188469.59513556
168475.32306556
152964.40518472
140406.22027136
129986.37116753
121241.98583838
113809.40992217
107395.18377157
101813.60044081
96926.865799764
92616.766578875
88790.118444762
85376.29356565
82298.55762282
79512.227463565
77001.363468511
74716.106549012
72615.558452597
70663.485199214
68857.806874231
67191.615785771
65657.006934522
64240.148013321
62935.903820034
61732.37297098
60619.953674489
59588.832075288
58634.812775326
57750.631030916
56928.860441554
56163.328959294
55451.256760681
54791.155600207
54179.604084735
53612.863267037
53086.650421667
52598.190856107
52143.637909682
51719.244548253
51321.134151647
50946.035852124
50591.976335194
50257.737129096
49942.894075303
49646.614440726
49367.460490368
49103.035174861
48850.358698699
48606.698072641
48370.051347277
48139.492364198
47914.518113786
180474.17835084
9024664.6049365
6915674.9318593
5102043.8497098
3920020.9261227
3117525.6420185
2550637.7043294
2135669.1325515
1822133.5119197
1578589.0682542
1384869.2784026
1227654.1538477
1097900.0866689
989299.81736436
897322.38194823
818602.06936788
750550.68442597
691115.27077443
638634.11581592
597618.07686751
554722.29278652
515605.93140718
479716.21495347
446774.88377496
416714.68005827
389574.00353873
365375.73553488
344037.02728685
325338.65121099
308947.88747892
294472.09712466
281520.06679074
269750.94087347
258904.53846146
248802.6391104
239315.16476269
230301.58713426
221532.35674195
212640.99832825
200752.43519414
189509.07556092
175759.79526149
158288.12982639
136890.72128171
115559.64531156
101164.8189231
94838.244974527
93131.250969678
93111.226442268
93557.892523073
94055.466787349
94467.05351408
94749.257397293
94913.794860445
95015.057351334
95125.492879592
95319.390491102
95644.116427498
96099.143440077
96648.341358942
97237.974035849
97807.087831524
98299.764176705
98675.634086421
98917.978522691
99027.713398801
99021.834759459
98939.734735808
98815.646478008
98684.163821247
98570.762599808
98471.222609105
98353.056492167
98210.817253843
98117.659834144
5201786.2301238
2116718.8281929
1823755.224577
1543507.7504102
1291372.6608242
1070315.5781076
877847.05181979
711136.34207001
575119.40685532
458686.36304987
371129.7756645
309791.69207375
257516.05625801
219180.68734284
191230.40526722
170173.64526232
153862.37986229
140775.87629637
129939.2068483
120812.92176089
113047.35159946
106376.56831903
100595.59305603
95535.685052215
91066.558479707
87093.735352857
83551.525207133
80405.664204239
77602.632886127
75091.579265475
72832.198942535
70777.963911835
68896.427302655
67160.472957028
65546.026431959
64042.67581786
62635.183501117
61319.371344537
60089.008052655
58940.084652425
57868.853448842
56868.127475715
55931.195300726
55051.97135335
54229.832503001
53461.180703172
52743.479823409
52072.072294587
51444.028580191
50856.398626496
50306.060426673
49790.157784678
49305.60266768
48850.487429733
48422.409722716
48019.940262983
47641.774825775
47286.846512243
46953.923574465
46640.562850489
46344.215843778
46062.332417588
45793.099366817
45535.561267477
45288.954627335
377747.75105832
9075086.1736415
6733908.560222
4979144.995362
3836686.2080275
3059431.8062063
2508663.1229331
2104244.3351044
1797919.0239922
1559532.8905188
1369641.7683897
1215347.3566997
1087863.3849123
981043.41560277
890462.53796079
812832.95263566
745630.2918854
686857.11209768
634900.39876912
594344.28772057
551819.26538274
513047.26005251
477497.63010511
444903.12991998
415193.66114049
388393.64884952
364508.39111362
343441.17454154
324966.70719982
308753.94710301
294416.88391302
281572.02709949
269884.36924587
259096.60655611
249032.39370878
239566.17514185
230568.16541785
221828.90434849
213010.08559566
201358.50939089
190478.84826549
177369.4182208
160919.5007087
140643.3698841
119244.92533768
103246.51477283
95240.559084732
92589.969269806
92115.291167676
92271.71260414
92545.926069164
92794.825212274
93004.806352329
93216.340790797
93511.3689006
93979.752922605
94672.574065758
95578.418598049
96633.504506232
97738.686254598
98789.599889589
99703.069899139
100422.40770416
100924.30504914
101213.33973616
101315.01301081
101268.64167567
101132.87591851
100959.26955817
100790.26111144
100653.52980484
100538.16185978
100414.01560933
100298.69911363
100263.59226495
5186599.2313475
1813877.3555881
1555718.8952007
1383955.5857248
1210697.3546859
1046157.7688608
893608.79898909
755455.10015601
631930.30940591
526233.2540273
433154.77489752
355692.33433611
302666.53030118
256531.80290546
217808.85515589
189364.88473409
168137.76723556
151810.52010552
138818.87894566
128134.79281174
119133.18877747
111444.46766852
104814.1597256
99052.797217735
94006.738562417
89560.788072176
85623.025608448
82117.845314526
78986.257812807
76183.247384984
73664.83896715
71391.084257687
69329.790471592
67452.687539453
65734.089773589
64155.42199182
62694.570743083
61334.352722042
60063.266221426
58867.16316223
57737.582576258
56666.143668175
55650.87367478
54694.922746407
53795.795872609
52951.916898731
52158.643630823
51412.646415876
50710.975893963
50049.409089289
49425.442512562
48835.853334464
48279.226249469
47753.763436726
47257.547689508
46788.897353165
46346.075850639
45928.267530186
45533.996980597
45161.543058983
44808.700201795
44473.296241475
44153.930882007
43849.542287624
43527.74637146
807587.60103405
8894330.1692405
6508763.9940782
4836495.3987874
3741041.9069086
2992441.4089915
2459983.8791273
2067706.3102516
1769745.2898582
1537354.2216235
1351913.9796687
1201015.2076799
1076168.2487675
971412.73227113
882448.27531833
806079.37544434
739857.20299458
681849.70793626
630500.62888434
590465.18086731
548376.62242148
510013.11726046
474869.03334076
442688.36743607
413396.30377565
387000.27990104
363484.8789323
342737.54356076
324526.37667835
308522.70538119
294348.57436005
281629.82291457
270038.46709442
259320.57840871
249301.71401792
239860.94362086
230880.09557919
222172.55155859
213432.04990459
202032.6963681
191546.14630322
179120.40657057
163777.03962098
144857.83440469
123920.49035606
106434.33844417
96269.044337789
92125.487570564
90905.826280787
90635.901898896
90649.245936697
90818.908794659
91168.195742249
91762.830427402
92665.328140759
93897.493685672
95411.712033883
97096.144111649
98788.96052197
100351.62715889
101682.28432862
102719.53354908
103439.16731736
103855.56687184
104010.95804795
103959.99759022
103760.05847729
103486.52524494
103203.55486777
102958.00804881
102770.26433945
102626.39850123
102502.93577061
102437.73091658
102461.74052087
5828499.3066672
1658457.4962057
1367981.0103805
1234741.4532956
1114383.4489849
992094.45168077
872768.40615831
759417.61687137
655109.19802755
559652.52995032
475783.88630736
399528.83345935
334647.2341732
288708.62903178
249436.83616797
213741.86125951
185958.13799032
165020.30330545
148864.47834879
136066.82309537
125653.08956868
116943.09956333
109499.62007821
103058.31109047
97446.04427102
92530.163277529
88195.519936495
84347.265410088
80910.600669537
77827.517625833
75051.953749524
72544.753611639
70271.034914115
68202.147653679
66316.215619095
64595.050516256
63018.189615026
61566.118847093
60222.070590371
58969.222740645
57796.142137527
56694.233289542
55653.855659209
54669.998350689
53737.657286729
52851.210134232
52009.505029551
51211.71108412
50455.684963187
49739.423102849
49059.588709737
48415.640106561
47805.492847096
47227.325721078
46679.401693014
46159.387201984
45666.168351474
45197.914200803
44753.098734297
44330.259034361
43927.640466209
43543.77726132
43177.236060527
42827.129999183
42472.661192952
1777308.4084321
8674999.374192
6262048.0467894
4676795.3651524
3633850.2425845
2917305.0513704
2405258.4643854
2026547.3151443
1737973.8659421
1512330.1499904
1331904.5842859
1184830.862193
1062950.6629732
960513.42888195
873360.99714833
798403.98832674
733280.20905713
676132.17414275
625467.93604725
586009.51018908
544421.70180129
506529.89121614
471855.92223594
440154.3389742
411343.37859369
385410.59244859
362317.31801026
341933.77063454
324021.31099486
308254.49981942
294264.89847573
281689.29828019
270207.88155451
259570.6368776
249604.97258757
240194.41104493
231232.76373181
222558.08544327
213898.80944839
202754.94923717
192670.44068881
180940.3410225
166726.05567719
149314.32614621
129410.91069613
110983.17862781
98465.07533016
92214.920195597
89717.661723232
88872.266891946
88704.526534108
89111.768192563
90099.089716569
91583.275117666
93446.74781402
95590.488298059
97864.283732716
100064.05360704
102035.30642217
103680.66007327
104952.71670679
105838.92761767
106355.62074384
106550.55549381
106487.27755369
106221.5275785
105835.885528
105415.40124797
105027.85125496
104715.15265952
104491.20071027
104344.39225895
104256.1163803
104267.2824082
104345.41634451
7379763.2736515
1542931.4144863
1256025.9638304
1114391.9482715
1022350.2125572
929293.47073292
836404.00448977
744179.8508529
656751.22352301
572858.94281296
497559.06202859
430734.09341117
367389.17410237
311287.473271
273050.54574489
239545.53636083
207852.23576097
181541.09403773
161325.42748726
145636.04678284
133219.65852998
123141.6663042
114727.86440252
107541.86571589
101324.77613641
95904.255633904
91145.123420901
86934.764118459
83184.559705433
79826.877507599
76807.51820336
74079.057613698
71601.772528932
69345.398694437
67286.169013888
65404.326291878
63681.665204523
62100.980813167
60645.023526355
59297.293852279
58045.565393829
56878.558246281
55785.08569834
54758.311462617
53793.344922215
52883.302921923
52023.73434176
51208.38279384
50430.860051118
49688.151880747
48976.912668941
48296.232706161
47647.215942143
47028.850435383
46440.261075024
45880.861529245
45348.229962119
44840.745441606
44356.617150637
43894.369095405
43452.900195057
43030.526818224
42626.031638745
42238.861153753
41969.422505775
3596736.163458
8300876.0595317
5994100.9501286
4503474.4047786
3516802.3182489
2834925.6764323
2345095.5665688
1981214.0670644
1702939.7758081