/*--------------------------------*- C++ -*----------------------------------*\
| =========                 |                                                 |
| \\      /  F ield         | OpenFOAM: The Open Source CFD Toolbox           |
|  \\    /   O peration     | Version:  2312                                  |
|   \\  /    A nd           | Website:  www.openfoam.com                      |
|    \\/     M anipulation  |                                                 |
\*---------------------------------------------------------------------------*/
FoamFile
{
    version     2.0;
    format      ascii;
    arch        "LSB;label=32;scalar=64";
    class       volScalarField;
    location    "0.0002";
    object      p;
}
// * * * * * * * * * * * * * * * * * * * * * * * * * * * * * * * * * * * * * //

dimensions      [1 -1 -2 0 0 0 0];

internalField   nonuniform List<scalar> 
109340
(
389521.89184517
387961.91752729
385012.58520903
381474.4364098
377604.92197021
373614.33124891
369584.53923526
365565.66503628
361644.8041103
357812.79138132
354015.324682
350248.78318959
346516.73250068
342821.61580629
339165.15286524
335548.86484138
331972.1825032
328432.74218431
324925.78135622
321444.6485487
317979.35925634
314519.04180801
311051.32456103
307561.43009383
304029.61334996
300430.23101269
296729.03652439
292879.91440438
288819.52676849
284458.90634347
279669.98250854
274262.73269372
267950.06624414
260306.87235676
250744.96686465
238535.79635477
389755.31252337
387753.26768605
384447.51932958
380677.90561389
376705.76088545
372711.16697948
368746.29209612
364821.90518786
360934.24519882
357086.68665157
353273.6454731
349496.06288057
345756.39399202
342056.17112697
338396.39659603
334776.66839765
331197.02412396
327654.55372021
324143.69533806
320656.695314
317183.35026566
313712.54822328
310231.55364889
306724.76211756
303171.29540246
299543.65949307
295805.11378425
291905.84268175
287776.88312994
283320.57610077
278394.52103906
272783.16545045
266148.07144286
257966.49840305
247384.71857224
233490.5971401
390628.18922593
388307.16598484
384664.93893066
380804.20874189
376863.65482933
372923.29989543
368975.88816663
365033.60744047
361121.35521538
357246.84473827
353409.12380408
349608.77390956
345847.6321738
342127.21403298
338449.06233147
334814.25961283
331222.52963608
327671.0605833
324153.81704159
320662.66999507
317186.63276385
313714.40225367
310233.09834008
306726.91122108
303174.82489731
299549.09193039
295812.84323092
291916.15334968
287789.90126223
283335.78870277
278409.78741079
272790.1389332
266110.19727411
257758.98491025
246642.84577108
231017.81698625
391846.47474972
389042.6823603
385210.54112486
381236.05870351
377215.18104372
373189.19961175
369172.56450823
365179.5105449
361226.45859573
357319.11790044
353457.06093849
349639.75924916
345867.37719981
342140.21760859
338458.5131932
334822.2228978
331230.59734629
327680.42835376
324164.76322783
320675.70714371
317200.81736995
313729.34087902
310248.74090625
306743.20081517
303192.25386396
299568.04711099
295833.79813827
291939.60408894
287816.17679161
283364.31608702
278438.03972123
272809.97323
266076.55897468
257513.88363119
245629.8582859
227078.02991356
393775.61268028
390117.72225814
385717.08920832
381467.18285937
377334.96324001
373268.3133162
369238.20609712
365246.58261155
361297.10084732
357390.20101513
353527.52486894
349709.5350886
345936.58006563
342209.10182543
338527.57969268
334892.44692705
331303.95298966
327760.10431911
324247.194924
320764.03708021
317292.9157834
313824.61684723
310347.15880435
306844.21067468
303296.42584808
299675.67735712
295945.29832881
292055.36657276
287936.26641651
283487.67599783
278557.99901869
272927.20881905
266144.00123827
257375.48238932
244628.56278992
221614.65488472
397400.37352995
390689.71243174
385837.07507951
381497.51634403
377360.0888216
373302.07470374
369282.36936095
365293.59825403
361342.05269977
357429.27941541
353558.01926156
349729.15245522
345943.23427495
342200.77259021
338502.32866221
334848.60425934
331240.5808717
327684.54782654
324195.76695734
320707.23014271
317228.519364
313753.1934998
310269.39785183
306761.47378473
303208.89120141
299583.88479305
295849.50981626
291955.82514295
287833.26325751
283381.04011084
278437.44456734
272809.19145743
266001.05930943
257133.28053795
243916.04253041
216053.21505384
223830.49174083
209148.71447788
196873.55948646
186957.68527573
178063.85695132
168538.61497323
158011.28485392
146311.37778528
133610.93447453
120234.35471664
105892.99491836
93025.554526614
80559.865679721
69054.637518619
58985.70051598
50212.195272552
42751.039216024
36452.149436911
31157.093814073
26757.791307273
23109.379760422
20056.044355649
17497.497249646
15357.340380181
13551.241633548
11999.187876866
10690.478176888
9594.3579496323
8589.5863238894
7784.565386684
7035.9655011699
6409.6758382793
5846.7613726983
5351.8056503247
4918.5894858618
4525.9097587669
4183.6677656345
3871.136491817
3594.126460934
3344.7134339199
3115.7130222628
2915.0472819758
2723.2344151984
2559.6274002417
2398.6417706818
2262.6597560946
2128.2893309629
2012.6362102124
1901.5370219319
1800.8276985438
1707.2634323852
1619.9805200501
1539.4517247292
1464.5075346171
1394.7941743707
1329.7505498956
1269.0182931574
1212.2137684591
1159.0351347969
1109.1704308916
1062.3419299185
1018.3016358864
976.84698116856
937.79625175764
900.99048643133
866.21438770441
972.61054793574
4719.337667243
6049.0011323045
6081.6964865869
6045.3693609124
6009.4522903301
5976.1977195198
5945.7538657433
5918.2210644427
5893.6155997848
5871.879923624
5852.9560421948
5836.7638584928
5823.198956498
5812.1291983158
5803.3914470029
5796.8025352661
5792.1944285931
5789.1798225884
5788.1921233289
5788.2686890935
5789.2206501811
5791.0805041049
5793.9097414853
5797.6316542109
5802.1904693637
5807.5112530283
5813.4557807685
5819.8169848021
5826.6067999436
5833.6207370622
5840.6180728559
5847.3541348872
5853.6217868477
5859.2562875034
5864.1802018035
5868.4066768457
5872.06303799
5874.9612811259
5876.310238581
5876.9664420057
5876.3086465388
5874.6817612148
5872.4124261675
5869.9491704274
5867.6444036617
5865.7443621032
5864.266433689
5863.016462502
5862.6327860065
5862.8451438042
5863.6079117477
5865.4032983003
5867.8360681598
5870.8163063771
5874.090054367
5877.9860897818
5882.3122551596
5887.1295310551
5892.3079736522
5897.849189412
5903.5588087634
5909.4983498231
5915.8672804797
5922.6022772243
5929.5277888098
5936.7013142311
5944.1444106339
5951.8556002158
5959.6092948877
5968.106354084
5975.696529327
5982.9704594195
5983.2037403693
216281.32613191
200779.91670057
189121.7186364
179921.56353123
171111.3610397
161053.58504931
150074.49968573
138235.85736729
125733.81944343
112807.63835711
99799.616561311
87034.634616522
75587.350758493
65092.34789792
55704.74440063
47571.912688306
40600.201058491
34701.221142632
29756.360079006
25621.703422812
22168.072697029
19283.025722437
16862.477365182
14822.349366862
13097.443962597
11631.653183642
10376.7616167
9301.4906884865
8373.3747139105
7566.4136557065
6865.7980288586
6250.3503246929
5711.4141934118
5233.0342829961
4810.9648606245
4433.6978005187
4098.3079443756
3796.5283835872
3526.6029597342
3282.1226941696
3062.2568257087
2861.9854308672
2680.8700931017
2515.1326655049
2364.3419935998
2225.9031933223
2099.0437326657
1982.3748482841
1874.7972088619
1775.6155598817
1683.714974068
1598.5583559641
1519.3694729351
1445.8129021963
1377.2981465741
1313.3999181887
1253.7123697732
1197.8840251582
1145.5850799779
1096.5230027347
1050.4345624302
1007.088656334
966.27776335121
927.81389272237
891.51898628914
856.75188370366
1364.7918014377
5446.2700654087
6082.977275577
6071.5666358049
6034.2720000958
5999.0358858837
5966.5231292348
5936.8194105999
5910.052782834
5886.1988889348
5865.2090779856
5847.0183290491
5831.534574344
5818.6396679466
5808.1877601458
5800.0057950248
5793.9076277824
5789.7215774761
5787.455939367
5786.269428583
5786.3384322736
5787.3206159305
5789.2276980843
5792.1146118121
5795.8959365724
5800.5043008807
5805.8548308402
5811.8013948005
5818.1334259349
5824.8596055732
5831.7749166475
5838.6457907589
5845.2369961739
5851.3463569269
5856.8296640665
5861.6337398924
5865.8000216423
5869.4804049011
5872.6157995077
5874.2917664119
5875.3509513406
5875.1702732355
5874.0311976575
5872.1215830152
5869.9205488153
5867.7011722816
5865.8111145625
5864.3337165811
5863.079606921
5862.6522363442
5862.862671232
5863.6244206184
5865.4102121875
5867.7796405188
5870.7531975044
5874.0167296041
5877.9410553939
5882.2379045657
5887.0509066571
5892.2065935987
5897.7120272614
5903.4105262592
5909.3399555863
5915.6979570832
5922.3866456621
5929.3030472287
5936.5038069949
5944.0031663635
5951.8184714092
5959.62113099
5968.1784323273
5975.8000243742
5983.0999145699
5983.3416094139
209758.00366789
191482.71160965
180914.89331454
170632.95534044
161186.67444256
151458.10782608
140726.27891476
129454.54839069
117823.01033181
105656.53482002
94378.242560287
83144.296098197
72546.751342948
62826.563109711
54073.001178928
46369.9803229
39720.786021195
34072.213214381
29303.555143257
25283.762571101
21912.027694908
19089.991916836
16714.258111668
14707.103551914
13007.451059872
11559.838110294
10320.664567681
9255.2381533115
8336.3356878648
7536.590441844
6839.8385217392
6229.8938753508
5692.6175639827
5218.6307448283
4797.4682534131
4423.3386201593
4088.4699942749
3789.0391670581
3519.3108109509
3276.5870557485
3056.8484402307
2857.7580139067
2676.7593080657
2511.7482420669
2361.1984251318
2223.0691907545
2096.6264539052
1980.0398840165
1872.8921722784
1773.7017893127
1682.0967352332
1597.0660041906
1518.0949127347
1444.6150833798
1376.1703363269
1312.3610293989
1252.7580649121
1197.007710527
1144.7731625341
1095.7686965064
1049.7350220086
1006.4425395245
965.68147740762
927.261764143
891.00334356384
856.30557768229
1394.3772617648
5470.0783914014
6083.7252974126
6070.8168182434
6033.6470371581
5998.5664927297
5966.1828862114
5936.5775738867
5909.8653024932
5886.0508477338
5865.0875202375
5846.9149562967
5831.4437776501
5818.5571835272
5808.1098005889
5799.9284521762
5793.8245351421
5789.6098527918
5787.3122020434
5786.1048945766
5786.1497835358
5787.1251043125
5789.011721403
5791.8675602318
5795.6207765935
5800.20354596
5805.530202412
5811.4350777024
5817.7471427524
5824.439953765
5831.3233908864
5838.1643246229
5844.7331254614
5850.8263780612
5856.3001171249
5861.1002962274
5865.2632119438
5868.9236626265
5872.0984406156
5873.7933544404
5874.8720175819
5874.6429985611
5873.5241879643
5871.703727325
5869.580308701
5867.4664787452
5865.5816430275
5864.2059815581
5863.0289226516
5862.5240150219
5862.784421209
5863.6106784478
5865.4021477442
5867.701885155
5870.6783422948
5873.9883699169
5877.9672968346
5882.3172061708
5887.1742982133
5892.340979699
5897.8283493216
5903.5183206845
5909.5005402578
5915.833467008
5922.4590702624
5929.3444514219
5936.5249911252
5944.0058775282
5951.7550285364
5959.6302061009
5968.1494168481
5975.8211710211
5983.1568362611
5983.353222108
197522.696588
176228.41710013
166009.24459701
155930.46801774
145855.99787148
136485.97828114
126730.94704893
116913.06513399
106898.88085257
96660.593520381
87409.479889187
77853.814517082
68544.804439704
59836.471549599
51836.417430256
44742.15192674
38545.115874994
33204.357495866
28657.428495846
24815.339048852
21568.488935136
18820.678946818
16507.477775738
14549.479939402
12882.104739009
11459.397867925
10241.626674188
9191.7503358292
8282.7534902173
7494.061726689
6804.1799359974
6199.8335144906
5667.3197937756
5197.2257996409
4779.475392684
4407.8907423798
4075.4639354382
3777.7190964756
3509.6830848656
3268.3042461731
3049.5634700235
2851.5325254654
2671.1624472247
2507.0164887051
2356.7673504505
2219.3448033752
2093.1217283634
1977.0390851629
1870.0660767124
1771.1907581554
1679.7990282823
1594.9836833392
1516.2602550067
1442.9351295319
1374.6425460434
1310.9442772411
1251.4495991856
1195.796776385
1143.6559146593
1094.7387437206
1048.7820111528
1005.5573220989
964.8591095813
926.49927210943
890.29259663683
855.70670247928
1441.0167451328
5499.4366055705
6084.17447023
6069.6977190991
6032.7393119657
5997.9035440926
5965.6990510765
5936.2232849217
5909.5898013934
5885.8306300459
5864.9054662562
5846.7596891342
5831.3074673432
5818.4338369164
5807.9941045019
5799.8151604145
5793.7068498563
5789.4745237195
5787.1740243474
5785.9428797331
5785.9679649316
5786.9273743951
5788.7903165932
5791.6141064584
5795.3351038882
5799.8857414567
5805.1795796191
5811.0470379932
5817.3257882127
5823.9824577129
5830.8301382168
5837.6389398152
5844.1832293863
5850.259669026
5855.7246870716
5860.5228865191
5864.6870652516
5868.3276159993
5871.5425906104
5873.2393976916
5874.3349199765
5874.1257925262
5873.0524685158
5871.2878161103
5869.226245272
5867.158534696
5865.3336884393
5863.9624413701
5862.9096656483
5862.3720967731
5862.700463914
5863.6070450275
5865.3914121109
5867.5983272496
5870.5875767848
5873.9520210594
5877.9582229775
5882.3299392267
5887.1835660167
5892.3186390663
5897.771540979
5903.4403424539
5909.4060385554
5915.7479306062
5922.372091052
5929.2659104815
5936.450545043
5943.9233511086
5951.6675925249
5959.5252151977
5968.0288375858
5975.7526126058
5983.1352809848
5983.2384144949
171063.2820347
151332.66707883
139999.42368477
131108.3268566
123251.10519928
116009.55978838
109171.61595229
102099.48278794
94922.884311709
87551.310460723
79711.532905336
71702.144511174
63801.339177134
56239.961045382
49196.74398473
42778.042685024
37090.019461339
32137.453290739
27868.174316197
24218.425005538
21117.926117289
18489.866798809
16246.393954347
14342.952781971
12722.349547519
11334.404741615
10138.776979422
9108.7747855383
8215.8697507937
7438.3702933034
6758.2649675166
6161.1953920829
5635.1784344066
5169.5277771726
4756.4768679498
4388.0040508548
4058.6767423921
3763.1283754229
3497.4146982586
3257.4156220348
3040.3428218653
2843.3470978123
2664.1125256286
2500.6798084731
2351.2159146084
2214.4073607349
2088.6685533415
1973.0882705344
1866.4263047605
1767.9819489348
1676.8277423747
1592.3058973907
1513.8047200068
1440.7390655727
1372.6619864255
1309.1159592198
1249.7604845798
1194.2326336412
1142.2157193573
1093.4097752959
1047.55018282
1004.4110850732
963.79344893991
925.51133554002
889.36771048477
854.91969805194
1509.7890277775
5535.3753205833
6084.3028316854
6068.2395797629
6031.5927688948
5997.0619449558
5965.0803213893
5935.7648462755
5909.2316261421
5885.5429919985
5864.6683238304
5846.5582221324
5831.1311572965
5818.2747317737
5807.8454675233
5799.6708066937
5793.5600335306
5789.3176428641
5787.0163039522
5785.7600027239
5785.761253013
5786.6924717164
5788.5235751149
5791.3071262006
5794.9853775843
5799.4927090251
5804.7427422284
5810.5636423237
5816.797008516
5823.4077461434
5830.2105037735
5836.9788962376
5843.4920295977
5849.5478027399
5855.0027799954
5859.7999987044
5863.9684754855
5867.5895908154
5870.8529017514
5872.5582210655
5873.7130802517
5873.5431596066
5872.5274404207
5870.8297728585
5868.8372475784
5866.8427322645
5865.0560783123
5863.7408307163
5862.7440015739
5862.2181871698
5862.578512336
5863.5528847487
5865.3190382934
5867.5122930687
5870.5309310781
5873.9605088878
5877.9693053872
5882.3282884948
5887.1756728693
5892.2816681784
5897.7141528181
5903.3724738456
5909.3558917408
5915.7031981182
5922.3284997301
5929.2234444758
5936.3975710434
5943.8505904702
5951.5660971041
5959.4268039427
5967.9146067791
5975.6749575412
5983.104978741
5983.1102212587
103571.78543464
99974.581865503
98727.128338658
98608.480938086
97008.977255655
94954.689978164
91662.771705701
87826.73626563
82970.930923816
77573.186205362
71521.978958078
65183.637257408
58706.850483326
52306.864239793
46209.833419292
40554.312735795
35437.297637185
30900.284107663
26941.91261359
23522.984058545
20587.748674863
18076.751102708
15937.766388047
14101.459652035
12528.45597905
11178.758279739
10017.117968395
9008.6944080082
8133.310813245
7370.3804197422
6702.5574490564
6114.1609501411
5595.6724303885
5136.4502707524
4728.1377686406
4363.8659150827
4038.1631072109
3745.6040675334
3482.1764992523
3244.2768992818
3029.0093227465
2833.377678192
2655.4000300243
2492.9476731407
2344.4642776634
2208.2983031054
2083.2466662819
1968.185219663
1862.0449950533
1764.0071392
1673.1821020199
1589.008818396
1510.7866045781
1438.0242443517
1370.1852294303
1306.8581735665
1247.6895309832
1192.3264279617
1140.4535648333
1091.7731639324
1046.0342476062
1003.007972552
962.48734288733
924.28379198225
888.22398576622
854.06727680223
1605.1110356484
5576.0495060414
6084.1358422854
6066.4725445751
6030.2419075518
5996.0602898361
5964.3320321139
5935.2007492903
5908.7906570685
5885.1880888196
5864.3740437843
5846.3074538568
5830.9120805661
5818.0783407791
5807.663873495
5799.4965385229
5793.3855131148
5789.1366642592
5786.829523356
5785.5473333362
5785.5199675288
5786.4173714013
5788.2155294307
5790.9556442911
5794.5836328056
5799.0367313564
5804.2300355388
5809.990672216
5816.1634709009
5822.7139664837
5829.4597213498
5836.1792617895
5842.6546175339
5848.6855704121
5854.1290133519
5858.9262259318
5863.0977813937
5866.6683968966
5870.045017322
5871.7531055967
5872.9647759382
5872.8537145415
5871.9103353556
5870.2856474555
5868.3670088799
5866.4439188427
5864.7156113919
5863.4510985829
5862.5280685824
5862.028369666
5862.4310889151
5863.4705241022
5865.2237491019
5867.4492660605
5870.5425101994
5873.9505237574
5877.9560844543
5882.3475215809
5887.1756202063
5892.2675227485
5897.6757726055
5903.3240849423
5909.3274542754
5915.6644925243
5922.2737370801
5929.1508282599
5936.3015127965
5943.7243167338
5951.416391411
5959.2641017861
5967.7192048891
5975.4909187721
5982.9844404867
5982.8605118365
10106.783605988
46061.438495108
60027.741044093
68531.659098012
73734.884910507
76084.955967588
76067.791554967
74607.685086218
72070.415547455
68640.78740695
64527.431022971
59840.050205049
54777.71272688
49539.099846097
44335.201695316
39354.834515453
34718.227448955
30512.957671126
26771.076915891
23489.072428034
20637.581836706
18175.682484492
16054.881102795
14236.223219852
12665.946237021
11308.662547773
10138.655489245
9124.811772091
8241.5135842706
7468.2448995059
6792.0545739713
6197.4448345815
5671.5478779685
5205.3044678269
4791.2325307128
4422.0181532811
4091.1403325093
3794.270515632
3526.9883604409
3285.5756566282
3066.8743399018
2868.3683071285
2687.7382570037
2522.827492451
2372.0263720938
2233.8212776229
2106.9536017355
1990.1569208898
1882.4361216003
1782.9464838685
1690.8576240094
1605.5025642551
1526.1745587855
1452.397764366
1383.6689455536
1319.5480618895
1259.616152724
1203.52140273
1150.9768333812
1101.6904220147
1055.3969736507
1011.8524277682
970.85471850055
932.22307422346
895.76359884089
860.8670573302
1096.0608319016
5091.9157985352
6060.4776298194
6072.7294737933
6037.5262305275
6003.1498531913
5971.0895227213
5941.5221817808
5914.5724004777
5890.3772386991
5868.9462935747
5850.2551526512
5834.2427922645
5820.8116627697
5809.8291738968
5801.1303938801
5794.5279688513
5789.8273555107
5786.6120983993
5785.3064251078
5785.2515702662
5786.1056360388
5787.8585738197
5790.5449115337
5794.112137471
5798.5007146206
5803.6280079388
5809.3202206284
5815.42417437
5821.9071936616
5828.5865626367
5835.245073379
5841.6712227821
5847.670370987
5853.100334752
5857.9006499687
5862.1261143573
5865.8858367834
5868.6242904076
5870.4151127228
5871.7878079896
5871.8127060499
5870.9940759182
5869.4834312598
5867.6715732877
5865.8516404035
5864.1993325642
5863.0192517655
5862.1733212836
5861.7453941453
5862.2187226536
5863.3615453643
5865.1434793282
5867.4968355621
5870.5461613286
5874.0157934532
5877.9669113131
5882.3209151153
5887.0925433356
5892.1274960546
5897.481463537
5903.103316714
5909.1375087927
5915.4682891679
5922.078270196
5928.9619263673
5936.114551035
5943.5321049185
5951.2152190869
5959.0779490995
5967.541902475
5975.3271962275
5983.0150410905
5982.7358566813
7949.6714613435
14677.915101917
25086.653262751
33698.031524641
40462.540240487
45375.447348238
48646.412103973
50587.446080022
50758.151775838
50029.542992096
48509.528914251
46229.604145999
43388.406443166
40141.857242197
36676.82555185
33173.975859936
29770.191746656
26563.560449459
23623.061997743
20976.218990645
18624.209404882
16553.880841274
14741.18506006
13158.051567567
11779.365393445
10580.301387843
9532.2465610564
8612.3898911577
7808.2078604569
7101.8367409108
6479.6853847439
5927.62870687
5438.5969231159
5003.6292304812
4615.6331145494
4267.5774638044
3955.4273086195
3674.4711011696
3420.8874302777
3191.0084300174
2982.4279516427
2792.7174242467
2619.6979197969
2461.4438629679
2316.4264791475
2183.390157023
2061.010771879
1948.2079010556
1843.9960143264
1747.6527160678
1658.3992501725
1575.5524959437
1498.5201044659
1426.7950571528
1359.9457477251
1297.5315479959
1239.1660382822
1184.4951085293
1133.2256750334
1085.0959248996
1039.8549916596
997.28157425156
957.17743788742
919.36877731095
883.69166730325
851.84058933578
2043.4027795736
5715.6591853358
6080.9706833099
6059.8467270204
6025.1967589722
5992.1811642202
5961.3333154778
5932.8671774691
5906.9381238072
5883.6773605884
5863.1137876476
5845.2335124182
5829.9795523557
5817.2524961287
5806.9134170155
5798.7909276234
5792.6934013352
5788.428375102
5786.0942674601
5784.7277002819
5784.5935431276
5785.332042782
5786.9694079399
5789.5239701572
5792.9438350322
5797.1752985574
5802.1412065031
5807.6662450533
5813.6026682462
5819.9219319951
5826.4439391024
5832.9636883338
5839.2792241411
5845.2006824069
5850.5863625182
5855.3749929165
5859.6081026154
5863.3129878062
5866.0265515211
5868.0218495307
5869.5755280783
5869.9207282431
5869.3187660575
5868.0375409125
5866.4259696239
5864.7959202703
5863.2842448313
5862.2464519561
5861.5371827439
5861.279278676
5861.8836719741
5863.175771375
5865.1068652706
5867.5546800901
5870.5587567173
5874.1164788348
5878.0434964813
5882.3549840458
5887.0468239808
5892.0285877929
5897.3135692557
5902.9224978795
5908.9295305857
5915.2121310625
5921.7765841437
5928.6162578561
5935.7238004485
5943.0930968929
5950.7660899015
5958.6737131898
5967.1388712057
5974.8280531961
5982.8700817444
5982.38035489
7689.8975187597
8436.1761385008
12983.102940343
18439.810874354
23499.969188311
27788.853071032
31257.848922826
33852.004519692
35575.645150594
36397.487806413
36450.530545506
35831.494606825
34551.980074463
32794.456903853
30665.706978138
28322.604096113
25898.96405852
23500.870278478
21207.955436637
19072.81057613
17122.625430102
15365.298141898
13796.382023625
12404.129242584
11172.640176174
10086.614633746
9129.0117976103
8284.3460262673
7538.8420050425
6877.5771835497
6290.6798370604
5769.7142000609
5305.4898955247
4891.2348649805
4519.0737211462
4184.9989968181
3884.3605576075
3613.1758853564
3367.4419921075
3144.3443656195
2941.6842339916
2756.9711517959
2588.1980589005
2433.4666954819
2291.6758403566
2161.3255470447
2041.3084788641
1930.4819715718
1828.0427634346
1733.2490861593
1645.3471571773
1563.6986227723
1487.7070710423
1416.9479361446
1350.9425395059
1289.2852678153
1231.5915794195
1177.5295017614
1126.832792718
1079.2110049393
1034.4252987607
992.25878459289
952.52021491795
915.04615815333
879.6441384612
850.36062588166
2505.1445046553
5815.1534416675
6077.1120699643
6054.8444400874
6021.0386424334
5988.8520001593
5958.6782890211
5930.7439347402
5905.2239253862
5882.2680220384
5861.9364367345
5844.2365572435
5829.125563807
5816.51069182
5806.2542587264
5798.1840417983
5792.1063653148
5787.8268588819
5785.4612725534
5784.0144359157
5783.7746366429
5784.3665886542
5785.8573172078
5788.2464991689
5791.4858824502
5795.5251730845
5800.292474104
5805.611302221
5811.3421972017
5817.4616790766
5823.7934843326
5830.1463122833
5836.3277464326
5842.1556661471
5847.488341331
5852.2541803554
5856.4932465544
5860.1814651305
5862.8339355099
5865.110492171
5866.7907489914
5867.556569242
5867.2090659413
5866.186707326
5864.8114237414
5863.4163974887
5862.0929745312
5861.2359460821
5860.6494225708
5860.6189955596
5861.3638347622
5862.8216396049
5864.8973359939
5867.4229261113
5870.4598277683
5874.0257888157
5877.952219977
5882.2550723873
5886.9080992584
5891.8624380676
5897.1208153487
5902.7141946886
5908.6616889082
5914.8712807471
5921.384242323
5928.1794401775
5935.2441013171
5942.5810616163
5950.2620729147
5958.1405578646
5966.5554379438
5974.2546860896
5982.4391057834
5981.6449556098
7008.542735139
6996.5667105237
8444.4283290901
11608.171238111
15088.338211555
18364.445827624
21270.387259919
23696.399263925
25644.814957561
26936.9930328
27638.930935822
27766.652367755
27468.107568262
26623.5503519
25421.699907998
23929.941930651
22281.952431844
20555.682303341
18827.459375597
17156.494047638
15581.336771662
14124.673512773
12795.210744792
11593.447874949
10513.863165768
9547.9135114732
8686.4316114154
7918.6053113469
7233.9427385342
6623.2509939298
6078.2142899981
5590.8599875933
5153.6372753267
4760.9068162743
4407.9103066772
4089.8105180911
3802.4525840314
3541.518635891
3304.8476551558
3089.8171746842
2893.8608111475
2714.8949787862
2550.7685818112
2400.43287296
2262.297066459
2135.1908979799
2017.840836817
1909.3721953783
1809.0938595649
1716.1372343691
1629.8729869282
1549.6096266822
1474.8910889049
1405.264195977
1340.2675549809
1279.5042349101
1222.5908749876
1169.255500359
1119.211166205
1072.1968877925
1027.9706386682
986.31202731327
947.0449991265
909.98906833755
874.98885282541
851.67913872794
3072.4955099811
5900.6574758714
6073.9794083095
6049.1576509966
6016.2367239559
5984.912206509
5955.4716588558
5928.1384492006
5903.0989257314
5880.5166221798
5860.4797563077
5843.0165300617
5828.0969039493
5815.6332947672
5805.4884236818
5797.4883301921
5791.4369049919
5787.137077052
5784.726358701
5783.180741347
5782.7992769903
5783.2222491978
5784.5343894849
5786.7238473954
5789.7506228354
5793.5645921072
5798.0987535389
5803.1752550875
5808.6666999164
5814.5543190804
5820.6678593196
5826.8303731871
5832.8579077227
5838.57636918
5843.8439992348
5848.5804249775
5852.8166420539
5856.479274462
5859.0628055604
5861.7039018656
5863.5503188826
5864.7465087657
5864.7275108474
5864.0201816427
5862.9227286141
5861.7891684519
5860.6849440567
5860.0592660237
5859.6006875291
5859.8810742451
5860.8224283509
5862.4171649518
5864.58427055
5867.2335700789
5870.2498236378
5873.7006919417
5877.5908965499
5881.8482499171
5886.4747737101
5891.4147402981
5896.6658649462
5902.2547608672
5908.1922110573
5914.3689243647
5920.8779643985
5927.6816590766
5934.7345046871
5942.0774287341
5949.7445766152
5957.6349830808
5966.0263042525
5973.7270277276
5982.0928547206
5981.0669949079
6365.6652406663
6365.51814318
6594.7980694843
8179.8840844999
10492.19464149
12893.462687602
15184.018067479
17217.049646228
18997.14302356
20353.356720731
21296.117357728
21785.082473832
22004.38287367
21667.992423645
21049.84610009
20179.274262468
19095.102254794
17877.200995659
16601.953235029
15321.069920333
14075.137839173
12890.551283176
11783.688508758
10762.964031053
9830.2058742878
8983.2410964921
8217.6409881378
7527.7402020959
6906.8275226327
6348.2148209892
5845.6244312112
5393.1257380298
4985.3489303483
4617.4387912834
4284.5919469098
3982.8079654542
3709.2678236836
3460.7426300104
3234.5580408354
3028.3636979944
2839.5236520187
2666.6499827556
2508.2622578586
2362.6927142364
2228.7837536188
2105.0622433555
1990.8050856365
1885.1745326504
1787.2944618041
1696.4928461017
1611.9873918687
1533.3787546713
1460.1524012188
1391.8239158863
1327.9842899404
1268.2053176518
1212.2240525105
1159.7316877497
1110.4411254272
1064.1083007756
1020.4957400322
979.41358852695
940.67641809758
904.10112807138
869.57934813963
864.66662150596
3774.3031430841
5967.0069643976
6070.0034220793
6042.7600001863
6010.8089544741
5980.3773979369
5951.7221543885
5925.0544899308
5900.5666500692
5878.4317897181
5858.7596712315
5841.5952702615
5826.9181766468
5814.6443388358
5804.6372876497
5796.7211020273
5790.6980657791
5786.3687665433
5783.8983222724
5782.2333440543
5781.6645176415
5781.907322216
5783.0077351781
5784.965915344
5787.7489288735
5791.3061843383
5795.5752743958
5800.3763557347
5805.5986189007
5811.2262951285
5817.098519954
5823.0522805137
5828.9098857176
5834.5064456793
5839.6997721049
5844.401094929
5848.6320909603
5852.2703386139
5854.7576293205
5857.7798622279
5859.8457909192
5861.4259667426
5861.888389555
5861.5105322087
5860.738303682
5859.9015357807
5859.0457412862
5858.6385811192
5858.3415619841
5858.8323972898
5860.019011591
5861.7577479035
5863.9775910512
5866.6465317835
5869.7137931613
5873.1544942403
5876.9970507205
5881.2628950134
5885.9030718587
5890.8989422178
5896.1983330725
5901.7901166538
5907.7616685316
5913.891399657
5920.4239930434
5927.2014565306
5934.2446754554
5941.5981647387
5949.2516868559
5957.1280758717
5965.5341346609
5973.1962155836
5981.6528606992
5980.3861785342
5844.6649843946
5822.9088325312
5783.6317064515
6372.829029413
7808.4643557628
9540.2192479061
11311.528328012
12947.687181332
14474.610805941
15679.501131502
16679.012355747
17396.341324732
17744.225195151
17697.237447251
17485.211976897
17013.476469318
16324.739568924
15499.515101933
14584.383139916
13619.508453233
12648.080569587
11698.943518982
10791.080107889
9936.2946144029
9141.0421012277
8407.6163186176
7735.0964742757
7121.6774928969
6564.1562852635
6058.0760714363
5598.9535384846
5182.5115952199
4804.6720627661
4461.6473734113
4149.8957368302
3866.3372258382
3608.0766536705
3372.2953973966
3156.7043046633
2959.6140201771
2779.0577594362
2613.4108505149
2461.1791261532
2320.6403237046
2190.9844610788
2071.3256455655
1960.6205531469
1858.1031254013
1762.8383507166
1674.237466568
1591.8877370217
1515.1489399008
1443.5848784248
1376.700706004
1314.0866353807
1255.500429884
1200.5719993418
1149.0252605821
1100.5826956042
1054.9907683602
1012.0664141937
971.60535633263
933.42752247011
897.36719119828
863.25491319926
917.80629344307
4475.698392566
6014.1978514149
6064.6305056425
6035.7782626629
6004.8088581658
5975.3001856729
5947.4764282463
5921.5346521121
5897.6671282129