/*--------------------------------*- C++ -*----------------------------------*\
| =========                 |                                                 |
| \\      /  F ield         | OpenFOAM: The Open Source CFD Toolbox           |
|  \\    /   O peration     | Version:  2312                                  |
|   \\  /    A nd           | Website:  www.openfoam.com                      |
|    \\/     M anipulation  |                                                 |
\*---------------------------------------------------------------------------*/
FoamFile
{
    version     2.0;
    format      ascii;
    arch        "LSB;label=32;scalar=64";
    class       volScalarField;
    location    "0.0002";
    object      pTsat;
}
// * * * * * * * * * * * * * * * * * * * * * * * * * * * * * * * * * * * * * //

dimensions      [1 -1 -2 0 0 0 0];

internalField   nonuniform List<scalar> 
109340
(
389521.89183683
387961.9175376
385012.58520754
381474.43641012
377604.92197151
373614.33124891
369584.53923559
365565.6650339
361644.80411093
357812.79138093
354015.32468512
350248.78318401
346516.73249944
342821.61580585
339165.15286822
335548.86484762
331972.18250297
328432.74218363
324925.78135495
321444.64855269
317979.35925735
314519.04180983
311051.32455735
307561.4300962
304029.61334815
300430.23101485
296729.03652444
292879.91440299
288819.52676979
284458.90634239
279669.98250939
274262.73269558
267950.06624325
260306.87235695
250744.96686414
238535.79635482
389755.31252653
387753.26768852
384447.51932907
380677.90561635
376705.76088662
372711.16697663
368746.29209418
364821.90518548
360934.24519735
357086.68664967
353273.64547252
349496.06288147
345756.39399376
342056.17112356
338396.39659449
334776.66840272
331197.0241196
327654.55372358
324143.69534515
320656.69531219
317183.35026454
313712.54822405
310231.55364836
306724.76212044
303171.29540171
299543.65948958
295805.11378713
291905.84268209
287776.8831296
283320.57610214
278394.52103816
272783.16545081
266148.07144335
257966.49840339
247384.71857258
233490.59714035
390628.18922386
388307.16598581
384664.93893199
380804.20874375
376863.65482725
372923.29989573
368975.88816497
365033.60744082
361121.35521818
357246.8447375
353409.12380012
349608.77390889
345847.63217552
342127.2140337
338449.06233302
334814.25961723
331222.52963622
327671.06058522
324153.8170408
320662.66999595
317186.63276334
313714.40225483
310233.09833998
306726.9112218
303174.82489815
299549.09193187
295812.84323169
291916.15334685
287789.90126257
283335.78870214
278409.78741112
272790.13893354
266110.19727465
257758.98491046
246642.84577147
231017.81698622
391846.47475181
389042.68235575
385210.54112144
381236.05870632
377215.18104166
373189.19961736
369172.56450839
365179.51054218
361226.45859464
357319.11790069
353457.06094033
349639.75925206
345867.37719692
342140.21760754
338458.51319303
334822.22289876
331230.59734151
327680.42835175
324164.76322221
320675.70714894
317200.81737438
313729.34087718
310248.74090618
306743.20081347
303192.25386058
299568.04711282
295833.79813919
291939.60408925
287816.1767915
283364.31608783
278438.03972299
272809.97322926
266076.55897353
257513.88363083
245629.85828716
227078.02991356
393775.61267872
390117.72225957
385717.08920712
381467.18285851
377334.96323636
373268.31331667
369238.20609654
365246.58260799
361297.10084654
357390.20101562
353527.52486603
349709.53508861
345936.58006895
342209.10182785
338527.57969541
334892.44692687
331303.95299234
327760.1043167
324247.19492205
320764.03707543
317292.91578262
313824.61684628
310347.1588072
306844.21067503
303296.42584846
299675.67735779
295945.29832979
292055.3665722
287936.26641641
283487.67599855
278557.99901861
272927.20881755
266144.00123865
257375.4823896
244628.56279026
221614.65488525
397400.37352678
390689.71243216
385837.07508041
381497.51634307
377360.08882131
373302.07470487
369282.36936142
365293.59825234
361342.05269708
357429.27941845
353558.01926417
349729.15245561
345943.23427463
342200.7725917
338502.32865985
334848.60425985
331240.58087425
327684.54782474
324195.7669555
320707.23014064
317228.51936795
313753.19349861
310269.39785379
306761.47378383
303208.89120149
299583.88479235
295849.50981637
291955.82514345
287833.26325794
283381.04011075
278437.44456719
272809.191457
266001.05930963
257133.28053782
243916.04253044
216053.21505374
223830.4917274
209148.71433899
196873.55954023
186957.68474282
178063.85920663
168538.61474374
158011.28501489
146311.37779457
133610.9345576
120234.35030707
105893.09504589
93025.554601569
80559.863654474
69054.638188067
58985.700710825
50212.195489405
42751.038804631
36452.149553952
31157.093911084
26757.791158547
23109.379816887
20056.044828037
17497.498691121
15357.342991501
13551.239984314
11999.180358243
10690.513499426
9594.3577965096
8589.5843552674
7784.5525222358
7035.9551309603
6409.6879479967
5846.7513503297
5351.8259750052
4918.5821519701
4525.9288652154
4183.6614664079
3871.1512044741
3594.1204278298
3344.7144125965
3115.7082428703
2915.0443523592
2723.231046339
2559.6339670109
2398.6400277451
2262.6573220396
2128.2900040858
2012.6345515372
1901.5416488598
1800.8269286913
1707.2635715532
1619.980514292
1539.4517530916
1464.5075392468
1394.794191113
1329.7505511176
1269.0182943163
1212.2137635099
1159.0351310899
1109.1704283781
1062.3419320734
1018.3016407876
976.84698747827
937.79625734509
900.99049115912
866.21441341389
972.61100092498
4719.3392232258
6049.0012972721
6081.6964816881
6045.3693429022
6009.4522363455
5976.1976476869
5945.7538020664
5918.2209786311
5893.615518479
5871.8798477487
5852.9559725084
5836.7637949741
5823.1988986318
5812.1291455966
5803.3913990196
5796.8024916384
5792.1943895149
5789.1794975553
5788.1921208481
5788.2686897851
5789.2206509676
5791.0805057129
5793.9097433555
5797.6316559436
5802.1904707238
5807.5112542588
5813.4557821123
5819.8169869559
5826.6068030613
5833.6207422174
5840.6180802824
5847.3541446248
5853.6217986797
5859.2563007022
5864.1802152316
5868.4066892312
5872.0630501538
5874.9612844532
5876.3102457444
5876.9664492323
5876.3086517989
5874.681763723
5872.4124258329
5869.9491688392
5867.644402655
5865.7443617848
5864.266433182
5863.016462206
5862.6327845038
5862.8451423268
5863.6079104239
5865.4032968676
5867.8360652562
5870.8163028436
5874.090050709
5877.9860855279
5882.312250799
5887.1295262555
5892.3079681091
5897.8491833827
5903.5588020768
5909.4983429336
5915.867273136
5922.6022697993
5929.527781286
5936.7013068356
5944.1444039094
5951.8555942037
5959.6092888149
5968.1063486521
5975.6965206577
5982.9704436328
5983.2036950689
216281.3261327
200779.91674291
189121.7168454
179921.44214296
171111.32187977
161053.59204904
150074.49915266
138235.85724097
125733.8192395
112807.63946098
99799.615948287
87034.634969122
75587.351112666
65092.347576019
55704.744591183
47571.912614736
40600.201078512
34701.221140183
29756.359968564
25621.703463337
22168.072679411
19283.025672169
16862.477274229
14822.349195429
13097.444104777
11631.654575592
10376.760396291
9301.4902673045
8373.3764561741
7566.4127828135
6865.7987330806
6250.3492941597
5711.4148344251
5233.033391371
4810.9654207562
4433.6969803597
4098.3083403453
3796.5276495089
3526.6032322482
3282.1220999587
3062.2571189001
2861.985128376
2680.8705026322
2515.1325586719
2364.3425707699
2225.9034768591
2099.0438258433
1982.3749803146
1874.7969627852
1775.6156660457
1683.7149347976
1598.5583765533
1519.3695037395
1445.8129011555
1377.2981626115
1313.3999176507
1253.7123721896
1197.8840211431
1145.5850793046
1096.5230033014
1050.4345682425
1007.0886642982
966.27777268887
927.8139006253
891.51899169364
856.751868727
1364.7927077751
5446.2709605712
6082.9774583736
6071.5666697613
6034.2720319514
5999.0358903162
5966.5231162877
5936.8193651107
5910.0527544563
5886.1988614549
5865.2090519717
5847.0183048849
5831.5345519547
5818.6396471454
5808.187740969
5800.0057776244
5793.9076123191
5789.7215641832
5787.4556155555
5786.2694211114
5786.3384266013
5787.3206117073
5789.227695845
5792.1146109322
5795.8959363623
5800.504300927
5805.8548311524
5811.8013953302
5818.1334271463
5824.8596074825
5831.7749199393
5838.6457957341
5845.2370028252
5851.3463651328
5856.8296732902
5861.6337492847
5865.800030362
5869.480413978
5872.6158007334
5874.2917725606
5875.3509587535
5875.1702811874
5874.0312026275
5872.1215845913
5869.92054888
5867.7011723933
5865.8111149859
5864.333716659
5863.0796073209
5862.6522359158
5862.8626704193
5863.6244199793
5865.4102112615
5867.7796384398
5870.7531947038
5874.0167271013
5877.9410522023
5882.2379009117
5887.0509023672
5892.2065886855
5897.7120218964
5903.4105201994
5909.3399497289
5915.6979511152
5922.3866400859
5929.3030418748
5936.5038017203
5944.0031610139
5951.8184657749
5959.6211250622
5968.1784251824
5975.8000144478
5983.0998968714
5983.3415614123
209758.00366797
191482.71161173
180914.8941672
170632.97915463
161186.68304935
151458.10361737
140726.27871555
129454.54817379
117823.01041049
105656.53508694
94378.242748373
83144.296246042
72546.751160772
62826.563412895
54073.001194333
46369.980199844
39720.786075293
34072.213355402
29303.555030501
25283.762571958
21912.027696965
19089.991850152
16714.258133728
14707.10351791
13007.451063677
11559.838284597
10320.664440173
9255.2381274832
8336.3360760333
7536.5899767625
6839.83887261
6229.8935458384
5692.6178485043
5218.6305439554
4797.4684395833
4423.3384697128
4088.4701794566
3789.0390198669
3519.3110032824
3276.5868747332
3056.8486345688
2857.7578224298
2676.7594493759
2511.7480781152
2361.1985084779
2223.0690976576
2096.6265065722
1980.03991304
1872.8921680205
1773.7018397642
1682.0967044851
1597.0660510562
1518.0948990925
1444.6151036534
1376.170342598
1312.3610328266
1252.7580670481
1197.0077093994
1144.7731635392
1095.768699331
1049.7350291571
1006.4425485409
965.68148728452
927.26177187059
891.00334887327
856.30556702953
1394.3780731606
5470.0792211435
6083.7254356885
6070.8168483652
6033.647065875
5998.5665010923
5966.1828800444
5936.5775533062
5909.8652811299
5886.0508264551
5865.0874995941
5846.9149367021
5831.4437591464
5818.557166094
5808.1097844173
5799.9284375206
5793.8245221703
5789.6098414511
5787.311881852
5786.1048876045
5786.1497798227
5787.1251011294
5789.0117197549
5791.8675596897
5795.6207766246
5800.203546208
5805.5302028055
5811.4350784531
5817.7471441872
5824.4399557998
5831.3233941957
5838.1643296458
5844.7331322805
5850.8263864992
5856.3001267159
5861.1003061747
5865.2632214548
5868.9236727338
5872.0984430971
5873.7933618381
5874.8720261425
5874.6430068852
5873.5241932135
5871.7037292035
5869.5803089119
5867.4664788521
5865.5816436012
5864.2059821648
5863.0289223394
5862.5240149375
5862.7844203021
5863.610677775
5865.4021467469
5867.7018832124
5870.6783399307
5873.9883667991
5877.9672922843
5882.3172008911
5887.1742921431
5892.3409728363
5897.8283417671
5903.5183129334
5909.5005319203
5915.8334584317
5922.4590614913
5929.3444427603
5936.5249831236
5944.0058707084
5951.755022991
5959.6302014936
5968.1494122917
5975.8211642779
5983.1568221774
5983.353177584
197522.69658727
176228.41698116
166009.24451128
155930.47186134
145855.99708141
136485.98058707
126730.94689474
116913.0651175
106898.88078119
96660.593329832
87409.47991716
77853.814501626
68544.804469745
59836.471587894
51836.417342121
44742.152049813
38545.11590372
33204.357414846
28657.428464229
24815.339117877
21568.488951945
18820.678860743
16507.477846089
14549.479925164
12882.104672886
11459.397910895
10241.626779625
9191.7501503362
8282.7536121197
7494.0616790658
6804.1798874987
6199.8336598346
5667.3196591169
5197.2259560149
4779.475237457
4407.8909016867
4075.4638136485
3777.7192178789
3509.6829812494
3268.3043177435
3049.563426368
2851.5325432938
2671.1624659102
2507.016450386
2356.7674146622
2219.3447250158
2093.1217973676
1977.0390049803
1870.0661277977
1771.1907218916
1679.7990461898
1594.9836822002
1516.2602562968
1442.9351471895
1374.642544358
1310.9442848307
1251.4495996264
1195.7967782577
1143.655916752
1094.7387487334
1048.7820192915
1005.5573320273
964.85911974058
926.49927955789
890.29260020508
855.70666658301
1441.0174458442
5499.4373878023
6084.1745863297
6069.6977199629
6032.7393356201
5997.9035508998
5965.6990449297
5936.2232716355
5909.5897809827
5885.830609421
5864.9054460887
5846.7596698793
5831.3074490821
5818.4338196595
5807.9940884532
5799.8151458338
5793.7068369291
5789.4745124845
5787.1737037675
5785.9428727973
5785.9679612306
5786.9273713616
5788.7903151189
5791.6141060788
5795.3351040626
5799.8857418495
5805.1795801471
5811.0470387975
5817.3257896802
5823.9824597087
5830.8301414155
5837.6389446339
5844.18323591
5850.2596771062
5855.7246962579
5860.5228960534
5864.6870743731
5868.3276258021
5871.5425933622
5873.2394055206
5874.3349283347
5874.1258008264
5873.0524738578
5871.2878180338
5869.2262457394
5867.1585349346
5865.3336888767
5863.9624422377
5862.9096655617
5862.3720967415
5862.7004630619
5863.6070441313
5865.3914108861
5867.5983250073
5870.5875736963
5873.9520172474
5877.958217816
5882.329932761
5887.1835589015
5892.3186310895
5897.7715323967
5903.4403335628
5909.4060293163
5915.7479213758
5922.3720820732
5929.265901913
5936.4505373899
5943.9233446587
5951.6675870715
5959.5252106059
5968.0288332134
5975.7526055503
5983.1352662554
5983.2383685691
171063.28204024
151332.66702157
139999.42370924
131108.32123029
123251.10200509
116009.55992397
109171.61520633
102099.48247332
94922.884224864
87551.310424727
79711.532880767
71702.144482673
63801.339217451
56239.961021109
49196.744008218
42778.04273997
37090.019411476
32137.453283115
27868.174321858
24218.424946691
21117.926024625
18489.866778661
16246.394022018
14342.952790954
12722.349557735
11334.404774077
10138.77701749
9108.774790777
8215.8696646191
7438.3704038422
6758.2648551847
6161.1955055265
5635.1783325017
5169.5278485262
4756.4768098801
4388.0041295251
4058.6766904814
3763.128433747
3497.4146336009
3257.415687609
3040.3427478178
2843.3471598371
2664.1124572878
2500.6798577304
2351.2158719522
2214.407377749
2088.668546723
1973.0882525682
1866.426324996
1767.9819138207
1676.8277669523
1592.305874807
1513.8047368309
1440.7390614228
1372.6619905945
1309.1159633096
1249.7604847314
1194.232636732
1142.2157219902
1093.4097817002
1047.5501913452
1004.4110953946
963.79345858403
925.51134151436
889.36771415457
854.91968299553
1509.7895435989
5535.3760389664
6084.3029325503
6068.2395747714
6031.5927889013
5997.0619507224
5965.0803155573
5935.7648360416
5909.231607078
5885.542972315
5864.6683043905
5846.5582033667
5831.131139375
5818.2747147628
5807.8454516437
5799.670792229
5793.5600207029
5789.3176274022
5787.0159831646
5785.7599958694
5785.7612492709
5786.6924687625
5788.5235736905
5791.3071258071
5794.9853777107
5799.4927093552
5804.7427426815
5810.5636430545
5816.7970098996
5823.4077480367
5830.2105068343
5836.9789008743
5843.4920358962
5849.5478105645
5855.0027889214
5859.8000079988
5863.9684844137
5867.5895978962
5870.8529032179
5872.5582278792
5873.7130884835
5873.5431678129
5872.527445777
5870.8297748748
5868.8372480669
5866.8427325821
5865.0560788462
5863.7408316026
5862.7440017891
5862.2181870056
5862.5785114591
5863.5528836983
5865.3190366861
5867.5122905984
5870.5309272909
5873.9605040726
5877.9692992911
5882.3282809452
5887.1756637297
5892.2816579609
5897.7141417824
5903.3724628611
5909.3558803499
5915.7031871342
5922.3284894391
5929.2234350999
5936.3975630488
5943.8505840995
5951.5660922047
5959.4267999646
5967.9146035963
5975.6749519232
5983.1049646461
5983.1101749583
103571.78544348
99974.581868163
98727.128264606
98608.479484498
97008.983034031
94954.688084868
91662.770922097
87826.736189061
82970.930929286
77573.186186656
71521.979022622
65183.637214368
58706.850486095
52306.864240948
46209.833478978
40554.312725612
35437.297592926
30900.284135328
26941.912586088
23522.984010061
20587.748676653
18076.751104241
15937.766344645
14101.459585889
12528.455991325
11178.758286578
10017.117939412
9008.6944305
8133.3108022799
7370.3804348268
6702.5574788748
6114.160912057
5595.6724634865
5136.4502201745
4728.1378276815
4363.8658699127
4038.1631436311
3745.6040209157
3482.1765260397
3244.276869759
3029.0093251395
2833.3776726261
2655.4000178549
2492.9476910661
2344.464247662
2208.298329513
2083.2466308133
1968.1852380791
1862.0449722336
1764.0071406134
1673.182098895
1589.008808767
1510.7866137758
1438.0242347455
1370.1852374446
1306.8581695629
1247.689532989
1192.326429113
1140.4535677259
1091.7731701989
1046.0342559426
1003.007982578
962.48735165102
924.28379668905
888.22398527628
854.06726013266
1605.1115606229
5576.0501611396
6084.1359409452
6066.4725362833
6030.2419257487
5996.0602953547
5964.33202706
5935.2007407003
5908.7906395993
5885.1880702732
5864.3740251469
5846.3074356822
5830.9120630398
5818.0783240325
5807.6638578027
5799.4965241973
5793.3855004198
5789.1366489117
5786.8292027081
5785.5473265843
5785.5199637388
5786.4173684706
5788.2155280958
5790.9556439007
5794.5836328991
5799.0367316263
5804.2300359216
5809.9906728731
5816.1634721969
5822.713968267
5829.4597242806
5836.1792662418
5842.6546235982
5848.6855779804
5854.129022009
5858.9262349905
5863.0977901046
5866.6684037844
5870.0450136793
5871.7531098451
5872.9647830669
5872.8537216961
5871.9103399307
5870.2856489004
5868.3670090403
5866.4439188671
5864.7156117607
5863.451099319
5862.5280685954
5862.0283695094
5862.4310879349
5863.4705228738
5865.2237470705
5867.4492629965
5870.5425054236
5873.9505179389
5877.9560768514
5882.3475119963
5887.1756090003
5892.2675102735
5897.6757593591
5903.3240719683
5909.3274411253
5915.6644802465
5922.2737257932
5929.1508184637
5936.3015048402
5943.72431076
5951.4163872443
5959.2640988356
5967.7192027517
5975.4909135837
5982.9844264947
5982.8604668535
10106.783616248
46061.438513265
60027.741265136
68531.659122926
73734.884095837
76084.956560138
76067.791462008
74607.685133016
72070.415412999
68640.787375038
64527.431022648
59840.050197787
54777.712722967
49539.099850323
44335.201729538
39354.834505932
34718.227436924
30512.957700479
26771.076895409
23489.07239713
20637.581841622
18175.682462539
16054.881053566
14236.223228389
12665.946295949
11308.662576985
10138.655480845
9124.8118079049
8241.5135967106
7468.2448993913
6792.0546017181
6197.444805603
5671.547929356
5205.3044441163
4791.232574088
4422.0181098627
4091.1403541759
3794.2704742472
3526.9883831938
3285.5756164076
3066.8743509557
2868.3682786477
2687.7382638718
2522.8274860515
2372.0263680968
2233.8212842554
2106.9535840868
1990.1569342839
1882.4361019397
1782.9464936563
1690.8576128705
1605.5025635905
1526.1745598275
1452.3977584341
1383.6689500239
1319.5480554518
1259.6161545604
1203.5214011266
1150.9768355404
1101.6904267758
1055.3969807752
1011.8524373675
970.85472840498
932.22308324479
895.76359993895
860.86705360627
1096.0615137157
5091.9172681065
6060.4777408357
6072.7294683847
6037.5262506855
6003.1498620958
5971.0895211411
5941.5221807975
5914.5723855056
5890.3772217196
5868.9462759441
5850.2551350626
5834.242775037
5820.8116461057
5809.8291581025
5801.1303793147
5794.5279558517
5789.8273453253
5786.6117778377
5785.3064184754
5785.2515664438
5786.1056330943
5787.8585725218
5790.5449111239
5794.1121375145
5798.5007148168
5803.6280082453
5809.3202212092
5815.4241755766
5821.9071953401
5828.5865654137
5835.2450776176
5841.6712285608
5847.6703782701
5853.1003431278
5857.9006587617
5862.1261229965
5865.8858510922
5868.624284313
5870.4151184733
5871.787814319
5871.8127130747
5870.9940806959
5869.4834331528
5867.671573784
5865.8516406927
5864.1993332882
5863.019252688
5862.1733215397
5861.7453941854
5862.2187215702
5863.3615435225
5865.1434761021
5867.4968303317
5870.5461545194
5874.0157843059
5877.9669000199
5882.3209014992
5887.0925277338
5892.1274792417
5897.4814461806
5903.103299513
5909.1374936988
5915.4682749434
5922.0782582341
5928.9619169442
5936.1145443975
5943.5321009864
5951.2152170792
5959.0779489425
5967.5419021867
5975.3271941213
5983.0150294273
5982.7358117004
7949.6714608963
14677.915082717
25086.653269391
33698.031612491
40462.540254811
45375.447409566
48646.411933751
50587.446028536
50758.15171186
50029.542965069
48509.529044985
46229.604230231
43388.406474261
40141.857257496
36676.825546638
33173.975879787
29770.191747376
26563.56043547
23623.06199281
20976.218997681
18624.209394207
16553.880822384
14741.185076604
13158.051587259
11779.365377872
10580.301380394
9532.2465877538
8612.3899094257
7808.2078558596
7101.8367529796
6479.685400161
5927.6287277552
5438.5969366301
5003.6292526932
4615.6331055336
4267.5774565547
3955.4272951921
3674.47110443
3420.8874046123
3191.0084189868
2982.427924099
2792.7174214885
2619.6979044843
2461.4438625375
2316.4264736451
2183.3901565518
2061.0107767984
1948.2078985641
1843.9960240252
1747.6527134119
1658.3992570894
1575.5524954876
1498.5201049781
1426.7950582368
1359.9457422026
1297.5315474237
1239.1660332492
1184.4951080858
1133.2256753507
1085.0959271569
1039.8549966918
997.28158023794
957.17744463369
919.36878303738
883.69167121574
851.84060473255
2043.4024536466
5715.6597724761
6080.9707631399
6059.8467320879
6025.1967779961
5992.1811728249
5961.3333154476
5932.8671734374
5906.9381122016
5883.6773464112
5863.1137721522
5845.2334962862
5829.9795360452
5817.252480092
5806.9134017739
5798.7909136663
5792.6933891016
5788.4283604665
5786.0939470537
5784.7276938849
5784.5935389229
5785.332039662
5786.9694066902
5789.5239697069
5792.94383496
5797.1752985765
5802.1412066178
5807.6662454421
5813.6026692301
5819.9219334193
5826.4439416138
5832.9636921564
5839.2792293622
5845.2006890444
5850.5863702047
5855.3750011132
5859.6081107442
5863.3130018286
5866.0265466299
5868.0218567271
5869.5755364398
5869.9207373968
5869.318773356
5868.0375449033
5866.4259718209
5864.7959217872
5863.2842468972
5862.2464538839
5861.53718379
5861.2792789579
5861.8836705167
5863.1757680788
5865.1068597274
5867.554671356
5870.5587450264
5874.1164642067
5878.0434787616
5882.3549632096
5887.0468013873
5892.0285644003
5897.3135462784
5902.9224765407
5908.9295120288
5915.2121179422
5921.7765732639
5928.6162511736
5935.723797654
5943.093098087
5950.7660939753
5958.6737191153
5967.1388795785
5974.8280581205
5982.8700751931
5982.3803146514
7689.8975236859
8436.1761519491
12983.10292022
18439.810970055
23499.969165176
27788.853110342
31257.848889113
33852.00443451
35575.645172627
36397.487871855
36450.530168147
35831.492085942
34551.983707253
32794.458259863
30665.707541614
28322.604114173
25898.964078018
23500.870306477
21207.955457096
19072.810565165
17122.625392511
15365.298111618
13796.381994828
12404.129221411
11172.640170873
10086.614650126
9129.0118083768
8284.3460046793
7538.841992851
6877.577197847
6290.6798480806
5769.7142106708
5305.4899130909
4891.2348859347
4519.0737324498
4184.9990034814
3884.3605625844
3613.1758735864
3367.4419803479
3144.3443472447
2941.684222671
2756.9711334016
2588.1980462984
2433.4666823688
2291.6758331071
2161.3255458236
2041.3084783331
1930.4819781131
1828.0427665501
1733.2490951375
1645.3471626637
1563.6986282217
1487.7070753974
1416.947934761
1350.9425389565
1289.2852631158
1231.5915774551
1177.5295007379
1126.8327925316
1079.2110071541
1034.4253012098
992.25878908138
952.52021955596
915.04616233361
879.64414065034
850.36065923963
2505.1444806151
5815.1539183099
6077.112167217
6054.8444569931
6021.0386643269
5988.852012004
5958.6782934329
5930.7439341599
5905.2239180503
5882.2680110752
5861.9364233896
5844.236542331
5829.1255480702
5816.5106760317
5806.2542437197
5798.1840281012
5792.106353537
5787.8268476204
5785.4609526567
5784.0144288859
5783.7746324343
5784.3665858365
5785.8573158384
5788.2464986586
5791.4858821932
5795.5251728721
5800.2924739822
5805.6113023738
5811.3421979137
5817.4616802295
5823.7934864369
5830.1463156092
5836.3277510029
5842.155672041
5847.4883482863
5852.2541878258
5856.4932540599
5860.1814783577
5862.8339258811
5865.1104978004
5866.790755862
5867.5565770433
5867.209072658
5866.1867114014
5864.8114261548
5863.4163994241
5862.0929771379
5861.2359485854
5860.649424004
5860.6189955223
5861.3638321597
5862.821633473
5864.8973260546
5867.4229115777
5870.4598088472
5874.0257658988
5877.9521948025
5882.2550454245
5886.9080719084
5891.8624116836
5897.1207913215
5902.7141742286
5908.6616727419
5914.8712698109
5921.3842369722
5928.179440103
5935.2441065807
5942.581070813
5950.2620836727
5958.1405729268
5966.555453736
5974.2546960382
5982.4391036934
5981.6449271945
7008.5427207953
6996.5666933645
8444.4283437225
11608.171238725
15088.338215043
18364.445799476
21270.38729675
23696.399231534
25644.815332847
26936.99434885
27638.929601819
27766.650537438
27468.107253251
26623.550495279
25421.698302082
23929.943011844
22281.951117324
20555.682233439
18827.459381815
17156.494058592
15581.336826116
14124.673546787
12795.210757948
11593.447874907
10513.863166184
9547.913502693
8686.4315937323
7918.6053057756
7233.9427456402
6623.2509959539
6078.2142751858
5590.8599733462
5153.6372726097
4760.9068115432
4407.9103019053
4089.8105352988
3802.4526019244
3541.5186426791
3304.8476561127
3089.8171739515
2893.8608066007
2714.894967881
2550.768568664
2400.4328627932
2262.2970610375
2135.1908928127
2017.8408374069
1909.3721975176
1809.0938659567
1716.137240562
1629.872994281
1549.6096337187
1474.8910929506
1405.264199042
1340.2675538581
1279.5042338796
1222.5908745172
1169.2555004281
1119.2111680479
1072.1968893529
1027.9706413838
986.31203002064
947.045002531
909.98906511276
874.98885341037
851.6790437251
3072.496004964
5900.6577948544
6073.979549538
6049.1576815229
6016.2367476975
5984.9122214691
5955.4716680279
5928.1384519868
5903.0989221522
5880.5166139889
5860.4797446445
5843.0165159473
5828.0968884897
5815.6332790899
5805.4884088129
5797.4883169257
5791.4368939315
5787.137067842
5784.7260801001
5783.1807346244
5782.7992728499
5783.2222469325
5784.5343879296
5786.7238467482
5789.7506223187
5793.5645915953
5798.0987531221
5803.175254934
5808.6667002547
5814.554319886
5820.6678609664
5826.830375915
5832.8579115804
5838.5763742648
5843.8440053431
5848.5804315904
5852.8166487603
5856.4792866064
5859.0627886197
5861.7039141627
5863.5503247141
5864.7465157254
5864.7275173536
5864.0201860709
5862.9227314267
5861.7891710755
5860.6849479291
5860.0592689555
5859.6006897337
5859.8810734016
5860.8224240322
5862.4171555377
5864.5842555287
5867.233549492
5870.2497985419
5873.7006642769
5877.5908675139
5881.848221954
5886.4747477457
5891.4147172069
5896.6658457196
5902.2547461683
5908.1922009166
5914.3689198101
5920.8779660332
5927.6816659117
5934.7345167247
5942.0774443421
5949.7445966422
5957.6350060437
5966.0263254079
5973.7270444544
5982.0928605367
5981.0669765368
6365.6652474552
6365.5181509426
6594.7980514359
8179.8840860616
10492.194632093
12893.462662166
15184.018065503
17217.049551045
18997.142599419
20353.357812995
21296.119512567
21785.080712991
22004.390276812
21667.988157889
21049.849716168
20179.272739351
19095.101879547
17877.201601907
16601.953337619
15321.069867342
14075.137826786
12890.551295
11783.688524117
10762.96404745
9830.205885797
8983.2411002686
8217.6410014655
7527.7402218713
6906.8275306653
6348.214812291
5845.6244199304
5393.1257319501
4985.3489209821
4617.4387741561
4284.5919388899
3982.8079743494
3709.2678323164
3460.7426344443
3234.5580483619
3028.3637012875
2839.5236417074
2666.649971257
2508.2622462909
2362.6927110355
2228.7837493424
2105.0622343852
1990.8050858037
1885.1745369747
1787.2944677935
1696.4928527404
1611.9873966383
1533.3787618947
1460.1524079601
1391.8239202763
1327.9842935447
1268.2053194861
1212.2240549595
1159.7316907629
1110.4411278135
1064.1083038276
1020.4957423118
979.41358945105
940.67641816289
904.10112872603
869.5793482715
864.66677867007
3774.3044872054
5967.0072028269
6070.0035201048
6042.7600352705
6010.8089798358
5980.3774154332
5951.7221663214
5925.0544953771
5900.5666491544
5878.4317833696
5858.7596605463
5841.5952565283
5826.9181613342
5814.6443233778
5804.6372732435
5796.7210895538
5790.6980558431
5786.3687586707
5783.8980445169
5782.2333378686
5781.6645140845
5781.9073217698
5783.0077337176
5784.965914384
5787.7489280335
5791.3061834385
5795.5752736158
5800.3763552273
5805.5986187839
5811.2262954885
5817.0985210523
5823.0522825486
5828.9098887871
5834.5064498747
5839.6997772924
5844.4011006431
5848.6320967778
5852.2703497259
5854.7576131234
5857.7798730799
5859.8457960423
5861.4259725174
5861.8883955738
5861.5105368303
5860.7383068804
5859.9015389504
5859.0457462061
5858.6385854824
5858.3415647323
5858.832396319
5860.0190048643
5861.7577352398
5863.9775727161
5866.6465086569
5869.7137663666
5873.1544662993
5876.997024068
5881.2628708119
5885.9030509786
5890.8989249057
5896.1983197529
5901.7901076252
5907.7616635374
5913.8913997434
5920.4239983409
5927.2014678286
5934.2446903787
5941.5981844817
5949.2517107249
5957.1281027475
5965.5341614325
5973.1962359818
5981.6528735385
5980.3861699141
5844.6649602263
5822.9088203841
5783.6317171101
6372.8290296571
7808.4643446517
9540.219249334
11311.528331759
12947.687193003
14474.611193793
15679.499458258
16679.007649668
17396.344307161
17744.228229492
17697.229214185
17485.213686204
17013.478600616
16324.740148645
15499.51498616
14584.382782816
13619.508507892
12648.080527807
11698.943463717
10791.080073495
9936.294602682
9141.0421001563
8407.6163223044
7735.0965007627
7121.6775144738
6564.1562841694
6058.0760575425
5598.9535245036
5182.5115852067
4804.6720609854
4461.6473795683
4149.8957493331
3866.3372388339
3608.0766629547
3372.2953966733
3156.7042987038
2959.6140133128
2779.0577482583
2613.4108387412
2461.1791206052
2320.6403216485
2190.9844576309
2071.3256421947
1960.6205547338
1858.103131672
1762.838356161
1674.2374705231
1591.8877441239
1515.1489456191
1443.5848826112
1376.7007144583
1314.086640606
1255.5004364223
1200.5720044269
1149.0252647379
1100.5827006413
1054.9907729037
1012.066417292
971.60535777504
933.42752232475
897.36719685694
863.25492551495
917.80669150786
4475.6996182124
6014.1980030198
6064.6305260922
6035.7782965067
6004.8088843533
5975.3002054432
5947.4764416001
5921.5346591693