/*--------------------------------*- C++ -*----------------------------------*\
| =========                 |                                                 |
| \\      /  F ield         | OpenFOAM: The Open Source CFD Toolbox           |
|  \\    /   O peration     | Version:  2312                                  |
|   \\  /    A nd           | Website:  www.openfoam.com                      |
|    \\/     M anipulation  |                                                 |
\*---------------------------------------------------------------------------*/
FoamFile
{
    version     2.0;
    format      ascii;
    arch        "LSB;label=32;scalar=64";
    class       volScalarField;
    location    "0.0002";
    object      rho;
}
// * * * * * * * * * * * * * * * * * * * * * * * * * * * * * * * * * * * * * //

dimensions      [1 -3 0 0 0 0 0];

internalField   nonuniform List<scalar> 
109340
(
662.48312824132
662.47807433176
662.4684655378
662.45684457893
662.44401437186
662.43064630999
662.41700015844
662.40320715762
662.3894146696
662.37529152539
662.36019858332
662.34352554055
662.32454147276
662.30235830135
662.27591669291
662.24396310972
662.20500322794
662.15724541379
662.09851628753
662.02614939242
661.93682335221
661.82636925167
661.68949933321
661.51943985911
661.3074067126
661.04187231425
660.70747999331
660.2833978596
659.74071041857
659.03809096387
658.11423581675
656.87378344013
655.15935401132
652.69280673999
648.94523349184
642.83304655147
662.48388351555
662.47739770297
662.46661746549
662.45421465068
662.44101499145
662.42760145202
662.4141423968
662.40062688711
662.38685564575
662.37249857475
662.35704713241
662.33987046944
662.32019587683
662.29709104023
662.26944800858
662.23595114426
662.19504223184
662.14484455712
662.08307390021
662.00691710678
661.9128648357
661.79650010626
661.65220676264
661.47277050683
661.2488098685
660.96797024029
660.61372714993
660.16354989203
659.58595968039
658.83558661405
657.84437444047
656.50482943475
654.63548229843
651.90499039717
647.64475761
640.40763963884
662.48670260965
662.47919663405
662.46733018868
662.45463289245
662.44154297251
662.4283181328
662.41492784957
662.4013707682
662.3875511157
662.37315386824
662.35768501371
662.34051037208
662.32085274569
662.29777754548
662.27017699724
662.23674054414
662.19590923378
662.14580867989
662.08415559264
662.00813892214
661.9142486039
661.79806769325
661.65398008979
661.47476949845
661.25105223596
660.97046888435
660.61648866828
660.16657443461
659.5892437293
658.83911764144
657.84809994135
656.50843099953
654.63665375626
651.89055895163
647.54774469034
639.861731593
662.4906274501
662.48158164188
662.46911624869
662.45606100742
662.44271778363
662.42921659543
662.41560110775
662.40188806712
662.38796392983
662.37350899653
662.35803031195
662.34088836417
662.32129840977
662.29831972034
662.27083736031
662.23753329935
662.19684251306
662.14688349906
662.08536082447
662.00945223154
661.91561996397
661.79941589007
661.65517776433
661.47562060564
661.25126810713
660.96962395052
660.61396404658
660.1614748615
659.58027504181
658.82438968033
657.82477694147
656.4720251129
654.57789551786
651.78214072354
647.27497144266
638.75160324957
662.49681911802
662.48506069608
662.47077437301
662.45682779561
662.44312168237
662.42948802588
662.41583014154
662.4021324657
662.38825183089
662.37385680163
662.35846104523
662.3414217742
662.32194121808
662.29905837167
662.27162811876
662.23828886911
662.19741631053
662.1470482941
662.08473371215
662.00751966156
661.9116122654
661.79224333319
661.64330527777
661.45688305244
661.22264060846
660.92686854747
660.5511460812
660.07026236404
659.44890461924
658.6360784669
657.55505132075
656.0847275039
654.01451155029
650.93352218592
645.85753091429
635.32881036058
662.50836846366
662.48686856614
662.47109349257
662.45682156393
662.44306659084
662.42943195104
662.41578108283
662.40203859
662.38797903534
662.3731357414
662.3568349134
662.33818510333
662.31607188684
662.28913652363
662.25573921818
662.21390401026
662.16124066351
662.09486831314
662.01134511235
661.9057510988
661.77215835642
661.60291205714
661.38807393322
661.11465618145
660.76555376097
660.31801093026
659.74139277598
658.99379279352
658.01664016251
656.72562275109
654.99401027185
652.62466794004
649.27240121885
644.26402340667
635.94214404097
617.34109919615
632.31757778317
614.69409072429
587.64724703216
550.91613946796
506.18131050777
455.18105310926
400.10186090132
343.3312276462
287.53300319216
235.27259532239
187.55418660014
148.16976273864
115.64562906341
89.69980056394
69.70885873295
54.379992540417
42.753439686415
33.919829725037
27.172186523852
22.014209527207
18.042711476963
14.93896188522
12.492065199828
10.551721024821
8.9919462070383
7.7136335329125
6.6785850041145
5.8355153381472
5.0987282767312
4.519186565662
3.9991364984004
3.5755548628062
3.2017655428506
2.8835950181016
2.6076377708971
2.3655705996903
2.1556657412123
1.9697572292533
1.8056016315798
1.661635648478
1.5302108070741
1.4172205653427
1.3104957436207
1.2203840954868
1.1332519638054
1.0598815937598
0.98884588890479
0.92768072604549
0.87004628515025
0.81788635978307
0.77004604476337
0.72580378641219
0.68530117338913
0.64790931178428
0.61339156586732
0.58142431057035
0.55178848010193
0.52425991308671
0.49865906345169
0.47480770022285
0.45254858914527
0.4317418086279
0.41227126297298
0.39403323748942
0.37693685424865
0.36087106230968
0.40071846706548
1.8679844108098
2.3517375340406
2.3297181116731
2.284364106921
2.2421375670467
2.2034963994147
2.1681380928761
2.1357973569788
2.106223082436
2.0791754477796
2.0544449868319
2.0318318429663
2.0111319967117
1.9921306742181
1.9746056631806
1.9583433299459
1.9431669363309
1.9272278418337
1.914003479262
1.9015474740717
1.8899097905963
1.8792198542828
1.8695874576188
1.8610140025136
1.8534247675841
1.8466546556777
1.8404451263762
1.8344712704307
1.8284584458361
1.8220200280742
1.814761996052
1.8063444515521
1.7965562911199
1.7853738434671
1.7730008695624
1.7598444299297
1.7464587280111
1.7299377336
1.717804423095
1.7073409736265
1.698939416805
1.693022548423
1.6892420634075
1.6866097239563
1.6841630256611
1.6814133226184
1.6781895475133
1.6744145245799
1.6702950064737
1.6657955271027
1.6609398202954
1.6558883549166
1.6505321571212
1.6448114691399
1.6386055164103
1.631958642626
1.6248035615537
1.6171949905462
1.6091949196174
1.6009518314755
1.5925997139099
1.5843672048452
1.5765416552444
1.5693094295181
1.5627847111015
1.5571068568007
1.5523456819122
1.548488969466
1.5452856050891
1.5423731168907
1.5380223914755
1.5295654438092
1.5102446849759
627.20412688492
604.64514745125
571.17118540783
528.30295216586
478.68136497814
424.12720784161
367.61707793357
311.7608927983
258.94033854133
210.91542454989
168.78392905754
133.04615188758
104.50534830027
81.760613401618
63.937452559654
50.227576374845
39.71637335154
31.675407133671
25.516673090277
20.769481150109
17.082952714832
14.197236341337
11.914332945053
10.089735990485
8.6189326222505
7.4218541757172
6.4369948206947
5.6227003782729
4.9424188070023
4.3690214635267
3.884460338942
3.4699649742161
3.1153495934741
2.8077638876119
2.5418201899988
2.3088044236972
2.105312397751
1.9253962073468
1.7669657090539
1.6257075595899
1.5004018679947
1.3878749083791
1.2873365356491
1.1965200131036
1.114779550694
1.0406180521776
0.97332902389413
0.91210091248035
0.85616659829591
0.80508568218413
0.75816793176646
0.71506943256674
0.67532519842078
0.63869260695835
0.6048315779391
0.57348132801049
0.54440398377708
0.51739133145054
0.49225350246196
0.46882211841481
0.44694746645413
0.42649787445976
0.40735611214134
0.38941663852293
0.37258139832956
0.35655889563711
0.55522581794064
2.1441679153286
2.3556908115081
2.3174769664492
2.2725534082998
2.2312853059878
2.1935315201891
2.1589793479834
2.1273848261214
2.0984918666871
2.0720724024756
2.0479200430228
2.0258326280213
2.0056011702846
1.9870064682477
1.9698259187213
1.9538519431961
1.9389181458463
1.9266144672938
1.9133326545047
1.9008830204245
1.8892643956549
1.8785989988412
1.8689941263197
1.8604479876658
1.8528820348373
1.8461281395459
1.8399256354238
1.8339489784093
1.8279231016828
1.821461842607
1.8141739425312
1.8057226095003
1.7958981488119
1.7846825807525
1.7722860785358
1.7591230555997
1.7457537691546
1.7293100216802
1.7172726442796
1.7069198041494
1.6986404098732
1.6928389428636
1.6891307629482
1.686537791223
1.6840689998389
1.6812575424875
1.6779459327688
1.6740551832764
1.6697803115428
1.6651089444773
1.660053842609
1.6547728669185
1.6491440555756
1.6431377335655
1.6366174558921
1.6296428125454
1.6221274701602
1.614157949026
1.605795993421
1.5972043965223
1.5885400442718
1.5800386568656
1.5719980426094
1.5646017636981
1.5579848652381
1.5522853580238
1.547567509093
1.5438162937867
1.5407406789477
1.5379869411731
1.5338060319195
1.5255264039013
1.5063932874083
624.41176689445
595.96861747
555.19251283715
504.24047241194
448.7435706101
391.80070557249
335.5629536085
282.52950061704
234.17574619185
190.80717496651
154.3378141145
123.31476377513
97.804758595935
77.294538224446
61.034501129857
48.312560326239
38.450761842858
30.844642741642
24.964136540346
20.389087987436
16.8153492788
14.007747434609
11.777122374937
9.9885801485474
8.5434776546348
7.364319088155
6.3936484374738
5.5883384538961
4.9158956780655
4.3481680620482
3.8671120241647
3.4565139804788
3.1035165937295
2.7987972999137
2.5337280386833
2.3026613244654
2.0996698139901
1.9211336869839
1.7629511567974
1.6226689906032
1.4975297156612
1.3856276440429
1.2852239165042
1.1947738968814
1.1132126649194
1.0392038218622
0.97215836586228
0.91097327977415
0.85526274899995
0.80418371841747
0.75741326230817
0.71438104463662
0.67473924245734
0.63814933790452
0.6043237468211
0.5730176714739
0.54398106554748
0.51700575649869
0.49189858621809
0.46849445537769
0.44664530809519
0.42622026771381
0.40710118094036
0.38918166958106
0.37236300350023
0.3563699087067
0.566946736291
2.1531312832514
2.3556360734444
2.3168693550457
2.27201367806
2.2308245990269
2.1931409405206
2.1586472958991
2.1270938080299
2.0982348366602
2.0718431196553
2.0477137478752
2.0256451764615
2.0054287535622
1.986845685369
1.9696739358432
1.9537059778245
1.9387708999635
1.9264771409734
1.9131979322179
1.9007513975534
1.8891424658714
1.8784831071401
1.8688809481647
1.8603378096191
1.852774627961
1.8460230435729
1.8398167180294
1.8338432085668
1.8278172746304
1.8213582545829
1.814075666916
1.8056343308988
1.795823352603
1.7846232854763
1.7722421382781
1.7590910291652
1.7457238083092
1.7292939891848
1.7172540760536
1.7068867336916
1.698555317194
1.6927028377029
1.6889511208834
1.6863006964302
1.6837588707445
1.6808053129271
1.6773265185271
1.6732013202907
1.6685837358024
1.6635413328129
1.6580565033327
1.6522669891645
1.6460461582747
1.6394042748633
1.6321999659448
1.6244914942284
1.6162075466943
1.6074541614569
1.5983136017805
1.5889783164964
1.5796434042552
1.5705863290627
1.5620909100742
1.554362891401
1.5475589051332
1.5418078889586
1.5371633233634
1.533577167619
1.5307826802071
1.5283388401535
1.5245286596738
1.5166349012883
1.4979005199735
618.17344305085
576.30844635812
520.57390549756
458.22524524354
396.25640981164
339.1764521445
287.33451839969
241.47219340318
201.07318842128
165.67266211052
136.37247398031
110.89247230013
89.37072403518
71.651913963257
57.262642561968
45.825259376267
36.808438952765
29.736108848534
24.204347661442
19.873157049039
16.459142534225
13.747271084156
11.587811428058
9.8506979748604
8.4390265379536
7.2841868714511
6.3326964400821
5.5409546685182
4.8774153033959
4.3183679527824
3.8428096644537
3.4366428887454
3.0871454235806
2.7853062589847
2.5225709982835
2.2933186065674
2.091901448786
1.9145340648446
1.7573968135112
1.6179892662829
1.493462616688
1.3822140912371
1.2821945118817
1.1922476023328
1.1108873627642
1.0372657046492
0.97036884217625
0.90944908722247
0.8538569699381
0.80294224059097
0.75629564276835
0.71337573792053
0.67386248815196
0.63735414488485
0.60360706872912
0.57235999233918
0.54337900837453
0.51645354214384
0.49139311317422
0.46803199560209
0.44622045116719
0.42582839210731
0.40673951388688
0.38884837925629
0.37205420178518
0.35611148078199
0.58544589859358
2.1640811816373
2.3553007432453
2.3159729502741
2.2712310483858
2.230165190512
2.1925803810386
2.1581665802917
2.126672413673
2.0978619337665
2.071510248817
2.0474142053663
2.0253730389744
2.0051785653217
1.9866125900055
1.9694539803668
1.9534959280496
1.9385666629901
1.926295418017
1.9130224832283
1.9005857968306
1.8889897948294
1.8783418783685
1.8687484898218
1.8602130152944
1.8526559298045
1.8459086931846
1.8397044430433
1.8337344831743
1.8277126806332
1.821260669996
1.8139898389837
1.8055661455571
1.7957774857943
1.7846022238138
1.772245100055
1.7591135217936
1.7457520864832
1.7293379355688
1.7172866376345
1.7068938837651
1.6985106906265
1.6925846987625
1.6887429986953
1.6859879441539
1.6833001866765
1.6801412632443
1.6763580797499
1.6718665178676
1.6667354538579
1.6611039498714
1.6549335592076
1.6483364591687
1.6411874538805
1.6335491581409
1.6252694845492
1.6164027580343
1.606914241855
1.5969419446216
1.5866114133132
1.5761663883856
1.5658471494036
1.5559675361814
1.5468476892433
1.5386951312259
1.5316740840452
1.525902003642
1.52141340349
1.5181313847926
1.5157525012075
1.5138010463625
1.510550172764
1.5032396329905
1.4851077107733
597.29960266309
520.44267192325
438.66587906911
369.13388572667
312.57571490444
266.2626526761
227.72564755158
194.48139235677
165.52712598456
140.10896689308
117.33981426222
97.269244821453
79.904369433113
65.180236563793
52.936485912544
42.908708414813
34.836940487709
28.40283159321
23.28997399435
19.230578892113
16.004183786922
13.429184117075
11.351298171207
9.6731255915086
8.3071266755596
7.1847693418478
6.2542957541538
5.4797773346169
4.8294780334074
4.2796997882676
3.8117235942661
3.4111604660213
3.066397572941
2.7678540368805
2.508325325854
2.2812443958822
2.0818705323569
1.905965200831
1.7502801347669
1.6117850739474
1.488261527949
1.3776728184176
1.2783190545772
1.1888243611288
1.1079137048894
1.0346608343339
0.96804332604599
0.90741240603843
0.85200335972892
0.80132320104049
0.7548160370125
0.71205419199031
0.67266480228868
0.63629024360791
0.60265628256535
0.57149058813949
0.54258342081182
0.5157235180463
0.49072640150118
0.46742164922272
0.44565909886897
0.42531003706269
0.40626103337157
0.38840772410048
0.3716446323985
0.35576544991665
0.61274080343017
2.1774219119327
2.3546743166146
2.3147978098682
2.2702226583457
2.2293144169644
2.191855045685
2.1575420937996
2.1261242743249
2.097376436894
2.071077150812
2.0470246992459
2.0250192446587
2.004853310145
1.9863096201917
1.9691683850595
1.9532242054469
1.9383066729101
1.9260616926874
1.9127992108594
1.9003764495591
1.8887954725519
1.8781627784152
1.8685818582204
1.8600566235192
1.8525074526834
1.8457659256697
1.8395654005853
1.8335997734823
1.8275840840493
1.8211421792931
1.8138876659984
1.805487883513
1.7957294837783
1.7845878085797
1.7722632962191
1.75915860586
1.7458069066466
1.7294135768757
1.7173492691332
1.7069338912397
1.6984861986708
1.6924615299136
1.6884964046572
1.6855952680123
1.6827114483962
1.679257181044
1.6750657945539
1.6700285241705
1.6641911354142
1.6577094454723
1.6505564627917
1.6428174539038
1.6343951341779
1.6253653440643
1.6155867105194
1.605112807716
1.5939693583851
1.5823583604574
1.5704605834641
1.5585889286127
1.5470341369748
1.5361598034172
1.5263066150317
1.5176901659282
1.5104725170392
1.5047527613777
1.5005377203105
1.4977066536979
1.4959225298505
1.4946474901225
1.4921371861071
1.4855964453557
1.4682806047396
449.01593947183
325.0945981578
272.82901671378
240.96959855432
214.20378007514
191.51585992209
170.31939403685
150.99380192302
132.42111332431
115.06233594112
98.707164817973
83.754454476914
70.288107230799
58.431200927666
48.261864024816
39.713248095821
32.650503802665
26.891848402623
22.238363309278
18.491682010435
15.475181050732
13.041215226517
11.073724983891
9.4661014851181
8.1485901753276
7.0626493027392
6.1617401596876
5.4063707538679
4.7708650410652
4.2327688240987
3.774205022167
3.380283510718
3.0410587016026
2.7470342476739
2.4908705189176
2.266628904977
2.0696554207075
1.8956744366581
1.7414824903618
1.6042908416636
1.4818824522983
1.3721308167188
1.2735369898355
1.1846303022136
1.1042884352498
1.0314240612684
0.96519816068901
0.90487199932163
0.849751963889
0.79930542466268
0.75298382616618
0.71041374878562
0.67117721633494
0.63496242432026
0.60145557732744
0.57040454356144
0.54159580184552
0.51482182620067
0.48989976871787
0.46666019791513
0.44495914895467
0.42466681617508
0.4056665910971
0.38785335422001
0.37113165829765
0.35538294935034
0.65053461240095
2.1924309616518
2.3537659361449
2.3133549295982
2.2690024950539
2.2282812145482
2.1909691860711
2.1567754584695
2.1254513588347
2.096780274809
2.0705448206069
2.0465456649425
2.0245841402629
2.0044535652137
1.985937696548
1.9688183235737
1.9528919720919
1.9379907223693
1.9257734729791
1.9125257363407
1.9001206980352
1.8885589366667
1.8779474497216
1.8683842036526
1.8598726293241
1.8523331428839
1.8455979484181
1.8394012426582
1.8334396342947
1.8274305048206
1.8210007626379
1.8137669532629
1.8053972441317
1.7956768743762
1.7845774909417
1.7722942045085
1.759222509392
1.7458747173201
1.7295260026093
1.7174430907393
1.7069953040694
1.6984716994455
1.6923252596743
1.6882018841516
1.6851113701153
1.6819698664784
1.6781352617862
1.6734019800724
1.6676420029125
1.6608654782551
1.6532445663358
1.6447668397849
1.6355045699134
1.6254045500672
1.6145492259121
1.6027827749283
1.5902344333994
1.5770024652156
1.5633508531525
1.5495591153108
1.5360079409778
1.5230510366529
1.5110977820389
1.5004935026199
1.4914559933258
1.4841344317585
1.4786003367425
1.4748203369782
1.4726211616175
1.4716125860236
1.4711948792164
1.4695940049853
1.4639974291962
1.4477009125299
15.292984363706
103.8139972534
127.55333838522
136.53528400556
138.06384636881
134.03366364714
126.29047663116
116.78259510657
106.35423522393
95.465212488121
84.505045765152
73.73993219084
63.49357040375
54.014843933285
45.506108396943
38.083526718244
31.747176062886
26.440596441779
22.055319206564
18.461720193056
15.528490749088
13.136687452522
11.181715761437
9.5825646667293
8.2620714910955
7.1663573786532
6.2556120740522
5.49274487519
4.8488366172183
4.3015510868374
3.8355039680384
3.4357793792512
3.0905051397004
2.791009781345
2.5303497212314
2.3022957611381
2.1016030968817
1.9245289407728
1.7676235560002
1.6280171761181
1.5033446475545
1.3916922254851
1.2913867104606
1.200924394903
1.1191560874778
1.0450418946978
0.97771620755168
0.9163621212672
0.86031854755437
0.80903487908558
0.7619843557742
0.71874430413423
0.67888881907292
0.64211274930447
0.60811289966092
0.57662343611292
0.5474004666226
0.52023554054028
0.49495715944505
0.47139696978861
0.44940404869169
0.42884127344099
0.40959342991511
0.39155789349433
0.37462973009213
0.35853608401998
0.44933954571145
2.0107873862817
2.352502748585
2.3229214814456
2.2782765104632
2.2368734367546
2.1989129015981
2.1641095019017
2.1322028983616
2.1029841510388
2.0762375717011
2.0517638534086
2.0293666908713
2.0088428381216
1.9899792427818
1.9725586138348
1.956374162713
1.941249720596
1.925430924911
1.9122032071162
1.8998215617971
1.8882818486908
1.8776938368573
1.868151073164
1.8596555204322
1.8521275835582
1.845400397913
1.8392092556973
1.833253410438
1.82725337204
1.8208385477945
1.8136285145351
1.8052934189288
1.7956178876238
1.7845693563792
1.7723366455618
1.7593197823449
1.7460499539537
1.7297592772673
1.7176616766803
1.7071719994749
1.6985208071179
1.6921512780422
1.6877292937321
1.6842750662188
1.6806358333534
1.6760596881373
1.6702661020501
1.6630630237893
1.6544281000185
1.6445343813951
1.6334133463599
1.6211563641781
1.6077947709718
1.5933632248172
1.5778450429039
1.5614207287069
1.5443669573438
1.5271040406349
1.5100777769597
1.4937782898374
1.4786414342132
1.4651235463434
1.4535408113601
1.4440914729472
1.436882215371
1.4319237049789
1.4291035857342
1.4281525814214
1.4285935927531
1.4297411886312
1.4297292443341
1.4258143798411
1.4113700547356
6.8300345622802
18.244908783753
32.54057912568
44.466144686983
53.524738067037
59.530227038345
62.688774345917
63.489579424982
61.764288703383
58.753353405913
54.770864145773
50.049186656142
44.945085397161
39.724070613821
34.642924068743
29.904681551148
25.628922152724
21.868223072856
18.630557367742
15.883335856063
13.572655211055
11.639452359696
10.024682866829
8.6746328764377
7.5449897314011
6.5978522318527
5.7981722827461
5.1187994751929
4.5418552374265
4.0487251071401
3.6252592185523
3.2585635399961
2.9408072396014
2.6639897890106
2.4218197781636
2.2086054854087
2.0206344630103
1.8541782359758
1.7062277745224
1.5740792722273
1.4558166712853
1.349654042999
1.2540323079166
1.1676140159737
1.0893198004105
1.0182622145509
0.95357017488128
0.89452854153811
0.84050284251069
0.79100455205701
0.74554721363823
0.70370521383431
0.66511379947077
0.62945965398548
0.59647533115209
0.56590103392411
0.53750871582088
0.5110937950823
0.48648389232267
0.4635265615366
0.44207897546292
0.42201535911273
0.40322374706736
0.38560569429217
0.3690700360868
0.35429086610982
0.82386697648217
2.2432263306063
2.3490301335046
2.3076383382395
2.2641772833207
2.2241419022594
2.1873821486329
2.1536447219913
2.1226955211315
2.0943344335563
2.068359972543
2.0445797724999
2.0227994386058
2.00281558221
1.9844161804228
1.9673893855411
1.9515395665533
1.9367077674042
1.9245888964983
1.9114099347373
1.8990828087553
1.8875952283343
1.8770643359155
1.8675726816326
1.8591175351411
1.8516186176457
1.8449114462208
1.8387342775808
1.8327930723344
1.8268159975703
1.8204397094302
1.8132919207294
1.8050458670314
1.7954821526826
1.784557438809
1.7724462235949
1.7595308604887
1.7463070274079
1.7301013401254
1.7180077037054
1.7074294423259
1.6986045868853
1.6918729406369
1.6869537022516
1.6828587591691
1.6783091018416
1.6723204320228
1.6644262685888
1.6542840116911
1.6418037933166
1.6271567103775
1.6105157011031
1.5921595681994
1.5722720139708
1.5510237853743
1.5286680712805
1.505576371067
1.4823772866697
1.4597843584845
1.4384304607556
1.4188802866257
1.4015810374436
1.3869011268138
1.3750264083945
1.3660464031468
1.3599580398317
1.3566547852923
1.3558905809715
1.3572990924163
1.3603058577773
1.3640016871844
1.366575512434
1.3653744967208
1.3540015316269
5.4400285179989
8.0334608367655
12.988207849802
18.981870674258
24.626454167876
29.42465453517
33.167021078405
35.731385759872
37.098988879365
37.255132738564
36.467496243564
34.90034195847
32.64141183106
29.966530161377
27.053245273973
24.09195273599
21.229985759277
18.566193814105
16.158423326051
14.029905805925
12.178054732694
10.583784932225
9.2199508318023
8.056994386746
7.0659477481109
6.2215809264941
5.5006537670727
4.8835278740361
4.3537961263705
3.8962389983061
3.500007467831
3.1561654783993
2.8562804952653
2.5939647107918
2.3628400782141
2.1590299409236
1.9786702223631
1.8185330180125
1.6756241310582
1.5477354686328
1.4331131601176
1.3299812070133
1.2369040313862
1.1525815272469
1.0761609763817
1.0066552826336
0.94330886978779
0.88538997198762
0.83235467803405
0.78371512284087
0.73899960485533
0.69780947413168
0.65978092435583
0.6246404794765
0.59210309151204
0.56192553567211
0.53388359244879
0.50778289677022
0.48346438641761
0.46076430072024
0.43954587402488
0.41968626332111
0.40107692250537
0.3836244883545
0.36722638717403
0.35349105053917
1.0059360970204
2.2787068216455
2.3444377233816
2.3029052753021
2.2600291596388
2.2205349604773
2.1842309699822
2.1508782621979
2.1202547319549
2.0921678897864
2.0664260335728
2.0428419555697
2.0212245095757
2.0013730104952
1.9830790300848
1.9661361322551
1.9503552931125
1.9355843936945
1.9235416824168
1.9104226528806
1.8981620890256
1.8867391344621
1.8762787973172
1.866850287115
1.8584459569083
1.8509835562712
1.8443012101659
1.8381411312287
1.832218124004
1.8262698767706
1.819942326214
1.8128730902643
1.8047389357887
1.7953164783045
1.7845491425231
1.772590845633
1.7598062280041
1.7466612297061
1.7305388003205
1.7184670915581
1.7077642849048
1.6987553607852
1.6915975614901
1.6860638061192
1.6811268785399
1.6753507792994
1.6673716679139
1.6563837382556
1.6417666980627
1.6233649013486
1.601399710451
1.5764323608194
1.5492138859708
1.5204007699492
1.4905300704135
1.4602423022207
1.4302621673168
1.4015233345024
1.3748505074623
1.3508707624153
1.3299895629211
1.3124547108059
1.2983884312157
1.2877644967517
1.280509763323
1.2765015710414
1.2755312377757
1.2772671249209
1.2812609125991
1.2868522225769
1.2931349367923
1.2981903221639
1.299546633696
1.2914360305811
4.3481137154925
5.6980841202795
7.2129494637556
10.196799520239
13.522281230805
16.6947121919
19.523839596265
21.825004003027
23.564283270987
24.582164415672
24.900768245243
24.603495135534
23.86304242814
22.597097790924
21.020584777358
19.24054831998
17.397651903471
15.574334222883
13.840300648471
12.240570394371
10.7968666422
9.5149647342
8.3892165574903
7.4077742197649
6.5556541219598
5.8172763301541
5.178161118413
4.6243332016984
4.143407793549
3.7249582386249
3.3600611884342
3.0408376445762
2.7603571043296
2.5132903315168
2.2952240881463
2.1020766800024
1.9304223603121
1.7770148204514
1.6398951212947
1.5170240674213
1.4065275411439
1.3068797384388
1.2166158502912
1.134870716876
1.060581592261
0.99293620414249
0.93111846487239
0.87453252762463
0.82269619702764
0.77507106147906
0.73124953343577
0.69081426869759
0.65346879051834
0.61893072778846
0.5869252146398
0.55721610170196
0.52958140647456
0.50385485795011
0.4798699102816
0.45747654961488
0.43653791254734
0.41693035757053
0.39855270920326
0.3813050700462
0.36510086098685
0.35374493622667
1.2286153408663
2.3079916336245
2.339540145287
2.2973818582635
2.2551577955708
2.2162653805207
2.1804827403641
2.1475790838757
2.1173418496334
2.0895846412749
2.0641241209449
2.0407779386897
2.0193580112673
1.9996666032431
1.9814997266677
1.9646574527081
1.9489587311721
1.9342593838254
1.9223004349764
1.9092528746299
1.8970672411538
1.8857236158245
1.8753458271669
1.8659907814285
1.8576464091165
1.850227033448
1.8435736059821
1.8374331038538
1.8315315372376
1.8256174650292
1.8193483900899
1.8123733986352
1.8043731354008
1.7951198045777
1.784541649907
1.7727692621383
1.7601435802966
1.747097974042
1.7310698290309
1.7190440492138
1.7082149472929
1.6989979576658
1.6913816244877
1.6851375029127
1.6791605872212
1.6718050146532
1.6611323018109
1.6457495156216
1.6246086961501
1.5974778316911
1.5649157122009
1.5284198626511
1.4898911510338
1.4508993201499
1.4124324098009
1.375456388341
1.3408792427403
1.3094852028487
1.2818452132737
1.2582232708448
1.2386656111975
1.2230803362029
1.2112895492571
1.2030664754196
1.1982245590308
1.1965771327724
1.1978844554394
1.2018210134385
1.2079438365031
1.2155876596675
1.2237955194656
1.2307014098933
1.2341281566133
1.2291313231097
3.5392771507051
4.6558729048367
5.0512182670526
6.4329324353526
8.4109305609934
10.490917829596
12.494006658063
14.270045877486
15.785642203505
16.887576772706
17.578836320136
17.800286990057
17.740930753878
17.198215904771
16.397484318605
15.387043294922
14.228610578688
13.002348994282
11.777206827508
10.597818977964
9.4948340224783
8.4841348642371
7.5718757974882
6.7577935990062
6.0366276562413
5.400768232264
4.8417438365359
4.3510161169143
3.9201690534421
3.5415240022418
3.2082966594215
2.9144761947955
2.6548559989818
2.4249300650712
2.2205840022639
2.0384205383596
1.8758846983046
1.7304135477535
1.5998937960538
1.4825072990492
1.3764174957445
1.2804913283443
1.1936224793785
1.114682615808
1.042839207916
0.97716103444232
0.91710499354887
0.86210409343582
0.81160215429564
0.76515966880242
0.72230773310039
0.68276638936995
0.64621749577082
0.61236907606775
0.58097319972604
0.5517827577777
0.52463085205087
0.49933711378182
0.47573667316207
0.45368845070415
0.43305857141233
0.41373743561877
0.39562093540129
0.37860887514782
0.36263519000112
0.35855654773947
1.5030120570187
2.3290988476777
2.3337274151536
2.2910667880753
2.2495825819678
2.2113525067541
2.176154479047
2.1437627014596
2.1139720239601
2.0866005766432
2.0614710311368
2.0384046973776
2.0172161001834
1.9977109114847
1.9796910323383
1.9629644096307
1.9473596684553
1.9327418779813
1.9208744922695
1.9079095607759
1.8958039225799
1.8845573583476
1.8742726282184
1.8650006721154
1.8567239558338
1.849352920771
1.8427315100186
1.8366122929356
1.830734931386
1.824859655641
1.8186581162907
1.8117921652438
1.8039465467135
1.7948893023635
1.7845318835812
1.7729787424453
1.7605433248462
1.7476229926005
1.731698591135
1.7197281672365
1.7087822381959
1.6993276879225
1.6912628114047
1.6842250734866
1.677029329641
1.6677448923504
1.6536235723627
1.6323054775264
1.6021688235095
1.5630823126992
1.5167343551697
1.4665841000369
1.4164245990913
1.3687859692363
1.3247596662149
1.2849328007915
1.2497802688678
1.2195750403569
1.1942762517154
1.1736589203812
1.1573386514023
1.1449114146539
1.1360242831445
1.1303430332278
1.1276575778243
1.1278336659586
1.1306228836183
1.1358684157865
1.1431497568142
1.1518223092137
1.1609622898341
1.1687881482991
1.1736417924741
1.1713242099211
2.9165546870681
3.9316725240837
4.0821069784582
4.6142221568902
5.7556472838543
7.1337452231178
8.552992197977
9.8735233070065
11.093595930265
12.03501534918
12.782661431808
13.269032737469
13.412145398403
13.228056856109
12.899228618275
12.354905148164
11.642825352007
10.840758781457
9.9938899222156
9.1376163431837
8.3059979025749
7.5202184317583
6.7919525131545
6.1263325918109
5.5243897484615
4.9840250312853
4.5011236736022
4.0712252930236
3.689371941979
3.3502670385206
3.0489830494053
2.7810694914619
2.5425187406039
2.3297785008299
2.1396863285825
1.969540840981
1.8169242955429
1.6796222329056
1.5558221958596
1.4441176324177
1.3430613610442
1.251453433092
1.1682234205581
1.0922542896834
1.0229070172242
0.95954380120156
0.90148900981655
0.84822377594168
0.79917734063
0.75395880661261
0.71227281389089
0.67373702656915
0.6380741780388
0.60499263973998
0.57424778303976
0.54567715856868
0.5190693378228
0.49426063122856
0.47109239790546
0.44942105302257