/*--------------------------------*- C++ -*----------------------------------*\
| =========                 |                                                 |
| \\      /  F ield         | OpenFOAM: The Open Source CFD Toolbox           |
|  \\    /   O peration     | Version:  2312                                  |
|   \\  /    A nd           | Website:  www.openfoam.com                      |
|    \\/     M anipulation  |                                                 |
\*---------------------------------------------------------------------------*/
FoamFile
{
    version     2.0;
    format      ascii;
    arch        "LSB;label=32;scalar=64";
    class       volScalarField;
    location    "0.0002";
    object      rhoHat;
}
// * * * * * * * * * * * * * * * * * * * * * * * * * * * * * * * * * * * * * //

dimensions      [1 -3 0 0 0 0 0];

internalField   nonuniform List<scalar> 
109340
(
661.22301604304
661.21819411378
661.20897075941
661.19771846448
661.18517123007
661.17195936729
661.15832497925
661.14436048193
661.13006422306
661.11480289088
661.09747967613
661.07688291246
661.05153472697
661.01964623643
660.97908807586
660.92734281056
660.861418303
660.77773384152
660.67195362133
660.53876288978
660.37155012231
660.16201520134
659.8996318923
659.57092182554
659.15842332605
658.6392438915
657.9829253881
657.14821191477
656.07794209882
654.69059780511
652.86557486457
650.41587357991
647.03412536563
642.17999446089
634.83397837037
622.93428948648
661.22373488962
661.21754698371
661.20718842792
661.19515713712
661.18221921165
661.16893027967
661.15545022669
661.14172033587
661.12735360534
661.11167627963
661.09368734017
661.07211837688
661.04541156082
661.01169249706
660.96873691151
660.91390960907
660.8440885685
660.75552479025
660.64366362321
660.50290096548
660.32625074528
660.10491875377
659.82772543887
659.48031812229
659.04405131923
658.49439713603
657.79859217616
656.91203469547
655.77252793001
654.2906342018
652.33256796564
649.68774272466
646.00218528604
640.63325456613
632.29519265041
618.24521426317
661.22641409486
661.2192665648
661.20787607887
661.19556481745
661.18273936468
661.16964395808
661.15624218236
661.14248980193
661.12810973741
661.11244368337
661.0945039533
661.07301666897
661.04641709548
661.01282632452
660.97001858432
660.91536379187
660.84573950372
660.75740103175
660.64579717693
660.50532929739
660.32901249141
660.10805320193
659.83127238211
659.48431391972
659.04852818764
658.4993782881
657.80408833443
656.91804364437
655.77904009788
654.29762345349
652.33993313391
649.69487496466
646.00464105291
640.60553180028
632.1078203651
617.19740553219
661.23013372344
661.22154242724
661.20959756404
661.19695584246
661.18389596011
661.17053804044
661.15692046523
661.14302831257
661.12857775566
661.11290794303
661.09503150847
661.07366764893
661.04724218361
661.01386801098
660.97130945171
660.9169252507
660.84758238288
660.75952322174
660.64817533156
660.50791678408
660.33171214013
660.11070349186
659.8336182544
659.48596298399
659.04890119309
658.4976233183
657.79896839527
656.90777289999
655.7610437851
654.26815498583
652.29339723367
649.62247083256
645.88835617893
640.39255576124
631.57720535612
615.06541108699
661.23597693474
661.22485417576
661.21119341437
661.19770198212
661.18429329622
661.17080800635
661.15715116909
661.14328497762
661.12890971535
661.11335893224
661.09565147956
661.07449658859
661.04829329771
661.01511333971
660.9726596475
660.91820198935
660.8484850667
660.75958547573
660.64664190351
660.50374799532
660.32337360659
660.09601544076
659.80950906243
659.44810492793
658.99124869003
658.41171709726
657.67297865231
656.72512096337
655.49837825263
653.89226378087
651.75605644402
648.85278629204
644.77254231065
638.72037064342
628.80793957642
608.49051879668
661.24679598449
661.2265729804
661.21150258231
661.19769821123
661.18424079968
661.17075274547
661.15710013592
661.14315687326
661.12844928226
661.11203599829
661.09255629209
661.06821947874
661.03678917022
660.99553975724
660.94118270658
660.86975622849
660.77646889451
660.65553048224
660.50000008152
660.30026202649
660.04443062471
659.71723284529
659.29886941566
658.76349523173
658.07711950747
657.19460317485
656.05530970466
654.57651811999
652.6430082847
650.08962981471
646.6694771454
642.00091396849
635.42132618969
625.65145950754
609.58384826747
574.43563228909
602.70848069015
569.5325804515
520.41777155393
457.24934980714
385.83510492801
311.82269160989
240.75083324492
177.12156998471
124.09839583504
82.98525882734
52.658673211168
32.818178168623
19.957215771247
11.985621789512
7.2254657777838
4.3891261314493
2.7081128753647
1.7016513174603
1.0901406647107
0.71440196246304
0.47915298552601
0.32800223745909
0.22903314369408
0.16319393783875
0.11838268062344
0.087027628790585
0.065128239709261
0.049698297255181
0.037906122148304
0.029736246973982
0.023283618084471
0.018575492559871
0.014899105544324
0.012062664081214
0.0098669602886914
0.0081066823904119
0.006733503544353
0.0056133002639727
0.0047182232889937
0.003989811521562
0.003384832067697
0.0028999317506719
0.0024797795753939
0.0021485734242794
0.0018521872227233
0.0016191810859036
0.0014085589580667
0.0012393613099864
0.0010892659621989
0.00096247475229172
0.00085275630082426
0.00075728915377549
0.00067486254931581
0.00060300072163832
0.00054026154582032
0.00048524360538627
0.00043688460406954
0.00039424580741942
0.00035656333275152
0.00032316457514153
0.00029348151513359
0.00026703239374454
0.00024341672930767
0.00022229088948583
0.00020336097602558
0.00018634271981993
0.00022959245391047
0.0049798473027856
0.0078852083121101
0.0077302403887112
0.0074248232945449
0.0071461080523729
0.0068957053857162
0.0066704394556343
0.0064675991099947
0.0062847584412031
0.0061197284539807
0.0059706419651264
0.0058358035452728
0.0057135917990458
0.0056024100276486
0.0055006972242029
0.0054070107067419
0.0053201733264978
0.0052295735723973
0.0051548642043864
0.0050849030095388
0.0050198760650872
0.0049604104993988
0.0049070117470091
0.0048595996771426
0.0048176901027424
0.0047803275514509
0.0047460770409282
0.0047131756526992
0.0046801356304518
0.004644909237717
0.0046054472685666
0.0045600259809619
0.0045076434762552
0.004448311542627
0.0043832299210986
0.004314613058936
0.0042453526223811
0.0041606385370121
0.0040988666595458
0.0040458068147087
0.0040033094476002
0.0039733657748369
0.0039542206709779
0.0039409476278838
0.0039287278442448
0.003915076935378
0.0038991151148493
0.0038804692842185
0.0038601187494638
0.0038379097909393
0.0038139807117894
0.0037890924516844
0.0037627429212328
0.0037346869937738
0.0037043911026153
0.0036720754277741
0.0036374774321084
0.0036008906301257
0.003562654519365
0.0035234963677364
0.0034840692629765
0.0034454343723032
0.0034088802307448
0.003375229577921
0.0033449709008757
0.0033186875461815
0.0032966559920888
0.0032787995440435
0.0032640278375797
0.0032507869233815
0.0032317684734617
0.0031958186697263
0.0031152441416504
592.99779356607
551.04095273813
491.5916573682
420.40296177026
344.95672002105
270.63042155153
203.15372277067
145.96902152587
100.58473074944
66.649712877354
42.621625951087
26.441413285746
16.286721325419
9.9515810668856
6.0749122517225
3.7423203702049
2.3357824782737
1.4831819053392
0.96091102161601
0.63562430169224
0.42936197379014
0.29613362894039
0.20827362429985
0.14917643447103
0.10872311502646
0.080528289177857
0.060510040381689
0.046120012338941
0.035602147043891
0.027793964579992
0.021951965200606
0.017502353938376
0.014096486169047
0.011441814316375
0.0093699852167846
0.0077255942909975
0.0064193489720541
0.0053657315489992
0.0045161764275881
0.0038207351891597
0.0032525735694497
0.002781456170744
0.0023918231439417
0.0020651604436985
0.0017917994062755
0.0015605355184098
0.001364665615355
0.0011978007069274
0.0010549648974544
0.00093242042221742
0.00082658260361668
0.00073498148904128
0.00065529588701563
0.00058591302744071
0.00052524082385252
0.00047203472917479
0.0004252329095622
0.00038395091195886
0.00034743314998331
0.0003150428088825
0.00028623924004684
0.00026056502873728
0.00023762937720068
0.00021709660753483
0.00019867426556303
0.00018190275726337
0.00044044320960601
0.006559722543849
0.0079096472343996
0.0076472537744938
0.0073464368555376
0.0070754359487117
0.0068319431662127
0.0066127821152415
0.0064154279738045
0.0062374701899244
0.0060768293769136
0.0059316880451292
0.0058003643002382
0.0056812321870687
0.0055726918175942
0.0054732002004318
0.0053813663552609
0.0052960853332273
0.0052262347822976
0.0051512422811453
0.0050813419003923
0.0050164414048373
0.004957128342806
0.0049038940157602
0.004856641808999
0.0048148679634816
0.0047776020770123
0.0047433992021635
0.0047104943740759
0.0046773987254642
0.0046420682702915
0.0046024691528084
0.004556894907312
0.0045043514798289
0.0044448796562453
0.0043797103582579
0.0043110921951115
0.0042419429671143
0.0041576376617669
0.0040963468571429
0.0040438270475391
0.0040019128644866
0.0039725094362675
0.0039536960405706
0.0039405973950402
0.0039282625007124
0.0039143083872479
0.0038979184106833
0.00387871123311
0.0038576127550496
0.003834577882609
0.0038096961461804
0.0037837182601608
0.0037560848784581
0.0037266925766506
0.0036949385031182
0.0036611165213678
0.0036248826962519
0.0035866783030134
0.003546845108962
0.0035061750758161
0.0034654223697907
0.0034256746775283
0.0033882603380526
0.0033539830290352
0.0033234141399299
0.0032971237453057
0.0032753588010563
0.0032580266919637
0.003243868567256
0.003231369697881
0.0032131582389983
0.0031780908276868
0.0030985497007912
587.73870793248
535.33238183413
464.42879454699
382.92143333059
303.07536424241
230.8652365679
169.19663430797
119.82020092197
82.22146516061
54.517065347613
35.618344926653
22.703691341649
14.258847760166
8.8904849614226
5.5338992882532
3.4613781566635
2.1887361066944
1.4061039914535
0.91958297089515
0.61246265910623
0.41596275474664
0.28825029220827
0.20348501936043
0.14618887724959
0.10682100692138
0.079279284261461
0.059694132626877
0.04555713065277
0.035218558198507
0.027529150519442
0.021755135399304
0.017366648240853
0.013989160647899
0.011368611785377
0.0093102531006908
0.0076843678775504
0.0063848858157205
0.00534191749309
0.0044955995536775
0.0038064496589565
0.0032400678746332
0.0027724835676415
0.0023839314867804
0.0020591863123041
0.0017867238777587
0.0015563291368226
0.0013613465310355
0.0011948471249481
0.0010527196762806
0.00093033390608432
0.00082493415533114
0.00073356332185437
0.00065416027235454
0.00058491408301931
0.00052435857679178
0.00047127057194341
0.00042457169201326
0.00038337803346911
0.0003469316740593
0.00031460199723848
0.00028585186977698
0.00026022552934574
0.00023733170615231
0.00021683443419596
0.00019844118953516
0.00018170977121162
0.00045922116992758
0.0066146455641585
0.0079092232718021
0.0076431798741243
0.0073428806984333
0.0070724480607072
0.0068294470842427
0.0066106889530388
0.0064136179682444
0.0062358917873837
0.0060754383343777
0.0059304507327669
0.0057992520884795
0.0056802195617955
0.0055717566390725
0.0054723244548418
0.0053805331280083
0.0052952537738837
0.0052254674722216
0.0051504971794398
0.0050806199736229
0.0050157788997454
0.0049565050679266
0.0049032913484119
0.0048560606919381
0.0048143065272479
0.0047770574202917
0.0047428392296107
0.0047099551442309
0.0046768637987638
0.0046415501180759
0.0046019837896842
0.0045564666414879
0.0045039978734556
0.0044446101673643
0.0043795229831987
0.0043109683377607
0.0042418330682417
0.0041575983368631
0.0040962959113882
0.0040437044618953
0.0040015381087335
0.0039718821849639
0.0039528465102461
0.0039394583802825
0.0039267569323276
0.0039121075943844
0.0038948978988966
0.0038745498401644
0.0038518031845884
0.0038269852581803
0.0038000507756846
0.0037716629905178
0.0037412468098466
0.0037088898328077
0.0036739730707223
0.003636794120355
0.0035970879780456
0.0035553932218579
0.0035121502335225
0.003468284028036
0.0034247147878015
0.0033827005665281
0.003343495063324
0.0033079818547008
0.003276807990926
0.0032504890477298
0.0032292142185451
0.0032127442045986
0.0031999241977125
0.0031888789998449
0.0031724149155712
0.0031392543434057
0.0030619124460662
576.0673484274
500.5634842385
408.2275165444
316.09943338036
236.19777118041
172.89941672505
123.96338482537
87.455493909313
60.569395208096
41.067345734167
27.78780040516
18.347292246765
11.898382928403
7.6357900499683
4.86884117302
3.1129225688348
2.0050972924185
1.3064897682356
0.86425270168389
0.58174163972992
0.39845812192542
0.27758899363309
0.19697071163458
0.14216511579625
0.10421533000794
0.077557128765712
0.058556522271135
0.044785072054904
0.034667574123119
0.027151310652482
0.021481891684246
0.017166499377956
0.013841689406661
0.011258704949059
0.0092283035295866
0.0076218000578678
0.0063376649548563
0.0053050740782128
0.0044672934394421
0.0037843945329876
0.0032224820929245
0.002758758289322
0.002372693728802
0.0020504412807358
0.0017792512334343
0.0015505115556951
0.0013563228101073
0.0011908507347629
0.0010492466215608
0.00092746336128713
0.00082249167947412
0.00073149851926646
0.00065245624659049
0.00058345405295668
0.00052311315288556
0.0004701868077468
0.00042363046868632
0.000382557660352
0.0003462175418531
0.00031397989413989
0.00028530723845688
0.00025974631777276
0.0002369094367613
0.0002164625613717
0.00019811168958039
0.00018144569379969
0.00048965440237025
0.0066820252010933
0.0079068722565676
0.0076371648253866
0.0073377221263193
0.0070681704123934
0.006825864525895
0.0066076593498523
0.0064109978158204
0.0062336026297709
0.0060734195936218
0.0059286548181539
0.0057976379855087
0.0056787506549791
0.0055704012404081
0.0054710572941634
0.0053793340545354
0.0052940988711709
0.0052244481113901
0.0051495224660996
0.0050797080476068
0.005014945751781
0.0049557420821906
0.0049025830896623
0.0048554003021366
0.0048136848131319
0.0047764645021542
0.0047422628540144
0.0047094027918164
0.0046763386782382
0.0046410675457691
0.0046015684684022
0.004556148768311
0.0045038006263987
0.0044445446506343
0.0043795830530367
0.0043111291156015
0.0042420249657757
0.0041578673861771
0.004096508610506
0.0040437910690609
0.004001368706833
0.0039713461917115
0.0039518603519497
0.0039379501908063
0.0039245283764002
0.0039088711509809
0.0038901811447001
0.0038680536652542
0.0038428354179558
0.0038151949273832
0.0037849968068495
0.0037527975291578
0.0037180410493836
0.0036810630587665
0.0036412116642583
0.0035987827398054
0.0035536939726422
0.0035066409519611
0.0034582650492161
0.0034097157140693
0.0033621006854254
0.0033168146828528
0.0032752401221583
0.0032382386433165
0.0032064622211228
0.0031803541363047
0.0031600069207249
0.0031450519202476
0.0031341860877809
0.0031254033908421
0.0031115337880727
0.0030812116334764
0.0030071476918752
537.82431818233
408.09892168835
289.69293126338
204.95033089892
146.81740508755
106.43174288388
77.77419373121
56.664123403963
41.001559120853
29.340899793514
20.553065262662
14.104098524263
9.5040428000855
6.3145662213599
4.1585846329958
2.7279710620841
1.795327203433
1.1915429164334
0.79995226760818
0.54459474632286
0.37665453262038
0.26484293593432
0.18898239415349
0.13706698408071
0.10097079478751
0.075446642843974
0.057110412174911
0.043797724739461
0.033987232713416
0.02666532704623
0.021134555820933
0.016911973981247
0.013655589002453
0.011117601587932
0.0091239626126312
0.0075415032288886
0.0062767988487158
0.005257544476601
0.0044310509616108
0.0037553278705262
0.003200004799303
0.0027405887659349
0.0023583362069399
0.0020386301191284
0.0017697200598477
0.0015426961575888
0.001349817241821
0.0011854999273936
0.0010446849672751
0.0009237150298107
0.00081926661528209
0.00072878430247403
0.00065013140375625
0.00058150357507913
0.00052146147189269
0.00046875575407479
0.00042238754200608
0.00038147404500699
0.00034527627760805
0.00031315943111887
0.00028458809125981
0.00025911282758229
0.00023635111431397
0.00021597117481126
0.00019767478526961
0.00018109248929121
0.00053632939730963
0.0067645558421847
0.0079025180407899
0.0076292739443216
0.0073310722157638
0.007062650248272
0.0068212288244669
0.0066037241187997
0.0064075902171301
0.0062306229387157
0.0060707935039592
0.0059263198615529
0.0057955397910141
0.0056768411750592
0.0055686396294532
0.0054694119710832
0.0053777826724517
0.0052926276349676
0.0052231355799737
0.0051482801722105
0.0050785535977118
0.0050138841272638
0.004954773335839
0.0049016911773001
0.0048545720744395
0.0048129068066953
0.004775724198113
0.0047415493488787
0.0047087190304658
0.0046756941279416
0.0046404833215612
0.0046010769230176
0.0045557887700562
0.0045036035995623
0.0044445253983314
0.0043797336454394
0.0043114175908092
0.0042423640463261
0.0041583085338597
0.0040968845245133
0.0040440519268503
0.0040013087632575
0.0039707940095923
0.0039506914596927
0.0039360541246451
0.0039216638533341
0.0039045621388081
0.0038838858125436
0.0038591184305938
0.0038305078048626
0.0037988106596922
0.0037639587090079
0.0037264009086813
0.003685730839325
0.0036423568069142
0.0035957029102498
0.0035460858198753
0.0034937194867408
0.0034395994219703
0.0033846169080165
0.0033302122368293
0.0032776881969787
0.0032286141512767
0.0031844144462434
0.0031459405463845
0.003113796709397
0.0030883186589818
0.0030694641805356
0.0030566763544928
0.0030485247097256
0.003042770421674
0.0030322593911443
0.0030056046364206
0.0029358705811535
303.77523521315
158.9926500918
111.85965991026
87.180266719237
68.828388827393
54.970573252583
43.436812791683
34.106359951491
26.205519060561
19.763972108501
14.527792404964
10.446654196223
7.3476571799453
5.0706969966605
3.4542612697097
2.3354656382741
1.5762792601118
1.0676991657637
0.72908859503301
0.50339864113298
0.35207547398252
0.24970660359324
0.1798192802932
0.13124132881694
0.09713965238697
0.072894556249353
0.055426534337484
0.042627931293245
0.0331642622468
0.026081742185471
0.020718963864669
0.016606232444327
0.01342997650566
0.010950459132639
0.0089969347864627
0.0074448944682719
0.0062030750329023
0.0052007593652856
0.0043864413636674
0.0037203889425248
0.0031725207763371
0.0027185205541993
0.0023406549771856
0.0020242267728008
0.0017581159225109
0.0015330253483241
0.0013418707926994
0.0011788453762572
0.0010391569832375
0.0009190506693858
0.00081528379560036
0.00072541867190656
0.00064725082656425
0.00057907199543639
0.00051937920691469
0.00046697091829662
0.0004208466550929
0.00038013750151289
0.0003441106979451
0.00031213713843165
0.00028369242232085
0.00025832759699879
0.00023565818850224
0.00021535359021291
0.00019712808586558
0.00018070160807149
0.00060448646794675
0.0068579767456223
0.0078962267104266
0.0076195826900878
0.0073230228956005
0.0070559456316595
0.0068155677277377
0.0065988944061033
0.0064034080598425
0.0062269650379032
0.006067566613666
0.0059234490038453
0.0057929600273821
0.0056744948605296
0.0055664773828672
0.0054673953702873
0.0053758857002377
0.0052908392136646
0.0052215166115499
0.0051467577983009
0.0050771425673968
0.0050125912520493
0.0049536077146437
0.0049006322934753
0.0048535969704537
0.0048119930757469
0.0047748531315603
0.0047407072047507
0.0047079066654838
0.0046749250388314
0.0046397870513757
0.0046004978750467
0.0045553748599223
0.0045033941935388
0.0044445395073935
0.0043799620955596
0.0043118150857702
0.0042427842526711
0.0041589464549576
0.0040974290495239
0.0040444326013862
0.0040013110637664
0.0039701890038237
0.003949297135414
0.0039337186429103
0.003918058267903
0.0038990977102715
0.0038757903755617
0.0038475356540375
0.0038144286802757
0.003777321000104
0.0037362343895264
0.0036915841742353
0.0036431987889376
0.0035915375140687
0.0035360000008022
0.0034772760239608
0.0034159302410774
0.0033532449163001
0.0032905385790252
0.003229513629333
0.0031716957117411
0.0031187832215638
0.003072151668468
0.0030326012559161
0.0030006339077153
0.0029764367717817
0.0029597845747926
0.0029499055427298
0.0029451742281923
0.0029431375914091
0.0029366317429624
0.0029143515898113
0.002849873377518
0.34866429650466
16.14991321279
24.375758693981
27.918089837715
28.532108813472
26.874446342636
23.842666240404
20.372256391269
16.882181641748
13.589730140582
10.637730568769
8.0912223085938
5.9917826016687
4.3308776387737
3.0698204449247
2.1470959204723
1.489974558543
1.0320463919403
0.71709642195941
0.50176548426937
0.35451659488086
0.2533914003069
0.18335844950029
0.13450329026643
0.099874745926604
0.075059616595428
0.057135007085729
0.044006287138854
0.034261379597058
0.026939664758083
0.021400110876875
0.017158082192682
0.013871938929113
0.01130520177651
0.0092854897858747
0.0076819249148632
0.0063967863582395
0.005360878931951
0.0045196077438672
0.0038316538396861
0.0032654172569468
0.0027968707824739
0.0024069607958521
0.0020804981409694
0.0018059413836915
0.0015739201636094
0.001377024220045
0.0012090799495861
0.0010652520435446
0.00094163896921695
0.00083495961025937
0.00074259023707279
0.00066226214280829
0.00059223253247853
0.00053098066885005
0.00047724409800687
0.00042994707680544
0.00038820197556255
0.00035127652303935
0.00031852767673968
0.00028940799423033
0.000263448560405
0.00024025801799055
0.00021950082317157
0.0002008740304662
0.00018393464027
0.00028860973333333
0.0057699002744513
0.0078895823473051
0.0076844468911674
0.0073845747246315
0.0071118993482822
0.0068663968573999
0.0066450678697736
0.0064452877318488
0.0062649287943501
0.0061019745046962
0.0059546367148795
0.0058212556261661
0.0057002271950739
0.0055899763572529
0.0054889805931266
0.0053958445964297
0.005309401962617
0.0052195924121288
0.0051449618472137
0.00507549133416
0.0050110761265718
0.0049522345234838
0.0048993831734474
0.0048524463063622
0.0048109155569416
0.0047738287927115
0.0047397224723145
0.0047069623431741
0.004674038691898
0.0046389894495829
0.0045998352525987
0.0045549027229392
0.0045031633124017
0.0044445772263666
0.0043802623907923
0.0043123928773618
0.0042437443548582
0.0041602488934287
0.0040986503877392
0.004045436242663
0.0040016750081826
0.0039694406750022
0.0039470614831283
0.0039296790036205
0.003911570185521
0.0038889939517266
0.0038605526980928
0.0038253645182138
0.0037834074566951
0.0037355875287264
0.0036821883483091
0.0036237776727546
0.0035606426891703
0.0034930902285579
0.0034212217447818
0.0033460182061826
0.0032688680322219
0.0031917268477817
0.0031165753211426
0.0030454751917355
0.0029801660890227
0.002922387661016
0.002873253447959
0.0028333703171648
0.0028029861942203
0.0027819947928347
0.0027698411493826
0.0027653915196246
0.0027667322815477
0.0027711543281148
0.0027713302515617
0.0027565075379525
0.0027011777503527
0.068821238864762
0.49484379865211
1.5755960875259
2.9434771757828
4.2657982418552
5.2767223198278
5.8503685205759
5.9985253186062
5.6740541394414
5.1311001752606
4.455757648858
3.7174700307568
2.9950812446451
2.3372387793224
1.7755903650676
1.3215484620882
0.96947868487387
0.70496392211508
0.51103544443639
0.37097645994974
0.27056152062917
0.19874140094056
0.14725390785725
0.11014078327496
0.083234293526494
0.063583917553411
0.049056862923896
0.038198626825804
0.03004619925552
0.023855419403411
0.01911049931123
0.015427820093903
0.012556194205095
0.010296171087048
0.0085034150435979
0.0070673431715251
0.0059117619739837
0.0049748021355915
0.0042100696881404
0.0035811212123094
0.0030615360203186
0.0026298932110387
0.0022692731595497
0.0019663033938957
0.0017106178219017
0.0014940252286191
0.0013096243476767
0.0011519641054494
0.0010165832003524
0.00090000074098717
0.00079920779920828
0.0007117394648265
0.00063557344325615
0.00056904730773877
0.00051078816296413
0.00045960373141363
0.0004145000716872
0.00037463555311135
0.0003393146423058
0.00030794707191595
0.00028002117999615
0.00025510277243501
0.00023282057139512
0.0002128577616734
0.0001949379561641
0.00017958686485836
0.00096931265351186
0.0071786866859709
0.0078636380001003
0.0075811859610497
0.007291192700067
0.0070290955260313
0.0067926601484349
0.0065791888444631
0.0063862970180733
0.0062119727159295
0.0060543350160085
0.0059116777767443
0.005782386798173
0.0056648872345055
0.0055576366571968
0.0054591670242177
0.0053681656927864
0.0052835779623024
0.0052148625412989
0.0051405448110735
0.0050714140108117
0.0050073229097567
0.0049488273244276
0.0048962850858836
0.0048495957823957
0.0048082482375471
0.0047712939511757
0.0047372865462205
0.0047046281981222
0.0046718501997596
0.0046370286555841
0.0045982255777526
0.0045537813031657
0.0045026429358497
0.0044447114693147
0.0043810286605241
0.004313678736662
0.0042452652422069
0.0041622012355467
0.0041006067732454
0.0040469432167658
0.0040023032463359
0.0039682657709355
0.0039434109090832
0.0039228546329402
0.0039002766392071
0.0038708349621286
0.0038322737151359
0.0037830686413618
0.0037229916903221
0.003653100271682
0.00357451194824
0.0034888304334546
0.0033972107538014
0.0033007152420121
0.0032007510414847
0.0030991830186167
0.0029988514865014
0.0029027689407786
0.0028134148292607
0.0027328259407471
0.0026624566051132
0.0026033898570483
0.0025559947038891
0.0025203028434022
0.002496056207393
0.0024826796054123
0.0024791480801221
0.0024840455831479
0.0024952215799077
0.0025092858390687
0.0025194757879352
0.0025157885453924
0.0024745389040028
0.043423965051085
0.095430793184184
0.24974599945142
0.53381511138391
0.89894096144502
1.2837653154887
1.6312946429412
1.8932287138481
2.0405154833128
2.0569910204566
1.9700136612996
1.8033215036609
1.576261068097
1.3274436705689
1.0809084517774
0.85639376101848
0.66432734377827
0.507533013863
0.38400944612749
0.28918457334109
0.21764308443852
0.16421038650217
0.12448457076345
0.094963450504992
0.072965413079658
0.056514291738412
0.044134861622913
0.034756201689852
0.027601159597899
0.022086299403083
0.017808394601952
0.014470212074864
0.011842361808831
0.0097601901698936
0.0080929022080016
0.0067525758594091
0.0056679471744592
0.0047847414565068
0.0040598998052852
0.0034618688353727
0.002966477844949
0.0025535390576372
0.0022075060453421
0.0019158386578
0.0016694073353931
0.0014600508578375
0.0012815014499815
0.0011284720993016
0.00099690720057299
0.00088343666800395
0.00078518832346963
0.00069982615052344
0.00062539091391367
0.00056034105010427
0.00050330447394142
0.0004531498027136
0.0004089111142408
0.00036978314897196
0.00033510321962887
0.0003042770067031
0.0002768120886254
0.00025228662187926
0.00023034097243885
0.00021066989398444
0.00019298981939392
0.00017876996638067
0.0014448645235221
0.0074068453695864
0.0078321618073525
0.0075494188640888
0.0072638633838467
0.0070057314379786
0.0067725662669438
0.0065618037204378
0.0063711661394081
0.0061987125860399
0.0060426395063193
0.0059012854567575
0.0057730666456481
0.0056564335739338
0.0055498728748589
0.0054519543881595
0.0053614083535822
0.0052772224039903
0.0052089819807757
0.0051350496951812
0.0050663341175712
0.0050026455090555
0.0049445776963781
0.0048924174708629
0.0048460388994769
0.0048049212492507
0.0047681311871319
0.0047342451010355
0.004701713059843
0.0046691172883926
0.0046345827751866
0.0045962219322075
0.0045523906632547
0.0045020110763561
0.0044449112353042
0.0043820242561177
0.0043153437216683
0.0042473283874747
0.0041646864296476
0.004103180200369
0.0040488904988645
0.004003316427543
0.0039671601180753
0.0039392533415745
0.0039145379051304
0.0038859589940456
0.0038468885670775
0.0037935323191987
0.0037232327193479
0.0036357265561298
0.0035326890415495
0.0034174134582858
0.0032939691634335
0.003165828846897
0.0030357411623461
0.0029067030535612
0.0027818199271246
0.0026647453323376
0.002558376394173
0.0024646046807342
0.0023843532217267
0.0023179335760211
0.0022652398242913
0.0022257183802314
0.0021987552179297
0.0021836760699248
0.0021796060445771
0.0021853271532266
0.002199269326153
0.0022191565388401
0.0022418346144217
0.0022605145626722
0.0022662811720588
0.0022387280042688
0.027620913809502
0.047825838116297
0.076732651611837
0.15346914999058
0.27004931955473
0.41179888172906
0.56336092216106
0.70408778978103
0.82076927430911
0.89307729848995
0.91616615529944
0.89407506155007
0.84063818709521
0.75334403429097
0.65142985204422
0.54534015068742
0.44549529355058
0.35668563310206
0.28141357052661
0.2199051726226
0.17092314626121
0.13261542763423
0.10299146351463
0.080226847215655
0.0627728190664
0.049383905015778
0.039094490154346
0.03115251419996
0.024989249971923
0.020180714481202
0.016408031238127
0.013428531667282
0.011057677573218
0.0091605439703999
0.0076348278115126
0.0063998413078163
0.00539398605346
0.0045680388957106
0.0038880432778854
0.0033253956985928
0.0028570796331007
0.0024653134269141
0.0021354524113375
0.0018572245283976
0.001621268222503
0.0014204003623419
0.0012484896160726
0.0011008793410812
0.00097383340692758
0.0008639962967093
0.00076875495759299
0.00068582277297158
0.00061344566812382
0.00055011276070627
0.00049451397624789
0.00044556325740042
0.00040232793898198
0.00036406743458606
0.000330124292856
0.00029993765440567
0.0002730254597455
0.00024897468882873
0.00022744247261919
0.00020812286051258
0.00019075573329835
0.00017901889196037
0.0021550879495724
0.0075976018621602
0.0077985614057434
0.0075124222275824
0.0072318271898522
0.0069781240875426
0.0067487069335592
0.0065411063322527
0.0063531383191826
0.0061829262451378
0.0060287379160524
0.0058889572712366
0.0057620321462584
0.0056464419365942
0.005540709016405
0.0054434488083066
0.0053534432597167
0.0052697293210322
0.0052020148941614
0.0051285413653868
0.0050602973011646
0.004997099867708
0.004939533231564
0.0048878183400571
0.0048418063403848
0.004800959520135
0.0047643611945909
0.0047306151124069
0.0046982317920379
0.0046658516482423
0.0046316605276646
0.0045938292713876
0.0045507307786539
0.0045012593483509
0.0044451592277832
0.0043832399301424
0.0043173736909818
0.004249860467588
0.0041676944741484
0.0041063900049212
0.0040514607313205
0.0040048339369441
0.003966397165116
0.0039349687173358
0.0039051304146169
0.0038688533398168
0.0038168294147296
0.0037426554546929
0.0036420712586973
0.0035151058762153
0.0033658095476572
0.0032024220892228
0.0030344225357797
0.0028690912311859
0.0027106187885264
0.0025626270892514
0.002428076246181
0.002309110329421
0.0022068655635081
0.0021213107144857
0.0020517152842048