/*--------------------------------*- C++ -*----------------------------------*\
| =========                 |                                                 |
| \\      /  F ield         | OpenFOAM: The Open Source CFD Toolbox           |
|  \\    /   O peration     | Version:  2312                                  |
|   \\  /    A nd           | Website:  www.openfoam.com                      |
|    \\/     M anipulation  |                                                 |
\*---------------------------------------------------------------------------*/
FoamFile
{
    version     2.0;
    format      ascii;
    arch        "LSB;label=32;scalar=64";
    class       volScalarField;
    location    "0.0002";
    object      T;
}
// * * * * * * * * * * * * * * * * * * * * * * * * * * * * * * * * * * * * * //

dimensions      [0 0 0 1 0 0 0];

internalField   nonuniform List<scalar> 
109340
(
372.99990992063
372.9986466539
372.99643050137
372.99360695434
372.99058550121
372.98756128902
372.98460649273
372.98175732037
372.97897495791
372.97618079865
372.97338137315
372.9705797176
372.96777273665
372.96495277542
372.96210936905
372.95922912264
372.9562949517
372.95328555217
372.95017401664
372.9469266471
372.94350143986
372.93984712606
372.9359002078
372.93158015701
372.92678392255
372.92137769232
372.91518539777
372.90797179735
372.89941609731
372.88906950586
372.87628329662
372.86008008475
372.83891149685
372.81018412113
372.76924965974
372.70735680921
372.99970796202
372.99803115554
372.99547453538
372.99259447292
372.98963906304
372.9867048404
372.98381250414
372.98095184477
372.9781174507
372.97529760145
372.97248454187
372.96967359617
372.9668582567
372.96402965309
372.96117619445
372.9582835719
372.95533422992
372.95230555981
372.94916896562
372.94588888958
372.94242139788
372.93871259302
372.93469550663
372.93028482605
372.92537092671
372.91981086145
372.91341591
372.9059327056
372.89701371646
372.886169119
372.87268385718
372.85546515973
372.8327446653
372.80147186692
372.75589365341
372.68456344497
372.99974754091
372.99776468538
372.99511071592
372.99227967729
372.98937998158
372.98646507534
372.98354730804
372.98064394924
372.97776839704
372.97491778975
372.97208347686
372.96925810119
372.96643362137
372.96360043888
372.96074695861
372.95785898517
372.95491900375
372.951904643
372.94878747344
372.94553233104
372.94209526687
372.93842292329
372.93444884246
372.93008786758
372.92523031676
372.91973301624
372.91340719485
372.90599940687
372.89716201654
372.8864048763
372.87301208744
372.85588655738
372.8332328265
372.80188443864
372.75561761995
372.68077169674
372.99970851065
372.99740702405
372.99462107827
372.99169729665
372.98873313637
372.98575557494
372.98278099422
372.9798246697
372.97689854589
372.97400677953
372.97114562094
372.96830857098
372.96548718575
372.96267202035
372.95985336568
372.95701754746
372.95414787056
372.95122266939
372.94821411862
372.94508854629
372.94180243753
372.938302562
372.93452149524
372.93037279982
372.9257447768
372.92049191032
372.91442248277
372.90727941239
372.89871038657
372.88821848953
372.8750773332
372.85817236282
372.83564973023
372.80415216936
372.75667676047
372.67541342294
372.99949487559
372.99643814278
372.99302004386
372.98967544146
372.98640891752
372.98321785156
372.98011376544
372.97712474937
372.97427053704
372.97154595821
372.96895418604
372.96649479135
372.96416036305
372.96194208842
372.95983020929
372.95781246317
372.955873377
372.95399277193
372.95214044675
372.95028594486
372.94835111397
372.94625934064
372.94392536314
372.94124614671
372.93809476187
372.93430662602
372.92966702187
372.92388964755
372.91658183872
372.90719033524
372.89490404843
372.87849203865
372.85586618921
372.82317511757
372.77183945577
372.67543395563
373.00336036389
373.01757877699
373.03288953528
373.0480847799
373.06273276417
373.07659621216
373.08954801374
373.10153395259
373.11254345662
373.12258561866
373.13168350564
373.13986379411
373.14715248342
373.15357337318
373.15914524563
373.16388112785
373.16778803768
373.17087010815
373.17317763675
373.17482752674
373.17581039557
373.17607423313
373.17554149823
373.17408839102
373.17159133579
373.16783121677
373.16252008073
373.15526243911
373.14550296063
373.13244458788
373.11489870158
373.09105808168
373.05779342732
373.00925735908
372.93190091894
372.77562036902
372.60913891325
372.45435677011
372.21744601344
371.87871335048
371.42736581592
370.85285187642
370.14160434369
369.27977033901
368.25570431176
367.0644603006
365.70284949093
364.19382122277
362.57158052624
360.86968315165
359.12456411907
357.37257893048
355.64245729398
353.95590409054
352.32726452228
350.76605773967
349.27755447972
347.86228147772
346.51909962644
345.24605964293
344.03935842595
342.89378529661
341.80648959184
340.77801803905
339.7930695502
338.86124502436
337.96973272648
337.11898156729
336.30764896867
335.52770856033
334.78468665162
334.06712132911
333.38258144011
332.72000045761
332.08582917206
331.47207749088
330.88148177795
330.31113250516
329.75851386875
329.22670553372
328.70788841899
328.20969770443
327.72210977563
327.25319516075
326.79485135881
326.35125740314
325.91903508715
325.49855504659
325.08936349067
324.69073218
324.30220263722
323.92327143484
323.55352407246
323.19255491713
322.8399973112
322.49548257423
322.15866064977
321.82921037684
321.50684484456
321.19129491111
320.88231095432
320.57889558641
321.07224598161
322.16607631916
321.26528186049
320.34779611051
319.46579781217
318.6229525198
317.8173967552
317.04625347147
316.30667494237
315.59592249823
314.91138283746
314.25070493646
313.61184631262
312.99295596266
312.3922269977
311.80784210466
311.23803179439
310.6812056406
310.06819517882
309.53542583675
309.0134567095
308.50266439846
308.00392562562
307.51812735783
307.0454836321
306.5847293539
306.1324554313
305.68279961105
305.22758319085
304.75687539116
304.26014890806
303.72822216946
303.15505844411
302.53868907507
301.88052183079
301.18317636407
300.44766372557
299.671591728
298.64079853955
297.76655379859
296.85927555283
295.95593992536
295.14094175992
294.50291610496
294.04502201769
293.70197833036
293.40209888025
293.09972562218
292.77368645364
292.41600067802
292.02426786347
291.59817051199
291.13872849827
290.64756846099
290.12756040786
289.5832006371
289.02085384701
288.44808931596
287.87382413276
287.30762840115
286.75904479195
286.23684360231
285.74849897966
285.29939967272
284.89345149829
284.53414016901
284.22595841984
283.97779577353
283.80469268758
283.74524217389
283.89421052933
284.47408226603
285.97845973611
289.37484482801
372.56585015542
372.37288042739
372.07880329256
371.6709931701
371.1443198466
370.48821085395
369.6950615604
368.75643902028
367.6677877045
366.42948954926
365.04545886214
363.53232947023
361.92126649062
360.24347204141
358.52857510073
356.80849722046
355.11000449132
353.45382646381
351.85472060463
350.3214049647
348.8584765111
347.46732038124
346.14676993745
344.89426957615
343.70687730951
342.58033512011
341.51053551362
340.49412866093
339.52717028547
338.60578488439
337.72748813549
336.88833099717
336.08634248939
335.3180537334
334.58196116549
333.8751478708
333.19631542565
332.54302961825
331.91426236429
331.30784149391
330.72303867828
330.15790864196
329.61193353824
329.08339594078
328.57188273583
328.07594917772
327.59511873793
327.1283422658
326.67502587591
326.23441785469
325.80587889921
325.38881530118
324.9826077854
324.5869003678
324.20110477472
323.82481644499
323.45758183636
323.09902232474
322.7487443079
322.40640102359
322.07165456139
321.74420218451
321.42375710813
321.11006684298
320.80285646943
320.49987538224
321.94252395521
321.95103876571
321.02700474822
320.11750633286
319.24559797195
318.41256574539
317.61615191346
316.85344730781
316.12161535969
315.41792653868
314.7398207756
314.08502992467
313.45157320988
312.83761931244
312.24135832079
311.66097865678
311.09474772314
310.54115450974
310.06656317165
309.53397222011
309.01215238865
308.50152386072
308.00296180597
307.5173537275
307.04491148264
306.58436704661
306.13231123733
305.6828839931
305.22791237584
304.75747157373
304.2610372637
303.72942677087
303.1565957242
302.54056622806
301.88274205751
301.18574948399
300.45061817468
299.67498148476
298.64482892003
297.77112111518
296.86426812604
295.96090174028
295.14481082868
294.50475376149
294.0445554283
293.69927177082
293.39706503857
293.09200896366
292.76277817061
292.40134271405
292.0054038956
291.57475953852
291.1105625043
290.61465942039
290.09025560583
289.54231961617
288.97757552925
288.40400425719
287.83076855406
287.26746368652
286.72349855064
286.20733179478
285.72596963877
285.28420574628
284.88542181728
284.53267901206
284.23011130248
283.9863301002
283.81646222841
283.75971482961
283.9110082959
284.49317141482
285.99935066329
289.39250463685
372.54633295422
372.31180714673
371.95323263172
371.46254870028
370.85011003474
370.11230058474
369.24807845817
368.25677424173
367.13816345134
365.89193055346
364.52656435592
363.05382971721
361.49037416492
359.86218287217
358.19817404232
356.52516190138
354.86887136729
353.24988682133
351.68241032348
350.17523959623
348.73369546246
347.36020535457
346.05411181955
344.81343607868
343.63546968554
342.51685716121
341.45427202289
340.44365799954
339.48179326231
338.56496047906
337.69012103005
336.85452606903
336.05504527281
335.28963213213
334.55545370887
333.8509410054
333.17361024659
332.52223621845
331.894635325
331.28982464197
330.70595888516
330.1421532455
329.5969573233
329.06948575265
328.55868890036
328.06355162393
327.58345848679
327.11728194116
326.66469148411
326.22456110471
325.79665466333
325.38004789836
324.97436761827
324.57903070366
324.193614866
323.81768725385
323.45080131253
323.09256500955
322.74258722911
322.40052385304
322.06604250227
321.73884048149
321.41863117611
321.10518561689
320.79818866895
320.49512395722
321.96507483361
321.940988256
321.01691938849
320.10794129238
319.23647506817
318.40383349269
317.60783442295
316.84557372938
316.11418512517
315.41092027095
314.73321993875
314.07881936717
313.44573558754
312.83213293627
312.23620051872
311.6561313836
311.09020240345
310.53691543029
310.06306723779
309.53079529531
309.0093052372
308.49903808638
308.00086417421
307.51567389626
307.04367392159
306.58358948657
306.1320113297
305.68308438102
305.22864865008
304.75879263692
304.26299864398
303.73208158795
303.15998107139
302.5446990931
301.88763060952
301.19141659698
300.45712759493
299.68245409851
298.65373591238
297.78124085786
296.87537146916
295.97199435612
295.1535322105
294.5089986504
294.04367415676
293.69341395285
293.38606113064
293.07509099751
292.73884935344
292.36918346798
291.96405941953
291.52353148243
291.04906441685
290.54302193107
290.00943408627
289.45421921506
288.88494341314
288.31044942364
287.7403785089
287.1843335433
286.65135854418
286.14914799686
285.68362284961
285.2582400563
284.87525554947
284.53678107003
284.24620608596
284.01145534172
283.84835861814
283.79684926325
283.95257339883
284.53907413447
286.04832586538
289.43308076061
372.50710729529
372.17743698324
371.68013958263
371.04118164354
370.28700869242
369.43358090166
368.48755149652
367.45328977707
366.3259397437
365.10314806599
363.79115241998
362.38806474085
360.90221694462
359.35144478525
357.75947903007
356.15160402807
354.55175471813
352.98067082299
351.45343988748
349.98042412918
348.56752637861
347.21690136631
345.92994269659
344.70536621302
343.54058616558
342.43287760532
341.37930845397
340.37664489255
339.42133124718
338.510475954
337.64065527402
336.80935172354
336.01378921412
335.25167458363
334.52060968741
333.81865579586
333.14384033732
332.49449371991
331.86893964009
331.26582126089
330.68357041428
330.12119870879
329.57728520842
329.0510677054
328.54124452188
328.04723277679
327.56792384675
327.10272112464
326.65078216324
326.21145720971
325.78416618923
325.36822289482
324.96316156609
324.56836534004
324.18346583267
323.80799718475
323.44155447003
323.08373050435
322.73414868103
322.39245771863
322.05832407632
321.73144510977
321.41154614094
321.09841064615
320.79168608059
320.48675793486
321.99905638183
321.92623102095
321.00226118264
320.09410416686
319.22330946433
318.39125284481
317.59585790215
316.83423300154
316.10347743836
315.4008201919
314.72370248359
314.06986300801
313.4373151316
312.8242170716
312.2287567439
311.64913389821
311.08363862689
310.53078992857
310.05779742426
309.52598483287
309.00499127355
308.49526886049
307.99768604873
307.51313024619
307.0418015512
306.58241398961
306.1315588273
305.68338950778
305.229764704
304.76079333681
304.26596907623
303.73610219813
303.16510847657
302.55095991946
301.89503775852
301.20000444418
300.46699116259
299.69377564558
298.66726432371
297.79664104479
296.89231673935
295.98901155478
295.16704129022
294.51573715239
294.04258951461
293.68472034396
293.36953657761
293.0495798195
292.70270432777
292.32067943952
291.90178407205
291.44658090655
290.95709083528
290.43653765737
289.89037557763
289.32579026421
288.75172193059
288.1782081997
287.61544632236
287.07287906254
286.55882075983
286.07961578281
285.6393343926
285.23940049541
284.88039683119
284.56294976965
284.28939059168
284.0669972275
283.91275437347
283.86738326319
284.02801913669
284.61921155642
286.13072461782
289.49889449811
372.40220978479
371.79697932575
370.99570729578
370.12252750534
369.21988484479
368.2903010006
367.32551519031
366.31360162682
365.23779101879
364.09286486626
362.86629215967
361.5573226247
360.16924994621
358.71446749262
357.21286304444
355.68645161948
354.15741923518
352.64630270613
351.16929328447
349.73796099802
348.35962952629
347.03865293784
345.77544263985
344.57054635075
343.42258039462
342.32908094244
341.28706938138
340.29412140604
339.34737534997
338.44362745812
337.58009863035
336.7541266712
335.96336279134
335.20528867572
334.47799615073
333.77923767198
333.10739398717
332.46060675416
331.83750300024
331.23640326322
330.65618565206
330.09546952043
329.55323062
329.02836024927
328.5199269232
328.02708642199
327.54889413978
327.08472481126
326.63368909182
326.19529878602
325.76876338856
325.35360658996
324.94922515294
324.55513204091
324.17085815148
323.79595251695
323.43003970091
323.0727155903
322.72361519867
322.38237368619
322.04866034209
321.72217701436
321.40265954388
321.0898994317
320.7834952276
320.47534359409
322.04794962478
321.90691894955
320.98310066668
320.07603384316
319.20614969781
318.37488422117
317.5802836656
316.81947971651
316.08953900787
315.38766717067
314.71130505335
314.05819364842
313.42634076178
312.81389690634
312.21904883292
311.64000511485
311.07507274665
310.52279110375
310.05077360724
309.51956361747
308.99923087413
308.49023402194
307.99344181115
307.50973394174
307.03930124708
306.58084316439
306.13095133883
305.68379159983
305.23124701966
304.76345425633
304.26992299546
303.74145721978
303.17194122074
302.55930704676
301.90491683545
301.21145997666
300.48014567887
299.70886185187
298.68534609888
297.81723544739
296.91502493345
296.01195305666
295.18549599375
294.52525288347
294.0416166999
293.67350238761
293.34778828905
293.01581427912
292.65477289572
292.25641584811
291.81952238678
291.3454236884
290.83702906458
290.29902964264
289.7386346043
289.16490582008
288.58850013643
288.02089979496
287.47264816614
286.95266977498
286.46790289755
286.0225523695
285.6179369746
285.25275018511
284.92537307732
284.63459285324
284.38147639363
284.17301056246
284.02750951234
283.98709333739
284.15099420087
284.74492687496
286.25490713787
289.5935041932
371.79369316222
370.24967358612
369.19659582657
368.32371223406
367.48277946269
366.64704798042
365.78695977164
364.89005916032
363.93272655373
362.90215487942
361.78982448933
360.59524706476
359.3202350771
357.97396264826
356.57332200725
355.13881804607
353.69087987976
352.24927271853
350.83115455128
349.44904337771
348.11175827175
346.82451272613
345.59044806912
344.40938458553
343.28103455798
342.20423482794
341.17678108949
340.19576454431
339.25917642046
338.36425050807
337.50840888473
336.68892618244
335.90382919768
335.15084009967
334.42785768852
333.73302679934
333.06464657784
332.42100000422
331.8005880665
331.20202729221
330.62406395558
330.06537576495
329.52498653539
329.0017832101
328.49493479757
328.00343401341
327.52657560307
327.06355104435
326.61365806456
326.17624834213
325.75064503196
325.33637063272
324.93279931077
324.53949913967
324.1559327799
323.7817073964
323.41641894743
323.05968142785
322.71112536459
322.37039691262
322.03717929319
321.71117410456
321.39212855501
321.07974437268
320.77373625356
320.46102180467
322.1048463383
321.88313943437
320.95952720898
320.05379092212
319.18505697222
318.35479617851
317.56118015394
316.80137540131
316.0724235065
315.37150879385
314.69607043469
314.04384950098
313.41284607538
312.80120161035
312.20710199805
311.6287668811
311.06452389859
310.51293672075
310.0420078575
309.51154777741
308.99203873594
308.4839470231
307.98814238393
307.50549324075
307.03617768006
306.57887800332
306.13018539162
305.68428219317
305.23308194573
304.7667565242
304.27483625498
303.74811781834
303.18044659506
302.56970451076
301.91722863384
301.22573956669
300.49653918924
299.72763062958
298.70794435568
297.84293949594
296.94341695407
296.04082839313
295.20910840333
294.53792445411
294.04117505261
293.66015336911
293.32119271876
292.97420757199
292.59557821733
292.17719700781
291.71860567158
291.22227127677
290.69253580217
290.13598593793
289.56226935522
288.98286397432
288.4102404252
287.85757539851
287.33489504129
286.85009248962
286.40780694004
286.00890517737
285.65108598939
285.32974806536
285.040482528
284.78010581921
284.54860249323
284.35299175298
284.21349415698
284.17429268261
284.33723512721
284.92915802011
286.43016180843
289.720279445
362.97991952739
366.58890709102
366.33195746675
365.91528075347
365.42890907494
364.85573948306
364.20275323824
363.47672363087
362.68099068038
361.81047019286
360.85442550282
359.80944308042
358.6781765036
357.46640282037
356.18756019234
354.8601138165
353.50370540196
352.13757219366
350.77975062188
349.44506632615
348.14422478721
346.88481425935
345.67104016615
344.50557271078
343.3884920626
342.31892550027
341.29638754437
340.31878345997
339.38400525416
338.48939991241
337.63323482924
336.81306912758
336.02656373741
335.27173578531
334.5468158477
333.84994730912
333.17923661682
332.53328507012
331.91055106121
331.30966382465
330.72928666534
330.16832194155
329.62565853754
329.10022852914
328.59114933915
328.09753316334
327.61862612218
327.15357462632
326.70172534003
326.26241264801
325.8350205262
325.41898074026
325.01370009143
324.6187481443
324.23362317238
323.85790453755
323.49114072342
323.13296207963
322.78302192102
322.4409693432
322.1064688032
321.77919956647
321.45889444176
321.14531970159
320.8382003446
320.53484468326
321.42738409721
322.07471542428
321.16227132694
320.25026224404
319.37332644535
318.53479504832
317.73344385775
316.96663715838
316.23140687813
315.5248659115
314.84437800944
314.18760692727
313.5524890042
312.93713070675
312.33970826009
311.75843882348
311.19163495123
310.63781566018
310.03151849753
309.50195435778
308.98343071468
308.47642216604
307.98179932355
307.50041643478
307.0324347365
306.57651818853
306.12925547865
305.68485023406
305.23525270947
304.77067766441
304.2806810882
303.75605148901
303.19058817854
302.58211273968
301.93193079915
301.24279743714
300.51611963097
299.74999759354
298.74961381799
297.89009907738
296.99560959056
296.09428616487
295.25368121928
294.56292806921
294.04209590196
293.63711854012
293.27360264261
292.89907230526
292.48850765895
292.03438550822
291.53809602601
291.00477744664
290.44141319278
289.85872449108
289.27139992676
288.69499901068
288.14456858011
287.63553502217
287.17656133645
286.77110632234
286.41783159635
286.11112830963
285.84187831799
285.59963024998
285.37558832115
285.16355760932
284.96242891405
284.78048153668
284.64134025965
284.59385125302
284.74460268331
285.32146126626
286.79109850849
289.96764839889
353.86013343827
359.05451016675
359.88533405995
360.27953691919
360.44335793119
360.42014248454
360.21562279603
359.85679670976
359.36658748849
358.76209509144
358.05032486504
357.24133368603
356.33851922406
355.34558215514
354.27403695572
353.1401889372
351.96203749657
350.75789737768
349.54489632364
348.33832502331
347.15041357779
345.98981607561
344.86239788678
343.77191146693
342.72050702279
341.70894930213
340.73705664401
339.80351221588
338.90777625377
338.04816144177
337.22295136991
336.43005943392
335.66811382307
334.93549821993
334.23056613278
333.5515307678
332.89716954652
332.26608177981
331.65692847527
331.06834961669
330.49933522182
329.94882399028
329.41578820075
328.89925068991
328.39838157677
327.91244189617
327.44061566072
326.98220186238
326.53650367308
326.10298400082
325.68102558045
325.27007280203
324.86961499395
324.47918545639
324.09836938947
323.72671559971
323.36382672578
323.00931355993
322.66283793287
322.32407761586
321.99271294683
321.6684515834
321.35099652172
321.04012898154
320.73559833907
320.42327001134
322.26705180122
321.78625877852
320.86370662711
319.96293669972
319.09892340346
318.272938309
317.48340064846
316.72761448188
316.00261196072
315.30554367782
314.63383567838
313.98521052806
313.35763098187
312.74920626263
312.15812495572
311.58265543223
311.0212109182
310.47245555489
310.00545358051
309.4781132256
308.96203872941
308.45772166829
307.96603344506
307.48779088869
307.02310784818
306.57061205973
306.12687805551
305.68616697641
305.24052274876
304.78026933857
304.2950305694
303.77557937801
303.21560336581
302.61277270048
301.96830668918
301.28503807643
300.56464439748
299.80559935847
298.81977895388
297.96988072189
297.08418071324
296.18611847503
295.33347235907
294.61180068661
294.05039909432
293.60381494377
293.19772780159
292.77648100863
292.31403805506
291.8051485853
291.25673464207
290.68080622875
290.08874421412
289.5006696555
288.93901001624
288.42659658935
287.98172980104
287.61381493449
287.32261409012
287.09885171672
286.9273422981
286.79032224533
286.66826377545
286.54357036007
286.402981191
286.23847518913
286.05023875011
285.85316971346
285.67485233457
285.56854394462
285.65886632475
286.1649704724
287.52157846069
290.41934089566
349.47375506752
354.04219648682
355.07666469812
355.72688362656
356.15349938181
356.41898870518
356.51777506368
356.47128503465
356.26827932744
355.92725999577
355.46771237586
354.89851998265
354.21580338141
353.43596318627
352.57084314727
351.63129850052
350.63245100507
349.59100287605
348.52328246048
347.44403591147
346.36617936449
345.3007928713
344.25555625652
343.23598115816
342.24547177587
341.28640055876
340.35989077085
339.46602094811
338.60462095015
337.77461172825
336.97489959361
336.20484458773
335.46300845941
334.74819101895
334.05870312108
333.39354419058
332.75158709888
332.13156532917
331.53220425772
330.95241940373
330.3914183589
329.84811591987
329.32159120632
328.81089866596
328.31543801886
327.83438191796
327.36703175758
326.91265867875
326.47070323923
326.04061581484
325.62181637183
325.21378339433
324.81601263861
324.42811093161
324.04962417062
323.68014617539
323.31927730633
322.96666104586
322.62198296039
322.28489795938
321.9551029907
321.63229144945
321.3162247285
321.00665133072
320.703177509
320.40257689397
322.34842060299
321.70320196029
320.78039295103
319.88326764111
319.02321802705
318.20104123773
317.41513126887
316.6628552129
315.94127592321
315.24754788755
314.57908354141
313.93357798599
313.30895965696
312.70331632386
312.11484687322
311.54186783011
310.98287031563
310.4366088673
309.97276026192
309.44821020866
308.93521126699
308.43427162364
307.94625832989
307.47193780397
307.01136135333
306.5631168131
306.12375681029
305.68762046178
305.24687294258
304.7919804175
304.31265986627
303.79967346987
303.2465741158
302.65083900876
302.01356584579
301.33766277263
300.62512945619
299.87490496783
298.90576277298
298.06771369907
297.19320334846
296.30076608203
295.4377182002
294.68214512209
294.07214982562
293.57376481807
293.11533889971
292.63937764746
292.12213093984
291.56273931613
290.98026036196
290.39643512009
289.83343131308
289.31750514459
288.87813439182
288.5386959517
288.31133372248
288.18963740806
288.15265533981
288.17108092729
288.21554025737
288.25727395318
288.27054859453
288.23570971833
288.13999351889
287.97800362486
287.75445074519
287.49048460305
287.21983698239
287.00605597961
286.97553629464
287.35119969449
288.50595710882
290.97046814564
346.78016028294
350.42909618738
351.45481521842
352.15155916951
352.66516810082
353.04861905744
353.30103117884
353.41704782365
353.40944864108
353.26658010288
352.99077290862
352.60541354305
352.12517480638
351.53187386036
350.84299097015
350.07457762765
349.23933153165
348.34945676983
347.420896082
346.46758814515
345.50209357563
344.53497227
343.57553801793
342.63082168693
341.70565901671
340.80337131323
339.92629293231
339.07568712959
338.25201932652
337.45525471393
336.68514111491
335.94107254218
335.22200175655
334.52708679652
333.85574779817
333.20676463356
332.57925488602
331.97192764065
331.38403790228
330.81483980368
330.26328231829
329.72855436723
329.20965512344
328.70608367938
328.2170538662
327.74187885061
327.27982931906
326.8303239592
326.39290732098
325.96695487051
325.55196928891
325.14741907299
324.75290796993
324.36803012361
323.99234988541
323.62547142351
323.26700907696
322.91666149881
322.5741003964
322.23900817738
321.91107443558
321.59002464107
321.27562928484
320.96767464164
320.66593582752
320.40497239261
322.37111950603
321.60202096199
320.68138341513
319.78876499095
318.93339688586
318.11576304281
317.33419681866
316.58610460272
315.86858434214
315.1788050548
314.51416292043
313.87231816713
313.25116254754
312.64876753988
312.06335359818
311.4933008385
310.93719590161
310.39390147107
309.93362715133
309.41242687719
308.90311819692
308.40622536556
307.92260013803
307.45294502477
306.99723507239
306.55401418188
306.11980936228
305.6890579131
305.25407493391
304.8055043018
304.33318562418
303.82788054783
303.28298932667
302.69575438874
302.06710656584
301.40000771979
300.69680561521
299.95696917324
299.00637045105
298.18210829441
297.32102296329
296.43692528696
295.56685667108
294.77775830563
294.11431753404
293.55607036424
293.03879831544
292.50676877216
291.94169082877
291.36324991846
290.80630420417
290.30412104262
289.882791862
289.56702739739
289.38098867277
289.33620676474
289.42060857211
289.60156621713
289.83589917544
290.08223651627
290.30361487414
290.46915406254
290.55585082101
290.54818905277
290.43884393666
290.23039881574
289.92603147449
289.55319667323
289.15270659698
288.7945165664
288.60786970735
288.79430267885
289.65718582909
291.54382200172
345.22223957276
347.55839195388
348.59678798191
349.26320526557
349.79430092655
350.21919135414
350.53840161517
350.75122502522
350.84490567418
350.83680466928
350.70761930498
350.459301028
350.11723588263
349.67924552055
349.1465715299
348.52530289274
347.83174717435
347.07852418933
346.27776432149
345.44193151252
344.58374017987
343.71381813483
342.84072572878
341.97217870833
341.11414341154
340.27094869971
339.445777301
338.64082438537
337.8574501988
337.09638953916
336.3578738231
335.6417557619
334.94774367567
334.27543974786
333.62408912219
332.99280758456
332.38118584922
331.78847140707
331.21374844032
330.6564250485
330.11545194004
329.59023630931
329.08031698955
328.5848499741
328.10325529608
327.63474236481
327.17884467542
326.73511567964
326.30293019303
325.88181980628
325.47121170012
325.07077212726
324.68009839746
324.29874261003
323.92632730547
323.56245110918
323.20683038029
322.85913901888
322.51904569144
322.1862679214
321.86052057605
321.54162066373
321.22923127777
320.92315564037
320.62308104302
320.47910636126
322.33295174828
321.48415966244
320.56663736926
319.67947413575
318.82964083132
318.01733588483
317.24085975317
316.49764946919
315.7848436535
315.09962517546
314.43937156591
313.80170601061
313.18448721087
312.58578085769
312.00384446392
311.43713950093
310.88436596856
310.34451032943
309.8882349642
309.3709428859
308.86593148811
308.37374052927
307.89518853559
307.43090100634
306.98076341784
306.54326576048
306.11493294367
305.69029333595
305.261856448
304.82047785756
304.35615402543
303.85966281234
303.32424018571
302.74685284903
302.12821110489
301.47128869025
300.77878207661
300.05073666871
299.12025172591
298.31141072857
297.46570991121
296.59267443431
295.71997940438
294.90122261921
294.18384922704
293.56170740681
292.984456969
292.40469140709
291.82656247155
291.29877781997
290.87917414589
290.60151069106
290.47100211638
290.48662729301
290.64876271756
290.94394672778
291.33040939382
291.757823531
292.176890917
292.54662256387
292.83873387671
293.03337133623
293.11683846328
293.07945800346
292.927073864
292.65285473055
292.26074220034
291.77960586592
291.25030566562
290.74538956725
290.38939655335
290.35809413752
290.85365432551
292.08476094597
344.47053917948
345.14889858569
346.24466500168
346.86764830927
347.37931786905
347.80990513455
348.15671374275
348.41726031062
348.57792938705
348.63660215594
348.61479720666
348.48600259392
348.2432486381
347.90555608241
347.50503971747
347.01347698506
346.4418122421
345.80612466027
345.11988124924
344.39217594626
343.633684409
342.85519962647
342.06583582945
341.272546232
340.48168134237
339.69844077489
338.92652551661
338.16884328328
337.42744203466
336.70365183098
335.99831018555
335.31186681584
334.64441889001
333.99580922781
333.36576694216
332.75394399779
332.15990092789
331.58291069269
331.0222895191
330.47780494137
329.94874789846
329.43442137124
328.93441597212
328.44784505639
327.97425592049
327.51334147577
327.06446190072
326.62716024438
326.20084816048
325.78505822376
325.37954770043
324.98381744074
324.5974786968
324.22012772026
323.85138296587
323.49101302755
323.13865286891
322.79398950999
322.45672647147
322.12657996547
321.80334140484
321.48678133608
321.17656033105
320.87240417504
320.57365742802
320.7801230932
322.23353991383
321.34923894242
320.43621074298
319.55543166532
318.71201906152
317.90588013143
317.13528034947
316.39768342458
315.69026770343
315.01022665561