/*--------------------------------*- C++ -*----------------------------------*\
| =========                 |                                                 |
| \\      /  F ield         | OpenFOAM: The Open Source CFD Toolbox           |
|  \\    /   O peration     | Version:  2312                                  |
|   \\  /    A nd           | Website:  www.openfoam.com                      |
|    \\/     M anipulation  |                                                 |
\*---------------------------------------------------------------------------*/
FoamFile
{
    version     2.0;
    format      ascii;
    arch        "LSB;label=32;scalar=64";
    class       volScalarField;
    location    "0.0002";
    object      TpSat;
}
// * * * * * * * * * * * * * * * * * * * * * * * * * * * * * * * * * * * * * //

dimensions      [0 0 0 1 0 0 0];

internalField   nonuniform List<scalar> 
109340
(
372.99990992063
372.9986466539
372.99643050137
372.99360695434
372.99058550121
372.98756128902
372.98460649273
372.98175732037
372.97897495791
372.97618079865
372.97338137315
372.9705797176
372.96777273665
372.96495277542
372.96210936905
372.95922912264
372.9562949517
372.95328555217
372.95017401664
372.9469266471
372.94350143986
372.93984712606
372.9359002078
372.93158015701
372.92678392255
372.92137769232
372.91518539777
372.90797179735
372.89941609731
372.88906950586
372.87628329662
372.86008008475
372.83891149685
372.81018412113
372.76924965974
372.70735680921
372.99970796202
372.99803115554
372.99547453538
372.99259447292
372.98963906304
372.9867048404
372.98381250414
372.98095184477
372.9781174507
372.97529760145
372.97248454187
372.96967359617
372.9668582567
372.96402965309
372.96117619445
372.9582835719
372.95533422992
372.95230555981
372.94916896562
372.94588888958
372.94242139788
372.93871259302
372.93469550663
372.93028482605
372.92537092671
372.91981086145
372.91341591
372.9059327056
372.89701371646
372.886169119
372.87268385718
372.85546515973
372.8327446653
372.80147186692
372.75589365341
372.68456344497
372.99974754091
372.99776468538
372.99511071592
372.99227967729
372.98937998158
372.98646507534
372.98354730804
372.98064394924
372.97776839704
372.97491778975
372.97208347686
372.96925810119
372.96643362137
372.96360043888
372.96074695861
372.95785898517
372.95491900375
372.951904643
372.94878747344
372.94553233104
372.94209526687
372.93842292329
372.93444884246
372.93008786758
372.92523031676
372.91973301624
372.91340719485
372.90599940687
372.89716201654
372.8864048763
372.87301208744
372.85588655738
372.8332328265
372.80188443864
372.75561761995
372.68077169674
372.99970851065
372.99740702405
372.99462107827
372.99169729665
372.98873313637
372.98575557494
372.98278099422
372.9798246697
372.97689854589
372.97400677953
372.97114562094
372.96830857098
372.96548718575
372.96267202035
372.95985336568
372.95701754746
372.95414787056
372.95122266939
372.94821411862
372.94508854629
372.94180243753
372.938302562
372.93452149524
372.93037279982
372.9257447768
372.92049191032
372.91442248277
372.90727941239
372.89871038657
372.88821848953
372.8750773332
372.85817236282
372.83564973023
372.80415216936
372.75667676047
372.67541342294
372.99949487559
372.99643814278
372.99302004386
372.98967544146
372.98640891752
372.98321785156
372.98011376544
372.97712474937
372.97427053704
372.97154595821
372.96895418604
372.96649479135
372.96416036305
372.96194208842
372.95983020929
372.95781246317
372.955873377
372.95399277193
372.95214044675
372.95028594486
372.94835111397
372.94625934064
372.94392536314
372.94124614671
372.93809476187
372.93430662602
372.92966702187
372.92388964755
372.91658183872
372.90719033524
372.89490404843
372.87849203865
372.85586618921
372.82317511757
372.77183945577
372.67543395563
373.00336036389
373.01757877699
373.03288953528
373.0480847799
373.06273276417
373.07659621216
373.08954801374
373.10153395259
373.11254345662
373.12258561866
373.13168350564
373.13986379411
373.14715248342
373.15357337318
373.15914524563
373.16388112785
373.16778803768
373.17087010815
373.17317763675
373.17482752674
373.17581039557
373.17607423313
373.17554149823
373.17408839102
373.17159133579
373.16783121677
373.16252008073
373.15526243911
373.14550296063
373.13244458788
373.11489870158
373.09105808168
373.05779342732
373.00925735908
372.93190091894
372.77562036902
372.60913891325
372.45435677011
372.21744604566
371.87871338066
371.42736556059
370.85285158668
370.14160408727
369.27977074289
368.25570430478
367.06446211244
365.70287619901
364.19380212777
362.57158381934
360.86968317429
359.12456520595
357.37258040133
355.64245428754
353.95590509928
352.32726522719
350.76605618536
349.27755554625
347.86229129764
346.51912798004
345.24610345682
344.03929288775
342.89360875349
341.80685513281
340.77782263047
339.79289798128
338.86152101818
337.96920018715
337.11972411922
336.30711479472
335.52847724549
334.78420176206
334.06786699614
333.38210667894
332.72081427938
332.08532302816
331.47292987982
330.88093395007
330.31151638142
329.75803217082
329.22672896569
328.70767059663
328.20956946531
327.72226173295
327.25298527127
326.79527789274
326.35113081753
325.91905904652
325.4985556305
325.0893696234
324.6907332503
324.30220654742
323.92327181573
323.55352442974
323.19255363194
322.83999631837
322.49548184993
322.15866130781
321.82921192296
321.50684690459
321.1912968053
320.88231269032
320.57889267301
321.07251569859
322.16608703433
321.26528411787
320.34779755484
319.46579852509
318.62295279868
317.81739673328
317.04625342537
316.3066746613
315.5959221593
314.91138249175
314.25070461165
313.6118460299
312.99295574159
312.39222685793
311.80784206391
311.23803186221
310.681205815
310.06819441424
309.53542516516
309.01345615508
308.50266395778
308.00392529197
307.51812710893
307.04548344738
306.58472921431
306.13245532118
305.68279952045
305.22758310756
304.75687531076
304.26014883102
303.72822209416
303.1550583735
302.53868901365
301.8805217844
301.18317633781
300.44766371491
299.671591728
298.64079849886
297.76655370292
296.85927534905
295.95593961555
295.14094148019
294.50291593184
294.04502192134
293.70197826908
293.40209884044
293.0997255896
292.7736864028
292.4160006388
292.02426783889
291.59817047996
291.13872847518
290.64756843903
290.12756040786
289.58320065248
289.02085387834
288.44808936305
287.87382418733
287.30762846479
286.75904486175
286.23684367521
285.74849905592
285.29939974705
284.8934515633
284.53414022483
284.22595846157
283.97779581046
283.80469270924
283.74524215523
283.89421043425
284.47408199017
285.97845906301
289.37484257623
372.56585015542
372.37288042739
372.07880339026
371.67099445501
371.14431980339
370.48821044508
369.69506183307
368.75643902774
367.66778782828
366.42948836205
365.04545322517
363.53233150736
361.92126740489
360.24347035718
358.52857612215
356.80849704274
355.11000421844
353.45382669105
351.85471939754
350.32140516856
348.85847642243
347.46731930461
346.14676914256
344.89427019898
343.70688225793
342.58033379983
341.51052267248
340.49414937846
339.52715222153
338.60580095307
337.72747685237
336.88833017134
336.0863478574
335.31804399949
334.58197355214
333.87513220114
333.19632675292
332.54301639369
331.91426793869
331.30783549454
330.72303908721
330.15791832834
329.61192897739
329.08342355813
328.57186808406
328.07598122286
327.59508870755
327.12836131537
326.67500169319
326.23443410855
325.80587245744
325.38881913928
324.98261403635
324.58690053609
324.20110839468
323.82481644499
323.45758244711
323.09902129314
322.74874411822
322.40640121101
322.0716563441
321.74420474306
321.42376021935
321.11006960987
320.80285848136
320.49987584396
321.94279841455
321.95104299812
321.02700593492
320.11750681906
319.24559791449
318.41256533085
317.61615124983
316.85344659704
316.12161452088
315.41792568163
314.73981994785
314.08502915593
313.45157252323
312.83761872728
312.24135785399
311.66097832022
311.09474751902
310.54115443131
310.06656222192
309.53397137012
309.01215166827
308.50152327079
308.00296133911
307.51735336448
307.04491120272
306.58436682947
306.132311065
305.68288385251
305.2279122519
304.75747145873
304.26103715511
303.72942666403
303.15659562025
302.54056613038
301.88274197208
301.18574941709
300.45061812668
299.67498144687
298.64482884731
297.77112099491
296.86426790522
295.96090141977
295.14481054221
294.50475358466
294.04455533063
293.69927170865
293.39706499782
293.09200893077
292.76277812213
292.40134267374
292.00540387135
291.57475950667
291.1105624816
290.61465940047
290.09025560583
289.54231963257
288.97757556187
288.40400430489
287.83076861116
287.26746375254
286.72349862319
286.2073318701
285.72596971608
285.28420582134
284.88542188451
284.53267907108
284.23011135303
283.98633013995
283.81646225228
283.7597148119
283.91100820419
284.49317114289
285.99934998839
289.39250238013
372.54633295422
372.31180714673
371.95323252212
371.46254055527
370.85011129378
370.11230126432
369.2480790105
368.25677400069
367.13816369124
365.89193109826
364.52656448966
363.05383013937
361.49037264811
359.86218446982
358.19817416312
356.52516078975
354.86887220822
353.24988747611
351.68240901711
350.17523988068
348.73369528069
347.36020421203
346.05411200525
344.81343534625
343.63547058421
342.51686097742
341.45426562326
340.44365718126
339.48180434561
338.56494401657
337.69013674676
336.85451050342
336.05506150486
335.28961958338
334.55546675598
333.85092941458
333.17362457386
332.52222365685
331.89465111847
331.28980816812
330.70597705973
330.14213453273
329.59697358982
329.06946804492
328.55870081059
328.06354267801
327.58346389497
327.11728637829
326.66468859664
326.22456993353
325.79664957708
325.3800563455
324.97436561141
324.57903490441
324.19361641576
323.81768813794
323.45080184359
323.09256471845
322.74258749146
322.40052468505
322.06604468396
321.73884337176
321.41863446784
321.1051882941
320.79819061941
320.49512496975
321.96534155397
321.9409921637
321.01692037875
320.10794164789
319.23647494056
318.40383304058
317.60783373811
316.84557298463
316.11418427571
315.41091940537
314.73321910266
314.07881858998
313.44573489245
312.83213234291
312.23620004407
311.6561310394
311.09020219172
310.53691534465
310.0630662598
309.53079441833
309.00930449445
308.49903747584
308.0008636879
307.51567351634
307.04367362722
306.58358925761
306.13201114784
305.6830842321
305.22864851954
304.75879251629
304.26299853012
303.73208147622
303.15998096195
302.5446989896
301.88763051789
301.19141652371
300.45712754072
299.68245405493
298.65373583464
297.78124073366
296.87537124631
295.97199403454
295.15353192066
294.50899846968
294.04367405821
293.69341389092
293.38606108576
293.07509096236
292.73884931651
292.36918342007
291.96405939453
291.52353145487
291.04906439518
290.54302191452
290.00943409465
289.45421923496
288.88494344924
288.31044947409
287.74037856924
287.18433361351
286.65135862192
286.14914807251
285.68362292962
285.25824013288
284.87525562024
284.53678113407
284.24620614282
284.01145538879
283.84835864182
283.79684924971
283.95257330791
284.53907386164
286.04832518375
289.43307850016
372.50710729529
372.17743698324
371.68013956199
371.0411755646
370.2870098556
369.43358098327
368.48755167633
367.45328963523
366.32594001796
365.10314788764
363.79115259256
362.38806454417
360.90221702683
359.35144517949
357.75947842207
356.15160469418
354.55175503324
352.98066974351
351.45343982004
349.98042479256
348.56752610985
347.21690054358
345.92994360774
344.70536582923
343.54058482687
342.43287916542
341.37931070563
340.37663932843
339.42133635741
338.51047285031
337.64065436132
336.80935701337
336.01378384677
335.25168184126
334.52060170814
333.81866507468
333.14383322548
332.49450174584
331.86893267544
331.26582620595
330.68356758797
330.12119912295
329.57728770298
329.0510621951
328.54125237271
328.04722237113
327.56793348612
327.102710342
326.65078987419
326.21145165884
325.78416903186
325.36822300405
324.96316191025
324.56836899607
324.18346570418
323.80799891181
323.4415546284
323.08373097044
322.73414925882
322.39245917781
322.05832656286
321.73144828526
321.41154953067
321.09841324586
320.7916872904
320.48676095527
321.99931270444
321.92623453911
321.00226197573
320.09410440016
319.22330926949
318.39125236134
317.59585720572
316.83423223783
316.10347659073
315.40081933036
314.72370165103
314.06986223328
313.43731443796
312.82421647897
312.2287562695
311.64913355372
311.08363841427
310.53078984166
310.05779644226
309.52598395082
309.00499052687
308.49526824742
307.99768555854
307.51312986248
307.04180125333
306.58241375761
306.13155864282
305.68338935638
305.22976457161
304.76079321454
304.26596896073
303.73610208488
303.16510836552
302.55095981434
301.89503766525
301.20000436935
300.4669911071
299.69377560113
298.66726424566
297.79664092103
296.89231651939
295.98901123481
295.16704099767
294.51573696826
294.04258941363
293.68472028035
293.36953653092
293.04957978204
292.70270429506
292.32067939041
291.90178404669
291.44658088685
290.9570908213
290.43653764516
289.89037559175
289.32579029037
288.75172197093
288.17820825476
287.61544638822
287.07287913782
286.55882084126
286.07961586224
285.63933447647
285.23940057581
284.88039690713
284.56294983417
284.28939064926
284.06699727618
283.91275440382
283.86738325592
284.02801904936
284.61921128097
286.13072392901
289.49889223519
372.40220978479
371.79697930886
370.99570728148
370.12252780137
369.21988977252
368.29030178899
367.32551573471
366.31360118279
365.23779100699
364.09286481929
362.86629221007
361.55732251781
360.16925015917
358.71446745204
357.21286310299
355.68645217107
354.1574186328
352.64630239088
351.16929347266
349.7379601486
348.3596279185
347.03865295937
345.77544339902
344.57054637381
343.42258064842
342.32908188017
341.28707051033
340.29412148269
339.34737244777
338.44363151084
337.58009363113
336.7541321603
335.96335725166
335.20529301255
334.4779922604
333.77924323243
333.10738982637
332.46061160239
331.83749719017
331.23640917542
330.65617851328
330.09547573564
329.55322365932
329.02836551517
328.51992226217
328.0270879657
327.54889343483
327.08472136157
326.63369242958
326.19529272558
325.76876759251
325.35360246614
324.94922836409
324.55513135931
324.17085910289
323.79595344881
323.43003977846
323.0727163608
322.72361593912
322.38237554426
322.04866295864
321.72218031242
321.4026627587
321.08990145658
320.78349662153
320.47534418024
322.04819691899
321.90692202749
320.98310129875
320.0760339697
319.2061494469
318.37488371398
317.58028296495
316.81947894654
316.08953817007
315.38766632066
314.71130423122
314.05819288235
313.42634007505
312.81389631926
312.21904836298
311.64000477382
311.07507253649
310.52279101862
310.05077262573
309.51956273529
308.99923012814
308.49023340948
307.9934413206
307.5097335569
307.0393009478
306.58084293084
306.13095115282
305.68379144695
305.23124688605
304.76345413297
304.26992287886
303.74145710545
303.17194110863
302.55930694062
301.90491674117
301.21145990094
300.48014562271
299.70886180781
298.68534602183
297.81723532579
296.91502471859
296.01195274051
295.18549569838
294.5252526946
294.04161659637
293.67350232173
293.3477882399
293.01581423989
292.65477286253
292.25641579998
291.81952236087
291.34542367327
290.83702905832
290.2990296366
289.73863462433
289.16490585435
288.58850018314
288.02089985508
287.47264823855
286.95266985485
286.46790298341
286.02255245904
285.61793706233
285.25275026924
284.92537315758
284.63459292434
284.38147645948
284.17301061944
284.02750955144
283.98709333739
284.15099411895
284.7449266024
286.25490644179
289.59350193167
371.79369315678
370.24967345502
369.19659565617
368.32371263099
367.48277603475
366.64705123232
365.78695946312
364.89005870823
363.9327264577
362.90215470552
361.78982465572
360.59524704328
359.32023513116
357.97396264826
356.57332238563
355.13881802925
353.6908794639
352.24927299268
350.83115430516
349.44904256527
348.11175831587
346.82451276282
345.5904472129
344.40938340821
343.28103514894
342.20423493706
341.17678030582
340.1957654246
339.25917577981
338.3642514041
337.50840997178
336.68892460553
335.90383079599
335.1508373636
334.42786120464
333.73302413935
333.06464901083
332.42099655917
331.80058999892
331.2020248646
330.62406377096
330.06537539987
329.52498475847
329.00178547871
328.49493092946
328.00343740317
327.52657065305
327.06355359022
326.6136546303
326.17624821183
325.7506445199
325.33636863069
324.93280113414
324.53949717118
324.15593446938
323.78170649354
323.41641938876
323.05968171289
322.7111261754
322.37039873808
322.03718186426
321.71117731065
321.39213148023
321.07974589229
320.77373817804
320.46102725169
322.10507244753
321.88314213347
320.9595277093
320.05379096739
319.1850566802
318.35479565607
317.5611794557
316.80137463457
316.07242268391
315.37150796062
314.69606962774
314.04384874766
313.41284539897
312.80120103159
312.20710153489
311.62876654548
311.06452369262
310.51293663882
310.04200687965
309.51154689723
308.99203799278
308.48394641226
307.98814189426
307.50549285558
307.03617737999
306.57887776861
306.13018520437
305.68428203914
305.23308181111
304.76675639993
304.27483613735
303.74811770299
303.18044648199
302.56970440377
301.91722853874
301.2257394903
300.49653913278
299.72763058556
298.70794427447
297.84293937259
296.94341674237
296.04082808049
295.20910810554
294.53792425998
294.04117494583
293.66015330086
293.32119266749
292.97420753198
292.59557818445
292.17719696092
291.71860564633
291.2222712646
290.69253580217
290.13598593793
289.56226938268
288.98286401821
288.41024048125
287.85757546345
287.33489512059
286.85009257807
286.40780703313
286.00890526833
285.65108607967
285.3297481538
285.04048260928
284.78010589825
284.54860256781
284.3529918172
284.21349420398
284.17429269254
284.33723505361
284.92915775687
286.43016111595
289.72027720836
362.97991953833
366.58890693
366.33195731474
365.91528103763
365.42891115881
364.85574053128
364.20275381164
363.47672350951
362.68099029036
361.81046985032
360.85442560599
359.8094432123
358.6781765036
357.46640280199
356.18756042145
354.86011377752
353.50370531818
352.13757250548
350.77975039766
349.44506586412
348.14422490053
346.88481399879
345.67103909137
344.50557293322
343.38849343539
342.31892621545
341.29638747832
340.31878469172
339.38400556274
338.48939991766
337.63323591154
336.8130678448
336.0265664157
335.27173458116
334.54681860207
333.84994434312
333.1792380009
332.53328189455
331.91055277103
331.30966017714
330.72928736187
330.16831911035
329.62565907257
329.10022795831
328.59114868646
328.09753416925
327.61862354266
327.15357656983
326.70172229862
326.26241405437
325.83501864655
325.41898042064
325.01370033237
324.61874684751
324.23362411089
323.85790306559
323.49114109158
323.13296167224
322.78302250041
322.44097071741
322.10647098402
321.77920260801
321.45889774833
321.14532277386
320.83820279799
320.53484273101
321.4276609089
322.0747212063
321.16227195488
320.25026241287
319.37332619289
318.53479456915
317.73344320363
316.96663641318
316.23140608449
315.52486509803
314.84437721266
314.18760617489
313.55248832007
312.93713011262
312.33970777539
311.75843846247
311.19163471883
310.63781555175
310.0315175249
309.50195348072
308.98342997561
308.4764215575
307.98179883532
307.50041604989
307.0324344358
306.57651795256
306.12925528995
305.68485007866
305.23525257363
304.77067753908
304.28068096956
303.75605137272
303.19058806456
302.58211263175
301.93193070321
301.24279736003
300.51611957396
299.74999754814
298.74961371992
297.89009894103
296.99560937867
296.09428585537
295.2536809183
294.5629278648
294.04209578913
293.63711846731
293.2736025882
292.89907226439
292.48850762624
292.03438546564
291.53809600546
291.0047774415
290.44141320259
289.85872451394
289.27139996729
288.69499906946
288.1445686525
287.63553510461
287.17656142827
286.77110641659
286.4178316901
286.11112839761
285.84187840259
285.59963033755
285.37558840851
285.16355769649
284.96242899916
284.78048161095
284.64134031599
284.59385127939
284.74460262146
285.32146099259
286.79109779446
289.96764621213
353.86013342538
359.05450978712
359.8853343273
360.2795377258
360.44335858305
360.42014257754
360.21562165768
359.85679612197
359.36658703786
358.76209458073
358.05032378974
357.24133403703
356.33851935205
355.34558248606
354.27403689811
353.14018908385
351.96203746914
350.75789740749
349.54489624971
348.33832513547
347.15041341716
345.98981562118
344.86239832883
343.77191191948
342.72050675114
341.70894934787
340.73705756977
339.80351291866
338.90777612894
338.04816197682
337.22295224929
336.43006076087
335.66811477054
334.93549966753
334.23056552025
333.55153037366
332.89716848882
332.26608197731
331.65692606157
331.06834842353
330.49933229794
329.94882352163
329.41578641042
328.89925051797
328.39838087971
327.91244174897
327.44061641882
326.98220149357
326.53650530418
326.10298363209
325.68102683055
325.27007281051
324.8696150494
324.47918571302
324.09836812133
323.72671539393
323.36382546673
323.00931339652
322.66283803615
322.324078298
321.99271450049
321.66845353505
321.35099881
321.04013097096
320.73559992953
320.42327695369
322.26718655014
321.78626097298
320.86370703814
319.96293670734
319.09892309776
318.27293780055
317.48339999767
316.72761376904
316.00261121036
315.305542918
314.63383493711
313.98520982953
313.35763034932
312.74920571874
312.15812452063
311.58265511927
311.02121073067
310.47245548819
310.0054526219
309.47811235698
308.96203800347
308.45772106532
307.96603295969
307.48779050443
307.02310754557
306.5706118202
306.12687786265
305.6861668171
305.24052260947
304.78026921026
304.29503044767
303.77557925898
303.2156032495
302.61277259052
301.96830659124
301.28503799746
300.56464433909
299.80559931276
298.81977885581
297.96988059159
297.08418052112
296.18611818909
295.33347205905
294.61180047147
294.05039896652
293.6038148621
293.19772774021
292.77648096517
292.31403802289
291.80514854968
291.25673462826
290.68080623369
290.08874424009
289.50066970153
288.93901007673
288.42659666826
287.98172988596
287.61381501725
287.32261417396
287.09885179071
286.92734236267
286.7903223049
286.66826383349
286.54357042535
286.40298126324
286.23847527023
286.05023882715
285.85316979956
285.67485242171
285.56854397385
285.65886629917
286.16497020537
287.52157775473
290.4193388571
349.47375507231
354.04219694373
355.07666248847
355.72688579018
356.15349911047
356.41898924756
356.51777467745
356.47128405983
356.26827983541
355.92726067882
355.46770811577
354.89850006131
354.21580359762
353.43595714287
352.57084372345
351.63129817523
350.6324512463
349.59100326176
348.52328294579
347.4440357105
346.36617853188
345.30079213933
344.25555549514
343.23598057648
342.24547165685
341.28640122909
340.35989107099
339.4660201457
338.60462060206
337.77461232671
336.97490014989
336.20484506209
335.46300947894
334.74819249143
334.05870411428
333.39354473247
332.75158759855
332.1315643013
331.53220311613
330.95241755533
330.39141706992
329.84811374027
329.32158955314
328.81089689912
328.31543691904
327.83438173244
327.3670316904
326.91265977455
326.47070384997
326.04061745203
325.62181749853
325.21378451445
324.81601359509
324.4281106563
324.0496240128
323.68014502366
323.31927676652
322.9666607803
322.62198292516
322.28489863021
321.95510378928
321.63229292473
321.31622631813
321.006652743
320.70317829697
320.40259618974
322.34850180733
321.70320408717
320.78039342572
319.88326772921
319.02321778285
318.20104078449
317.4151306808
316.66285456319
315.9412752384
315.24754719069
314.57908285516
313.93357733234
313.30895905953
312.7033158074
312.11484646327
311.54186753544
310.9828701438
310.43660881392
309.97275932124
309.44820935275
308.93521055719
308.43427102862
307.94625784655
307.47193741899
307.01136104668
306.56311656741
306.12375661058
305.68762029598
305.24687279744
304.79198028418
304.31265974003
303.7996733466
303.24657399599
302.65083889563
302.0135657449
301.33766269099
300.62512939566
299.87490492157
298.90576267936
298.06771357974
297.19320317895
296.30076583009
295.43771791376
294.68214489966
294.07214968706
293.57376473269
293.11533883389
292.63937760241
292.12213091004
291.56273929091
290.98026036196
290.39643514175
289.83343135939
289.31750520704
288.87813446245
288.53869602448
288.31133379083
288.18963745667
288.15265536535
288.17108093547
288.21554025737
288.25727395318
288.27054860133
288.23570974354
288.13999358054
287.97800371727
287.75445083101
287.49048470374
287.21983710087
287.00605604381
286.97553622506
287.35119937717
288.50595632341
290.97046672263
346.78016030165
350.42909538283
351.45481600003
352.15155920734
352.66516807487
353.04861849044
353.30103184786
353.41704783533
353.40945342135
353.26659478524
352.99075463089
352.60539017102
352.12516491099
351.53187132459
350.84299145868
350.07457914723
349.23933141023
348.34945561729
347.42089623641
346.46758838898
345.50209482205
344.53497308161
343.57553811714
342.6308217035
341.70565903068
340.80337098901
339.92629223323
339.07568692414
338.25201965996
337.4552548963
336.68514029814
335.94107169952
335.22200149586
334.52708661591
333.85574787718
333.2067660045
332.57925647215
331.97192837777
331.38403802717
330.81483975188
330.26328177235
329.72855303206
329.20965346017
328.70608234137
328.2170531499
327.74187806641
327.27982946878
326.83032437905
326.3929085005
325.96695607272
325.55197076456
325.14742056878
324.75290889493
324.36803081518
323.99234963052
323.6254711563
323.26700897316
322.91666153764
322.57410093628
322.23900867051
321.91107529058
321.59002557577
321.27563007747
320.96767556435
320.66593667598
320.40498823734
322.3711617919
321.60202241405
320.68138402077
319.78876510921
318.93339671222
318.11576266433
317.33419631075
316.58610402893
315.86858373041
315.17880442508
314.51416229124
313.8723175591
313.25116198561
312.64876705156
312.06335320841
311.49330056398
310.93719574771
310.39390143355
309.93362622467
309.41242603642
308.90311750094
308.40622477629
307.9225996561
307.45294463621
306.99723475849
306.55401392644
306.1198091519
305.68905773701
305.25407477942
304.80550416025
304.33318549054
303.82788041811
303.28298920137
302.69575427075
302.0671064604
301.40000763376
300.69680555086
299.95696912621
299.00637036179
298.18210818469
297.32102281786
296.43692507227
295.56685640841
294.77775808226
294.11431738581
293.55607027039
293.03879824167
292.50676873171
291.94169079687
291.36324991846
290.8063042171
290.30412107355
289.88279190747
289.56702745277
289.38098871602
289.33620678466
289.42060855818
289.60156617039
289.83589910818
290.08223643945
290.3036148031
290.46915401028
290.5558507962
290.54818907005
290.43884402931
290.23039890493
289.92603159757
289.55319683385
289.15270678746
288.79451674654
288.60786966806
288.79430243223
289.65718521538
291.54382092946
345.22223962947
347.55839227449
348.59678715177
349.26320554589
349.7943007364
350.21919066777
350.5384018473
350.75122169311
350.84489753537
350.83681763538
350.70765390818
350.45928405356
350.1173862422
349.67919892145
349.14660167034
348.52531975418
347.83174271864
347.07852535845
346.27776636448
345.4419302261
344.58373987267
343.71381840931
342.84072622533
341.97217912416
341.11414386374
340.27094885846
339.44577783619
338.64082527661
337.85745061431
337.09638908506
336.35787317865
335.64175537669
334.94774303326
334.27543857371
333.62408852746
332.99280834714
332.38118666815
331.78847176054
331.21374911244
330.65642535915
330.11545088131
329.59023503005
329.0803156669
328.5848494815
328.10325468594
327.63474149034
327.17884479773
326.73511658684
326.30293131544
325.88182109623
325.47121285677
325.07077370557
324.68009991155
324.29874364074
323.92632819712
323.56245160528
323.20683105277
322.85913987276
322.51904638727
322.18626886327
321.86052128725
321.54162095163
321.22923133138
320.92315598637
320.62308129461
320.47920840301
322.33297429855
321.48416100222
320.56663797863
319.67947429166
318.82964072778
318.01733558827
317.2408593316
316.49764897455
315.78484311402
315.09962460909
314.43937098917
313.80170544446
313.18448668257
312.58578039755
312.00384409885
311.43713924864
310.88436583467
310.34451030928
309.8882340594
309.37094206097
308.86593079927
308.37373993808
307.89518805325
307.43090061044
306.98076309262
306.54326549079
306.11493271779
305.69029314432
305.26185627937
304.82047770335
304.35615388019
303.85966267265
303.32424005176
302.74685272355
302.12821099254
301.47128859792
300.77878200704
300.05073661897
299.12025163946
298.31141062953
297.46570978779
296.59267425807
295.71997917557
294.90122240632
294.18384907366
293.56170730891
292.98445688732
292.40469136329
291.82656244428
291.29877781997
290.87917416447
290.60151072002
290.47100213916
290.48662729301
290.64876268615
290.94394665142
291.3304092856
291.75782340382
292.17689078765
292.54662244483
292.83873378114
293.03337127589
293.11683844403
293.07945805542
292.92707396456
292.65285484017
292.26074238344
291.77960608548
291.25030591979
290.74538982308
290.38939666185
290.35809396447
290.85365393795
292.08476025775
344.4705390264
345.14889787672
346.24466550426
346.86764779533
347.37931694469
347.80990534561
348.15671356235
348.41726292926
348.57793815662
348.63655801684
348.61470567767
348.48605432875
348.24329611016
347.90548394693
347.50503719544
347.01351333034
346.44182103103
345.80612164939
345.11988401878
344.39217745445
343.63368320572
342.85519797534
342.06583473732
341.27254583943
340.48168130708
339.69844106919
338.92652663736
338.16884432246
337.42744197618
336.70365105287
335.99830931648
335.31186614978
334.6444187867
333.99580967298
333.36576793201
332.75394515943
332.15990159185
331.58291070572
331.02228888394
330.47780389502
329.94874663584
329.43441988119
328.93441485739
328.44784463815
327.97425549117
327.51334112411
327.06446208784
326.62716134394
326.20084914303
325.78505904741
325.37954919053
324.98381883801
324.59747978443
324.22012972864
323.85138429349
323.49101467254
323.13865429601
322.79399066884
322.45672798667
322.1265813415
321.80334235935
321.48678182251
321.17656044963
320.87240427105
320.57365784251
320.78030850726
322.2335512109
321.34924004608
320.43621143188
319.55543185435
318.71201902532
317.90587991533
317.13528000861
316.39768300246