/*--------------------------------*- C++ -*----------------------------------*\
| =========                 |                                                 |
| \\      /  F ield         | OpenFOAM: The Open Source CFD Toolbox           |
|  \\    /   O peration     | Version:  2312                                  |
|   \\  /    A nd           | Website:  www.openfoam.com                      |
|    \\/     M anipulation  |                                                 |
\*---------------------------------------------------------------------------*/
FoamFile
{
    version     2.0;
    format      ascii;
    arch        "LSB;label=32;scalar=64";
    class       volScalarField;
    location    "0.0002";
    object      Y.Liq;
}
// * * * * * * * * * * * * * * * * * * * * * * * * * * * * * * * * * * * * * //

dimensions      [0 0 0 0 0 0 0];

internalField   nonuniform List<scalar> 
109340
(
0.99999
0.99999
0.99999
0.99999
0.99998999999996
0.99998999999894
0.99998999996974
0.9999899994061
0.9999899959509
0.99998998498349
0.99998995985439
0.99998991201255
0.99998983109848
0.99998970494071
0.99998951943779
0.99998925831281
0.99998890268262
0.99998843040873
0.99998781516388
0.9999870251451
0.99998602133132
0.99998475524438
0.99998316603604
0.99998117662593
0.99997868836559
0.99997557358562
0.99997166486492
0.99996673906651
0.99996049265206
0.99995250175033
0.99994215424679
0.99992852725798
0.9999101512334
0.99988452797226
0.99984708999404
0.99978882205885
0.99999
0.99999
0.99999
0.99999
0.99998999999994
0.99998999999829
0.9999899999511
0.99998999912436
0.99998999464773
0.99998998138046
0.99998995216539
0.99998989797466
0.99998980797945
0.99998966952206
0.99998946797148
0.99998918642937
0.9999888052684
0.99998830141783
0.9999876473387
0.99998680962977
0.99998574717539
0.99998440874668
0.9999827298893
0.99998062876096
0.99997800034936
0.99997470833911
0.99997057332598
0.99996535512606
0.99995872512469
0.99995022101255
0.99993916858612
0.99992453775077
0.99990465618151
0.9998765991994
0.99983476210126
0.99976743489427
0.99999
0.99999
0.99999
0.99999
0.99998999999997
0.99998999999925
0.99998999997503
0.99998999932913
0.99998999530304
0.99998998275527
0.99998995449335
0.99998990144746
0.99998981274755
0.99998967569944
0.99998947564364
0.99998919567031
0.99998881615279
0.99998831403926
0.99998766181933
0.99998682612842
0.99998576587324
0.99998442982024
0.99998275350419
0.99998065504519
0.99997802938123
0.99997474011955
0.99997060774381
0.99996539194589
0.99995876401629
0.9999502615637
0.99993921022592
0.99992457879269
0.99990468444266
0.99987653799867
0.9998341975501
0.99976414641795
0.99999
0.99999
0.99999
0.99999
0.99998999999999
0.99998999999985
0.99998999999291
0.99998999952976
0.99998999599985
0.99998998427224
0.99998995711884
0.99998990542638
0.99998981828261
0.99998968295144
0.99998948472559
0.99998920663721
0.99998882898967
0.99998832864468
0.99998767797065
0.99998684343274
0.99998578365796
0.99998444697744
0.99998276831611
0.9999806649337
0.99997803057997
0.99997472719824
0.99997057294147
0.9999653242346
0.99995864777262
0.99995007458662
0.99993892039592
0.99992413821386
0.9999040090572
0.99987542129004
0.99983188513581
0.99975662030714
0.99999
0.99999
0.99999
0.99999
0.99999
0.99998999999999
0.99998999999924
0.99998999966039
0.99998999657405
0.99998998569889
0.99998995978614
0.99998990960654
0.99998982403215
0.9999896900148
0.99998949239686
0.9999892135712
0.99998883296933
0.99998832629154
0.99998766421843
0.99998681115275
0.99998572274954
0.99998434322631
0.99998260194922
0.9999804085038
0.99997764618226
0.99997416251165
0.99996975575408
0.99996415471693
0.99995698734886
0.99994772936157
0.99993561480139
0.99991947347762
0.99989737655839
0.99986578090579
0.99981694785529
0.99972734274973
0.99999
0.99999
0.99999
0.99999
0.99999
0.99999
0.99998999999189
0.99998999919633
0.99998999380728
0.99998997671155
0.99998993788465
0.99998986456034
0.99998974123261
0.9999895494877
0.99998926763327
0.99998887008812
0.99998832647907
0.99998760051329
0.99998664897718
0.99998541546625
0.9999838279186
0.99998179532401
0.99997920100012
0.99997589419446
0.99997167877728
0.99996629733443
0.99995940838972
0.99995055242837
0.99993909908564
0.99992416043043
0.99990443836666
0.99987795803348
0.99984144303559
0.9997888339113
0.99970650930265
0.99954755951619
0.99969285883385
0.99953430525266
0.99928347805985
0.99891868927066
0.99842928593563
0.99780540288372
0.99703326675298
0.99609888292635
0.99499091145046
0.99370572880126
0.99224361422817
0.99062549821451
0.98889497655314
0.98708901635174
0.98524651858811
0.98340766361765
0.98160287683417
0.97985452823892
0.97817704604586
0.97657862910567
0.97506337211926
0.97363123981343
0.97227974174895
0.97100530630838
0.9698034000601
0.96866921067165
0.96759784726589
0.96658579815247
0.96562675572738
0.96471775410562
0.96385510383053
0.96303427632025
0.96225354338609
0.96150828137893
0.96079753251948
0.96011724759429
0.95946666988237
0.95884245276837
0.95824396818107
0.95766845425993
0.95711533790054
0.95658239845732
0.95606901169412
0.95557352351246
0.95509513088202
0.95463276441708
0.95418541358757
0.95375245184591
0.95333281205942
0.95292606492281
0.95253128872369
0.952148036464
0.95177563992003
0.95141358317449
0.95106135844886
0.95071849656967
0.95038455865685
0.95005913829751
0.9497418528268
0.94943234633562
0.94913028372722
0.94883534826602
0.94854724340436
0.94826568991783
0.94799042476269
0.94772120373456
0.94721532030806
0.94536107797829
0.94425978444808
0.94326529685783
0.9423219445052
0.94142666621069
0.94057568114444
0.93976489412129
0.93899063313637
0.93824960470638
0.93753885354556
0.93685571064011
0.9361975152734
0.93556124688841
0.93494334400442
0.93433984943356
0.93374686174301
0.93316119020654
0.93250847887383
0.9319352563887
0.93137134602412
0.93082165118677
0.93029178571453
0.92978647891848
0.92930798792375
0.92885500356864
0.92842226028673
0.92800072730915
0.92757865912839
0.92714267158362
0.92667695395535
0.92616550895114
0.92559454749814
0.92495531417058
0.92424654468612
0.92347561556253
0.92265756246982
0.92181266770673
0.92075240073386
0.91993844326561
0.9191912188259
0.91855172953117
0.91806324331159
0.91773317741128
0.91751063866142
0.91732636284878
0.91713289277686
0.91690843285621
0.91664547369516
0.91634251798169
0.91600026054374
0.91561986663065
0.91520223274158
0.91474708893233
0.91425285855269
0.91371732884614
0.91313879085778
0.91251769459749
0.91185757356965
0.91116561081264
0.91045211227061
0.90972977555208
0.90901304318224
0.90831764782517
0.90765783947014
0.90704570551542
0.90649179170754
0.90600463979044
0.90559018625473
0.90525092924915
0.90498617628023
0.90479012889148
0.90465035394584
0.90455786294124
0.9996507566199
0.99945064908904
0.99913645656328
0.99869500727367
0.99812252799685
0.9974106104781
0.99655058895818
0.99553443901723
0.99435904956675
0.99302656324249
0.99154292096808
0.98992815623163
0.98821541297206
0.98644107569463
0.98463754548115
0.98283857537222
0.98107303754912
0.97936176630442
0.97771915616935
0.97615332611098
0.9746678744716
0.97326293601259
0.97193639765694
0.97068473420125
0.96950388846897
0.96838888463866
0.96733513955587
0.96633816192124
0.9653937656473
0.9644978445547
0.96364682179668
0.96283720122052
0.96206593389825
0.96133017184446
0.96062731746853
0.95995503860079
0.95931115173938
0.95869373334447
0.95810097527297
0.95753126592014
0.95698310130572
0.95645512680037
0.95594609319602
0.95545485131041
0.95498036170784
0.95452164019176
0.95407781153328
0.95364802927874
0.95323154960427
0.95282764569099
0.952435673036
0.95205501120604
0.9516850993723
0.95132540387224
0.95097542988574
0.95063471511675
0.95030282905622
0.94997937143336
0.94966396570925
0.94935626094282
0.94905592671565
0.94876265154781
0.94847614339055
0.94819612717178
0.94792234191966
0.94765367917532
0.94669386377532
0.94505440619267
0.94399978631151
0.94301871484651
0.94208772241228
0.94120405023021
0.94036371536502
0.93956267188782
0.93879731365424
0.93806441679166
0.93736110548896
0.9366847385965
0.9360325847021
0.93540148466148
0.93478775146462
0.93418739902723
0.93359665516568
0.93301264796395
0.93250667815968
0.93193362396065
0.93136989488365
0.9308204116156
0.93029078017997
0.92978571686756
0.92930746602629
0.92885471034959
0.92842218390595
0.92800086390212
0.92757901724265
0.92714327662062
0.92667784882279
0.92616674811844
0.92559618542384
0.92495739061059
0.92424907189041
0.92347857246812
0.92266089781717
0.92181630642202
0.92075628976594
0.91994233224089
0.91919481341719
0.91855450937089
0.91806448546994
0.91773233263012
0.91750738171269
0.91732017092385
0.91712282693918
0.91689319537732
0.91662353099726
0.91631219311911
0.91595985625977
0.9155677013455
0.91513661552554
0.91466630268245
0.91415518105424
0.91360113815624
0.91300269378502
0.91236073235506
0.91167930028096
0.91096620979395
0.91023246333928
0.90949147084466
0.90875843749272
0.90804975717107
0.90738009479411
0.90676170529453
0.90620515120605
0.90571881504905
0.90530828419077
0.90497544350009
0.90471905970671
0.90453254558512
0.90440223541785
0.90431692249396
0.99963322347204
0.99938928967742
0.99900186108038
0.99847094340374
0.9978055011548
0.99700464198022
0.99606789174346
0.99499555690202
0.9937888857301
0.99244938121581
0.99098637315987
0.98941556926107
0.98775600126442
0.9860364983678
0.98428879607329
0.98254147271438
0.9808220881455
0.97915100975201
0.97754240669232
0.97600483629726
0.9745425197689
0.97315655940554
0.9718456197556
0.9706067723109
0.96943623200595
0.96832992656196
0.96728381198603
0.96629332823407
0.96535443823347
0.96446335603227
0.96361642387917
0.96281043057713
0.96204228764293
0.96130927587747
0.96060881820661
0.95993864496768
0.95929662320552
0.95868085710105
0.95808955614116
0.95752113043297
0.95697408553862
0.95644710475274
0.95593892971492
0.95544846230681
0.95497463764228
0.95451652140548
0.95407321046036
0.95364389790547
0.95322781946842
0.95282427412357
0.95243261040269
0.95205222040278
0.95168254538871
0.95132305746349
0.95097326933812
0.95063271918746
0.95030097927394
0.9499776498073
0.94966235620439
0.9493547482447
0.94905449739803
0.94876129489323
0.94847485095361
0.94819489336863
0.94792116391407
0.94765241621915
0.94666877404447
0.94504311990512
0.94398992546297
0.94300910524871
0.94207828754816
0.94119486614074
0.94035490134536
0.93955430264045
0.93878941111838
0.93805698145147
0.93735413004284
0.93667820181592
0.93602644651286
0.93539569216705
0.93478225236576
0.93418215613732
0.93359165836841
0.93300792096967
0.93250276561435
0.93193005401561
0.9313667273279
0.93081771040403
0.93028859323672
0.92978406407391
0.92930633918164
0.92885408366104
0.92842203103354
0.92800117610536
0.92757981326483
0.92714461227312
0.92667981824778
0.92616947085069
0.92559978107062
0.92496194748568
0.92425461929422
0.92348506744094
0.92266823148257
0.9218243185913
0.92076489033903
0.9199509725793
0.91920284403172
0.91856077321706
0.91806736740416
0.9177305909815
0.91750028230005
0.91730655478437
0.91710059860352
0.9168594378537
0.91657477669827
0.91624465322465
0.91586967486096
0.91545107642823
0.91498974374325
0.91448534517455
0.9139363158063
0.91334077067105
0.91269776655177
0.9120092006402
0.9112803399487
0.91052045495822
0.90974212347133
0.90896032804699
0.90819189672847
0.90745465288708
0.90676407489424
0.9061327683942
0.90557127212175
0.90508754024575
0.90468631697037
0.90436822571675
0.90413067401233
0.90396540106813
0.90385603855265
0.90378648793751
0.99959467500061
0.99924788641681
0.99870849443142
0.9980145778252
0.99719661422702
0.99627106252917
0.99524705070396
0.99413009215351
0.99291654923444
0.99160454536407
0.99020041231599
0.98870595201431
0.98713111896202
0.98549612780067
0.98382714067199
0.98215018874171
0.98049144813631
0.97887209657551
0.97730680199158
0.97580543573014
0.97437325964315
0.97301205570594
0.97172145271269
0.97049943385622
0.96934290385468
0.9682482067297
0.96721155800173
0.96622932443034
0.96529751708062
0.96441250254023
0.96357086183406
0.96276944745709
0.96200534925853
0.96127586824056
0.96057856426902
0.95991117060304
0.95927166157986
0.95865813347145
0.95806887156663
0.95750226529471
0.95695688111711
0.95643138159389
0.95592456233359
0.95543530976673
0.9549625981914
0.95450548629471
0.95406309167113
0.9536346119585
0.95321928710351
0.95281643026482
0.95242538416557
0.95204555713685
0.95167638725937
0.95131735801829
0.95096798563248
0.95062781453098
0.9502964201751
0.94997340509062
0.94965839709454
0.94935104751683
0.94905103041772
0.9487580399805
0.94847178933292
0.94819200945151
0.94791844583822
0.94764966433755
0.94663324004974
0.9450262742064
0.94397530823922
0.94299506006702
0.94206461065215
0.9411816065683
0.94034219148945
0.93954223461392
0.93877801591608
0.93804626093554
0.93734407318067
0.93666877651696
0.93601759378236
0.93538733518435
0.93477431568448
0.93417458627293
0.93358444004745
0.93300108285995
0.93249684090243
0.93192463957754
0.93136192504079
0.93081361845338
0.93028528315629
0.92978156483355
0.92930463717791
0.92885313895536
0.9284218030641
0.92800165078512
0.92758101876783
0.92714663346609
0.92668279745629
0.92617358896683
0.92560522004732
0.92496884291295
0.92426301815496
0.92349490715103
0.92267934807481
0.92183647081188
0.920777988473
0.91996417327788
0.91921517093676
0.91857047073925
0.91807195377628
0.91772812442075
0.91748960064338
0.91728584722816
0.91706657336513
0.91680749322612
0.91649939774459
0.91613979710944
0.91572915060584
0.91526880976116
0.9147597409371
0.91420161748612
0.91359293242914
0.91293222603374
0.91221947050701
0.91145826819405
0.91065596758134
0.90982423743721
0.90897818311891
0.90813517120609
0.90731438755888
0.90653569266562
0.90581554575474
0.90516697757415
0.90460034822844
0.90412279004711
0.90373758428856
0.90344345277087
0.90323554035768
0.90310306831468
0.90302563035805
0.90297974523437
0.99946717507478
0.99882231576315
0.99796058913901
0.99701959624873
0.99604487558431
0.99504014757157
0.99399748278022
0.99290614852935
0.99174928431594
0.99052196130781
0.98921321507012
0.98782292556831
0.98635546771773
0.98482491856317
0.98325330825777
0.98166465386212
0.9800817571922
0.97852624987734
0.97701447516805
0.9755575392392
0.97416209339121
0.97283141175687
0.97156602331777
0.97036484977196
0.96922570197571
0.96814561593725
0.96712125675518
0.96614918107973
0.9652261599306
0.96434863029789
0.96351343692518
0.96271758519084
0.96195832591987
0.96123308464218
0.96053951501837
0.959875437736
0.95923887583721
0.95862799127629
0.95804110442953
0.95747664977204
0.95693321354424
0.95640948372453
0.95590428091645
0.95541650207324
0.95494514801423
0.95448927685153
0.9540480313944
0.9536206051896
0.95320625751161
0.95280429888975
0.95241408266166
0.95203501935689
0.95166655235068
0.95130817150468
0.95095939644971
0.95061977949855
0.95028889811733
0.94996635798312
0.94965178868254
0.94934484368993
0.94904519977413
0.94875255381532
0.9484666216491
0.94818713746182
0.94791385161791
0.94764506510811
0.94658622550879
0.94500400196085
0.94395586985358
0.94297652938657
0.9420467031553
0.94116432031479
0.94032564492768
0.93952652520677
0.93876318203822
0.93803230672975
0.93733098338028
0.93665650691734
0.93600606563689
0.93537644767239
0.93476397065536
0.93416471458079
0.93357502187979
0.93299215449259
0.93248893215235
0.93191740677681
0.93135551107193
0.93080815599579
0.93028086669235
0.92977823157613
0.92930236764904
0.92885187878388
0.92842149727154
0.92800227984511
0.92758261995947
0.92714931996904
0.92668675914598
0.92617906751779
0.92561245954364
0.92497802681686
0.92427421245397
0.92350803072769
0.92269418105746
0.92185268221563
0.92079555013301
0.91998190335255
0.91923178650163
0.91858366628843
0.91807840600418
0.91772513831443
0.91747551192443
0.91725811285536
0.91702056639677
0.91673669586328
0.91639593464311
0.91599500155142
0.91553411175258
0.91501483548444
0.91443840041787
0.91380462119277
0.91311214158275
0.91236024582258
0.9115503651462
0.91068872365873
0.90978587577886
0.90885703308861
0.90792088260882
0.90699789562429
0.90611021138092
0.90528004820487
0.90452476456371
0.90385767593226
0.90328860826895
0.90282332667
0.90246290356118
0.90220343134509
0.90203698991096
0.90194922689354
0.90191440467319
0.90189951665253
0.99859888241049
0.99703616003577
0.99596098406852
0.99504737784449
0.99415787901697
0.99326550379418
0.99234377683057
0.99138020908643
0.99035356140663
0.98925183324314
0.98806866274263
0.98680364606198
0.98545957649976
0.98404695936766
0.98258446640689
0.98109440635578
0.97959828464475
0.97811697439008
0.97666752037736
0.97526248392982
0.97391019483064
0.97261533003834
0.97137977763771
0.97020346423242
0.96908504903123
0.96802236049413
0.96701267732636
0.96605302785057
0.9651405427493
0.96427203328055
0.96344458786539
0.96265543598329
0.96190198602947
0.96118182225337
0.96049270204018
0.95983256134935
0.95919947272385
0.95859167936612
0.95800754645737
0.95744557106668
0.95690436053563
0.95638265193031
0.9558792805329
0.955393176192
0.95492335252821
0.9544688902872
0.95402894378184
0.95360271754103
0.95318948312843
0.95278855371207
0.95239929615068
0.95202111999728
0.9516534789238
0.95129586557878
0.95094780650092
0.95060885910886
0.95027860416965
0.94995665047596
0.94964262927819
0.949336196346
0.94903703052083
0.94874483120128
0.94845931703485
0.948180224642
0.94790730715396
0.94763853896295
0.94652506930991
0.94497643966795
0.94393160957514
0.94295350050844
0.94202458998347
0.94114306363255
0.94030532862488
0.93950724053296
0.93874497247274
0.93801517900478
0.9373149171446
0.93664144438449
0.93599190737905
0.93536306880457
0.93475125091572
0.93415257010018
0.93356342948115
0.93298116027626
0.93247906400801
0.93190837865708
0.93134750595279
0.93080134106866
0.93027535888727
0.92977407542725
0.92929953710837
0.92885030468089
0.92842111004826
0.92800305444778
0.92758460247584
0.92715265131052
0.92669167621383
0.92618587257214
0.92562145917249
0.92498945353259
0.92428815320373
0.9235243877601
0.92271267705808
0.92187287134701
0.92081758647521
0.92000414579303
0.91925269502312
0.91860044902805
0.91808693501583
0.91772189523845
0.91745822629061
0.9172233868028
0.91696222799059
0.91664597315802
0.91626213125479
0.91580626939086
0.91527825802748
0.9146800706001
0.91401353137019
0.91327889432147
0.91247518333618
0.91160290831405
0.91066582742613
0.90967399025362
0.90864262771917
0.90759190059624
0.90654502359315
0.90552624867678
0.90456093339705
0.90367344217306
0.9028816717708
0.90219879900419
0.90163356449308
0.90118964488335
0.9008650614124
0.9006524692177
0.90054027742831
0.90050922542476
0.90052697617934
0.90054955699282
0.98757107732379
0.9928604635311
0.99274103837192
0.9923772553245
0.99190082255372
0.99131099910793
0.99062846235398
0.98986396782518
0.98901990687993
0.98809407342753
0.98707887187733
0.98597369222706
0.98478311071372
0.98351421765619
0.98218130135388
0.98080401311814
0.97940357811691
0.97800015272224
0.97661305946683
0.97525664293162
0.97394136851747
0.97267426497757
0.97145920262829
0.97029775727105
0.96918991636581
0.96813449407425
0.96712955162602
0.96617272897202
0.96526157199177
0.96439331318126
0.96356527533757
0.96277492495369
0.96201982916748
0.96129771949442
0.96060643425981
0.95994398381593
0.95930849676693
0.95869825139091
0.95811164861748
0.95754721962829
0.95700358828869
0.95647950015901
0.95597379852992
0.95548542417358
0.95501339303633
0.95455679348972
0.95411477851939
0.95368655912411
0.95327140326988
0.95286862374732
0.95247758501137
0.95209769229515
0.95172839856267
0.95136919268884
0.95101959925978
0.95067917398716
0.95034749698471
0.95002417453377
0.94970883414637
0.94940112727647
0.94910072841641
0.94880733277746
0.94852065342758
0.94824042018589
0.94796637346055
0.94769820227783
0.94701293045625
0.94523154368935
0.9441547482014
0.94316552017817
0.94222570477177
0.94133373564253
0.94048657655823
0.93968016336435
0.93891053717695
0.93817419613424
0.9374680763972
0.93678936826837
0.93613522706998
0.93550249260093
0.93488758458981
0.93428666896012
0.93369608689537
0.93311295855829
0.93246726311257
0.93189758056572
0.93133793289675
0.93079319424068
0.93026877668971
0.92976910868536
0.92929615246063
0.92884841780167
0.92842063670391
0.92800396397491
0.92758694947285
0.92715660387428
0.9266975177746
0.92619396571543
0.92563217358521
0.92500307248172
0.92430478746161
0.9235439267362
0.92273478871102
0.92189696434214
0.92085846650964
0.9200452058597
0.91929141311598
0.91863189831913
0.91810360865454
0.9177169971335
0.91742715258613
0.91715935193459
0.9168529438896
0.91647379770589
0.91600532695468
0.91544058482458
0.91477876238635
0.91402294116337
0.91317676713317
0.91224213870931
0.91121932493522
0.91011185745364
0.9089292614884
0.9076898724793
0.90641881517876
0.90514633162929
0.90390340183488
0.90272068817127
0.90162817204361
0.90065209364474
0.89981023606026
0.89911444927198
0.8985706705096
0.89817807921501
0.89792855608984
0.89780828898375
0.8977996445604
0.89787244261038
0.89798526226066
0.89807309220608
0.977253847842
0.98477240167261
0.98576002583668
0.98627852915946
0.98651658018633
0.98653608903076
0.9863555524755
0.98599401187293
0.98549271884305
0.98486767422107
0.9841259203243
0.98327945684923
0.98233609776536
0.98130323011351
0.98019398280365
0.97902549164712
0.9778170808937
0.97658764927662
0.9753544149266
0.97413386828833
0.97293788701021
0.97177488936349
0.97065049850747
0.96956788228174
0.968528535006
0.96753278288596
0.9665799973169
0.96566900542675
0.96479814327626
0.96396545102096
0.96316895052099
0.96240666668038
0.96167662060328
0.96097692297649
0.9603057781432
0.95966147647758
0.95904239292754
0.95844701287131
0.95787391787042
0.95732180831089
0.95678946363714
0.95627573797961
0.95577957714106
0.95530000918269
0.95483612951384
0.954387085889
0.95395208656786
0.95353039475062
0.95312132348631
0.95272423220509
0.95233852022439
0.95196362827301
0.95159903575235
0.9512442585606
0.9508988432234
0.95056236423388
0.95023442136684
0.94991463674703
0.9496026545601
0.94929813969382
0.94900077856173
0.94871027695664
0.94842635942103
0.94814876853957
0.94787726468935
0.94760780645006
0.94628707557036
0.94486375385155
0.94383060488684
0.9428578651065
0.94193350105875
0.94105610152917
0.94022248172784
0.93942867257327
0.93867081048015
0.9379454462036
0.9372495074226
0.9365800867152
0.93593416968846
0.93530843202241
0.93469922953147
0.93410283707221
0.93351591096118
0.93293607144991
0.93243798167871
0.93187079049324
0.93131419109335
0.93077299954274
0.93025246642722
0.92975679917016
0.9292877517957
0.92884371021999
0.92841940908004
0.92800613739314
0.92759265706203
0.92716626059072
0.92671182687107
0.92621383244657
0.92565852981656
0.92503664593993
0.92434588574773
0.92359231351662
0.92278969853777
0.92195718135234
0.92092771225399
0.92011528504904
0.91935802556993
0.91868730048708
0.9181355442957
0.91771295001676
0.91737730958044
0.91704968849039
0.91665795992385
0.91615591803978
0.9155172071256
0.91472856197922
0.9137880538207
0.91270309673328
0.91148467576818
0.91014267212801
0.90868482601004
0.90712531379965
0.905488661061
0.90381282894212
0.90214377198959
0.90052631228594
0.8990018922822
0.8976064619959
0.8963709319211
0.89531743351018
0.8944591253581
0.89380221102957
0.89334534239633
0.89307896298238
0.89298549892378
0.89304084939488
0.89321353514482
0.89346654443025
0.89373302674342
0.89391685333531
0.97196917677035
0.97952566402395
0.98071209204602
0.98145936839515
0.98196612563051
0.98229747091617
0.98244190333853
0.98241769307659
0.98223136849033
0.98188379531734
0.98141821415595
0.9808357073134
0.98013215524804
0.97932792067971
0.97843798923263
0.97747498179634
0.97645578049288
0.97539776746006
0.9743177265157
0.97323045476894
0.9721492922855
0.97108504095977
0.97004541752399
0.96903560676679
0.96805880093689
0.96711677310869
0.96621032064784
0.96533926602433
0.96450287088531
0.96370007147123
0.9629295864617
0.96219000593755
0.96147989398386
0.96079775461837
0.96014212923904
0.95951157927546
0.95890472457608
0.95832025132864
0.9577569017378
0.95721350437717
0.95668898144951
0.95618231502314
0.95569252792454
0.95521872150731
0.95476006722353
0.95431578110432
0.9538851226949
0.95346739662093
0.95306195437841
0.95266819109856
0.95228554453746
0.95191348549302
0.95155151778286
0.95119917377182
0.950856015108
0.95052163129586
0.95019563560489
0.94987766411675
0.94956737346197
0.94926444113005
0.9489685639133
0.94867945643456
0.94839684846667
0.94812048429468
0.94785011933236
0.94757687687924
0.94609745729933
0.94476611560138
0.94374122357636
0.94277295164844
0.94185284409314
0.94097944233489
0.94014968842137
0.93935975752982
0.93860582333411
0.93788437628475
0.93719222291314
0.93652630735244
0.93588348685059
0.93526038092008
0.93465339305302
0.9340589503725
0.93347393938141
0.93289623932056
0.93240133973296
0.93183728601887
0.93128452290554
0.93074778373559
0.93023210943404
0.92974142718843
0.92927723300973
0.92883776291352
0.92841775935534
0.9280086812871
0.927599556334
0.92717802970892
0.92672934470039
0.9262382409214
0.92569102137578
0.92507817766043
0.92439690491002
0.92365259088509
0.92285833610785
0.92203270234092
0.92101345787256
0.92020246244514
0.9194416390897
0.91875867375601
0.91818043925567
0.9177149706769
0.91732080479539
0.91691383871231
0.91640342538889
0.91572280383915
0.91482841847631
0.91369557938566
0.91232249908204
0.9107291103616
0.90894812495418
0.90701295514932
0.90495162948478
0.90280250192873
0.90061589913368
0.89845641073759
0.89638701309248
0.89446189225399
0.89272238556332
0.89119886776353
0.88991206361156
0.88887198548917
0.88808094230458
0.88753677740084
0.8872293925642
0.88714021017787
0.8872411131205
0.88749962043222
0.88787726063273
0.8883168677429
0.88872809548666
0.8889913587898
0.9677361188107
0.97572794333367
0.97697736806501
0.97775688156278
0.97833896301329
0.97877105331101
0.979080054846
0.97923128236864
0.97923734681412
0.97911806462422
0.97884224750008
0.9784540991504
0.97796882251087
0.97736749284839
0.97666619329343
0.97588495135159
0.97503769553147
0.97413835713816
0.9732033807309
0.97224747690454
0.97128308708268
0.97032067913927
0.96936974269713
0.96843681039612
0.96752664850378
0.96664247116974
0.96578620644413
0.96495880444035
0.96416053683669
0.96339115762852
0.96265001764461
0.96193624188
0.96124886381647
0.96058681434804
0.9599489918819
0.95933427962529
0.95874153970883
0.95816969227454
0.9576176939129
0.95708452176372
0.95656922187485
0.95607089992611
0.95558869730018
0.9551217798576
0.95466938722251
0.95423080245554
0.95380534602089
0.95339237503786
0.95299128913888
0.95260152709894
0.95222255886583
0.95185389244544
0.95149506185094
0.95114562347042
0.95080515907135
0.95047327436655
0.95014960063908
0.94983379063862
0.94952551604785
0.9492244664
0.94893034871444
0.94864288701701
0.94836182081248
0.9480869008952
0.94781788975749
0.94753372262206
0.94589554992361
0.94465032234964
0.94363458118673
0.94267174939083
0.9417568074144
0.94088834295514
0.94006337251387
0.93927818632318
0.93852899710778
0.9378122288359
0.9371245448391
0.9364627205226
0.93582347944161
0.93520339743365
0.93459895465499
0.93400677271515
0.93342401801523
0.93284887788302
0.93235759474106
0.93179733087911
0.93124918723305
0.93071778333273
0.93020790075449
0.92972313058948
0.92926466679501
0.92883057472883
0.92841561265859
0.92801144493842
0.92760741625464
0.92719159175585
0.92674965372453
0.9262666690215
0.92572902455927
0.92512695929303
0.9244570813761
0.92372397351993
0.92293991843739
0.9221227580603
0.92111504759805
0.92030617949472
0.91954197821645
0.91884644665834
0.91824025936157
0.91772667092224
0.91726220965031
0.91675521050336
0.91608682773302
0.91515539604936
0.91388882241997
0.91224454711842
0.91022802643811
0.90789517971688
0.90533539594329
0.90263554571053
0.89986220276144
0.89708802459388
0.89438956132249
0.89184173976913
0.88950741158809
0.88743019297432
0.88563476337824
0.88413101572984
0.88291830204533
0.88199022989576
0.88133744428179
0.88095179356676
0.88081547166283
0.88090642982139
0.88119397192215
0.88163922163387
0.88219279477825
0.88277962780837
0.8832908172407
0.88359404346789
0.96379238713687
0.97270788437774
0.97403098693077
0.97480780087427
0.97539582950086
0.97586412952661
0.9762266760287
0.97647598075177
0.97659585853648
0.9765992945761
0.97649352296628
0.97624487382487
0.97589705771296
0.97546857942664
0.97493461492079
0.97430854186996
0.9736110505565
0.97285507767756
0.97205313155415
0.97121888989697
0.97036540859909
0.9695033624027
0.96864104777138
0.96778644491418
0.9669450732249
0.96612106731769
0.96531741660003
0.96453613213641
0.96377838856582
0.96304468643626
0.9623350609592
0.96164922889667
0.96098666643254
0.96034669967493
0.95972858902973
0.95913149974781
0.95855455418457
0.95799688159027
0.95745763304899
0.95693596321144
0.95643106454312
0.9559421612445
0.95546852189015
0.9550094270501
0.9545641726599
0.9541321191439
0.9537126529154
0.95330518877217
0.9529091680371
0.95252406620211
0.95214939482558
0.95178469235908
0.95142952698643
0.95108348384965
0.95074616580079
0.95041719834748
0.95009623191649
0.94978294006426
0.94947701358644
0.94917815755219
0.94888609343257
0.94860055821389
0.94832130389886
0.94804809695341
0.94778073603224
0.94745964823563
0.94568800872929
0.94451661972252
0.94351039698887
0.94255426279652
0.94164557611563
0.94078305806339
0.93996383601211
0.93918430588751
0.93844070390479
0.93772937101221
0.93704681001973
0.93638961861688
0.93575439317589
0.93513768859571
0.93453609800803
0.93394648287877
0.93336633787912
0.93279420187446
0.93230698861739
0.93175118623176
0.93120844867977
0.93068324420569
0.93018004332259
0.9297020497346
0.92925011833039
0.92882212974642
0.92841286945381
0.92801424252039
0.92761596034516
0.92720656918672
0.92677226330774
0.92629850352127
0.92577180391997
0.92518214881981
0.92452549878067
0.92380551118893
0.9230334996706
0.92222644330151
0.92123166482996
0.92042575639616
0.91965861507061
0.91895071507772
0.91831633959765
0.91775160695258
0.91720717405472
0.91658045232551
0.91571272587832
0.91444569149492
0.9126640463766
0.91030499471673
0.90740541400774
0.90411179005596
0.9006262598409
0.89711893745049
0.89369646099761