/*--------------------------------*- C++ -*----------------------------------*\
| =========                 |                                                 |
| \\      /  F ield         | OpenFOAM: The Open Source CFD Toolbox           |
|  \\    /   O peration     | Version:  2312                                  |
|   \\  /    A nd           | Website:  www.openfoam.com                      |
|    \\/     M anipulation  |                                                 |
\*---------------------------------------------------------------------------*/
FoamFile
{
    version     2.0;
    format      ascii;
    arch        "LSB;label=32;scalar=64";
    class       volScalarField;
    location    "0.0002";
    object      Ybar.Liq;
}
// * * * * * * * * * * * * * * * * * * * * * * * * * * * * * * * * * * * * * //

dimensions      [0 0 0 0 0 0 0];

internalField   nonuniform List<scalar> 
109340
(
0.99909188678225
0.99908824535072
0.99908127977239
0.99907278199094
0.99906330603106
0.99905332784605
0.99904303023742
0.99903248272316
0.99902168291518
0.9990101500913
0.99899705219291
0.99898146938437
0.99896227972086
0.9989381252405
0.99890738955284
0.99886816163149
0.99881816994254
0.99875469577463
0.99867444647824
0.99857338493795
0.99844648738071
0.99828744433493
0.99808825003294
0.99783864705441
0.99752533650711
0.9971308671563
0.99663199403904
0.99599718785785
0.99518268959923
0.99412596461702
0.99273425770652
0.99086329125199
0.98827494882635
0.98454830700599
0.97888261558242
0.96963666519037
0.99909243009919
0.99908775717297
0.99907993435044
0.99907084808979
0.99906107686254
0.999051040322
0.99904085921163
0.99903048880978
0.99901963528681
0.99900778701622
0.998994184066
0.99897786348409
0.9989576426596
0.99893209873931
0.99889954329332
0.99885797590281
0.99880502635738
0.99873784806173
0.99865298199039
0.9985461709482
0.99841210608104
0.9982441015754
0.99803365360374
0.99776983752223
0.9974384498845
0.99702078800826
0.99649183977088
0.99581750576866
0.99495014984123
0.99382112250193
0.99232745791589
0.99030653742657
0.9874838394513
0.98335802324344
0.97691730641578
0.96597004421424
0.9990944541565
0.99908905661313
0.99908045429585
0.99907115646357
0.99906147014825
0.99905157980142
0.99904145787842
0.9990310706316
0.99902020731396
0.999008367962
0.99899480270144
0.99897854443281
0.99895840531095
0.99893295905826
0.99890051610324
0.99885907989012
0.99880627989845
0.99873927281233
0.99865460224652
0.99854801517492
0.99841420367366
0.99824648246681
0.99803634816883
0.99777287361031
0.99744185230903
0.99702457489585
0.99649601995633
0.99582207851739
0.99495510919435
0.99382645045259
0.99233308012059
0.99031199301245
0.98748572978922
0.98333671552216
0.97677227200686
0.9651495458096
0.99909726432532
0.99909077642307
0.9990817554462
0.99907220807147
0.99906234472818
0.99905225613062
0.9990419712478
0.99903147855724
0.99902056229134
0.99900872056179
0.99899520371483
0.99897903939887
0.99895903261458
0.99893375087727
0.99890149710957
0.99886026629241
0.99880767988358
0.99874088475796
0.99865640843285
0.9985499802074
0.99841625382161
0.99824849511646
0.9980381296133
0.99777412569198
0.99744213456717
0.99702323897589
0.99649212336443
0.99581425856154
0.99494139735714
0.99380397502785
0.992297538294
0.99025658884028
0.98739651270982
0.98317268997177
0.97636108601499
0.96347751792276
0.99910167901781
0.99909327954664
0.99908296298406
0.99907277415708
0.99906264765006
0.99905246307601
0.99904214868706
0.99903167571339
0.99902081647496
0.99900906491059
0.99899567604752
0.99897966994205
0.99895983125426
0.99893469624173
0.99890252121821
0.99886123360473
0.99880836200387
0.99874092737763
0.99865523796476
0.9985468068129
0.9984099118076
0.99823732796867
0.99801980208458
0.99774534578029
0.99739830013081
0.99695790438081
0.99639626358428
0.99567520511657
0.99474126837815
0.99351726582823
0.99188707818164
0.9896674458337
0.98653995298292
0.98188347127362
0.9742109228736
0.95829998523148
0.99910984802376
0.99909455324624
0.99908314972635
0.99907270270099
0.99906251834263
0.99905231165264
0.99904198160084
0.9990314325864
0.99902030483204
0.99900788350568
0.99899313541001
0.99897470103727
0.99895088261062
0.99891961100949
0.9988783897164
0.99882421085094
0.99875343608393
0.99866166751226
0.99854363118971
0.99839202011091
0.99819779583337
0.99794933689848
0.99763156560543
0.9972247799947
0.99670303486191
0.99603181909281
0.99516467694735
0.99403806774898
0.99256319766222
0.99061227492752
0.98799328608207
0.98440746086568
0.97933224357161
0.97174874830292
0.95915024697339
0.93101387742337
0.9537197329767
0.92702626791075
0.88604225937939
0.83037796182737
0.76259500130423
0.68534856688639
0.60196857144428
0.51608649495603
0.43174639219355
0.35283046397642
0.28085459633623
0.2215390115036
0.17260928866863
0.13364369344277
0.1036683915968
0.080723089771466
0.063349648741183
0.050171832068288
0.040123129771743
0.032454178746079
0.026558288239311
0.021957507525363
0.018335508735423
0.015467201644682
0.013165446504273
0.011281495378575
0.009754008339468
0.0085161360848535
0.007433811795449
0.0065810626559275
0.0058208240904147
0.0051969069131197
0.0046524237321186
0.0041845911010868
0.0037832321819959
0.0034279899212757
0.0031231421465924
0.0028506207803529
0.002612668941441
0.002401824484031
0.0022116101306284
0.0020465074088754
0.0018919504620225
0.0017606219113277
0.0016342746593462
0.0015276557404642
0.0014245045510853
0.0013359095392219
0.0012521310682514
0.0011767524906755
0.0011074222182934
0.001043384851227
0.00098477417712675
0.00093069108384847
0.00088078218650584
0.00083458075187831
0.000791764068196
0.00075200692463994
0.00071504660131297
0.00068062412552022
0.00064851044487351
0.00061850228970989
0.00059043055635451
0.00056414429209129
0.0005395110512677
0.00051637033473557
0.00057301711237126
0.0026660638767032
0.0033528693391775
0.0033180151036114
0.003250186307848
0.003187088830921
0.0031293412036047
0.0030764798313099
0.0030280980990584
0.0029838140886535
0.0029432657250566
0.0029061371268999
0.0028721278516741
0.0028409321356835
0.0028122289301304
0.0027856869634106
0.002760988610465
0.0027378714738516
0.0027135124429642
0.0026932344689183
0.0026740888882266
0.0026561535819834
0.0026396249346352
0.0026246678193335
0.0026112870953717
0.0025993710678593
0.0025886708342395
0.0025787967960217
0.0025692602950095
0.0025596393767277
0.0025493499548151
0.0025377993195495
0.0025244778381738
0.0025090721108343
0.0024915523442513
0.0024722300841845
0.0024517197301825
0.0024308516489208
0.0024050963374813
0.0023861241222232
0.0023696706282158
0.0023563760629891
0.0023469262809239
0.0023408471895095
0.0023366338208902
0.0023327756021528
0.0023284750415618
0.0023234405461442
0.0023175475102291
0.00231108208159
0.0023039954898015
0.0022963265657216
0.0022883019008135
0.0022797666127145
0.002270640101754
0.002260751579752
0.0022501587887295
0.002238774042353
0.0022266831533751
0.0022139915277022
0.0022009307636896
0.0021877160842603
0.0021746974123006
0.0021623048790637
0.0021508259928149
0.0021404427110406
0.0021313670242357
0.0021237107538379
0.0021174676272701
0.0021122969003824
0.0021076992374574
0.0021012946285287
0.0020894069395095
0.0020627799111563
0.9459856158013
0.91181463539047
0.86109040321534
0.79612933474512
0.72095608008018
0.63835198457898
0.55283737092474
0.46837564815408
0.38857426043559
0.31609426208283
0.25258557166069
0.19878460804686
0.15587702105122
0.12173682871629
0.09502754538282
0.074516739626527
0.058817977482575
0.046828790174865
0.037661162293722
0.030605904522875
0.025135464715208
0.020859628806594
0.017481732062903
0.014785579674149
0.012614951277609
0.010850497979857
0.0094005527210861
0.008202780299257
0.0072034864063207
0.0063617829994764
0.0056513104536536
0.0050440420950673
0.0045249355404904
0.0040751046156362
0.003686399626255
0.003346164895952
0.0030491698493947
0.0027868347098898
0.0025559260951502
0.0023502147301392
0.0021678222571439
0.0020041339729765
0.0018579752720959
0.0017260009344113
0.0016073160939511
0.0014996483151996
0.0014020549851134
0.00131324777399
0.0012321933000735
0.0011581744805837
0.0010902401501578
0.001027852310444
0.00097034712388043
0.0009173670940467
0.00086841272625243
0.00082310712272407
0.00078110108853728
0.00074209239486545
0.00070580362897337
0.00067199015286642
0.00064043378032763
0.00061094318052149
0.00058334765811748
0.00055749376034047
0.00053323887517893
0.00051016339344172
0.00079343905225481
0.0030593908731939
0.0033576000794472
0.0032997268991042
0.0032325834361479
0.0031709162683539
0.0031144896511793
0.0030628262490211
0.0030155506794385
0.0029722748723011
0.0029326542789675
0.0028963779121105
0.0028631422761625
0.0028326345777851
0.0028045275385458
0.0027784896442865
0.0027542125380733
0.0027314495762318
0.0027126434801487
0.0026922857878838
0.0026731502756447
0.0026552429774225
0.0026387500876413
0.0026238328073636
0.0026104915444721
0.0025986092091803
0.0025879326658211
0.0025780693764129
0.0025685298720993
0.0025588916714605
0.0025485714322166
0.0025369803437475
0.0025236132178425
0.0025081585447622
0.0024905944336887
0.0024712412775372
0.002450723601185
0.0024298800642698
0.0024042338985693
0.0023853955894679
0.0023690953826033
0.002355968550943
0.002346674933374
0.0023406908117425
0.0023365258450051
0.0023326295830134
0.0023282337306133
0.0023230646984314
0.0023169947825538
0.0023102936171163
0.0023029444485685
0.0022949711001253
0.0022865966878761
0.0022776482986437
0.0022680875452374
0.0022577219430065
0.0022466313530535
0.0022347027863798
0.0022220675134685
0.0022088321754654
0.0021952495809929
0.0021815681936416
0.0021681488556728
0.0021554373461361
0.0021437177160856
0.002133200461136
0.002124095332664
0.0021165058261574
0.0021104207510453
0.0021054433201793
0.00210108485713
0.0020949373628475
0.002083317860628
0.0020569712421046
0.94177323204337
0.89869655570922
0.83690637555365
0.75972595605594
0.67566744096922
0.58947171377107
0.50440094114875
0.42424005300347
0.35121765361078
0.28579704911257
0.23083877400506
0.1841520033115
0.145816524152
0.11504024490203
0.090681436226416
0.071654322502454
0.056929212253141
0.045590864831102
0.036839050825032
0.030040823288255
0.024738564523263
0.020578983432546
0.017278789584867
0.014636189269515
0.012503680177567
0.010765695997044
0.0093367128665295
0.0081523817817948
0.0071644295133752
0.0063312908812593
0.0056258290552437
0.00502437977493
0.0045076218283488
0.004062003850378
0.0036745955042878
0.0033371964357121
0.0030409509650791
0.0027806250148319
0.0025500815932571
0.0023458045978932
0.0021636406187737
0.0020008904849185
0.0018549007001907
0.0017234968976171
0.0016050332248598
0.0014976218330822
0.0014003455847971
0.0013116248278582
0.0012308790097805
0.0011568758778477
0.0010891507425544
0.001026858705721
0.000969504674689
0.00091658361502104
0.00086768210771893
0.00082243975182101
0.00078049281285857
0.00074153789991068
0.00070529348493562
0.00067151933120722
0.00063999980479982
0.00061054460971151
0.00058298178027785
0.0005571566761442
0.00053292566984738
0.00050989236194474
0.00081016558837064
0.0030721536612969
0.0033574926111366
0.0032988310971122
0.0032317848145755
0.0031702312513633
0.0031139061012175
0.0030623278684362
0.0030151126022778
0.0029718870350796
0.0029323077253014
0.0028960657378455
0.0028628584021847
0.0028323733777026
0.0028042839842938
0.0027782595742178
0.0027539919558753
0.0027312282308541
0.0027124386649553
0.0026920859262568
0.0026729558439858
0.0026550637958656
0.0026385811015046
0.0026236692492581
0.0026103337848107
0.0025984568266808
0.002587784935028
0.0025779176302308
0.0025683839514887
0.0025587471816715
0.0025484318904178
0.0025368502858506
0.0025234995142958
0.0025080662530321
0.0024905263836022
0.00247119707886
0.002450698106956
0.0024298591144738
0.0024042337176852
0.0023853919134762
0.0023690697735121
0.0023558662207732
0.0023464933029578
0.0023404370866607
0.0023361791041228
0.0023321652487929
0.0023275509636284
0.0023221217747045
0.0023156900386544
0.0023084683695114
0.0023005502788693
0.0022919183004494
0.0022827681960175
0.0022729204715153
0.0022623931094668
0.0022509871305184
0.0022387826944596
0.0022256902288096
0.0022118714766557
0.0021974648735351
0.0021827675362494
0.0021680840273386
0.0021538350254675
0.0021404496963338
0.0021282432452631
0.0021174553603175
0.0021082823626395
0.0021008112358307
0.0020949831749277
0.0020904317477881
0.0020865460992464
0.0020809600467102
0.0020699240589568
0.0020441743260138
0.93235750623303
0.86896091987482
0.78452142463958
0.69010461117485
0.59629794595462
0.5099422354778
0.43156688976736
0.36228608715922
0.3013145378228
0.24794497666465
0.20381074707871
0.16548504940133
0.13315926824156
0.1065848080575
0.085038176746135
0.067938467252118
0.054479506363009
0.043940035783088
0.035709283291308
0.029274726259755
0.024210345881897
0.020193332600945
0.016998877739464
0.014432561685552
0.012349645129794
0.010647676247129
0.0092469741273134
0.0080827402906035
0.007107956927535
0.0062875267400006
0.0055902555438521
0.0049952371453082
0.0044837137938094
0.0040422512963582
0.0036583302986274
0.0033235351673674
0.0030296457930785
0.0027709866563705
0.0025420133995849
0.0023389757996584
0.0021577416215898
0.00199591525736
0.001850509720183
0.0017198215077229
0.0016016632759627
0.0014948115425555
0.0013977519987356
0.0013094231570635
0.0012288414464485
0.0011550849978092
0.0010875330566763
0.0010254089387813
0.00096823800137357
0.00091543621061547
0.00086664866891351
0.00082149143299933
0.00077962534560242
0.0007407424388527
0.00070456575544391
0.00067085376274308
0.00063938866072327
0.00060998114516537
0.00058246198441336
0.0005566778664227
0.00053248228220564
0.0005095209828999
0.00083656463230909
0.0030877337095775
0.0033569676543258
0.0032975082964983
0.0032306260242998
0.003169250116368
0.0031130682772865
0.0030616064672169
0.0030144784156076
0.0029713245746913
0.0029318048309549
0.0028956126721666
0.0028624464693287
0.002831994514275
0.0028039310068754
0.0027779266690657
0.002753674454779
0.0027309203928775
0.002712165495179
0.0026918233827845
0.0026727090765982
0.0026548374582331
0.002638373327689
0.0026234762393192
0.0026101539035979
0.0025982877243727
0.0025876240192375
0.002577761642087
0.0025682350093559
0.0025586063088372
0.0025483034923114
0.0025367414316065
0.0025234188801486
0.0025080206538938
0.0024905193101575
0.0024712271534054
0.0024507585258041
0.0024299300427648
0.0024043285498946
0.002385470890115
0.0023691109541943
0.0023558287140132
0.0023463407728297
0.0023401419471681
0.0023357182760746
0.0023314770892101
0.0023265448992771
0.0023206496660894
0.002313652966663
0.0023056477882612
0.0022968277813017
0.0022871466769501
0.0022767661489796
0.0022655093446116
0.0022534671433267
0.0022404277636785
0.0022264691706081
0.0022115568093264
0.0021959022014173
0.0021797090670997
0.0021633505650243
0.0021471980640935
0.0021317260226495
0.0021174163388344
0.0021045868747325
0.0020934868625999
0.0020842949771879
0.0020770692993003
0.0020717076941794
0.0020677894444826
0.0020646519188055
0.0020599121328923
0.0020497564420396
0.0020249063908679
0.90082081700068
0.78444243827768
0.66063304906188
0.5554068893347
0.46985494000346
0.39984525566927
0.34162289295443
0.29143740191873
0.24776434251064
0.20946287048788
0.17519519762062
0.14502800331626
0.11896284120442
0.096893018020643
0.078568329793834
0.063583488347628
0.051540273060301
0.041955190859021
0.03435009951866
0.028321057134544
0.023536089541487
0.019722449884039
0.016649279817955
0.014170438675851
0.012155151496708
0.01050124980986
0.0091316537101104
0.0079928157090883
0.007037606119289
0.0062307964312584
0.0055447128324772
0.0049579338471776
0.0044533616880532
0.0040167519001222
0.0036375161200234
0.0033059204955117
0.0030150111710484
0.0027585024874796
0.0025316443456691
0.0023299449775461
0.0021501766665752
0.0019893090305158
0.001844882865634
0.0017148441883123
0.0015973530412915
0.0014910268481147
0.0013943848631402
0.0013064684940329
0.0012261589625759
0.0011527411941151
0.001085392390851
0.001023499145544
0.00096650646793194
0.00091390039126792
0.0008652755154113
0.00082023688961674
0.00077847773277596
0.00073968986746994
0.00070360491300742
0.00066997450464887
0.00063858037689307
0.00060923510304112
0.00058177366127374
0.00055604423574816
0.00053189352295477
0.00050902359532081
0.00087550705647014
0.003106707194292
0.003356008754988
0.003295772040625
0.0032291311906908
0.0031679832905712
0.0031119836953766
0.0030606691380755
0.0030136534341696
0.0029705923053466
0.002931150513352
0.0028950235028815
0.0028619108837982
0.0028315019151372
0.0028034721400984
0.0027774942989683
0.0027532635029223
0.0027305278755947
0.0027118133193899
0.0026914882543703
0.0026723961744792
0.0026545486731361
0.0026381091982095
0.0026232329011203
0.0026099281001836
0.0025980759879134
0.0025874230602323
0.0025775685858668
0.0025680507705044
0.0025584336681863
0.0025481485242324
0.0025366134172489
0.0025233290230129
0.0025079782075578
0.0024905289539295
0.0024712871479438
0.0024508601608841
0.0024300484577522
0.0024044789453477
0.0023856032357403
0.0023692086790731
0.0023558278878699
0.0023461858108978
0.0023397919861032
0.0023351379762822
0.0023305908742094
0.0023252039611189
0.0023186818141046
0.0023108489086023
0.0023017649846243
0.0022916469148027
0.0022804654912847
0.0022683468060348
0.0022551548818614
0.002240999020961
0.0022256861772111
0.0022092979903062
0.0021918903407411
0.0021737711795325
0.0021552283523673
0.0021367372612401
0.0021187441152807
0.0021017956472946
0.0020864043939228
0.0020728982935095
0.0020615217231282
0.002052425037868
0.0020456241337235
0.0020409515932495
0.0020379354728397
0.002035822706413
0.0020322020541101
0.0020232052202914
0.0019995672634903
0.6767152465149
0.4891916283794
0.41010351808331
0.36188202955044
0.32140154740758
0.28710101787574
0.25509234685576
0.22593091646132
0.19793832240689
0.17180249658323
0.14720850423671
0.12475103493939
0.1045525727019
0.086792732101611
0.071582182563683
0.058814626443505
0.048281928646528
0.039706782130906
0.032787566438992
0.027224708487946
0.022752262151074
0.019148447449088
0.016239078690641
0.013864881264644
0.011921456873686
0.010321456986102
0.0089955212815198
0.0078849619427258
0.006951571861065
0.0061619930597417
0.005489730694495
0.0049127555552491
0.0044162911357602
0.0039863375687536
0.0036120180596518
0.0032846042225969
0.0029971911709911
0.0027435133772528
0.0025188244691416
0.0023190434255935
0.0021408909224102
0.0019812558211342
0.0018379300478885
0.0017087547938549
0.0015920893601633
0.0014863302280025
0.0013902605336372
0.0013027843661045
0.0012228998070449
0.0011498176222326
0.0010827425139924
0.0010211256507486
0.00096435631167755
0.00091198175821194
0.00086354096502284
0.00081866914799976
0.00077705228402765
0.00073838917340943
0.00070241292473608
0.00066887702853053
0.00063757196745362
0.00060830880667903
0.00058091799631233
0.00055524662789755
0.00053115567252858
0.00050847220531372
0.00092944366703293
0.003128040496289
0.0033546296175709
0.0032936380102475
0.0032273201845395
0.0031664435848744
0.0031106585654816
0.0030595183949026
0.0030126406512323
0.0029696931497397
0.0029303463526941
0.0028942990037427
0.0028612522770018
0.0028308965202713
0.0028029087930927
0.0027769642150559
0.0027527608217756
0.0027300504632787
0.0027113787022488
0.0026910772828268
0.0026720134478114
0.002654196713684
0.0026377910849424
0.0026229437018371
0.0026096620077897
0.0025978271613308
0.0025871865473389
0.0025773407488276
0.0025678319721413
0.0025582278265752
0.0025479640893361
0.0025364630834098
0.0025232266217929
0.0025079353437402
0.00249055163413
0.0024713734215416
0.0024509976306255
0.0024301953308332
0.0024046920465739
0.0023857904951256
0.0023693470064404
0.0023558499587536
0.0023460178602898
0.0023393748668861
0.0023344231001725
0.0023294752154163
0.0023235025382879
0.0023161496325867
0.0023072102101952
0.00229669261045
0.0022848369804966
0.0022716361953314
0.0022572011346961
0.0022414609317535
0.0022245350256679
0.0022062157724563
0.0021866969396343
0.0021661441410634
0.0021449620228272
0.0021235849238529
0.0021025893812019
0.0020825135807151
0.00206397000863
0.0020474779814368
0.0020333656412236
0.0020218561973813
0.0020130576105862
0.0020069250670169
0.0020032126743639
0.0020013695353739
0.0020005521521521
0.0019983029618007
0.0019907216199732
0.0019685886215595
0.022799577575198
0.15558443913704
0.19113232741577
0.20451188969636
0.20669912105186
0.20054535144129
0.18883001777053
0.17448011449771
0.15876539302597
0.14237838972684
0.12590426866863
0.10974388635471
0.094382080786451
0.080189993384034
0.067467548693951
0.056384560528248
0.046936899397624
0.039035880385388
0.032515896299652
0.027180429324288
0.022831366878579
0.019289794948722
0.016398775828033
0.014036807533834
0.012088776138703
0.010474220503909
0.0091336588460207
0.0080119211415404
0.0070660616335586
0.0062629108756919
0.0055795883287637
0.0049940265266575
0.0044886441545635
0.0040506355730423
0.0036697009177064
0.0033366752075401
0.0030438024131239
0.0027855808612453
0.0025569111421111
0.0023535900806912
0.0021721213930076
0.0020097052514712
0.0018638724554142
0.0017324261507779
0.0016136744480216
0.0015060934762956
0.0014084165146243
0.0013194430710188
0.0012382122238458
0.0011639106294323
0.0010957748062233
0.0010331820391246
0.00097551336851264
0.00092232224722055
0.00087316508407844
0.00082765587012454
0.00078543724791778
0.00074620682608108
0.0007097134874192
0.00067571249386267
0.00064398408469836
0.00061432879878444
0.00058657899173225
0.00056058527795778
0.00053619524005255
0.00051301680669051
0.00064238830628233
0.0028695711523037
0.0033536131619826
0.0033079981845461
0.0032411999681897
0.0031792948412322
0.0031225363770965
0.003070485398995
0.0030227419918843
0.0029789837378821
0.0029388826556777
0.0029021368750919
0.0028684505472989
0.0028375187535862
0.002809023025719
0.0027826396255958
0.0027580614795192
0.0027350280027292
0.0027108619610889
0.002690592174684
0.0026715652137231
0.0026537839700691
0.002637416146391
0.0026226024182416
0.0026093479124118
0.0025975336599772
0.0025869083654525
0.0025770743146091
0.0025675776670031
0.0025579907350653
0.0025477530800057
0.0025362914554114
0.0025231104171315
0.0025078894606453
0.0024905845475381
0.002471484208314
0.0024511911267166
0.0024305019412134
0.0024051217529701
0.0023861990791152
0.0023696906429963
0.002355997189943
0.0023458178579515
0.0023387062749392
0.0023331846352187
0.0023274645297217
0.0023203520587305
0.0023113754008042
0.0023002310989194
0.0022868784142127
0.002271560696138
0.0022543370312117
0.0022353522530618
0.0022146623609339
0.0021923259436995
0.0021683393397187
0.0021429839265276
0.0021166916502172
0.0020901038580924
0.0020639021998336
0.00203882406734
0.0020155260059929
0.0019946851632673
0.0019767758132352
0.0019620914659776
0.0019507888618781
0.0019428834605573
0.001938212061609
0.0019363861229256
0.0019367259528764
0.0019382631406766
0.0019384009946411
0.0019333259573308
0.0019139059595793
0.010076480360691
0.027123330818102
0.048422656554926
0.066201902966368
0.079706292365422
0.088650028503938
0.0933359046717
0.094493071540361
0.091878584610451
0.087344461183367
0.08136313825181
0.074285533329589
0.066646428966797
0.058843194490181
0.051259114148148
0.044195991492034
0.037830575682875
0.032239237421296
0.027431726520325
0.023357674698618
0.019935327706636
0.017075581497713
0.014689736960709
0.012697347573396
0.011032090363527
0.0096373482076897
0.0084609756697342
0.0074626015280784
0.0066155473878841
0.005892201351609
0.0052715834419665
0.0047346286524831
0.0042697097012198
0.0038650011244913
0.0035112130104266
0.003199950578859
0.0029257279546053
0.0026830510409986
0.0024674944441028
0.0022750777066495
0.0021029841349568
0.0019485838639595
0.0018095937437968
0.0016840474296405
0.0015703642904097
0.0014672396553998
0.001373399159466
0.0012877963033578
0.0012095011448686
0.0011378003294358
0.0010719803645055
0.0010114217191611
0.00095559025232191
0.0009040289058987
0.00085634730506686
0.00081216579691528
0.000771152988159
0.00073300997970911
0.00069748616811115
0.00066435915626164
0.00063342109451929
0.00060448901290492
0.00057739992249267
0.000552010629101
0.00052818847381563
0.00050689321439403
0.0011768117738109
0.0032001551404055
0.003347521369094
0.0032851627228997
0.003220143372242
0.0031602675851074
0.0031052901847132
0.0030548194527876
0.0030084943033142
0.0029660060798684
0.0029270476573439
0.0028913273355446
0.0028585520181479
0.0028284166100189
0.0028006044036073
0.0027748001333384
0.0027507137620259
0.0027281106961047
0.0027095909991066
0.0026893984188616
0.0026704579756859
0.0026527612701701
0.0026364856615439
0.0026217557977734
0.0026085696330286
0.0025968069300251
0.0025862197676546
0.0025764150116653
0.002566948841053
0.0025574050848774
0.0025472341858709
0.0025358747481549
0.0025228356065898
0.0025077899252373
0.002490677368065
0.0024717649360234
0.0024516292713778
0.0024310165732221
0.0024057761695059
0.0023868590530639
0.0023702174509465
0.002356252766375
0.0023455111074014
0.0023376191388799
0.0023310944615506
0.0023239633530256
0.0023146826445829
0.0023024954221357
0.0022868704871938
0.0022676643933706
0.0022451254896384
0.0022195284080452
0.0021913042708847
0.0021607501383008
0.0021281376270539
0.0020938668971229
0.0020585194779949
0.0020230513501144
0.0019885409470946
0.0019559408142733
0.0019260921276031
0.0018996567716425
0.0018771737731009
0.0018589152685032
0.0018450062226041
0.0018354360449345
0.001830044094131
0.0018284700958054
0.0018301801350101
0.0018343498446633
0.0018396897256101
0.0018436805303929
0.0018426006789259
0.0018276098715989
0.0079824724777483
0.011879440817443
0.019229291030068
0.02812383011129
0.036505346121032
0.043632170282826
0.049188329356573
0.052989775971584
0.055007184318373
0.055219059233279
0.054026233708267
0.05167471051719
0.048294771628214
0.044301281056036
0.039958186440565
0.035549604255913
0.031294147699686
0.027338167768684
0.023766665593045
0.020613087132747
0.017872577440842
0.015515931224738
0.013502162305942
0.011786863410865
0.010326666000187
0.0090838493869649
0.008023772562822
0.0071171903171038
0.0063396954847766
0.0056687318017803
0.0050881937101203
0.0045848205082103
0.0041461422931079
0.0037627080135803
0.0034251195623923
0.0031276352356364
0.0028645558138222
0.0026311259125164
0.0024229405079782
0.0022367504650163
0.0020699703674931
0.0019199952222253
0.0017847152411235
0.0016622261123074
0.0015512715566084
0.0014504070761568
0.0013585254016165
0.0012745556802282
0.0011977018035147
0.0011272483298859
0.0010625071228128
0.0010028949276587
0.00094788099558775
0.00089706537243079
0.00085003179612692
0.0008064260472426
0.00076592080221394
0.00072823328961158
0.00069313137712691
0.00066037674499926
0.0006297704258283
0.00060113346182911
0.00057430805954881
0.00054915820700398
0.00052553508982501
0.00050573079431158
0.0014366304105992
0.003250444756822
0.0033406572525589
0.0032781254580592
0.0032139655101311
0.0031548828481878
0.0031005740975072
0.0030506691115088
0.003004824498113
0.0029627425833786
0.002924130016343
0.002888702149023
0.0028561702516134
0.0028262330275698
0.0027985791387363
0.0027729015475424
0.0027489203246719
0.0027264113564418
0.0027080097685814
0.0026879123995776
0.0026690777874595
0.0026514861827149
0.0026353246792913
0.0026206985273884
0.0026075981392369
0.0025959000888072
0.0025853601744596
0.0025755913441032
0.0025661629506359
0.0025566731414422
0.0025465862957155
0.0025353554909571
0.0025224944945801
0.0025076700804545
0.0024908018734074
0.00247212620836
0.0024521932872215
0.0024317065054341
0.0024066059406416
0.0023877205741889
0.0023708949527493
0.0023566420249287
0.0023452412053463
0.0023363887916858
0.0023285502970115
0.0023195221857153
0.0023071917705989
0.0022902866526977
0.0022678601929521
0.0022396656951666
0.0022060442324052
0.0021678597437214
0.0021262660153807
0.0020822802625162
0.0020367332241051
0.0019906096027728
0.0019450191888885
0.0019013674011715
0.0018608857570216
0.001824501624231
0.0017928054738059
0.0017661493713688
0.0017446979653893
0.0017284004025912
0.0017171350059543
0.0017107129793986
0.0017088227524277
0.0017109788674529
0.001716526659268
0.0017245220700963
0.0017336801546986
0.0017413176864899
0.0017439368822353
0.0017335515544667
0.006352512393358
0.0083934702817623
0.010638432785062
0.015051191582124
0.019971506412221
0.024667635730311
0.028856702623046
0.032262663820112
0.034833628078589
0.036333423346447
0.036794922666659
0.036341417145124
0.035229945923712
0.033340405443329
0.030992210818351
0.028345175072462
0.02560818773037
0.022903414448213
0.020333960203279
0.01796612198647
0.015831502533962
0.013938114507189
0.012277085492769
0.010830437804658
0.0095756519297063
0.0084894053032713
0.0075500604974553
0.0067367994316753
0.0060312103657003
0.005417803919137
0.0048833361035777
0.0044161319647112
0.0040059448836927
0.0036448903793806
0.0033264397218711
0.003044569938729
0.0027942319549374
0.0025706519227212
0.0023709323902928
0.0021920715432776
0.0020313167300861
0.0018864258564499
0.0017552517338628
0.0016365183150012
0.0015286693076875
0.001430513726005
0.0013408573466969
0.0012588275211092
0.0011837162843968
0.0011147376871702
0.0010512949602643
0.00099277938924763
0.00093875711822188
0.00088881535323028
0.00084255349675436
0.00079962676811855
0.00075971205671211
0.00072256661283733
0.00068794776087859
0.00065563719854445
0.00062543559608145
0.00059716321858886
0.00057067271009723
0.0005458187724669
0.00052247553712253
0.00050607124449084
0.0017543556048464
0.0032918335688274
0.0033332959280478
0.0032699081875772
0.0032067072825107
0.0031485085332559
0.003094966034576
0.0030457221993619
0.0030004478228597
0.0029588540734498
0.0029206593306038
0.0028855855521779
0.0028533481332026
0.0028236500012814
0.0027961865074687
0.0027706605424398
0.002746804381112
0.002724406103163
0.0027061348590134
0.0026861510597712
0.002667436676958
0.0026499735527139
0.0026339458888665
0.0026194407516874
0.002606441585495
0.00259481968952
0.0025843349260092
0.0025746075628965
0.0025652235841621
0.0025557975312016
0.002545811121086