/*--------------------------------*- C++ -*----------------------------------*\
| =========                 |                                                 |
| \\      /  F ield         | OpenFOAM: The Open Source CFD Toolbox           |
|  \\    /   O peration     | Version:  2312                                  |
|   \\  /    A nd           | Website:  www.openfoam.com                      |
|    \\/     M anipulation  |                                                 |
\*---------------------------------------------------------------------------*/
FoamFile
{
    version     2.0;
    format      ascii;
    arch        "LSB;label=32;scalar=64";
    class       volScalarField;
    location    "0.0002";
    object      yPlus;
}
// * * * * * * * * * * * * * * * * * * * * * * * * * * * * * * * * * * * * * //

dimensions      [0 0 0 0 0 0 0];

internalField   uniform 0;

boundaryField
{
    inlet
    {
        type            calculated;
        value           uniform 0;
    }
    outlet
    {
        type            calculated;
        value           uniform 0;
    }
    nozzleWalls
    {
        type            calculated;
        value           nonuniform List<scalar> 
144
(
35.08567337664
34.671858131004
34.241464079957
33.816936401848
33.404653886633
33.006741039835
32.623948571058
32.25620607511
31.903520717283
31.565876947298
31.243367849592
30.93618811362
30.6446292693
30.369086301757
30.11006007942
29.868130369463
29.643908363051
29.437401866509
29.245667945776
29.066549478672
28.899769085419
28.745341268655
28.603342971677
28.473887108772
28.357229184239
28.253817008856
28.164398713768
28.090183646829
28.033111412235
27.996362898125
27.985670731075
28.009988678568
28.088755363111
28.269590912464
28.720620661076
30.876781026851
35.324612055431
34.987021488818
34.564442916289
34.134401101833
33.712601458097
33.303780862759
32.909611807544
32.530609239826
32.16662443932
31.817697902889
31.483824778887
31.165126001318
30.861820177485
30.574223814813
30.302759869558
30.047950728042
29.810392295184
29.590670464235
29.388214882928
29.199728229634
29.023698498071
28.860001887464
28.708672494272
28.569796156273
28.443509364174
28.330110808976
28.230112778049
28.144358880064
28.074210745306
28.021855488877
27.990926588474
27.987956846518
28.023445068608
28.121293721891
28.343877588739
28.943173703132
35.177390851661
34.778569437303
34.348954678775
33.922052684523
33.50642990589
33.104808839633
32.718216648659
32.346732632691
31.990282871284
31.648874483373
31.322567167849
31.011531557184
30.716034526824
30.436444284739
30.173237675094
29.926975971971
29.698274562212
29.487484881084
29.292387520033
29.110170943907
28.940308008188
28.782786749217
28.637671778646
28.505063710278
28.385173701258
28.278393323218
28.185385114095
28.107221896135
28.045626509543
28.003398913258
27.985460311613
27.999827944888
28.062184631054
28.209721618876
28.559075097074
29.829280014078
35.259791374551
34.883982427045
34.456721762105
34.027898186255
33.609088370637
33.203828057611
32.813431002949
32.438202201031
32.077984023
31.73281541534
31.402720629587
31.087845914204
30.788433919896
30.504826771983
30.23747400856
29.986919404675
29.753771127254
29.538540015208
29.339895758185
29.154563433235
28.981617929767
28.821007423248
28.672782100751
28.537034881607
28.413936219537
28.303828655371
28.207296496453
28.125290904132
28.059343596603
28.011926378288
27.987192561144
27.992589160471
28.040654925289
28.161049014661
28.437676027327
29.278937238438
)
;
    }
    tipWalls
    {
        type            calculated;
        value           nonuniform List<scalar> 
304
(
9.215677751216
3.0184062288004
4.5538324867099
4.8725302549202
4.7604426893482
4.4750556351435
4.0561468529544
3.3770731447056
2.349276796574
1.2860141351348
0.35523088874438
0.57457213507161
0.57532085357052
0.51496626108505
0.45085336884297
0.3975328581805
0.35623673210208
0.32427325871032
0.29844987501312
0.27653403258378
0.25738694524527
0.24039895806986
0.22524067777153
0.21169375660384
0.19959716482796
0.18882815485967
0.17921992852037
0.17061094520687
0.16285626387373
0.15583362812422
0.14944810536862
0.14362925629531
0.13832314250121
0.133481293258
0.12905036285084
0.12496674562446
0.12116048953861
0.1175643003726
0.11412006972256
0.11078760571173
0.10755043319296
0.10442027005253
0.10143772581875
0.0986626611755
0.09615299984134
0.09393906178335
0.092005935668142
0.09029020512292
0.088709004845158
0.087185598462062
0.085660673831748
0.084111126862857
0.082548228559787
0.081001932631929
0.079497441791945
0.078048273699895
0.076660073311499
0.075338805849353
0.074096260110616
0.072942990819618
0.071873071209996
0.070861690800107
0.069876181167
0.068975527154989
0.069242476586551
0.13176086728243
0.12978794808423
0.12716373723807
0.12473481887476
0.12262442545151
0.12072199623613
0.11903463005014
0.11759657495437
0.11645183906141
0.11576907017992
0.11623623430609
0.11950800692763
0.22083940400157
0.22065099664321
0.2189199718884
0.21713421042655
0.21558212930306
0.214317609276
0.21330756596585
0.21250600434524
0.21181875887098
0.21166352692599
0.21191552951136
0.21276183280287
0.2143535862263
0.21679749790575
0.2201787514084
0.22458390294331
0.23002855448167
0.23545127754836
0.23879694823919
0.23175379918235
1.5837570641935
4.0314300400272
4.7985173910751
4.846412486567
4.6316124874559
4.2867715056451
3.7595265914787
2.9060544708978
1.7830797122822
0.83145938018559
0.46351631840377
0.5911776122097
0.54960399481293
0.48160237919799
0.4227099498639
0.37549609193733
0.3392584373184
0.31081477728006
0.28710469305893
0.26665596801295
0.24864211691463
0.23260444121216
0.21828157714518
0.20546914083116
0.19405701176984
0.18388940730358
0.17480002769132
0.16663507643867
0.15926000872462
0.15256613138948
0.14647147528647
0.1409151399593
0.1358472956563
0.13121820984865
0.12696944883635
0.12303331790047
0.1193401031234
0.11582619430255
0.1124415036194
0.10915708296428
0.10597006157586
0.1029070559079
0.1000202843073
0.097371839769512
0.09500882354113
0.092940246476603
0.091126529770044
0.089487578314455
0.08794452087678
0.086425705554004
0.084888923267969
0.083329795992179
0.081771066647761
0.080243379890948
0.078765480358522
0.077346297180615
0.075990464820998
0.074706820797254
0.0735083724175
0.072398486234202
0.071362357883991
0.070367404128045
0.069398267822617
0.068725430519389
0.068889173819859
0.13112607667118
0.12847774611311
0.12591499573747
0.12364070149486
0.12164956929706
0.11984939441728
0.11828407681297
0.11698262557257
0.11603977775428
0.1158156842684
0.11726634617302
0.11967065619642
22.549101073166
2.1408052995728
4.3319380054558
4.8513708100859
4.8096791487267
4.5564260678022
4.1783157129494
3.5813315459638
2.6349146289153
1.5219700819508
0.59537964511694
0.5358358965202
0.58602140556554
0.5328435157337
0.46534429920262
0.40994077983976
0.36559158361215
0.33153865431235
0.30449556704293
0.28173382188515
0.26195387135016
0.24446282164841
0.22887019422218
0.21494182204653
0.20249003134798
0.19140490333298
0.18152225608372
0.17267776738864
0.16472199050847
0.1575263106273
0.15098896865571
0.14503396978913
0.13960424540815
0.13465097854252
0.13012289073918
0.12595888011082
0.12208984288605
0.11844708641985
0.11496944332538
0.11161159161126
0.10835066933427
0.10519100515877
0.10216641307259
0.099333526357963
0.096753189766166
0.094464782490937
0.092465545238736
0.090703664387349
0.089095932627006
0.087564824580104
0.086043984976118
0.084500653089476
0.082938808353091
0.081385327425085
0.079868733025325
0.078404999983179
0.077001172798951
0.075662290518009
0.07439876655148
0.073222964266465
0.072133588140254
0.071110837005085
0.070121244303452
0.069175449282988
0.06879979430181
3.2905873165365
3.6245172027063
4.70239900355
4.8683479752433
4.6999980725426
4.3851993172698
3.9176017020791
3.1539378655295
2.0589537338506
1.0618563444814
0.35746073855979
0.58852448363311
0.56272005899719
0.49880549164577
0.43632280714362
0.38602933101137
0.34747993493123
0.31739361079303
0.29266172834409
0.27151219735893
0.25294912607733
0.23644622136427
0.22171283330282
0.20853660391466
0.19678703508272
0.18632388205448
0.17697997279019
0.16859739771407
0.16103614915907
0.1541806412989
0.14794257334824
0.14225656358401
0.13707108311317
0.13233734640001
0.12799957467344
0.12399192443273
0.12024424826575
0.11669092077
0.11327755917595
0.10996943516904
0.10675673601164
0.10365865851742
0.10072201167462
0.098008524871835
0.095571521412262
0.093431122182672
0.091560104839513
0.089885231413251
0.088325576117262
0.086806092214417
0.085275648353357
0.083720707959685
0.082158817748397
0.08062119145367
0.079129654281181
0.077695354095792
0.076323119833809
0.075020238655466
0.073799442065776
0.072668214287598
0.071616282702744
0.070614161129608
0.069633940508387
0.068813453964902
0.070561762897189
)
;
    }
    wedge1
    {
        type            wedge;
    }
    wedge2
    {
        type            wedge;
    }
    defaultFaces
    {
        type            empty;
    }
}


// ************************************************************************* //
