/*--------------------------------*- C++ -*----------------------------------*\
| =========                 |                                                 |
| \\      /  F ield         | OpenFOAM: The Open Source CFD Toolbox           |
|  \\    /   O peration     | Version:  2312                                  |
|   \\  /    A nd           | Website:  www.openfoam.com                      |
|    \\/     M anipulation  |                                                 |
\*---------------------------------------------------------------------------*/
FoamFile
{
    version     2.0;
    format      ascii;
    arch        "LSB;label=32;scalar=64";
    class       volScalarField;
    location    "0.00011";
    object      alphat;
}
// * * * * * * * * * * * * * * * * * * * * * * * * * * * * * * * * * * * * * //

dimensions      [1 -1 -1 0 0 0 0];

internalField   nonuniform List<scalar> 
109340
(
0.47627932224236
0.32663129086819
0.17626794130416
0.14730479212758
0.14269171998616
0.14560850473874
0.15103316176511
0.16051237963033
0.13989545723047
0.1244304416803
0.11219071396094
0.10220650299386
0.093887808441812
0.086842432308421
0.080795527506813
0.075547334871522
0.070948600210839
0.066885309081419
0.063268740274486
0.06002874465109
0.05710906612839
0.054464001887547
0.052055970234163
0.04985371068471
0.047830929334313
0.045965257435627
0.044237423993779
0.042630571623823
0.041129649178484
0.03972080707592
0.038390691029552
0.037125437571285
0.035908930646815
0.034719271580201
0.033520628609012
0.032244303913669
0.47074564219457
0.22827799598087
0.16722999036486
0.15297760737248
0.15194882615561
0.15497370772194
0.13875163711037
0.12069715960459
0.10666912736465
0.095563309720674
0.086571865219049
0.079148050207903
0.072916561461828
0.067612564314057
0.063044063812495
0.059068504164861
0.055577823493501
0.052488605645631
0.049735416041577
0.047266153667452
0.045038730688933
0.043018704299379
0.041177573624242
0.039491533119848
0.037940517425579
0.036507443660002
0.035177597531681
0.033938104519253
0.032777436857817
0.031684913792172
0.030650093912481
0.029661878412915
0.028706932290062
0.027766509190966
0.02680893396696
0.025770162708409
0.2764793827892
0.19483044541162
0.16793065361424
0.15762254944741
0.12609433366865
0.10512278560599
0.089915509832681
0.078454968449765
0.069547960207717
0.062456285728585
0.056693326185856
0.051926556824337
0.047923116362929
0.044516119743682
0.041583308820515
0.039033295851716
0.036796501542647
0.034819047248142
0.033058431776104
0.031480369343163
0.030056770624864
0.028764534110852
0.027584693218372
0.026501668636047
0.02550252347681
0.024576430975861
0.023714242931154
0.022907984274993
0.02215059578766
0.021435531343056
0.020756332462776
0.02010609148117
0.019476303164504
0.018855046937242
0.018222676658531
0.017535646273859
0.15888886990454
0.16049770934807
0.10072554787329
0.073326201177022
0.057681385910375
0.047579013565292
0.040538125280908
0.035361791458984
0.031403910190403
0.02828529285742
0.025768861321403
0.023698630043304
0.021967781529554
0.020500808946375
0.019242971826659
0.018153688159335
0.017202167858817
0.016364277657495
0.015618430440283
0.014946128475669
0.014333601831358
0.013771083067743
0.013251488502801
0.012769541647841
0.01232113332561
0.011902889956158
0.011511654896912
0.011145010900742
0.010800644807761
0.010476284674114
0.010169341324148
0.0098759262123504
0.0095897270660117
0.0093029192285581
0.009006173419593
0.0086784290554117
0.095688119483991
0.031280157122319
0.01902030355052
0.013793318547066
0.010912989629425
0.0091048607221989
0.0078748970686207
0.0069910829462643
0.0063300507139118
0.0058207541282789
0.0054196799161309
0.0050992315624905
0.0048411310700204
0.0046330650925686
0.004466657797643
0.004336042945275
0.0042360339882485
0.0041579681444454
0.0040876212969507
0.0040173552820587
0.003946481519054
0.0038772549093558
0.0038120717739582
0.0037525612705586
0.0036995995854817
0.0036535785324832
0.0036145199043598
0.0035822058976911
0.0035566892628911
0.0035375235868236
0.0035236479070492
0.0035138787983019
0.0035065081796191
0.0034982969670727
0.0034809724177274
0.0034305305218733
0.00024096814538525
0.00035965497173752
0.00046273927858817
0.00054316520265683
0.00060064705318431
0.00063854751841592
0.00066132563418341
0.00067315673620354
0.00067736339223474
0.00067670195995292
0.00067276726047292
0.00066681584462036
0.00065971152633457
0.00065203701017645
0.00064418299852909
0.00063642710062632
0.0006289493032998
0.00062186931609691
0.00061530926178401
0.00060941918115427
0.00060406094814077
0.00059914209830415
0.00059461066954625
0.0005904308114379
0.00058656758997227
0.00058298080210546
0.00057962167054471
0.00057642921963083
0.0005733233953631
0.00057019374454161
0.00056688050131395
0.00056312806538939
0.00055850326977703
0.00055211126588208
0.00054132395865737
0.00051447256783372
0.028497657236264
0.015331044524428
0.0082735556505687
0.0050877913389873
0.0033915795139982
0.0022958457564344
0.0015511471921872
0.001035056500809
0.00069898421324924
0.00051009281187118
0.00041526041213108
0.00041443405923571
0.00038183334397446
0.00034053354455256
0.00029452162096101
0.00024780901557107
0.00020758012288047
0.00017270626564844
0.00014411013319002
0.00012178288597723
0.00010333520501022
8.7927377227971e-05
7.3767657443174e-05
5.9640785237654e-05
4.8776424622581e-05
4.0312226380376e-05
3.3520720067851e-05
2.8250945613148e-05
2.3969392770746e-05
2.0385116872374e-05
1.7635234136131e-05
1.5188542976558e-05
1.3306771330144e-05
1.1598114047135e-05
1.0264047285169e-05
9.0402282049046e-06
8.0720746962271e-06
7.1726562686808e-06
6.4567438701254e-06
5.782462125014e-06
5.2430226819991e-06
4.7293128137072e-06
4.3138740818768e-06
3.9194865481075e-06
3.5911181227482e-06
3.2882639011417e-06
3.0212757712171e-06
2.7852690883779e-06
2.567119033665e-06
2.3774036814683e-06
2.2016975852833e-06
2.0444560971084e-06
1.9018531159222e-06
1.7724664997511e-06
1.6545755950495e-06
1.5470210447546e-06
1.4486104204465e-06
1.3584551846261e-06
1.2757146653254e-06
1.1996470232826e-06
1.1295556807404e-06
1.0648515919236e-06
1.0050275457424e-06
9.4963876921073e-07
8.9828008940084e-07
8.5058998427013e-07
8.0624991934791e-07
3.4404595382102e-06
0.00026910798043481
0.00091948837242305
0.00087128571657761
0.00078222685308503
0.00071308815623643
0.00065774795292167
0.00061090987332223
0.00056968281371514
0.00053264349802842
0.00049870635477119
0.00046619755165263
0.00043353729357258
0.00040280366136494
0.00038304772524222
0.00038318215108049
0.00039687016191972
0.0004059371387621
0.0003977821574412
0.00038030902742519
0.00036181367899411
0.00034639039657814
0.00033440656615301
0.00032492543423999
0.00031698984192432
0.000309935267863
0.0003033925102111
0.00029694870874079
0.00029049197534976
0.00028391648826311
0.00027716840074839
0.00027020497363513
0.00026305829104373
0.00025575940665329
0.00024836218469388
0.00024092271663973
0.00023350335610837
0.00022443670618078
0.00021739206036005
0.00021060609785686
0.00020419892960151
0.00019825451266269
0.00019284891065695
0.0001880540005363
0.00018386559640205
0.00018031604473843
0.00017742080391806
0.00017511248863896
0.00017332172980015
0.00017200475444355
0.00017107457769872
0.00017040089778503
0.00016991764974044
0.00016951077249135
0.00016907761519048
0.0001685441116583
0.00016781722570838
0.00016684855914538
0.00016572779965074
0.00016432688761141
0.00016257401574968
0.0001606694288056
0.00015866052362668
0.00015648839276894
0.00015423225443498
0.00015192580609165
0.00014968470070532
0.00014736644066159
0.00014529968339557
0.00014317139777406
0.00014131100349249
0.00013789565546364
0.00012767666216372
0.021842770110676
0.011838065507233
0.006939354570317
0.004545773538079
0.0030666504691062
0.0020584482045355
0.0013761246548514
0.00091573614092286
0.00060925780317305
0.00041368849774312
0.00029248443710279
0.00022380359847791
0.00018312552103321
0.00015442790374185
0.00013408437180352
0.0001186775067663
0.00010644563524205
9.6522228748111e-05
8.7492008355054e-05
7.9314941563944e-05
7.2022246104166e-05
6.5547529118125e-05
5.9723663287241e-05
5.4506919465385e-05
4.553040599085e-05
3.7685624603648e-05
3.1490056064302e-05
2.6536887383062e-05
2.2555670025314e-05
1.9307897698515e-05
1.6647698500115e-05
1.4447481229543e-05
1.2609530074971e-05
1.106914444224e-05
9.7630960081396e-06
8.655532089138e-06
7.7043690492363e-06
6.8894110837467e-06
6.18273018078e-06
5.5707964858363e-06
5.0358374609081e-06
4.5678771674394e-06
4.1559707579392e-06
3.7918641870704e-06
3.4698072748133e-06
3.182510083129e-06
2.9272073197981e-06
2.6977944895645e-06
2.492789590415e-06
2.3075736336537e-06
2.1406728725135e-06
1.9892412528661e-06
1.8519145891735e-06
1.7270842423423e-06
1.6133009830479e-06
1.5093947055839e-06
1.4142893973858e-06
1.3270982245807e-06
1.2469964058165e-06
1.1732788433716e-06
1.1053111383907e-06
1.0425385645889e-06
9.8445837031329e-07
9.3063048604539e-07
8.8067390039918e-07
8.3426869607716e-07
7.9009130362871e-07
1.3661182046054e-05
0.00052315982616461
0.00092799661974961
0.00084618588394517
0.00076236077059131
0.00069748064139066
0.00064477169409076
0.0005996365642335
0.00055964053496517
0.00052356022239042
0.00049024220345888
0.00045787134541762
0.00042535091891315
0.0003963133580396
0.00038096026778716
0.00038568201248901
0.00039989979375672
0.00040576269829801
0.00039780549876514
0.00038054529375121
0.00036218247853944
0.00034683844881154
0.00033491667552732
0.00032549330653737
0.00031761363954107
0.00031060974416152
0.00030410657824395
0.00029770793570428
0.0002912835506943
0.0002847327144825
0.00027799779077894
0.00027105000691818
0.00026390699071885
0.00025660544329068
0.00024920037778085
0.00024175014613949
0.00023431819574871
0.00022523015768889
0.00021816647268044
0.00021136187603487
0.00020493665292036
0.00019897479656899
0.0001935515539758
0.00018873955314832
0.00018453382330364
0.0001809680464407
0.00017804917014972
0.00017572489868503
0.00017392538132034
0.00017259832776768
0.00017164494354796
0.00017095666705143
0.00017046396855352
0.00017002969777719
0.00016956614851909
0.00016900229422093
0.00016824435826316
0.0001672399544377
0.00016608689638175
0.00016463818408331
0.00016287072658434
0.00016094603155226
0.00015889324377768
0.00015667675232931
0.00015438904581747
0.00015205123950592
0.00014977778352
0.00014742744671652
0.00014531582132523
0.00014317504180696
0.00014118726260944
0.00013739230360412
0.00012715767120027
0.015916151489532
0.0079224899179218
0.0047764793364375
0.0031749828449703
0.0021173153686476
0.0014511380320982
0.00099283478425141
0.00068644295035456
0.00048341880837431
0.00034963759044624
0.00026881770024743
0.00021208675365732
0.00017405977026537
0.0001466961284218
0.00012557493128559
0.00010872137824284
9.5288116853392e-05
8.4015924649621e-05
7.392611960731e-05
6.5325198280909e-05
5.8281774991721e-05
5.2316076437951e-05
4.7230126647903e-05
4.3034701223722e-05
3.9474910136236e-05
3.6372895473635e-05
3.0810180524834e-05
2.5973255015182e-05
2.2072743644289e-05
1.8904112265429e-05
1.6298331430746e-05
1.4147704955163e-05
1.2352113957272e-05
1.0846957868464e-05
9.5731799662865e-06
8.4910169603015e-06
7.5637721254139e-06
6.7667445472266e-06
6.076536001615e-06
5.4778248928501e-06
4.9543486157927e-06
4.4965177925537e-06
4.0924760514139e-06
3.7364890517922e-06
3.419853719739e-06
3.1388837987662e-06
2.8875623307259e-06
2.6629392889922e-06
2.4610498138079e-06
2.2792126113654e-06
2.1150447956161e-06
1.9662648337059e-06
1.8312268035693e-06
1.7082494990058e-06
1.5961849470745e-06
1.4938073980439e-06
1.4001091027207e-06
1.3141698750353e-06
1.2351891183209e-06
1.1624750113201e-06
1.095415647915e-06
1.0334633589802e-06
9.7612354415272e-07
9.2296721852161e-07
8.7362106186129e-07
8.2776643862135e-07
7.8435551263531e-07
1.4215589380925e-05
0.00053172293958967
0.0009283718254623
0.00084552508627488
0.00076182482287337
0.00069709333535391
0.00064451063461782
0.00059949451911335
0.0005596058260547
0.00052362826556496
0.00049042978436515
0.0004582117024464
0.0004258491078347
0.00039686577717593
0.00038134597063812
0.00038582568247281
0.0004001028955377
0.00040625933431082
0.00039875690894424
0.00038181312440326
0.00036358110863199
0.00034826924696423
0.00033636094892438
0.00032696055756423
0.00031912175859114
0.0003121617861897
0.0003056969926794
0.00029934908320034
0.00029295604710124
0.00028643455852798
0.00027970746814929
0.00027278237427385
0.0002656430844472
0.00025833592448008
0.00025091714373554
0.00024344821726326
0.00023599477971853
0.00022686797863746
0.00021976778746689
0.00021292615192365
0.00020646375936969
0.00020046529085367
0.00019500473057057
0.00019015463857997
0.0001859115943103
0.00018231587212756
0.00017935228307903
0.00017699236516959
0.00017516856216831
0.00017381306430722
0.00017283118273028
0.00017212522067692
0.00017160627722692
0.0001711331107285
0.00017062693476812
0.00017001533933541
0.00016920342072963
0.00016813272966813
0.00016691601266133
0.00016538478389423
0.00016359569548883
0.00016161731823926
0.0001594754142373
0.00015718371336584
0.00015483402166052
0.00015243843193996
0.00015009773686421
0.0001476825215935
0.00014550003785551
0.0001433279322687
0.00014112269779399
0.00013709199794224
0.00012705500969495
0.0082809549692372
0.0044199395293257
0.002702995799297
0.0017560737238249
0.0012078020576869
0.00087035716129736
0.0006474620205806
0.0004972638093951
0.00039161008526771
0.00031752878143004
0.00025897129176902
0.00021197711591388
0.00017476649911652
0.00014585175128396
0.00012343849714816
0.00010619722692697
9.2170111870401e-05
8.0582247212329e-05
7.0615270895834e-05
6.1842510324978e-05
5.4204597825852e-05
4.7966780730053e-05
4.2849077710162e-05
3.8482779873019e-05
3.4828385127313e-05
3.1840852731817e-05
2.9277307139103e-05
2.540853889202e-05
2.1606129916237e-05
1.85109765585e-05
1.596731747247e-05
1.3859536031117e-05
1.2103887927217e-05
1.062739948128e-05
9.3805730387411e-06
8.3185348027453e-06
7.4113797200613e-06
6.6299481242514e-06
5.9557884628667e-06
5.3691757171581e-06
4.8581431996284e-06
4.4100880302429e-06
4.0161938277991e-06
3.6681502364251e-06
3.3593360702903e-06
3.0845831352534e-06
2.8389842532916e-06
2.6193267030753e-06
2.4216398280297e-06
2.2437853382884e-06
2.0828692011198e-06
1.9372203141069e-06
1.8048445255989e-06
1.684307263736e-06
1.5743567368001e-06
1.4738713016433e-06
1.3818842407289e-06
1.2974858284232e-06
1.219906922063e-06
1.148458946447e-06
1.0825379388929e-06
1.0216077821024e-06
9.6519857718315e-07
9.1289545068349e-07
8.6432894151897e-07
8.1917261027678e-07
7.7648308155332e-07
1.5054830867815e-05
0.00054447010877916
0.00092862394314851
0.00084455219755911
0.00076104500932696
0.00069652533435822
0.00064412680549818
0.00059928586878807
0.0005595552994006
0.00052372925863343
0.00049070527936739
0.0004587083946791
0.0004265781530076
0.00039768124227269
0.00038192874205885
0.00038605651448458
0.00040041129325138
0.00040705174158559
0.00040025187342829
0.00038377984244353
0.00036572476178406
0.00035043844238367
0.00033853237003582
0.00032915516637144
0.00032136220448836
0.0003144655887861
0.00030805076913725
0.00030176847334183
0.00029543040563822
0.00028894948163912
0.00028224636105762
0.0002753405691389
0.00026820100959926
0.00026087743831658
0.00025342882688241
0.0002459205800974
0.00023842522810847
0.00022922726784531
0.00022206087825794
0.00021515332543388
0.00020862476283616
0.00020256053125447
0.00019703323580484
0.0001921173683443
0.00018780893307108
0.0001841477134584
0.00018111445441316
0.00017869363450098
0.0001768167173413
0.00017541036804412
0.00017437720094866
0.0001736214888283
0.00017305409329866
0.00017252217977038
0.00017194785361992
0.00017125729801268
0.00017035864057294
0.00016920181660107
0.00016789042216349
0.00016625705231359
0.00016438763637104
0.00016231364406093
0.00016006539208221
0.00015767003648129
0.00015523086710591
0.00015275268277025
0.00015033361533671
0.00014783081553132
0.00014556597136597
0.00014327780801108
0.0001409431332744
0.0001368327359791
0.00012667457504111
0.0032070241842575
0.0022654799697226
0.0015960060776151
0.001209266578232
0.0009337630587343
0.00071779474897726
0.00056985235657392
0.00046597795461285
0.00038726338255723
0.00031518853986293
0.00026149991336082
0.00021726458734295
0.00018073624783981
0.00015115740548703
0.00012673396689708
0.00010707696447504
9.1910659825879e-05
7.9381034040875e-05
6.8772101803288e-05
5.9980902306684e-05
5.2695150351765e-05
4.6388738106714e-05
4.1060053481067e-05
3.6711815521656e-05
3.3036642093657e-05
2.988379443564e-05
2.7256987548678e-05
2.480356581326e-05
2.1125142924523e-05
1.811618980527e-05
1.5639553328675e-05
1.3584127949429e-05
1.1867744273257e-05
1.0423550549901e-05
9.2025172928559e-06
8.1626801332432e-06
7.2727382430673e-06
6.5070142849602e-06
5.8453390272572e-06
5.2701093588855e-06
4.7685904114421e-06
4.3288414075208e-06
3.9422561393486e-06
3.6002923806778e-06
3.2973400294863e-06
3.0275766733974e-06
2.7870334613058e-06
2.5715663707622e-06
2.3780585720013e-06
2.2038846805192e-06
2.0464684910128e-06
1.9039939984511e-06
1.7745656270457e-06
1.6567677660721e-06
1.5491863674022e-06
1.450816736224e-06
1.3607122662488e-06
1.2780365811675e-06
1.2020309711908e-06
1.1320061732412e-06
1.0673702886522e-06
1.0076048620229e-06
9.522615742665e-07
9.0093507537149e-07
8.5326133798171e-07
8.0891707755311e-07
7.6708675189084e-07
1.6283442082759e-05
0.00056144604092347
0.00092884076603531
0.00084323564569282
0.00076000973508044
0.00069576725797863
0.00064361289601255
0.00059900305294107
0.00055948196291757
0.00052385734112246
0.00049106291366811
0.0004593540801241
0.00042752648612136
0.00039874745706673
0.00038269857835324
0.000386357892716
0.00040077791527323
0.00040805243395827
0.00040218697732146
0.00038635612863769
0.00036854282521911
0.00035328516534295
0.00034136812294318
0.0003320071825275
0.00032426175273857
0.0003174348553501
0.00031108508580794
0.00030487719830415
0.00029860177237094
0.00029216594103034
0.00028548784167204
0.00027858993229259
0.0002714396540405
0.00026408524125267
0.00025658471389383
0.00024900646121701
0.00024143935414799
0.00023212519529744
0.00022485027754332
0.00021783606154847
0.00021120081217082
0.0002050305703374
0.00019939936493209
0.00019438030978967
0.00018996668130407
0.0001862011012472
0.00018306049366177
0.00018053407622056
0.00017855708676101
0.00017705177395291
0.00017592661926971
0.00017508957538029
0.00017443344160216
0.00017380723474925
0.00017313020383266
0.00017232260268455
0.00017130055513626
0.00017003632804149
0.00016860641317345
0.0001668406653283
0.00016485262979243
0.00016266391524864
0.00016029321547175
0.0001577782034997
0.00015523450627411
0.00015266496284173
0.00015015668572061
0.00014755784598971
0.00014521292764514
0.0001428005212308
0.00014034037182582
0.00013604821885151
0.00012579495317574
0.0010985638510841
0.0009585706283044
0.00098961630666132
0.0010327422725672
0.0010777586293173
0.00093580665174906
0.00071271476304383
0.00054199418628113
0.00041989542308929
0.00033810056599631
0.00027576055482421
0.00022732498653548
0.0001886967143812
0.00015726704340776
0.00013168029117311
0.0001107473512033
9.3619928720952e-05
7.9656845918025e-05
6.8342544508093e-05
5.9113028206629e-05
5.1540151788137e-05
4.5368078765623e-05
4.0185002170834e-05
3.5785642563183e-05
3.213741326934e-05
2.9016177135381e-05
2.631840007766e-05
2.4023216827687e-05
2.060854840772e-05
1.7704087653908e-05
1.5304639761503e-05
1.3306693185959e-05
1.1634916089743e-05
1.0227378818013e-05
9.0330530273021e-06
8.0160537718345e-06
7.1444927956904e-06
6.3941921493206e-06
5.7443097473347e-06
5.1799650949657e-06
4.6871526945164e-06
4.2552417574889e-06
3.8749971072093e-06
3.5390935526676e-06
3.2412173108815e-06
2.976022993821e-06
2.7394801311864e-06
2.5276760936135e-06
2.3376283751911e-06
2.1663263793263e-06
2.0116321311962e-06
1.871527721812e-06
1.7443447071212e-06
1.6286250775563e-06
1.5230359566538e-06
1.4265413244104e-06
1.3381558559138e-06
1.2570899281766e-06
1.1825898485895e-06
1.1139770220418e-06
1.0506774473867e-06
9.9216031058206e-07
9.3795362605512e-07
8.8765507890551e-07
8.4092803537006e-07
7.9746371967526e-07
7.5662948474857e-07
1.8174321736388e-05
0.00058274193412674
0.00092897704744394
0.00084153568796435
0.00075870251305608
0.00069481271906252
0.00064296583520615
0.0005986424756999
0.00055938135926112
0.00052400738908671
0.00049149565575907
0.00046013855349173
0.00042868204730583
0.0004000539861818
0.00038365008671267
0.00038671600169104
0.00040115838122301
0.00040918987368165
0.0004044845431747
0.00038947082388021
0.00037197375860495
0.0003567496072235
0.00034480392267913
0.00033544591884543
0.00032774363823014
0.00032098834749116
0.00031471050670041
0.00030858324604551
0.00030237504060936
0.0002959852775431
0.00028932925167183
0.00028242676070629
0.00027524783387686
0.00026783576163405
0.00026024836462412
0.00025255698380537
0.00024487645624065
0.00023539084933619
0.00022795600895154
0.00022078942282191
0.00021400371175839
0.00020768206008617
0.00020189822567535
0.00019672654662077
0.00019215638956825
0.00018823094761901
0.00018492864936676
0.00018224252955941
0.00018010796300665
0.00017844697910483
0.0001771755416679
0.00017620038712075
0.00017540656575293
0.00017464043633901
0.00017381703510492
0.00017285066311976
0.00017166978945958
0.00017027049126409
0.00016869267556049
0.00016677455760271
0.00016464957418212
0.00016233120355344
0.00015983116335565
0.00015719735976411
0.00015455371564159
0.00015189421955534
0.00014929822859083
0.0001466083564987
0.00014419458899031
0.00014167537787083
0.0001391172253543
0.00013463127210212
0.00012425457953884
1.504214894575e-05
0.00019811558623741
0.00028273136802449
0.00037929469654984
0.00046506722072975
0.00054045887094952
0.00061168966138048
0.00066224853587197
0.00050999398125741
0.00039556857499173
0.00031373671270824
0.00025436277155757
0.00020854638484607
0.0001722450428021
0.00014308575115886
0.00011934365140821
9.9912690962268e-05
8.4210674865847e-05
7.1525601449595e-05
6.1240021503313e-05
5.2940464018022e-05
4.6206094452844e-05
4.0722505089335e-05
3.623105551525e-05
3.2307801712855e-05
2.9144402204218e-05
2.6424899194271e-05
2.4078435915752e-05
2.0852067005937e-05
1.791545384012e-05
1.5490321303401e-05
1.3472379834851e-05
1.1778414620063e-05
1.0349777504943e-05
9.1392830999149e-06
8.1077949017914e-06
7.2223570027609e-06
6.4604179457822e-06
5.8009695616125e-06
5.2278973078733e-06
4.7271914181041e-06
4.2888611001113e-06
3.9031359253489e-06
3.5624901741715e-06
3.2603566573585e-06
2.9917739669129e-06
2.7522406913444e-06
2.5379064829476e-06
2.3456102090863e-06
2.1725030574972e-06
2.0163425270027e-06
1.8749752517253e-06
1.7467197694165e-06
1.6300872302412e-06
1.5238170332675e-06
1.4267807664515e-06
1.3379433021378e-06
1.2564772978199e-06
1.1816393313494e-06
1.1127751974461e-06
1.0492783066231e-06
9.9061112793975e-07
9.3631092831485e-07
8.8596990471353e-07
8.3921718502536e-07
7.9574849587624e-07
7.5531227243473e-07
6.2016751883002e-06
0.00036982249105327
0.00093098560456947
0.00086359360546695
0.00077562141845204
0.00070816730039517
0.00065421685814813
0.00060865909608113
0.00056859074555307
0.00053262474883706
0.00049984792238928
0.00046877933879038
0.00043776372667536
0.00040804473657377
0.00038730575974845
0.00038482820867319
0.0003977275852939
0.0004103836066803
0.00040704936928289
0.00039303692027567
0.0003759464838168
0.00036076848364092
0.00034877529760687
0.0003393996030381
0.00033172957542529
0.00032504231659038
0.0003188376275556
0.00031279236200184
0.00030664985082101
0.00030030206946934
0.00029365988437218
0.00028673584327053
0.00027950512075621
0.00027200549198101
0.00026429352487239
0.00025643999761345
0.00024855860658926
0.00024073279740975
0.00023295893154343
0.00022545098245873
0.00021831871794533
0.00021165310649378
0.00020552891208983
0.00020001541133215
0.0001950975107624
0.00019081135541793
0.00018714632663578
0.00018409615135644
0.00018160961121473
0.00017962350289817
0.00017804824382105
0.00017678155226504
0.00017570281931085
0.00017466332332367
0.00017355808043632
0.00017230511227655
0.00017084977278538
0.00016921326850491
0.00016738749530512
0.00016523672328113
0.00016290662982063
0.00016040222737459
0.00015772596820108
0.00015493520980718
0.00015215843715612
0.00014935720931771
0.0001466166125168
0.00014379680439351
0.00014125453753565
0.00013860394656337
0.00013592105417176
0.00013117080756414
0.00012064035516562
3.3501920798251e-06
2.2989766574109e-05
4.8927739660664e-05
7.891385540204e-05
0.00011439056208153
0.0001560459435055
0.00019837600588429
0.00024209696430325
0.0002827049916199
0.00030962202274928
0.0003162151531678
0.00026272030525023
0.00021197280255347
0.0001727788255158
0.00014224901168195
0.00011813176930371
9.8473845382827e-05
8.2652368071974e-05
6.9915335144279e-05
5.9620452908924e-05
5.1295621523811e-05
4.4533493181238e-05
3.9000290892439e-05
3.4460185511089e-05
3.0763654988045e-05
2.7699249810227e-05
2.4975233006746e-05
2.2038364710599e-05
1.8926482430804e-05
1.635150234833e-05
1.4209918561417e-05
1.2412071208523e-05
1.0898984271273e-05
9.61639545355e-06
8.5226029827415e-06
7.5828615745759e-06
6.7741829301476e-06
6.0747822111508e-06
5.4672216583329e-06
4.9363700262711e-06
4.4715005990608e-06
4.06299163609e-06
3.702665648521e-06
3.3833012210902e-06
3.0995463224915e-06
2.8467608502325e-06
2.6208692021045e-06
2.4183792884171e-06
2.2363278829593e-06
2.0723827146806e-06
1.9242494625603e-06
1.7900912349336e-06
1.6682239238045e-06
1.5573379478993e-06
1.4562568791685e-06
1.3639130501459e-06
1.2793861359381e-06
1.2018242172138e-06
1.1305448215491e-06
1.0649204904428e-06
1.0044024415493e-06
9.4849462556888e-07
8.967518462264e-07
8.4878448643368e-07
8.0425132983314e-07
7.6286798701696e-07
7.2590247250233e-07
2.9936089552032e-05
0.00066690040767337
0.00092563094323538
0.00083385046387234
0.00075308718351399
0.00069078210412499
0.00064023866779383
0.00059707360633022
0.00055887332086755
0.00052453568721498
0.00049317197732637
0.00046321524685362
0.00043325158083524
0.0004053024554015
0.00038756206652548
0.00038804035576737
0.00040195297796793
0.0004126346479391
0.00041257078559411
0.00040114337608457
0.00038521311423343
0.00037021244148868
0.00035807330399115
0.00034858197953827
0.00034091866775859
0.00033433365408774
0.00032826598321262
0.00032237131649259
0.0003163573319068
0.00031007811333092
0.00030343698107708
0.000296421320022
0.00028901400021033
0.00028124035952256
0.00027315547589126
0.00026483448624132
0.00025639756391913
0.00024782624004033
0.00023931864566283
0.00023105977150808
0.00022317658989009
0.00021576737210133
0.00020890620344457
0.00020264661950212
0.0001969927993552
0.00019200989794599
0.00018766791946647
0.00018395393249886
0.00018082369856397
0.0001782072178962
0.00017602410927378
0.0001741643188384
0.00017249922409884
0.00017089943311728
0.00016922758606276
0.00016742662226315
0.00016547726060016
0.00016336475918209
0.00016111037868778
0.00015859811354416
0.00015596349573934
0.00015319914689665
0.00015029138771066
0.00014733021595101
0.00014440443509277
0.00014140724559093
0.00013850807046975
0.00013555748320175
0.0001328528115554
0.0001300881046405
0.00012729529713304
0.00012228140146055
0.00011167793749197
3.0563675996894e-06
7.7318562994101e-06
1.4889565805712e-05
2.4880102757811e-05
3.8103111588169e-05
5.446014476215e-05
7.4298470774989e-05
9.646732541225e-05
0.00012101247715626
0.00014599055246642
0.00016659622968409
0.000177352156666
0.00017647642054664
0.00016451372374115
0.00014243470717215
0.00011774040636653
9.8463109198624e-05
8.289363310941e-05
7.0216769087533e-05
5.9864815877418e-05
5.149037670169e-05
4.4647076043091e-05
3.9032186275292e-05
3.4394911264867e-05
3.0552329487195e-05
2.7350159317351e-05
2.3847063287008e-05
2.0534458943577e-05
1.7761574423167e-05
1.5428546268364e-05
1.3461751117745e-05
1.1801502012594e-05
1.0392337467337e-05
9.1929400531891e-06
8.1640350746437e-06
7.2795075733776e-06
6.5171472739861e-06
5.8564880042674e-06
5.2800152471052e-06
4.77505184814e-06
4.3318126742589e-06
3.9410806598954e-06
3.5953075822735e-06
3.2880527891591e-06
3.0147871239029e-06
2.7708004476278e-06
2.5524008746958e-06
2.356173371922e-06
2.1796019095657e-06
2.0203859427909e-06
1.8764187264448e-06
1.7458666604539e-06
1.6271750603798e-06
1.5191412281053e-06
1.4205797774729e-06
1.3304961554322e-06
1.2479757184322e-06
1.1722485573509e-06
1.1026541973028e-06
1.0385631720977e-06
9.7944056141161e-07
9.2481053412275e-07
8.7425512556156e-07
8.2740728511299e-07
7.8393067354499e-07
7.4353216345874e-07
7.1094653675027e-07
4.0735943379934e-05
0.00073206692187221
0.00091977546963296
0.00082675875463171
0.00074808545442898
0.00068725838154528
0.00063783515888069
0.00059562793437403
0.00055832802745394
0.0005248919502951
0.0004945138068752
0.00046573621422801
0.00043705088765971
0.00040978153900048
0.00039104423357447
0.00038912746987729
0.00040184839917337
0.00041417093941358
0.00041785764146771
0.00040981087478092
0.00039565959388835
0.00038108781653334
0.00036879102754526
0.00035907961854368
0.00035132014316591
0.00034477277984076
0.0003388143096421
0.00033305494269797
0.00032716788344454
0.00032094809358901
0.00031429050315976
0.00030714391810379
0.00029948612015685
0.00029133029641958
0.00028272730414075
0.00027375573902695
0.00026453906491425
0.00025481942866354
0.00024523756008938
0.00023585645679886
0.00022682213043237
0.00021827240763801
0.00021029366151947
0.00020297684322163
0.00019632231909027
0.00019029859473515
0.00018492982687681
0.00018021897361023
0.00017612807519361
0.00017259366979303
0.00016953925069583
0.00016684080060895
0.00016436437491232
0.00016197558778844
0.00015953213415917
0.00015702875700551
0.00015445893550741
0.00015179856579167
0.00014905802073823
0.00014616649462734
0.00014321347374293
0.00014017323476597
0.00013704924227213
0.00013393499235131
0.00013077711463438
0.00012760696130937
0.00012454681900993
0.00012147286885204
0.00011859212249657
0.00011573157223957
0.00011281174302855
0.00010762864009134
9.7412927537682e-05
2.7349040255194e-06
4.8836233543698e-06
6.8364813126113e-06
1.0916818421767e-05
1.6626200910403e-05
2.4096953673791e-05