/*--------------------------------*- C++ -*----------------------------------*\
| =========                 |                                                 |
| \\      /  F ield         | OpenFOAM: The Open Source CFD Toolbox           |
|  \\    /   O peration     | Version:  2312                                  |
|   \\  /    A nd           | Website:  www.openfoam.com                      |
|    \\/     M anipulation  |                                                 |
\*---------------------------------------------------------------------------*/
FoamFile
{
    version     2.0;
    format      ascii;
    arch        "LSB;label=32;scalar=64";
    class       volScalarField;
    location    "0.00011";
    object      cSound;
}
// * * * * * * * * * * * * * * * * * * * * * * * * * * * * * * * * * * * * * //

dimensions      [0 1 -1 0 0 0 0];

internalField   nonuniform List<scalar> 
109340
(
555.9225290658
554.86128919235
552.83419794414
550.36994979476
547.63419556374
544.7677551887
541.82560877643
538.83590355045
535.83154160374
532.7434663643
529.43816253405
525.79338302967
521.66908181047
516.9046056209
511.32347005981
504.73973445677
496.96370622413
487.81106404542
477.11266842794
464.72661256737
450.54919480167
434.53019651576
416.68442143425
397.09951184438
375.93565420446
353.41943408606
329.82842533604
305.46927644084
280.65100578565
255.65678001459
230.71718114849
205.98621071656
181.52410242223
157.30318217626
133.26632149076
109.46757656095
556.08179042284
554.71911872647
552.44321500985
549.81038842427
546.9924119919
544.11267149542
541.20754657069
538.27501067516
535.27276358574
532.13198985696
528.74846016546
524.99708089767
520.7313351354
515.78515130925
509.97804506845
503.12055058837
495.02375402971
485.50571182202
474.40219924789
461.57891019308
446.94385901811
430.46172451455
412.16481547553
392.15931473637
370.62334974244
347.79845018133
323.97247993238
299.45607294602
274.55507115427
249.54225188309
224.63042139872
199.94716780647
175.51118762148
151.2334642352
126.92119453663
102.62606200921
556.67357758426
555.09791112229
552.59399334564
549.89934539391
547.10541186161
544.26693634589
541.37751312256
538.43679843725
535.42460807261
532.27526202268
528.88759012088
525.13563203886
520.87169006
515.92892991892
510.12656700725
503.27579514491
495.18694484074
485.67780964103
474.58342008111
461.76879618911
447.1406608252
430.66270227216
412.36644606042
392.35737424012
370.81339341563
347.97609620042
324.13392100634
299.59853930842
274.67714695415
249.64347469016
224.7102869654
200.00102565324
175.5113027426
151.08325581698
126.35941302317
100.9448643199
557.49608423328
555.59961284109
552.97179717696
550.20313137112
547.35668778839
544.46008855877
541.52295176742
538.54907646092
535.51448134507
532.35245138175
528.9620082977
525.21592190505
520.9646276673
516.03959975105
510.25800181702
503.42880804066
495.36041039593
485.86853926243
474.78545993954
461.97435177725
447.33824014882
430.83890174823
412.5065202624
392.44597080146
370.83656148168
347.9221158647
323.99482749767
299.37112759619
274.36348344097
249.25044929481
224.24824455784
199.48067632731
174.91710782941
150.3157131663
125.05925461491
97.898114326571
558.79027228103
556.33021797822
553.3217745093
550.36546982618
547.44221321394
544.51751977743
541.57149358962
538.60125694028
535.57641536379
532.42751724439
529.05480954405
525.33011650037
521.10082084877
516.19391051202
510.42036716204
503.58117625401
495.47549272718
485.90898795949
474.69485164666
461.69219160078
446.78975377436
429.94467430752
411.18817663966
390.63223753714
368.47354640205
344.97954023709
320.47250915384
295.30231224316
269.81494412479
244.31939822824
219.05402432228
194.17193720353
169.62614713083
145.11704918668
119.75236841037
90.856647299315
561.19515800146
556.71844842835
553.4056747037
550.38788299594
547.4609919779
544.54231013041
541.60343361197
538.62835046641
535.56900953353
532.32768357494
528.76666629035
524.70982525883
519.94808195705
514.24564187607
507.3487772946
498.99827675105
488.94619756964
476.98273040884
462.97082300125
446.74212276876
428.28096349644
407.67622170521
385.13338058519
360.97050424851
335.59744514199
309.4801257249
283.09848660432
256.90320502017
231.27829360049
206.51302333939
182.77698854886
160.1609306009
138.51586688933
117.49361178035
96.171124119424
70.951787436617
86.936114746123
68.049057985882
54.112331724426
44.659184664967
38.472694318445
34.293377116727
31.488804425613
29.670183109977
28.594427196968
28.098304761691
28.020884292694
28.401274592951
29.011623763589
29.80807789278
30.722764788195
31.69120309941
32.672199357997
33.634905430406
34.561221769663
35.442137931333
36.271994422277
37.048306295985
37.772566654211
38.447602064157
39.076525857374
39.662516144692
40.207893441157
40.718398689926
41.195412134298
41.64128414208
42.061683912541
42.454870884514
42.827143606759
43.176562953523
43.508380666093
43.821083835384
44.11887520413
44.40047043094
44.669435676611
44.924532534032
45.168861327824
45.401245791464
45.624334293281
45.83719336665
46.041803101321
46.237799222647
46.426212952221
46.607445988147
46.781664375742
46.949721663497
47.111586189955
47.267885029192
47.418836166773
47.564762864571
47.70592202922
47.842575184346
47.974949048044
48.103268289304
48.227735959921
48.348540964004
48.46585645346
48.579847687837
48.690669188146
48.798465888738
48.903374819319
49.005520924585
49.105022873518
49.202609180004
49.890455272745
50.640214017674
51.067793114475
51.470731951004
51.869969074398
52.269231410556
52.674259296207
53.093392637792
53.537802583166
54.021517760391
54.558568937763
55.15241377448
55.773967743238
56.341525981221
56.757497917406
56.996137321458
57.117594861786
57.155971583177
57.166335742261
57.16523548654
57.160554351366
57.155282155877
57.150727122332
57.147138015561
57.144498444378
57.142739220292
57.141781391671
57.14160066236
57.142122611312
57.143271041841
57.144963429003
57.147118924871
57.149641356275
57.152428868156
57.155375437719
57.158392738836
57.162142777464
57.164996538875
57.167614839035
57.169897933154
57.171755644382
57.173153450794
57.174132223194
57.174593505519
57.17459405739
57.174268388236
57.173583479321
57.172551065394
57.171221464964
57.169589364101
57.167639163318
57.165448898642
57.16303936665
57.160384665558
57.157494512645
57.154402546022
57.151155715968
57.147821508922
57.144288650308
57.140563042461
57.136872055512
57.133254800035
57.129625360474
57.126022559788
57.122529991884
57.119267660905
57.116153346739
57.112796982946
57.113913576423
57.137504203068
57.355492252487
59.308495642769
79.50940766427
61.200034255189
48.763018826727
40.876401092166
35.727433183327
32.382041843178
30.206911143904
28.87700280081
28.178805931644
27.962879034475
28.12576018531
28.571032816574
29.270132495768
30.105691382877
31.025362609786
31.988342553173
32.954563535866
33.900013264861
34.808787820652
35.671120984258
36.482739944597
37.242694360929
37.951952358114
38.612898886825
39.228620908446
39.802723773973
40.338448141361
40.839007346807
41.307596007179
41.746751864126
42.159233407097
42.5472846615
42.912958684913
43.258213177618
43.584654140285
43.893915754772
44.187252657258
44.46602102077
44.73123304618
44.983985449731
45.225126458531
45.455534459632
45.675934765877
45.88701322324
46.089419879298
46.283677156935
46.470362671061
46.649888165685
46.82275506733
46.989302323145
47.149941623415
47.304980861066
47.454761171808
47.599569386227
47.739673023709
47.875321640414
48.006744530686
48.134158083018
48.257761443836
48.377740213561
48.494267461501
48.607505351832
48.717605114079
48.824711599197
48.928958616304
49.030479603569
49.129399443888
49.237864337135
50.164682237364
50.756444572786
51.171098038391
51.572532026495
51.971090674068
52.370721369673
52.777803777354
53.201298992567
53.65306986227
54.147558626338
54.697603057866
55.301308768609
55.918082245832
56.456070061532
56.828007263323
57.030705219127
57.116509175328
57.155336854877
57.165893994856
57.164836204195
57.160119601434
57.154771929284
57.150129896918
57.14645522683
57.143738798967
57.141914048607
57.140901966415
57.140677588731
57.141169994662
57.142300461
57.143996745292
57.146166928248
57.148717707568
57.151545862118
57.154542277481
57.157614969125
57.161440260621
57.164356990155
57.167035749609
57.169373661736
57.171278252158
57.172708737169
57.173709626862
57.17418032256
57.174178776652
57.173829382296
57.173114331416
57.172045259042
57.170666535208
57.168968927988
57.166955979129
57.164696838271
57.162199609348
57.159453311043
57.156476006898
57.153299762792
57.149971145283
57.146556465679
57.142924786984
57.139130335929
57.135375507372
57.131675894414
57.12797248483
57.124317786384
57.120773729152
57.117466115284
57.114304640706
57.110889072008
57.111948391519
57.135523843042
57.354256028401
59.318304387823
75.622678636114
56.193834466727
44.654583022003
37.683185111737
33.339035280661
30.67757591016
29.085094185925
28.207649828216
27.845599189205
27.84265225173
28.194084875054
28.746059691633
29.46637010169
30.304283963965
31.21171593207
32.151920216623
33.094624789965
34.018736794042
34.908240553614
35.753692282483
36.55148815546
37.300243093641
38.000256124616
38.653715156609
39.26352904608
39.83260106635
40.363997804164
40.860990740608
41.326453050172
41.763102574143
42.173285739317
42.559435985691
42.923455579941
43.267293664813
43.592524597638
43.900704913589
44.193138693805
44.47108889638
44.73560957941
44.987750698469
45.228363433381
45.458324002667
45.678315370903
45.8890805377
46.091170193335
46.285205780987
46.471646548468
46.651008327611
46.823691758633
46.990110971408
47.150627813826
47.305577138884
47.455276056034
47.600007786094
47.740049287121
47.875644555657
48.007024944108
48.134402269187
48.257975142435
48.37792855907
48.494435566204
48.607658013094
48.71774582594
48.824843078637
48.929085301086
49.030601270291
49.129516254864
49.238922779556
50.172895553053
50.760246683988
51.174381149575
51.575505555262
51.973583967394
52.372535330926
52.778702352429
53.20097251421
53.651099585799
54.143425649407
54.690844177247
55.291934316325
55.907245126637
56.446151275312
56.820939178082
57.026531770382
57.114361870979
57.154148120183
57.165106878141
57.164121345624
57.15930519211
57.153769336787
57.148913662577
57.145031744697
57.142125692534
57.14014202512
57.138991210402
57.138652990943
57.139067156755
57.14014590297
57.1418405858
57.144035614779
57.146642968422
57.149556591301
57.152660593177
57.155853902961
57.159845882858
57.162904464695
57.165720184473
57.168182868224
57.170195098645
57.171702785073
57.17275427466
57.173249131261
57.173246807561
57.172849054476
57.172066184145
57.170911515622
57.169415947973
57.167589697754
57.165446787115
57.163028764525
57.160348521668
57.157413246451
57.154251467283
57.150894105065
57.147387667024
57.143802234369
57.139966418179
57.136045314625
57.132153641547
57.128286164266
57.124446106817
57.120688952433
57.117042875554
57.113642315199
57.110382584489
57.106852088803
57.107822732084
57.131440579986
57.353049869696
59.350952686873
68.486901220466
48.233930539853
38.444089225532
33.077512067166
30.249645881886
28.649610297206
27.854591801752
27.550867082833
27.582083817876
27.851267511705
28.371324211258
29.003126051083
29.743611020277
30.57147263245
31.452480839615
32.363530849504
33.277482289535
34.173421696148
35.038405207233
35.863803277781
36.644306789915
37.378128876858
38.066374752484
38.710233199764
39.311893909394
39.874315707634
40.400412639421
40.892808413338
41.35433136783
41.787642947224
42.195028246433
42.578661214368
42.940593919936
43.282544397977
43.60618117651
43.912909682167
44.204107510491
44.480907518225
44.744451849062
44.995674393745
45.235504124476
45.464721976892
45.684091074888
45.894261608069
46.095847304641
46.289409819919
46.475438570757
46.654424769718
46.82676559867
46.992887897018
47.153127970063
47.307841736223
47.457323627276
47.601865716333
47.741732721909
47.87717189376
48.008412667422
48.135664952066
48.259126543894
48.378980524658
48.495398311675
48.608540513119
48.718558291326
48.825593314171
48.929782498108
49.031248697292
49.130117977305
49.24099060548
50.184857234908
50.765893836262
51.179226842028
51.579854929678
51.977211630235
52.375173744268
52.780021864231
53.200531158636
53.648295846735
54.137511314535
54.681143638309
55.278438747956
55.891569921296
56.431709158317
56.810571428595
57.020373887097
57.111059850856
57.152322951494
57.163917441556
57.163060907996
57.158107254245
57.152297685388
57.147126709834
57.142934428879
57.139746074754
57.137521579554
57.136155780265
57.135648271082
57.13594098385
57.136948603122
57.138629451956
57.140858255317
57.143546753555
57.146585676896
57.14985051921
57.153223898538
57.157465977793
57.160741745814
57.163768165349
57.166423408438
57.168602255408
57.170232671723
57.171365732994
57.17190203158
57.171889859438
57.171432190039
57.170554153336
57.169269363212
57.167608719112
57.165589207456
57.163229480143
57.160572028357
57.157627531732
57.154416405043
57.150978179327
57.147350082582
57.143582663828
57.139747288832
57.135668149943
57.131538505401
57.127436641632
57.123364293625
57.119347731952
57.115447423966
57.11166711446
57.108145803301
57.104753024201
57.101068143993
57.101934360735
57.125542118802
57.349376921699
59.375075759034
53.627832624371
36.702102704734
30.673265999517
28.197523901458
27.285834670071
26.949090319399
26.979005194463
27.217339450613
27.608215767876
28.112926750606
28.696760666322
29.361293098019
30.10286815219
30.907997243943
31.756597361297
32.627064788537
33.502336641322
34.364441463133
35.199627275484
35.999316309798
36.758672602212
37.475482127171
38.148846214234
38.780580879932
39.372465711815
39.926763717002
40.445916794219
40.932680258704
41.389433582387
41.818637874349
42.222563920085
42.603239693192
42.962596754308
43.3023273139
43.624025119695
43.929069951413
44.218755010381
44.494240560785
44.756594292697
45.006758152113
45.245630869652
45.473989070935
45.692580670098
45.902039110912
46.102992461722
46.29596269917
46.481468620519
46.659956861194
46.83185944317
46.997567635285
47.157436257372
47.31180608707
47.460975410543
47.605236260904
47.744841342527
47.88004041925
48.011059363886
48.13810985144
48.261387226065
48.381072336819
48.497335200019
48.610335594368
48.720225480384
48.827144299013
48.931228208346
49.032597199013
49.131375490737
49.244441076262
50.200568829389
50.773363359194
51.185678957811
51.585605941481
51.981984869979
52.378647356432
52.781781509467
53.200008840516
53.644711863124
54.12989201633
54.668597333196
55.260911508829
55.871081576742
56.412664552362
56.796766093686
57.012103943778
57.10652568575
57.14982714311
57.162327171337
57.161686183871
57.156578177261
57.150423960369
57.144843450914
57.140244211737
57.136679793665
57.134127287015
57.132482183795
57.131743746775
57.131868698508
57.132776451702
57.134426162013
57.136692478971
57.139483158794
57.14268315448
57.146159588103
57.149769659028
57.154336586123
57.157904278986
57.161214060891
57.164129047167
57.166532684629
57.168338720085
57.169581689083
57.170178890628
57.170158597951
57.169630358178
57.168627218014
57.167169439572
57.165289083384
57.163013365784
57.160371553512
57.157394283131
57.15410583662
57.150538471038
57.146744828616
57.142778004131
57.138687567701
57.134549362254
57.130180745611
57.125801790058
57.121470856595
57.117180811089
57.112976408258
57.108922116564
57.105006443008
57.101353763236
57.097825074653
57.09397901489
57.094719029818
57.11816097045
57.343463554791
59.40027134652
26.703854722325
24.533886174229
24.766977099545
25.314929232496
25.856878325085
26.367660612708
26.876985625459
27.410345926702
27.948187166403
28.529349826403
29.146990787242
29.817791671139
30.539510504667
31.307576985115
32.112187866629
32.937547371936
33.768323269476
34.589729692929
35.390035303031
36.160288882954
36.894796687872
37.590735842272
38.247503433025
38.864973098367
39.444978432791
39.989454423381
40.500584479507
40.980438571834
41.431408297077
41.855765512569
42.255567056796
42.632703560638
42.98901091111
43.326130541833
43.645515004995
43.948567544763
44.236497643934
44.510440674427
44.771402257278
45.020351412153
45.258122704326
45.485502228843
45.703195860922
45.911858876826
46.112077266832
46.304382697384
46.489277573418
46.667207330362
46.838600684084
47.003830996205
47.163266689788
47.31723162331
47.466033425477
47.609951026634
47.749239860117
47.884145105942
48.014890212181
48.141686495251
48.264726280282
48.384190975881
48.5002501318
48.613062552314
48.722777534897
48.829535409516
48.933471300026
49.034703513032
49.133349138898
49.249915884327
50.219737289907
50.782660638048
51.193768775286
51.592772076444
51.987910273433
52.382966583606
52.784004201375
53.19944721632
53.640413589473
54.120662797286
54.653325597084
55.239466739567
55.845818061546
56.388919050905
56.779334059319
57.001549067743
57.100652087962
57.146614032056
57.160335302651
57.160031695438
57.154776635769
57.148225837236
57.14215237016
57.137056210335
57.133026731588
57.130054609443
57.128071503968
57.127038643386
57.126945454406
57.127718990083
57.129315601552
57.131614130036
57.134516848768
57.137903968647
57.141637087839
57.145545063359
57.150491698154
57.154429326774
57.158099398167
57.161347725687
57.164041418154
57.16607835296
57.167466238581
57.168146922091
57.168120861429
57.167510929802
57.166358238326
57.164688381814
57.16253920056
57.159946124298
57.156944576572
57.153568488558
57.149859598772
57.145865626782
57.141663278901
57.13730868819
57.13285415339
57.128387955534
57.123722312025
57.119099712126
57.114564457217
57.110097432469
57.105745363112
57.101570839922
57.097550868285
57.093807435482
57.090192089658
57.086245623946
57.086860470766
57.11003482806
57.336656664016
59.434620095585
26.010280684655
22.922040024493
24.121692124857
25.122172662998
25.94597440948
26.644539759122
27.246115752881
27.817261227371
28.380351276913
28.95346975648
29.554704887022
30.190281781943
30.86371607008
31.575456345282
32.321164528625
33.091209369981
33.87235018577
34.652399386864
35.418957141802
36.162869823722
36.877562235456
37.558998597468
38.205106061025
38.815686228335
39.390921634462
39.932208844248
40.441576197705
40.920837286578
41.371855112305
41.796672759337
42.197381079771
42.575760767478
42.933427284236
43.271989307436
43.592920475847
43.897543040205
44.187020582519
44.462503103143
44.724985947682
44.975405394541
45.214592434126
45.44334846485
45.662364192843
45.87229261281
46.073714818564
46.267182607778
46.453185988608
46.63217651534
46.804577234136
46.970773932053
47.131134235969
47.285981340427
47.43562505881
47.580346412149
47.720409072129
47.856054772714
47.987506333585
48.114976604935
48.23866245396
48.358748108652
48.475403105393
48.588787211258
48.699051466718
48.806337719015
48.910776827541
49.012496420074
49.111608919463
49.210312633674
50.003511868344
50.683410601936
51.103042279348
51.502395683415
51.89680456361
52.28961287901
52.686156506583
53.094032706
53.523345415445
53.986982803077
54.498828773475
55.065430902296
55.666874138409
56.235162879546
56.675113489861
56.944501186766
57.093291505389
57.142608398456
57.157925001717
57.158126396039
57.152763768842
57.145787977987
57.139151795745
57.133476555179
57.128896784468
57.125424360737
57.123030907222
57.121639632525
57.121271837908
57.121868273811
57.123381092034
57.125696532794
57.128712325627
57.132303975794
57.136328496971
57.140627663698
57.143537963329
57.148168825535
57.152506138301
57.156375850573
57.159616496679
57.16209556789
57.163767055811
57.164612312571
57.164588038212
57.163838792851
57.162417460452
57.160359232837
57.157710046154
57.154519901068
57.150842245288
57.146733632129
57.142279927443
57.137581650073
57.132718717191
57.1277628669
57.122814016903
57.117953611944
57.112983974218
57.108157074313
57.103494737047
57.098947228998
57.094547272233
57.090363464629
57.086349251949
57.082642828705
57.079008942114
57.075036634857
57.075454342941
57.09806715163
57.32667461123
59.50958378312
34.291176535832
28.758396519787
28.466750896251
28.488398368893
28.659195492817
28.918647458702
29.254176017561
29.663211813005
30.081227466622
30.544773108644
31.050158423949
31.587792703837
32.159702518392
32.766215464651
33.404030832765
34.066713023142
34.744467164165
35.427264253435
36.106038520314
36.771408775627
37.416564415841
38.037098232633
38.630271774036
39.194740587764
39.730349083693
40.237567213171
40.717221580775
41.170412390216
41.598864980256
42.004041948898
42.387460393915
42.750483852722
43.094625711025
43.421197110212
43.731427110697
44.026429625032
44.307315276687
44.575062079136
44.830574307942
45.07466587864
45.308123516655
45.531657231517
45.745910078888
45.951458654877
46.148856599986
46.338611467184
46.521185041255
46.697001417604
46.866454795658
47.029920993552
47.187734986245
47.340212884686
47.487639003943
47.630284970044
47.768399268329
47.902212626669
48.031941634794
48.157785518825
48.27993499393
48.398565745836
48.513843708205
48.625924346155
48.734954488067
48.841071355262
48.944405821061
49.045074476826
49.143148407945
49.284456452028
50.294611101408
50.821869208822
51.227968510484
51.622714662271
52.012581347452
52.401084401424
52.793715652023
53.198040660177
53.624074536195
54.084559072797
54.59277065853
55.153245841478
55.742102697534
56.288401266562
56.702829473619
56.953703513043
57.073307165975
57.131765548828
57.151684158452
57.15362444467
57.14832438044
57.14052986971
57.132633195876
57.125592594907
57.119677448525
57.114969240443
57.111486560948
57.109218961166
57.108106869772
57.108184838243
57.109399849474
57.111657921447
57.114852861315
57.118854384864
57.123505630575
57.128629408936
57.132057263189
57.137815637284
57.143304386561
57.148283427705
57.152523558058
57.155829765973
57.158074242996
57.159226146641
57.159251611061
57.158285678873
57.156407989658
57.153678054547
57.150163068781
57.145945511032
57.141135951095
57.135912739849
57.130426297799
57.124817262636
57.119253768427
57.1138128623
57.108629374148
57.103728399903
57.098909208753
57.09435292459
57.089909265533
57.085599876628
57.081465776053
57.077617375897
57.073929956283
57.070609703491
57.067384787151
57.064115958583
57.064111176269
57.08581139649
57.316301880537
59.678452701427
37.745780274188
32.599815345305
31.923909576825
31.618791667812
31.471124260567
31.423951334015
31.482240626984
31.62930760691
31.860098274519
32.164293332959
32.506202938544
32.901810641016
33.349733691998
33.838649945192
34.360546727743
34.912310593536
35.486284710841
36.073539675849
36.665745299732
37.255464671539
37.83546002428
38.399959798052
38.945224825984
39.468854553408
39.969551825893
40.446965470391
40.901191477456
41.332812825376
41.742749686033
42.131945895917
42.501544132985
42.852729256413
43.186577267017
43.504194337065
43.80653491247
44.094616296873
44.369402801682
44.631753748448
44.882456238264
45.122271365484
45.351928995724
45.572059581298
45.783255862213
45.986053908332
46.180985626534
46.368509790716
46.549062706636
46.723040530465
46.890825453476
47.052769004353
47.209190746074
47.3603884512
47.506639785221
47.648207568458
47.785326281137
47.918217538824
48.047088578473
48.172137349597
48.293549199911
48.411493938664
48.526131895025
48.63761443627
48.746084746635
48.851676554881
48.954514760276
49.054714989726
49.152338699776
49.328252794345
50.356834747516
50.857194750235
51.258825679606
51.649571954835
52.034746585706
52.417584669532
52.803057267715
53.197960676943
53.611343690176
54.055035794691
54.542210040853
55.079784145012
55.651035148648
56.19613050262
56.628704738676
56.904937331799
57.044416773799
57.115957041337
57.142950641449
57.148071021889
57.14354171582
57.135220011691
57.126056702135
57.117465519308
57.109951703505
57.103709573082
57.098823408585
57.09533896872
57.093242236936
57.092519889143
57.093193593368
57.095191471449
57.098414353452
57.102733798348
57.107984653492
57.113968099281
57.118124878427
57.125209554131
57.132112051828
57.138504045848
57.144058116135
57.148481312731
57.151558821192
57.153152733682
57.15329502323
57.15208607652
57.149656398051
57.146094937788
57.14151153574
57.136095835857
57.130117065617
57.123803080249
57.117485916566
57.111384516886
57.105736568336
57.100590111486
57.095786661469
57.091355598
57.0872569799
57.083581949029
57.080403004594
57.077684915319
57.075389700027
57.073546425507
57.072036962361
57.070996940486
57.070199694228
57.069799666242
57.070419218987
57.092340095446
57.317883940578
59.883085669183
40.270106500473
35.187960652734
34.397676102677
33.999783588989
33.743439930567
33.583148129803
33.493511341414
33.497279061104
33.581635095927
33.726337338329
33.949327120396
34.223374568412
34.53868848656
34.910666621667
35.326671404215
35.776673751128
36.253850810013
36.751984055439
37.262359653811
37.777681121252
38.291642703087
38.798791920942
39.294316311095
39.775055438763
40.238857713422
40.684435332743
41.111271673319
41.519313228771
41.908813930807
42.280302213246
42.634521121288
42.972265294949
43.294327439332
43.601569601014
43.894874545836
44.175015083974
44.442783624383
44.698860734621
44.943996876601
45.178872191503
45.40408778048
45.620227346163
45.827802711759
46.027355126146
46.219346329476
46.404209435309
46.5823377907
46.754112761958
46.919900711784
47.080018330988
47.234768784424
47.384426987365
47.529266054659
47.669535548516
47.805459186213
47.937246313126
48.065094321161
48.189196638249
48.309731232591
48.426863120214
48.540746474355
48.651526094356
48.759339934861
48.864316828983
48.966579514993
49.06623704641
49.163338565072
49.406412846248
50.426123838852
50.899346603657
51.295893728254
51.681889310928
52.061552305018
52.437828660516
52.815091495668
53.199256455908
53.598274655053
54.022891508071
54.485925413955
54.996373744045
55.544678323619
56.083582711406
56.533197495856
56.838689953885
57.003427700809
57.092956972079
57.130358702069
57.140787106416
57.138249507185
57.130105495686
57.119954249973
57.109794488298
57.100514369431
57.092487489526
57.085902185066
57.080866997049
57.077451320634
57.075632459099
57.075448251365
57.076894749829
57.079891381715
57.084322905109
57.090028759438
57.096806290907
57.101720417357
57.11024545222
57.118768125665
57.126858398151
57.134060525552
57.139941112365
57.144158404706
57.146437480614
57.146801855718
57.145353258653
57.142297048087
57.137779370418
57.132022603089
57.125399590537
57.118288120292
57.111254714787
57.104806202129
57.09908758345
57.093932275059
57.089671333366
57.086437674922
57.084522030864
57.083901998169
57.084649774511
57.086638895787
57.089718671297
57.093741472033
57.098613909178
57.104189403858
57.110509076519
57.117368262377
57.125168236756
57.13190913781
57.158802924823
57.366816141286
60.040455594039
42.511503514619
37.101807433425
36.2662722186
35.83089210845
35.540557689696
35.331896036059
35.188075732476
35.110878464317
35.103982661024
35.16010477994
35.270110500643
35.453300882426
35.684760421316
35.95173920748
36.268152611637
36.628111905641
37.021282565297
37.438110801566
37.873129885039
38.319768633619
38.771151309325
39.221959266861
39.668036763879
40.105315400633
40.531212383349
40.943898356131
41.342184750015
41.725409151299
42.093304556756
42.445944268504
42.783648422434
43.106869690525
43.4161767478
43.712184660093
43.995498247998
44.266748176325
44.526612599832
44.775701543269
45.01459879601
45.243892005449
45.464072214614
45.675676547523
45.879204183649
46.075085581851
46.26375424546
46.445580599984
46.620950576272
46.790223544657
46.953713507913
47.111727201064
47.264535706244
47.412413392492
47.5556138049
47.694366994994
47.828889559155
47.959378422795
48.086030878369
48.20902727631
48.328535273413
48.444713866258
48.557710696932
48.667668897599
48.774719887358
48.878985445137
48.980582884189
49.079623634521
49.176074568866
49.541951256186
50.500697750078
50.94834672906
51.339233556973
51.719741415207
52.093137785442
52.462060307459
52.830220667268
53.202592416655
53.585950075556
53.989815827313
54.426367884822
54.906126631985
55.426076876271
55.952016495814
56.41441999717
56.750944146481
56.946173526913
57.059370294795
57.111541858557
57.130263656295
57.131657912469
57.124846461507
57.114366074054
57.102902986189
57.091852240349
57.081888067761
57.073361448319
57.066482234207
57.061395953528
57.058174258179
57.056783566547
57.057332859809
57.059776113825
57.064022154303
57.069928552707
57.077301420234
57.082865149281
57.092800452327
57.103045609763
57.113056600963
57.122231021812
57.129951113104
57.135685532887
57.138999029476
57.139763787869
57.138122437882
57.134409614792
57.128867820678
57.121943689567
57.114186253147
57.106493293735
57.099644230083
57.093704858898
57.089028656486
57.086484715895
57.086698421849
57.090098916759
57.096998994329
57.107296482503
57.12105964115
57.138030085369
57.157830248703
57.180133919162
57.204463759342
57.230416952303
57.258167163047
57.286825028538
57.317988027504
57.346675908677
57.393296684343
57.568770320838
59.82636945699
44.849841572828
38.595099536166
37.752071951239
37.291549518173
36.989832333291
36.763768657581
36.600381835689
36.482887312618
36.422737141809
36.422577676702
36.468423520238
36.567788984987
36.732753726624
36.935840891923
37.171159083636
37.450390643311
37.768570514212
38.115489451629
38.483435085871
38.866758537317
39.26060473459
39.659136567486
40.057603474444
40.452663370483
40.841034672691
41.220536333026
41.58961975238
41.947277485054
42.292817020493
42.625841353388
42.946274886364
43.254269390443
43.550099623559
43.834133748008
44.106814083056
44.36862301507
44.620042088093
44.861533615801
45.093596067125
45.316746200138
45.531421470958
45.738057614447
45.937090730639
46.128880585618
46.313823384978
46.492295280044
46.664616472885
46.831105906055
46.992038465423
47.147699023771
47.29836078123
47.444258547912
47.585624762304
47.722675847092
47.855615934296
47.984648755302
48.109948729753
48.231686221161
48.350022651478
48.465108291558
48.577090855102
48.686104009334
48.792273953373
48.895718426443
48.996546382795
49.094865231552
49.190903284571
49.727833448027
50.578147854556
51.003985361504
51.388763128087
51.7631308158
52.129608797784
52.490504513879