/*--------------------------------*- C++ -*----------------------------------*\
| =========                 |                                                 |
| \\      /  F ield         | OpenFOAM: The Open Source CFD Toolbox           |
|  \\    /   O peration     | Version:  2312                                  |
|   \\  /    A nd           | Website:  www.openfoam.com                      |
|    \\/     M anipulation  |                                                 |
\*---------------------------------------------------------------------------*/
FoamFile
{
    version     2.0;
    format      ascii;
    arch        "LSB;label=32;scalar=64";
    class       volScalarField;
    location    "0.00011";
    object      dydt;
}
// * * * * * * * * * * * * * * * * * * * * * * * * * * * * * * * * * * * * * //

dimensions      [0 0 -1 0 0 0 0];

internalField   nonuniform List<scalar> 
109340
(
0
0
0
0
0
0
2.3265696063798e-07
0.0014824203566177
0.0092435769547077
0.027126959722025
0.05869158631581
0.10728385905864
0.17615980082667
0.26870254992119
0.38864279408617
0.54030517129584
0.72901051771842
0.96151365643183
1.2465951095665
1.5957317944114
2.0241367100443
2.5517083009185
3.2045371698681
4.0170266796492
5.0352861070606
6.3218784155467
7.9635020889343
10.08335478733
12.86223464888
16.576174010033
21.667153329266
28.884871723481
39.587002991222
56.398767919012
84.708028877734
136.19551931363
0
0
0
0
0
0
2.9141733507279e-05
0.0023259496434012
0.011659467538658
0.031958079227536
0.066743527489077
0.11933689849649
0.19301878167904
0.29124396469413
0.4178747506277
0.57750482732212
0.775733446435
1.0197520543372
1.3189560559356
1.6856828248999
2.1362094371646
2.6918247018342
3.3804602155014
4.2390516328516
5.3172346606652
6.6826944043107
8.4297297644459
10.693336454255
13.673507273049
17.679159144996
23.212486414057
31.143052835304
43.095749348998
62.348485807794
96.266278839444
161.53729515907
0
0
0
0
0
0
1.4110548671703e-05
0.0020543654481697
0.010967691195497
0.030808409220599
0.065157660705616
0.11738303639097
0.19080769717458
0.28891517642978
0.41556892392381
0.575294654563
0.77365892980676
1.0177882264995
1.3170364774062
1.6836945847304
2.1340433586947
2.6893345299471
3.3774544287436
4.2353000465785
5.3124538539724
6.6765703760703
8.421889823379
10.683325346152
13.660772045996
17.663312964448
23.194337294928
31.130685871707
43.143690440259
62.739167791382
98.335771133769
172.60498111615
0
0
0
0
0
0
6.053561698055e-06
0.00187295090887
0.010568549982053
0.030249259755694
0.06451290793936
0.11670344318481
0.19010904109216
0.28816994018098
0.41471786085963
0.57426075552577
0.77233904641098
1.0160593293128
1.3148134853283
1.6808718039678
2.130690848901
2.6855641894612
3.3734586757526
4.2314506291487
5.3092584448229
6.6748832433259
8.4230203404819
10.689272427951
13.674658789921
17.690489541448
23.244842389287
31.226997353217
43.376938404371
63.513202846011
101.74417071516
192.44393563935
0
0
0
0
0
0
3.7370760157251e-06
0.0017685807333045
0.010239403603727
0.02960603859993
0.063492118948439
0.11525982012372
0.18821730151237
0.28582728902126
0.41194741217706
0.57111461148666
0.76888495318119
1.0123717904334
1.3116479062563
1.6788471593227
2.1314183536539
2.6913669525522
3.387788761337
4.2595703816822
5.3586605469775
6.7565435607036
8.5528096827314
10.890219021647
13.980592966081
18.152428710982
23.945510954162
32.291863242774
45.086936059754
66.635830478532
109.59024622395
231.70070097887
0
0
0
0
0
0
8.4904510496198e-05
0.0033296431135157
0.015163268810952
0.039975376696926
0.081610954983937
0.14369850182461
0.2299243300013
0.34433465933647
0.49168790560634
0.67786520204517
0.91033649545706
1.1982898717934
1.5524666075352
1.9954991115827
2.5497521441528
3.2459308437892
4.1248805561999
5.2407803608355
6.6662702537135
8.5001234923536
10.879296106356
13.9986811543
18.145426007044
23.762315611998
31.582809665355
42.820023009345
60.042219992614
89.086601160967
148.00260773431
347.01202999788
231.64498410252
388.19281514326
601.85868196719
855.0372786817
1131.1884435076
1450.1423265433
1815.751358694
2231.1057768547
2693.213434226
3191.309860842
3742.0198508973
4201.3994176543
4640.8871908175
5009.2937499449
5283.7882499302
5473.2172756923
5580.6793022463
5620.503971462
5605.903893027
5545.843018625
5451.9652344621
5337.2179858895
5208.4662883948
5070.3784452195
4927.3851593508
4782.6842848342
4642.5437431331
4502.5435867293
4365.0338210092
4237.8265118801
4107.3105817751
3989.4810788236
3870.3332802662
3761.5935604844
3653.6288833088
3553.8918879766
3455.8614877062
3364.8922001071
3275.6152121851
3192.7692258972
3111.2702495077
3035.7380588863
2961.2367464482
2892.1185283482
2823.9953629302
2760.4661211729
2698.1689679065
2639.2307215294
2582.4633983932
2527.8892089033
2475.7518333872
2425.4927858099
2377.1907757516
2330.6909810992
2285.9209590548
2242.7852062949
2201.2086408131
2161.1076565573
2122.4077515145
2085.0391308173
2048.9393135221
2014.0478415626
1980.3050387208
1947.6530508884
1916.0442978206
1885.4277183288
1855.7604905293
1825.3473128937
1871.2232229026
1406.655033762
1276.5144110164
1183.0166907558
1094.5492745067
1009.4446423552
926.85427041124
845.77477051602
765.15604211324
684.42743629908
604.13345524692
526.04947564489
452.94141939753
388.8896534375
339.03384712777
305.75284727645
284.54649437889
275.31659387578
271.21812760001
269.87535032155
269.79292145413
270.15503874061
270.58190203152
270.93045007136
271.14940291692
271.21557940782
271.17093352079
270.9856321398
270.66535657987
270.21120462948
269.6371571669
268.94107128567
268.13381656646
267.22102554549
266.21337642307
265.11883792417
263.62557553117
262.37778994315
261.0936719279
259.79180673395
258.4957141315
257.22085821887
255.96791156883
254.77294638671
253.65145206009
252.57393508327
251.56100218074
250.62762813097
249.76441529299
248.99051656318
248.3253867983
247.7353381319
247.22731489648
246.81457526461
246.49993655092
246.28601956882
246.16956575189
246.12175495161
246.17366161529
246.3610656718
246.59122688026
246.82460486318
247.1149041308
247.43854007085
247.79406526515
248.07381737409
248.35329129426
248.53780356909
249.30611542995
254.86226076967
306.24638826252
1518.3088707267
291.64799620248
497.71036956485
755.08448109775
1034.3449077348
1353.3055541342
1704.605560344
2100.0027944633
2535.2264475283
3001.7238087039
3487.8606568938
3973.4771769798
4446.8860446266
4821.9958762879
5133.7990535029
5371.0875980575
5524.1252790375
5605.5453414476
5624.0806645695
5590.9672496306
5518.9703147688
5418.4183600792
5298.0060751701
5165.2742738198
5025.7519795244
4883.1084742311
4739.9682134618
4598.631749183
4460.5711308224
4326.2364417295
4196.7532060068
4072.1768145136
3952.501271116
3838.1741562238
3728.6442067201
3624.263474626
3524.3780142993
3429.2715530776
3338.2791649917
3251.593683904
3168.6546246501
3089.5588309089
3013.8361409986
2941.5245868785
2872.272127072
2806.0051198632
2742.5293384688
2681.670952963
2623.3481706539
2567.3291889779
2513.5743096628
2461.9121131605
2412.2725460697
2364.5101930295
2318.5364991756
2274.2551469461
2231.5826745531
2190.4389813684
2150.7461705895
2112.4331929283
2075.4320385837
2039.6789280207
2005.113701702
1971.6805053877
1939.3296799349
1908.0051249183
1877.6626374433
1848.2493494709
1822.1374154931
1716.3403143124
1362.4439675918
1252.0700109627
1160.345172175
1072.8828957549
988.60351703034
906.62471111685
825.90754965304
745.45180345571
664.90393280812
585.11624982611
508.09676603282
436.86720588821
375.85928014134
329.99938237703
300.40945553258
284.90565361475
275.60146431045
271.4421811368
270.05987190546
269.95388523616
270.30189051247
270.71973701799
271.06126821922
271.27485345249
271.3377418989
271.28575282532
271.09499812215
270.76953813069
270.31171266124
269.73211363305
269.03192909155
268.22031958931
267.30340488844
266.29191396463
265.19395856207
263.69742680374
262.4473214217
261.1611917809
259.85757543463
258.55990110503
257.2842135682
256.03057167225
254.8352404753
253.71282430091
252.63754997378
251.62578034859
250.69127552562
249.82810568994
249.05715908199
248.38829666971
247.79320690501
247.28672282517
246.87362822936
246.55620560661
246.33740241906
246.2138424879
246.15794821006
246.2123317047
246.39552721743
246.61157357339
246.84169317817
247.12991646084
247.44535384493
247.79044942087
248.05854618578
248.32720399245
248.49272609651
249.2801589344
254.82514336049
306.61120899127
1531.2013990901
344.00381848617
629.26495464662
935.21752517868
1271.5862677829
1649.311774986
2047.393546267
2464.0269612804
2898.7186848544
3342.8365904049
3809.0324305618
4207.7206950693
4593.212055941
4929.0730684173
5200.1540194208
5404.0792860452
5539.1444136658
5608.3443758317
5617.6564633353
5579.7302405327
5506.6958329053
5406.0546787734
5285.8003739941
5153.8341407818
5015.0436594925
4872.8720844333
4730.5431279697
4590.0842975227
4452.5910396303
4319.1009646664
4190.0701810627
4066.1590619513
3947.0713572233
3833.1233051363
3724.104553999
3619.9788522556
3520.5559476002
3425.6314954516
3335.0084222956
3248.4927777773
3165.8473888701
3086.9038275697
3011.4173074996
2939.2631765979
2870.175597487
2804.0739829138
2740.7068623127
2680.0108133346
2621.7612959407
2565.8909718
2512.225239786
2460.6673459301
2411.0954881934
2363.4086382426
2317.5106928965
2273.2977699288
2230.6885022502
2189.5996311766
2149.9581191128
2111.6929844691
2074.7368232605
2039.0250228663
2004.4984818106
1971.1003720893
1938.7807926733
1907.4897583545
1877.175655335
1847.7938114532
1822.1011635921
1710.228208923
1360.8989721102
1251.1344289286
1159.5803499893
1072.2923566957
988.21287574968
906.46330061084
826.00313443074
745.82539538975
665.56103745151
586.03667376279
509.23087655275
438.12587313818
377.09436358401
331.04845474663
301.20844632377
285.44136983404
275.99161596387
271.73671331261
270.30025116698
270.17087060828
270.51503707085
270.93938579753
271.28823898624
271.51162912347
271.58486186045
271.53690503884
271.35312473093
271.02977421896
270.57805371704
269.99505695866
269.29227713337
268.47590996721
267.55291314889
266.5345180017
265.42944415515
263.92373809011
262.66543551415
261.37124118474
260.0599230009
258.75477658384
257.47312991303
256.2154111659
255.01715899822
253.88845061096
252.81556935303
251.80763798718
250.8742212368
250.0167828261
249.24359528291
248.56082017189
247.96302183029
247.45270980809
247.03092494242
246.70191645052
246.46881046314
246.32763672117
246.25585750837
246.31371705111
246.46426680859
246.6496738682
246.87387143977
247.14483817541
247.43684998133
247.75217730581
248.00016269541
248.24468307256
248.36956661008
249.15946050196
254.62983352798
307.31775751266
1570.2800540024
465.71252764746
923.07628777723
1349.7230443681
1814.2743405297
2237.6088164653
2667.2696932939
3070.2314706216
3459.0383041245
3837.2230897106
4213.0203131084
4501.4936512803
4797.5274717804
5067.2366128718
5287.8883686675
5458.2038085582
5565.7942424564
5615.207041962
5614.7606888031
5571.146428939
5492.910973719
5390.4427348472
5271.524464659
5139.8642412795
5001.4007143693
4860.4939302333
4719.2373710491
4579.4087039267
4442.8009028581
4310.2045632243
4181.9795262531
4058.6231555815
3940.3296768331
3826.8756213108
3718.4326709827
3614.7284793322
3515.7463284744
3421.1566730847
3330.9139150409
3244.6678605261
3162.3309951647
3083.6134356517
3008.3956284403
2936.4163960481
2867.5565537905
2801.6098492921
2738.4322402519
2677.8704411191
2619.7744044945
2564.0311059319
2510.4846891208
2459.0425020157
2409.5676489853
2361.9765530921
2316.1609024792
2272.0323970999
2229.4996553323
2188.4818078717
2148.9057471639
2110.70046324
2073.7997172511
2038.1401304733
2003.6622760835
1970.3101422961
1938.0306743995
1906.7807612314
1876.5040970233
1847.1562773136
1822.2120959857
1701.09395047
1358.7641866678
1249.7920775322
1158.4798752873
1071.4417625788
987.64929543206
906.22813188333
826.13650699138
746.35847994089
666.50312628535
587.36016892038
510.86441006991
439.94252903718
378.88371561281
332.57589787145
302.37624477114
286.25152087412
276.58249810859
272.18393862373
270.66701170816
270.50348742506
270.84119662976
271.2730185915
271.63378917623
271.86811899117
271.95782860676
271.91643296391
271.73719173491
271.41654426734
270.96660352862
270.37981558906
269.67290682569
268.8503836841
267.91889564996
266.89034791859
265.77448410381
264.25462653007
262.98295072063
261.67517822425
260.35073651254
259.03315906457
257.7418892332
256.47612581382
255.27070257619
254.13808249149
253.06640954467
252.05894902467
251.12474447034
250.26609289534
249.49012938293
248.80110139536
248.19227427995
247.66945800605
247.233334456
246.88642543977
246.63179632227
246.46684733141
246.37058268802
246.40503060408
246.52035558334
246.67770678098
246.87896693095
247.12191290906
247.37784854548
247.65888256134
247.86933867522
248.08281374665
248.15097053865
248.92405753258
254.35211576088
307.42383300172
1600.5949079727
886.05537187971
1720.0468927277
2405.7303915336
2958.6812762561
3329.8447558297
3655.9334540104
3921.7974747425
4161.2891488116
4380.6203363257
4588.7779047281
4810.262178461
5028.5929765102
5226.5845764708
5391.2884477174
5514.7787293052
5594.4466925924
5625.3039792183
5611.1761911683
5559.8684071823
5478.6979785755
5374.372142487
5253.4098131882
5123.1868339285
4986.1235006485
4845.9692999222
4705.5979551323
4567.2165797289
4431.593064814
4299.8469691075
4172.5957063371
4050.0367471575
3932.4067865537
3819.6673856397
3711.8015756968
3608.6418757152
3510.0899566108
3415.971700267
3326.0752952434
3240.2040584861
3158.1755112873
3079.7660919019
3004.802663437
2933.0788153692
2864.4484115762
2798.7058528706
2735.7276424071
2675.335648703
2617.4155929757
2561.8130852619
2508.4136843034
2457.0953660925
2407.744581775
2360.2617050851
2314.5433110007
2270.5074565486
2228.0623946568
2187.1287692852
2147.6292076935
2109.4940228741
2072.6583605196
2037.0604182379
2002.6401736077
1969.3415948451
1937.1102346673
1905.9059290066
1875.6730366326
1846.3666619557
1822.3777802293
1689.4828346923
1356.0191514425
1248.0546183745
1157.0496732134
1070.3356599355
986.91510619323
905.91887870938
826.3038870783
747.04379849273
667.72034098519
589.07580215802
512.98841697763
442.31277396308
381.23029500305
334.59117721839
303.92568971057
287.35345219895
277.38981137957
272.79551275995
271.16674223482
270.95367466631
271.28028565125
271.72038468025
272.09612137158
272.34575386796
272.45307551599
272.4209822667
272.24775706098
271.93046840792
271.48166258325
270.89141208347
270.17796093436
269.34540568109
268.40101063961
267.35777310085
266.22723185677
264.68929899525
263.40005423674
262.07488270703
260.73380927307
259.40037523637
258.09474719088
256.81770089673
255.60216165966
254.46272959996
253.38814417776
252.38043329567
251.44527475862
250.58476164603
249.80204742291
249.09815078613
248.47223871769
247.92738929293
247.46609709715
247.09129102169
246.8051959152
246.6041750137
246.46741629237
246.46465386015
246.53521737789
246.64824251395
246.80922570936
247.00943035411
247.21623238255
247.44663201487
247.60438619785
247.77405966303
247.7624973677
248.51365670008
253.87919265087
307.19142204138
1632.9806671651
4224.0333462247
5007.8822751018
5052.330436617
4920.2589839705
4825.8503800795
4791.6981323149
4799.5035645737
4826.0478171054
4907.292593799
5004.9274776327
5131.3272658937
5260.7648840095
5386.2959538676
5495.840763367
5576.4215324419
5622.7430134045
5632.1972649596
5605.5159010394
5546.3767366317
5460.725867348
5354.8243486022
5234.3120336525
5103.2918951595
4967.5848387429
4829.0455403818
4690.1497735723
4552.6712105294
4418.5530849308
4288.0681966808
4161.8011081181
4040.1649079174
3923.4226463578
3811.458878455
3704.2215664171
3601.7224568048
3503.7050535855
3410.0623820702
3320.5914216308
3235.1492400147
3153.4645737296
3075.3906887302
3000.7204780496
2929.290999128
2860.9009541012
2795.4008235004
2732.6350946418
2672.4509038297
2614.7111571622
2559.2766664218
2506.0370537813
2454.8630796845
2405.6505672315
2358.2884862067
2312.6850536922
2268.7524744686
2226.4058396791
2185.564307288
2146.150061843
2108.095357468
2071.3350918065
2035.8070066784
2001.4517203611
1968.2130414676
1936.0377969343
1904.8849453856
1874.7008177542
1845.4406002125
1822.7237238009
1675.509641584
1352.677633132
1245.9344578884
1155.2963288159
1068.9774383073
986.01102484762
905.5327532217
826.49874126855
747.87162916071
669.20102237632
591.17144589491
515.59185020289
445.23015079594
384.13636823121
337.10645407742
305.8730538286
288.76132197713
278.42255182316
273.57828450662
271.80431690291
271.52468917439
271.83381367908
272.28142965026
272.67400985167
272.94166042628
273.06742423078
273.0462502349
272.87866871072
272.56347053322
272.11354240505
271.51743230352
270.79424072116
269.94901130262
268.98886879624
267.92673828279
266.77570869459
265.21758236989
263.90426932784
262.55487210723
261.19026673313
259.83485638807
258.50953372101
257.21748887205
255.98767560094
254.83854971079
253.75846683436
252.74685773769
251.80650990618
250.93878877038
250.14403697519
249.42086652726
248.76963696623
248.19332677422
247.69452829336
247.2800396119
246.94857858007
246.69582923038
246.50314496213
246.44499279553
246.45169504054
246.5024940953
246.60375511273
246.74289666453
246.88443335476
247.0499487458
247.13964229166
247.25106605712
247.13679316824
247.84811164578
253.09266298842
306.51326615431
1675.3973293182
17936.147222565
10798.166839105
8406.1646209151
7118.1844721702
6338.20448073
5873.8393368237
5625.7902007043
5483.383973963
5417.2948870852
5404.4529291556
5424.1076057135
5468.3781799915
5524.6854324556
5581.0315167309
5625.1348825186
5646.9988427956
5642.6317650814
5609.1826756663
5548.2680624996
5463.6881902269
5360.0848588468
5242.1201034092
5114.480377976
4980.0671309441
4843.3325384622
4706.3587877107
4570.1345227102
4436.3150677237
4306.2015976752
4180.3360340952
4058.6980367355
3941.6108501253
3829.3824250158
3721.8631004182
3618.899080429
3520.38866672
3426.2906067466
3336.3249003803
3250.3477689404
3168.1603981197
3089.6081259432
3014.4495960368
2942.5383878233
2873.693243367
2807.7656608058
2744.5737325965
2683.9817839575
2625.849525249
2570.0479928696
2516.4500492721
2464.9317310408
2415.3884091476
2367.7136769519
2321.8128833925
2277.5893523921
2234.9613385022
2193.851660587
2154.1850963336
2115.8888767413
2078.8947418398
2043.14157474
2008.5712178891
1975.1278887025
1942.759049355
1911.4132276396
1881.0433968083
1851.6003582242
1821.1221863696
1813.4721427083
1387.2929052799
1267.0002983068
1175.3144204843
1088.4853346323
1005.2688617035
924.84863114001
846.22113549805
768.29931956524
690.39429007887
612.82014212526
537.0557134286
465.52521758085
401.77244947615
350.53182045998
314.83681775821
290.49492799372
279.69759384503
274.54556706531
272.58892648834
272.2218594502
272.50403069303
272.9567211889
273.36667904512
273.65418304328
273.79832122896
273.78919617066
273.62686094732
273.31234574567
272.85874319625
272.25445882627
271.51822424493
270.65622645844
269.67591161677
268.59025687538
267.41208707121
266.14907950229
264.78999664019
263.39643121781
261.98924369344
260.59283009293
259.22973200117
257.90779803889
256.65133491966
255.4812765255
254.38661606727
253.36402772773
252.41068988604
251.5226386764
250.69612478542
249.9275484483
249.21659875008
248.57285296286
248.00183817756
247.50366140412
247.07528029348
246.71320088336
246.40407923889
246.22501280193
246.09841395411
246.01850453216
245.99018191701
246.00110876453
246.01147419961
246.04773912238
246.00550525636
245.99744020445
245.70871118995
246.3038482329
251.27043585251
304.67863981471
1764.2087824023
11144.729933386
12573.574840061
10533.114755306
9123.9147459246
8130.8829284795
7416.1719878534
6891.122652752
6488.1899570166
6249.3639953462
6067.748966117
5933.8857964856
5848.4534989257
5792.8205814103
5754.3753242379
5721.2991680132
5682.5759726338
5632.1368697724
5566.567313685
5484.0507593625
5385.9506472836
5275.0666628952
5154.3552233967
5026.8445787535
4895.3577090831
4761.9502627083
4628.2437360721
4496.2979785297
4367.3941961122
4241.5714302264
4119.5770241136
4001.716932033
3888.4806133799
3779.5907181052
3675.1210841478
3575.0100938301
3479.274345691
3387.6206803756
3299.9302832637
3216.0330854952
3135.8129618415
3059.0425200395
2985.546936966
2915.1614461355
2847.7536256557
2783.149880625
2721.1945582493
2661.7501576157
2604.692109754
2549.8968667369
2497.2322545171
2446.5904899313
2397.8636966003
2350.9591815967
2305.7789804337
2262.2346253279
2220.2443509168
2179.7325005145
2140.6303933209
2102.8679327662
2066.3804945801
2031.1063586251
1996.9883672896
1963.9734768809
1932.009857272
1901.0530071025
1871.0513223589
1841.9180357188
1828.7554788014
1620.1743066129
1339.8991839277
1237.3678289481
1148.1599513212
1063.4346442407
982.29102475006
903.88022898193
827.16503910847
751.08058842037
675.0612774414
599.56541300988
526.12172862923
457.16170013721
396.21867041093
347.79139322132
314.31042423225
295.02341603064
283.05068086834
277.09401788924
274.64334599484
274.02368689552
274.21124436913
274.65755752302
275.09805537241
275.42545969564
275.60442453616
275.61863827772
275.46327396019
275.14250010791
274.66965581372
274.03781518998
273.26245441049
272.35263599965
271.31691511766
270.16771468604
268.91891492785
267.63803307881
266.19776363944
264.72119673855
263.23240507136
261.75763461847
260.321759319
258.93681787173
257.62536095112
256.40601875857
255.26855013261
254.20285850003
253.19928431699
252.24575144737
251.33212057175
250.45396929173
249.62375545619
248.83766408452
248.09272751586
247.39113522379
246.73473050346
246.12267991316
245.55060733206
245.09538567908
244.67705992581
244.30940189994
243.99229239698
243.71649872035
243.43738649757
243.18965599818
242.86088173016
242.58366805809
242.01464059197
242.16214555528
246.47744297862
298.97357051597
1954.7584186181
8604.1468639919
10988.880119436
10274.573139589
9349.2830141087
8577.5734921979
7965.297563489
7465.2566737684
7060.3824509137
6714.3633702329
6444.7039502322
6250.5963664399
6086.1573444589
5954.4933248297
5848.8998996649
5763.1085778756
5684.1747164275
5603.7723961513
5517.7377080257
5423.1940324413
5318.9999528517
5205.959665964
5086.0574531596
4961.1707032703
4833.3276255539
4704.2913518859
4575.4333254771
4448.0432314783
4323.0028739662
4201.0152502565
4082.7760975972
3968.3880302154
3858.0179624843
3751.8123448464
3649.7152358644
3551.8857248187
3458.1044181266
3368.2293754924
3282.1185517569
3199.6925970957
3120.7655531144
3045.142001647
2972.683840338
2903.2507690228
2836.7097197467
2772.8740834937
2711.6256116268
2652.8235671127
2596.3597872939
2542.1008309308
2489.9272098567
2439.7334469964
2391.4213738816
2344.8993535885
2300.069037641
2256.8486439586
2215.1583812473
2174.9261582654
2136.0824615481
2098.5578299559
2062.2915384588
2027.2245163101
1993.3007161678
1960.466613948
1928.6687341424
1897.8602531762
1867.9982701179
1838.9949744566
1841.422643622
1575.1660063041
1329.3689249917
1229.8660719172
1141.9049385899
1058.5587354625
978.97397446255
902.31797480995
827.5707591522
753.66106051902
679.94156170896
606.68745266841
535.18801196524
467.60066465483
407.03943576567
357.66793143426
322.34495282626
301.14905004686
287.63883618777
280.59673679185
277.44875054365
276.44200226052
276.45547611695
276.85366236673
277.3070626493
277.66595103539
277.87273890427
277.90404220778
277.74774050337
277.40822564815
276.89742195486
276.21862957509
275.38294037472
274.40227414394
273.28726117537
272.05049621965
270.70752776653
269.36913518105
267.82414217798
266.24151180407
264.64779378719
263.07107634788
261.53904534959
260.06654159909
258.67536643561
257.37590963646
256.15989517114
255.01075452113
253.90971422242
252.83401908656
251.77159928607
250.72698033359
249.68107836024
248.63051552049
247.5772944731
246.52817300657
245.48371500086
244.45285703466
243.44039409982
242.5109303299
241.59841943152
240.72498390606
239.89671689415
239.11264302115
238.32770603166
237.5845354321
236.75466820791
236.00963110722
235.06057163144
234.24306506795
237.46335540116
286.15699210763
2154.2091070879
7490.4578771874
9240.5140980278
9363.1263477568
8880.2471646226
8348.0964500413
7882.4284089228
7478.549295003
7124.7058207442
6817.1625737758
6552.1716447992
6334.3044057872
6151.4453988331
6002.8404163359
5867.3098659255
5750.2433117258
5646.5375971623
5547.8564560084
5448.1364670822
5345.3813862489
5237.7078478253
5124.6204403234
5006.6830524112
4885.3566984372
4761.9178750976
4637.7308028338
4513.9429280315
4391.4694804316
4271.2013527929
4153.7745776458
4039.5808891114
3928.9221924969
3822.0177668666
3719.011391785
3619.8676988117
3524.5730953529
3433.033920433
3345.200362921
3261.0508527628
3180.3295976481
3102.9182896695
3028.6784453643
2957.4752881158
2889.2093354827
2823.6787883678
2760.7790085632
2700.3689320571
2642.3499872181
2586.5922204908
2532.9688932493
2481.3809422256
2431.7210778367
2383.9071790142
2337.8370109866
2293.4229925888
2250.5855951965
2209.2500153261
2169.3492183011
2130.8100449604
2093.5676508338
2057.5612939578
2022.7339334179
1989.0339196049
1956.4079330658
1924.8037774354
1894.1800811083
1864.4849627786
1835.5680904169
1864.0720535958
1526.2393922054
1317.3319613591
1220.9868351552
1134.5011505781
1052.7621255813
974.97206554659
900.32254781253
827.82299930845
756.41010552977
685.36083382847
614.75544036811
545.61435638723
479.79121379692
419.96153366154
369.83065911625
332.54631651103
309.13051396802
293.70729617126
285.26416023356
281.17502540974
279.60446235365
279.32812169634
279.60852593478
280.03707962259
280.40704639722
280.62834884395
280.6629058126
280.49407656717
280.12193638608
279.55420763053
278.80412132273
277.88309614284
276.80474131986
275.58236978341
274.22963717871
272.76475303548
271.33362688904
269.65680495523
267.94201847594
266.21898607892
264.51677676956
262.86458274408
261.27823492988
259.7750598768
258.35830899668
257.01922375159
255.73417469524
254.47091137228
253.20104100609
251.91418802652
250.57231697198
249.16052075614
247.67528328891
246.11880288372
244.5006594107
242.81548898277
241.0809827191
239.3260052344
237.5921981218
235.85192955205
234.13336527983
232.45292356498
230.82032982385
229.19463979364
227.63275196706
225.97957853014
224.41681925277
222.65817509241
220.51480653066
221.96302974266
261.71914714219
2163.2740675131
7027.1629963734
7912.6430084239
8359.2597060389
8233.4471138596
7903.4513674565
7567.5236547373
7255.7517942006
6974.0753399241
6713.1495095737
6481.2984961975
6275.7813648535
6102.49107391
5947.6539446489
5807.3189993462
5683.321945158
5567.967637035
5459.6671649018
5355.2106119553
5249.7761102295
5141.9671825834
5031.0559062811
4917.0545494171
4800.4449717108
4682.2506841037
4563.5526799415
4445.3093155322
4328.3045079873
4213.1777532971
4100.5283737462
3990.8230754456
3884.3459229086
3781.2697391106
3681.6925581283
3585.6815857116
3493.2734271607
3404.3986661782
3318.9525335234
3236.8864513461
3158.0537659204
3082.368841432
3009.74922939
2939.9987796154
2873.0073504768
2808.6580416194
2746.8150301457
2687.4068440205
2630.2811383817
2575.3307895536
2522.451197659
2471.5375100167
2422.5128089859
2375.2690829953
2329.7240839001
2285.7937425845
2243.4023156318
2202.4852966754
2162.9651379066
2124.7785404198
2087.8631078794
2052.1589129802
2017.6137657109
1984.1714118583
1951.7818885334
1920.4014456483
1889.9866454365
1860.4921195383
1831.6752094216
1896.4382778995
1478.7608096855
1304.0095826633
1210.750322371
1125.9667541566
1046.0465885185
970.25737486256
897.82524467862
827.80161419986
759.1480447763
691.07900552546
623.48042388177
557.09381104773
493.444839591
434.77597826861
384.25567206695
345.08574969821
319.23718797123
301.54979414628
291.36121686643
286.04692293967
283.68994776158
282.96617742234
283.02453013859
283.36312278935
283.70754088468
283.91981985979
283.93884647556
283.73952882272
283.31483965049
282.6722844844
281.82645796161
280.79286106131
279.58727597201
278.22613614066
276.72578082492
275.10786159064
273.5519413091
271.71295041007
269.83863548833
267.96009662142
266.10588194877
264.30549373361
262.57309769016
260.9200486002
259.34435945129
257.82981072403
256.34289727092
254.8353800482
253.2818273841
251.61437837407
249.79427289153
247.80052647815
245.62451357907
243.25718065673
240.71376003665
237.98082691942
235.11600626176
232.16616225548
229.15316507487
226.09433120511
223.04242639676
220.0046126687
217.00477104616
214.01495837989
211.12328220723
208.15807181135
205.30539581989
202.27348810807
198.62068794955
197.46866607434
221.13436847588
1404.9388100343
6946.1914490096
6946.5086786263
7447.5075161351
7559.8615632721
7401.7365196751
7171.3778672423
6938.2958659395
6717.9939982347
6507.3341668587
6312.4485991939
6135.4618267685
5977.4471640163
5824.9689012197
5689.3651676567
5569.2754880922
5457.7242120084
5350.4876967406
5244.1793852419
5139.8046692999
5034.5129314391
4927.4476410085
4818.436124593
4707.6423817057
4595.5444432556
4482.9443573392
4370.6980473486
4259.5279182751
4149.9681232055
4042.4841490371
3937.5271659752
3835.4244366858
3736.3816458627
3640.5226981516
3547.9063639349
3458.5599784898
3372.459064622
3289.5656879498
3209.823720847
3133.1307370764
3059.391409515
2988.4936501762
2920.3047718472
2854.7513989733
2791.7376948466
2731.1119874716
2672.7828919225
2616.6453885003
2562.5923634302
2510.5547515738
2460.4175646325
2412.0891074891
2365.4944380972
2320.5396468578
2277.1604810223
2235.2856673622
2194.8349763376
2155.7500534651
2117.9630308747
2081.4187996512
2046.0634414462
2011.8383358985
1978.6943194368
1946.5885742123
1915.473046315
1885.3093245274
1856.0556885161
1827.4265545484
1914.528256855
1435.7112767386
1289.5570611316
1199.2349846259
1116.33267281
1038.4178252997
964.80418388388
894.75910480542
827.38635058994
761.68869421451
696.83878346374
632.54145314442
569.26385106021
508.19250228942
451.16017229833
400.77623360039
360.03998648021
331.70392071139
311.48044362679
299.19709775359
292.33893149782
288.93120801395
287.55542171831
287.24602018137
287.39720393369
287.65277159787
287.81760514708
287.79395180624
287.53819399791
287.0392847628
286.30025936803