/*--------------------------------*- C++ -*----------------------------------*\
| =========                 |                                                 |
| \\      /  F ield         | OpenFOAM: The Open Source CFD Toolbox           |
|  \\    /   O peration     | Version:  2312                                  |
|   \\  /    A nd           | Website:  www.openfoam.com                      |
|    \\/     M anipulation  |                                                 |
\*---------------------------------------------------------------------------*/
FoamFile
{
    version     2.0;
    format      ascii;
    arch        "LSB;label=32;scalar=64";
    class       volScalarField;
    location    "0.00011";
    object      k;
}
// * * * * * * * * * * * * * * * * * * * * * * * * * * * * * * * * * * * * * //

dimensions      [0 2 -2 0 0 0 0];

internalField   nonuniform List<scalar> 
109340
(
6.9112495655574
6.9076167030283
6.9092669873339
6.9121013691602
6.9124491616614
6.9087872928594
6.9005859000402
6.8883843410669
6.8730152396085
6.8541860075131
6.8320302675483
6.8067572740892
6.7785764155983
6.7476869544994
6.7142770599534
6.6785283911695
6.6406178300338
6.6007177771119
6.5589974955799
6.5156216076065
6.4707480949376
6.4245257370216
6.3770924586999
6.3285734748877
6.279078966974
6.2287006423533
6.1775063732332
6.12553305767
6.0727765502233
6.0191750535224
5.9645805427325
5.9087044395366
5.8509982388935
5.7903446764052
5.7241514916943
5.6458690804618
6.9066944456537
6.9055650293659
6.9069093496111
6.9070616831803
6.9038793995261
6.896720651186
6.8854598906453
6.8697723676162
6.8499153598055
6.826299453287
6.7991852593252
6.7688060038169
6.735396833413
6.6991918298448
6.6604224748705
6.6193158125176
6.5760955494484
6.5309825278235
6.4841949344077
6.4359460341584
6.38644046143
6.3358686072475
6.284403191134
6.2321967093074
6.179378384498
6.1260493225896
6.072277776751
6.0180926971398
5.9634718842296
5.90832401022
5.8524543376063
5.7954978339783
5.7367665300322
5.6748428047694
5.6064434718862
5.5232567805492
6.9013027913979
6.9015226099369
6.9016557501063
6.8987934389455
6.8914803489361
6.8791723316927
6.8616618590221
6.8390680098954
6.8116491939529
6.779788662336
6.7438731695482
6.7042700799716
6.661344526396
6.6154617429987
6.566985134646
6.5162746317024
6.4636844967096
6.4095692718798
6.3542847155394
6.2981699610177
6.2415392129946
6.1846619597547
6.1277688975307
6.071054230685
6.0146580663995
5.958674924231
5.9031641861571
5.8481205208538
5.7934905793557
5.7391450856565
5.6848382093083
5.6301549903842
5.5743165729945
5.5157202334722
5.4506423784098
5.3691221727618
6.8902128939391
6.8957353405064
6.8941778584948
6.8848289984976
6.8675118573365
6.8422757155259
6.8094269173607
6.7694288538575
6.7229071476135
6.6706256024098
6.6134277064317
6.5521847583717
6.4877693101534
6.4210337677486
6.352817670607
6.2839352535754
6.2151787955571
6.1474929079915
6.0815885884411
6.0180782482248
5.9574325799617
5.8999239705171
5.8456512878929
5.7946218385671
5.7467835604748
5.7020356310979
5.6601098857891
5.6209183463303
5.5843032903321
5.5500672667948
5.5178944616
5.4872506409577
5.4570695799277
5.424951645965
5.384646995434
5.3169688993906
6.877840428962
6.9049000685929
6.9118824543243
6.8985689700472
6.8643441842747
6.8106968828642
6.7408379191331
6.6588525112603
6.5691722648981
6.4762021787613
6.3840002969328
6.2964338650592
6.2168454553981
6.1482313111165
6.0933384302966
6.0547599412326
6.0350474012468
6.0374619079852
6.0623096432706
6.1069790454103
6.1678222806146
6.2417859482714
6.3264841714933
6.4200945876183
6.521199981952
6.6286641344458
6.7415266762443
6.858941071502
6.980948669369
7.1067714541195
7.234609668409
7.3620998216608
7.4859189133244
7.5989846048659
7.6814106486893
7.659982035055
8.3381342560054
12.371064386684
15.809818487427
18.427541419969
20.233588307505
21.358892123298
21.966760155381
22.206300364638
22.194199068643
22.025500121948
21.75515136176
21.425783682558
21.066380894598
20.696270603982
20.32825710709
19.971309077734
19.631159659045
19.311559062514
19.016114996869
18.748423037417
18.503976140188
18.279871549838
18.074630037937
17.88744094274
17.717743018946
17.565111523758
17.429261638738
17.310088765042
17.207733577402
17.122686639018
17.056031383078
17.009970200937
16.987860330448
16.997492279214
17.047204124696
17.128105228031
5.5420001871535
5.4024540305869
5.2257137590562
5.0119859906562
4.7625086684039
4.4761564309276
4.1573780693603
3.8133990842901
3.4540904747103
3.0952612995983
2.7503038488743
2.4666899817444
2.2206399993636
1.9928951356266
1.7853442033044
1.5973164234116
1.4305440220197
1.2842403009624
1.1567632099001
1.0464742387274
0.95104901759003
0.86782055198403
0.79532853042237
0.73230212578
0.67730615421372
0.62907698247351
0.58549367007941
0.54793458395699
0.51400278673231
0.48233995808323
0.45620313812258
0.43026720104702
0.40897552819346
0.38756108492975
0.36974931359155
0.35179138818466
0.33672807016976
0.32145551440431
0.30866910274056
0.29559977982721
0.28468706971478
0.27343336216722
0.26398160788577
0.2542883317284
0.24590056162407
0.23763385484391
0.22997992782532
0.22288025747285
0.21594906464171
0.20968441055526
0.20355468757491
0.19783349053332
0.19239855836495
0.18723977266607
0.18232483146528
0.17764609600373
0.17318753093594
0.16894342531527
0.16490363168332
0.1610568923597
0.15738729637419
0.15388027526217
0.15052258761958
0.14730237461235
0.14420939316245
0.14123521769556
0.13837398449603
1.3689423870577
3448.4592982947
3136.6888123014
2066.4251006889
1432.585559184
1038.1093784614
778.17095138889
597.90366624601
467.6201116707
370.5771397003
296.68633206095
239.19376003064
193.0690253193
154.82634404638
123.33717044609
99.180605243822
81.947630467571
68.390035609782
59.885202564353
53.806930619211
49.69184402807
47.00030749941
45.220963395247
43.974984448012
43.017092097285
42.195033033911
41.42067597527
40.630185726125
39.783468496687
38.857058078433
37.839539868935
36.727510231709
35.530131109045
34.26183117232
32.940452578436
31.58553383367
30.21591322748
28.521620191553
27.208949294149
25.955383415376
24.787205554629
23.722089684444
22.773044516085
21.948492953866
21.24901599087
20.673471997682
20.218200186373
19.869168300846
19.615912679949
19.449989148146
19.361908921448
19.333339687207
19.346195309529
19.38590087781
19.439043659485
19.491879830919
19.52883750197
19.539551208898
19.52947737355
19.48613294758
19.400705870212
19.292360737537
19.1631709661
19.007737347777
18.826948528537
18.633447915407
18.434818182346
18.21969163831
18.035805228856
17.810323395283
17.670140639389
17.096205691533
17.292338267826
5.4081667025587
5.2479779576625
5.0372922334401
4.7824172231506
4.4859689264877
4.1551481648267
3.7987114554068
3.4283547356185
3.0554645441512
2.6911500994899
2.3468834300459
2.031253229439
1.7611390955553
1.5291781086205
1.3352621832432
1.1777772653319
1.0513897211141
0.95061078681297
0.86688459773276
0.7964985821542
0.73654052335056
0.68476692241986
0.63956733821443
0.59956110835043
0.56372129673106
0.53143816196086
0.50212290599863
0.47508627460229
0.45035157981677
0.42753882444404
0.40667935055901
0.3875545903098
0.36986586922472
0.35356973669511
0.33837659979872
0.32433263184785
0.31118359964965
0.29901986549391
0.28763551656326
0.27707845217776
0.2671923904676
0.25797374779117
0.24931727036057
0.24117400140856
0.2335160003345
0.22626486530003
0.21945652754364
0.21299950752394
0.20693730644432
0.20117736124166
0.19572596666514
0.19052507203229
0.18557295742889
0.18084876006399
0.17633764169956
0.17203046940628
0.16791849943376
0.16399542992996
0.16025162569655
0.15667675067716
0.15325876390442
0.14998558436369
0.14684453036821
0.1438240521611
0.1409152239045
0.1381140609834
0.13513680001347
30.293126278711
4035.4049686462
2810.850823344
1873.3647905109
1314.4974932157
961.77264762685
726.20232098592
560.94815728175
440.46072844384
350.14526983822
281.0180754845
226.87167527513
183.0394756847
146.54979564385
116.85771521644
94.549586797562
78.738683380089
68.525171181006
59.999540287675
53.915074455464
49.797832933276
47.106995457859
45.33123422248
44.090641031061
43.138865655941
42.322557090268
41.553022053051
40.766892768699
39.923037027481
38.998310103339
37.98107238337
36.868905358535
35.669720424329
34.398228732786
33.072702844903
31.713197866769
30.338837256771
28.637921858392
27.31985484178
26.061190881009
24.888238611647
23.8186877983
22.865502698726
22.037250882097
21.334495404178
20.755928518509
20.297417420245
19.946529579953
19.69271356908
19.526550445574
19.436774206769
19.406952524889
19.419818385475
19.458155861689
19.509376169852
19.560070220747
19.594598950951
19.601780012942
19.587934506671
19.540885165107
19.457719618652
19.348088379464
19.214045440081
19.054010236064
18.87017861382
18.671930941573
18.466837898136
18.245784954202
18.05244109302
17.830083274392
17.663496363109
17.044860711343
17.274251822891
5.2490072799817
5.0707415644417
4.8354989074891
4.5546346474403
4.2388540242364
3.9006760701012
3.5503383276374
3.1974182286566
2.8513085765304
2.5146697862157
2.2085340949145
1.9265742296222
1.6767904388959
1.4605505250339
1.2764931051774
1.1227227049461
0.99623573745382
0.89252227364322
0.80466827430741
0.7300973450737
0.66700566685922
0.61359118889035
0.56809881006129
0.52915698682546
0.49561486563535
0.46642471704875
0.44074212836499
0.4179216661326
0.39743054250677
0.37898572006672
0.36222502142571
0.34705472749635
0.3331250851594
0.32024417631341
0.30821857814518
0.29693564576027
0.28629395477604
0.27628468777623
0.26686630769522
0.25803261277602
0.24971039446146
0.24189251553084
0.23448302827895
0.22749618031259
0.22083528115635
0.21453851381827
0.20854063840138
0.20287210616201
0.19748406939967
0.19236933538256
0.18749572728528
0.18283797567154
0.17837878207855
0.17409977815174
0.17000092017755
0.16607357330812
0.16231441555889
0.15871739469982
0.1552755985035
0.15198069680328
0.14882322438809
0.14579240677498
0.1428769361788
0.14006693295407
0.13735483018963
0.13473681058327
0.13195685360643
33.337552211821
4042.142137391
2803.4807868641
1867.8249947912
1310.7925520297
959.45304665805
724.81408303374
560.17173827756
440.08592198207
350.03734048851
281.09738369504
227.09722474661
183.39135496478
147.00355497273
117.35853993962
95.038227767519
79.193731883382
68.898307051342
60.338992523561
54.225216340344
50.083880801612
47.377509927779
45.595917911057
44.356865602295
43.4110532885
42.602655799874
41.841086725151
41.063200886201
40.225597353787
39.305247432069
38.290075061044
37.17884653054
35.977395396554
34.70083430243
33.367982521068
31.999782173313
30.616036560754
28.900990189641
27.570625716158
26.299883545782
25.115309469834
24.034822885126
23.07145967547
22.234234884291
21.523880722878
20.939020083071
20.474667146615
20.120471226174
19.865825006231
19.700015583387
19.60955188659
19.579381372341
19.593911757688
19.632902069973
19.683930181547
19.733622689501
19.765992748046
19.768110085268
19.748689354738
19.698818436139
19.617523040474
19.502027660342
19.359529810172
19.19144268517
19.000878397132
18.792750328036
18.576443341252
18.344073717032
18.136006467676
17.912700585015
17.688927255042
17.062610364778
17.359725248142
5.1664268806574
4.9053833417059
4.5645027996613
4.1964131090255
3.8471614573548
3.5104156739708
3.1892033029867
2.8818682743109
2.5887342397435
2.3074211141397
2.0541147775341
1.8144694079409
1.5952633204038
1.4014227192397
1.2318393696263
1.0873285014281
0.96665263751725
0.86553986328613
0.77883412124058
0.70465426179916
0.64088937343624
0.58591701201469
0.53888801701844
0.49849053497948
0.46354872041822
0.43329251902908
0.40701629156999
0.38397585640834
0.36361233435629
0.34556243832521
0.32948048815905
0.31505994463526
0.30209414981846
0.29028813192944
0.2795050532073
0.26955267167276
0.26037427824655
0.25183716063863
0.24392630841016
0.23653427912689
0.22965164821915
0.22317817990331
0.2170758337065
0.21126874534398
0.20572071834364
0.20041267824236
0.19533612179104
0.19050543150053
0.18588951328336
0.18149331241328
0.17727521994458
0.17323258927945
0.16933787035111
0.16558545650829
0.16197077666722
0.15849280039025
0.15515153617347
0.15194357712825
0.14886496218235
0.1459089560717
0.14306764219719
0.14033177425796
0.13769233319367
0.13514127232076
0.13267211919786
0.13028101669839
0.12774780655521
38.189442300003
4044.3482402244
2791.0338110766
1859.3666849318
1305.3351484223
956.08566874339
722.80763668937
559.04948688599
439.54344890335
349.88175324912
281.21410806891
227.42672801446
183.90515058663
147.66662909902
118.09251883958
95.756812571975
79.865904722067
69.479253162825
60.8751251896
54.714326686142
50.530378448646
47.794598032087
45.999247386749
44.758677704998
43.818752410641
43.020175589158
42.269442419859
41.502355227368
40.673705569693
39.759512977754
38.747205382001
37.635859422682
36.430416777281
35.145812733759
33.801192307538
32.418607401146
31.019567737733
29.281670970195
27.931245133028
26.640898538799
25.437403778461
24.339084822064
23.359257207769
22.507346194606
21.784320871608
21.188761490467
20.715452661489
20.354948415857
20.096584090334
19.928789951206
19.837270811194
19.807020275733
19.822430068861
19.861857971435
19.912496487081
19.960415345968
19.989616007078
19.98766266142
19.962087482029
19.905222139081
19.818803384523
19.695558513046
19.542957964416
19.36357141208
19.161916789974
18.941598170831
18.712517146745
18.46660165318
18.242136198118
18.000161240436
17.747514992305
17.099640332837
17.414032135999
7.0956229028043
5.8888630577617
4.7947631945174
4.0407590530543
3.4949966581361
3.0598971104285
2.7473405534186
2.5198380182067
2.3136585993036
2.104492170224
1.8969168963643
1.697334030549
1.5124950250521
1.3439104573102
1.1926823291377
1.0597165879975
0.94561837884057
0.84713114324613
0.76203292929382
0.68877179219437
0.62577306660669
0.57152412142175
0.52438858012562
0.4835993778613
0.4481633170076
0.41723861473101
0.39010709517045
0.36631246150532
0.34533572029038
0.32674319115887
0.31024568331971
0.29554205577334
0.28238802868451
0.2705426282247
0.25982701818521
0.25006800599387
0.24114429673401
0.23296528557268
0.2254534143212
0.21852605510533
0.21212931373082
0.20618886952211
0.20065575547263
0.19545420171952
0.19055536632468
0.18591135115566
0.18151965513731
0.17735471880797
0.17340686331786
0.16965408621039
0.16606317274699
0.16261467837889
0.1592848429476
0.15606510971476
0.15294405993235
0.14992727434695
0.14701681621714
0.14421423425151
0.14151691348631
0.13891913586384
0.13641442809605
0.13399527837578
0.13165431751449
0.12938437435786
0.12718012861965
0.12503866582736
0.12278351194527
45.782954286127
4046.4016671044
2773.6171081196
1847.8309995964
1298.1026430742
951.68066475363
720.18967627938
557.58083631933
438.82863080316
349.67224762655
281.361248216
227.8522234618
184.57145137966
148.52907693024
119.0511026196
96.698481620698
80.747760067049
70.259585068518
61.59792689758
55.373838849498
51.129651420865
48.350312729951
46.532419884974
45.28629187586
44.351348221058
43.563737158904
42.825694218928
42.071063780186
41.252754982966
40.345419006666
39.335610268436
38.221972176832
37.009578569473
35.712834339234
34.35075106927
32.946422857796
31.524938556741
29.754404221925
28.374992594818
27.056664456767
25.826164402776
24.702270645421
23.698868350556
22.825706065791
22.083937398379
21.472203595689
20.985091604699
20.613406050321
20.346514225084
20.172216508156
20.076359949288
20.043810682704
20.057281135058
20.094810344104
20.143015540787
20.186773480738
20.210301596217
20.203540250132
20.170860748589
20.104491915511
20.007952540783
19.8739979449
19.709180865493
19.516209842959
19.300370342674
19.065636211419
18.821748192744
18.561182643874
18.320076379248
18.058361552926
17.7823270961
17.103369386315
17.417417311062
11.405412188979
7.5816046315232
5.800621216265
4.570429523997
3.7244052446862
3.1224369057284
2.6741259716814
2.3455479748379
2.0837759898665
1.8985312423251
1.7519421538199
1.5984164180236
1.4406328425345
1.290278319247
1.1549359638681
1.0347367154854
0.92784371273998
0.83303173171253
0.7499924165451
0.67786139433421
0.61545008047223
0.56151542696995
0.5149763513144
0.47438778258242
0.43898625846138
0.40797312148473
0.38070836579767
0.35654132917671
0.33516406552229
0.31618320516579
0.29926756547075
0.28413566116464
0.27058736124409
0.25841611663942
0.24740496652397
0.23743243399493
0.22835837644626
0.22009242691081
0.21253219372542
0.20562194287502
0.19927383521908
0.19342956839404
0.18802059612169
0.18299506853311
0.17829721243495
0.17388738075845
0.16974921799899
0.16586039058642
0.16220704064421
0.15875461982611
0.15548317139992
0.1523650233587
0.14938214186346
0.14651850749993
0.14376243990068
0.1411107873407
0.13856014145848
0.13610965823916
0.13375533475737
0.1314897824303
0.12930517951916
0.12719293620796
0.12514352614647
0.12314900476975
0.12120635007877
0.11931434469342
0.11735347927756
58.381484465365
4049.028966885
2751.0670970177
1833.1471000702
1289.1261761668
946.26862069813
716.9746050584
555.76807018382
437.9375566928
349.40265372815
281.53178487072
228.36569426857
185.38087058722
149.58104146053
120.22599735631
97.857246495651
81.834284865666
71.233668164315
62.501561698738
56.198688312353
51.876792367851
49.038803290068
47.187988959389
45.930626500105
44.99847402856
44.221648853478
43.49703334888
42.755525788617
41.94793676413
41.047081171536
40.0383834854
38.919555648883
37.696177314629
36.381926557308
34.995525496125
33.560641236457
32.107608636185
30.294314613752
28.875742823788
27.520256545208
26.254031065365
25.096078796151
24.060796408091
23.158573489267
22.390741409411
21.755675286101
21.248217607077
20.859082926006
20.577341644516
20.390664978157
20.285378472553
20.245719170585
20.253339472494
20.285512400582
20.327788414607
20.363916102043
20.37882447519
20.365058424711
20.322752640861
20.244819101652
20.135617856539
19.988480747592
19.809511792523
19.60177216898
19.370733937461
19.120657236225
18.861107496945
18.585424226616
18.327665694087
18.04789165087
17.751610746116
17.036982896749
17.34030021782
6.3615728686411
6.8180408111457
5.1316802214088
4.3990901526435
3.7636333976477
3.2361036617881
2.8249696475952
2.4979717306845
2.1758844485126
1.9107388174033
1.7026107295178
1.5364865669442
1.4092054165346
1.2846294548526
1.1580602227053
1.0403243280771
0.93454862342871
0.84120874568863
0.75890277423624
0.68623656216305
0.62260837364379
0.56723621601685
0.51913498920149
0.47747479545343
0.4410456531816
0.4090368779946
0.38091640274962
0.3560670011035
0.333972074044
0.31424981869763
0.29665726239886
0.28090142868032
0.2667087534889
0.25391496277438
0.24236143578425
0.23189018355286
0.22235061817786
0.21367581515349
0.20576574328328
0.19854125063387
0.19191612683588
0.18584362857991
0.18025091452603
0.17508339290756
0.17028237979611
0.16581443798713
0.16164639559519
0.15775458903529
0.15411858717333
0.15071201913551
0.14751149899585
0.14448580487212
0.14161420372016
0.13887821292653
0.13626717964884
0.13377235111311
0.13138648093967
0.12910655759952
0.12692812613714
0.1248454778883
0.12285007399746
0.12093243856631
0.11908298361978
0.11729239549741
0.11555257830482
0.11385944401739
0.1122130675563
4.7058618744657
3957.296430266
3038.7653442076
1997.9317766122
1389.3264335754
1011.6343485763
762.27694466285
588.77533577214
462.91841098412
368.82757696354
296.98676536409
241.04482745043
196.2313503001
159.10439970365
128.28856185685
104.17917301048
86.651755933733
72.397260960916
63.582495001159
57.18577696448
52.768529490123
49.85548657774
47.959487491671
46.683286138331
45.750151683314
44.982564995038
44.270976903595
43.542352391068
42.744950144705
41.84935917962
40.839520201082
39.71205071391
38.472956528527
37.135139391877
35.717063564497
34.242363735733
32.741742872007
31.191828617161
29.6966788864
28.266331497141
26.926816694209
25.699032692377
24.598585977264
23.636248266676
22.813549819326
22.128045554902
21.575349063536
21.145795168266
20.829338829755
20.614954877957
20.487745438821
20.430218802423
20.422655428151
20.441850647602
20.469827087452
20.490010012063
20.488734039062
20.461069215699
20.401556810039
20.304917187779
20.17522630088
20.007107369946
19.805864870608
19.573542321678
19.316379182196
19.039330568046
18.751920770058
18.449765739919
18.161045287131
17.852797290474
17.525966367561
16.755400915234
17.033938223317
4.1627922391993
3.4207358475776
3.1699553780718
2.9327126789224
2.7939182743019
2.6375838156525
2.4577809143685
2.2849074111428
2.1144031563975
1.9400440356997
1.7386118875552
1.5052513376733
1.3299134779286
1.1870408834001
1.0734860933017
0.97725099231881
0.88376140732051
0.79827118196129
0.72181586966187
0.65465473224331
0.59604148406662
0.54469772997003
0.49949155727922
0.45965873143021
0.42462573987791
0.39381590545769
0.36657810419814
0.34237928530322
0.32094494792205
0.30183861308303
0.28472407743973
0.26925406045339
0.25528672535564
0.24262867492174
0.23112067684897
0.22060121287049
0.21100708493949
0.20224165234639
0.19422004576037
0.18684730264621
0.18007114764889
0.17383383096484
0.16808154002404
0.16275551433343
0.15781944185504
0.15323843441672
0.14898143074277
0.14502019967142
0.14133052680705
0.1378930481742
0.13467844258383
0.13166244831789
0.12881974291939
0.12613555421389
0.12359777893606
0.12119728654953
0.11892703316374
0.11677837151676
0.11474495922152
0.11281840422842
0.11099031633315
0.1092511314942
0.10759051301475
0.10599834787135
0.10446617326367
0.10299006428397
0.1018025951602
164.31252862121
4004.5668952885
2645.9690043183
1771.2921823144
1252.829998565
924.54191131595
703.97327617801
548.31621276179
434.17300150757
348.16485293239
282.10077551997
230.33837802308
188.55659303887
153.75610710808
124.94840564598
102.56574303588
86.271554674994
75.276682498543
66.262692622562
59.637750382056
54.978392473136
51.862170872131
49.831842182946
48.487448654521
47.534326952625
46.775381572201
46.084639673056
45.378364926253
44.597607808695
43.707198795665
42.686775434442
41.531081338559
40.245231919844
38.840667854464
37.335845185245
35.755243356122
34.132040630615
32.439007830409
30.794981368917
29.216520495921
27.733035976546
26.368104262192
25.138928953231
24.055668277445
23.122914330652
22.342975161029
21.706152872238
21.201737738389
20.819615597767
20.547368969618
20.370078252642
20.268286916351
20.219771643852
20.201455372963
20.190157069247
20.169700047656
20.129415467581
20.06019820968
19.959027179434
19.820209213399
19.646488627661
19.435307352197
19.190547917242
18.914348100988
18.613825693351
18.294451705881
17.965007970059
17.623166106121
17.288712649491
16.941953594747
16.576543898274
15.739515279372
15.962484826973
3.6630090925191
2.0363836405281
2.0918520265846
2.0236774924381
1.9988854209894
1.9808351901149
1.9665577395434
1.9210332055375
1.8706267071373
1.7916417081605
1.6966375513803
1.5733258626486
1.3933872226298
1.2037650207895
1.0624567514102
0.94832436451744
0.85546901419263
0.78017594609296
0.70920732775686
0.6447821543734
0.58744972262875
0.53697745506349
0.49274136191718
0.45393112591594
0.41969872208598
0.38933424005075
0.36228523906035
0.33817056492416
0.31667774876004
0.29745110405362
0.28022604035818
0.26475057220096
0.25077063073356
0.23810513257066
0.22653919557597
0.21597311176009
0.20631309541171
0.19746477764589
0.18932429234777
0.18182168925492
0.17490491621275
0.16851058014582
0.16258468133595
0.15707819181276
0.15196755716885
0.14721230172756
0.14278389782709
0.13864994208806
0.13479301935864
0.13119232404776
0.1278240611564
0.12466365983674
0.1216897568978
0.11888924382208
0.11624826237281
0.113758288062
0.11141038690712
0.10919708989094
0.10711064046412
0.10514086932554
0.103278775814
0.10151527667404
0.099841339281184
0.098248209389258
0.096727710033255
0.095274435800833
0.094687403971199
320.79219168606
3902.1833364814
2551.5300477489
1718.8242042906
1222.2161318822
906.03874428206
692.72403227517
541.71871829007
430.71652575319
346.90280240123
282.42724474171
231.89672737946
191.1613854509
157.24377798393
128.96826542404
106.64275498734
90.149570533742
78.859260126995
69.610954559093
62.717003221501
57.755989170194
54.364990651936
52.132830057254
50.668167505674
49.660219730006
48.888937186505
48.206880233576
47.515828039113
46.745744367362
45.853488208599
44.812891569611
43.616380401058
42.265486343774
40.770594056877
39.150278955696
37.430117413516
35.645129934344
33.743758730381
31.893403130896
30.106945695513
28.41764777737
26.856131772574
25.443151865052
24.194694671805
23.114871502918
22.196649326196
21.433415958479
20.814758758941
20.330634624147
19.968660458849
19.712911467312
19.540652180874
19.426371714557
19.343829498219
19.266570597591
19.178186184996
19.068803491891
18.93040856448
18.75963176224
18.552690313203
18.310441492777
18.03440927973
17.726611888145
17.390573351237
17.034045425422
16.663840220677
16.287029946863
15.903801756321
15.525490500085
15.141456651958
14.738163637486
13.866387128698
13.996516081696
3.4058996214774
1.5537812275055
1.4752158568137
1.4821951049299
1.4895047940338
1.5100682593737
1.5312674743459
1.5491566562697
1.5501924331312
1.5520019977168
1.5223719974011
1.4673887426891
1.3937607082933
1.2713061486719
1.1017650349465
0.96107950672677
0.85344381091609
0.76644828288401
0.69464237216145
0.63581918441582
0.58150726917522
0.53255259057587
0.48887775143337
0.45020932894181
0.41612617178066
0.38606048676623
0.35939786787463
0.33560500089708
0.31427847534338
0.29511789748132
0.27786815126692
0.26230107310083
0.24820110945057
0.23540343915129
0.22376760694275
0.21315977538333
0.20346775926297
0.19456159061269
0.18638476397571
0.17885674436771
0.17189912390178
0.16544993393316
0.15944577605701
0.15386778038653
0.14867231499087
0.14382931588614
0.13930083909634
0.13506343985067
0.13109994047687
0.1273850667218
0.12389982730187
0.12062002660478
0.11753235473194
0.11462172318174
0.11187545741031
0.10928373733418
0.10683751128156
0.10453101244116
0.1023548543942
0.10029970548698
0.098356291346395
0.096515746349983
0.094770707620799
0.093113411778153
0.091536086618777
0.090033388276555
0.092416225810735
687.8876092448
3776.9016362778
2448.4177635406
1659.774727756
1187.1445457835
884.57406770873
679.5049638234
533.82599823046
426.45288873865
345.20330157228
282.59896294071
233.51821350867
194.00497964818
161.13075558234
133.53556496408
111.36022481009
94.681926280548
83.094904546938
73.592143998757
66.411696234811
61.111222777272
57.384206895119
54.880124556332
53.232916399252
52.123597250224
51.309743430127
50.618756918602
49.933744384238
49.169394726884
48.271354782781
47.20666979479
45.962171188361
44.535180980602
42.9342917503
41.177408174787
39.290054490216
37.307208138465
35.15812398236
33.044208537079
30.986861874034
29.024524520199
27.194730236609
25.529550524259
24.050540821518
22.757999613248
21.649464011745
20.715755001078
19.944648898103
19.325427839411
18.844728303012
18.483385934312
18.214674653609
18.007395655587
17.828045187434
17.648959216704
17.455215691425
17.235760817535
16.981734328716
16.692217069872
16.367931347475
16.012399986031
15.633296274393
15.228977180984
14.811429254426
14.388442673349
13.966850786901
13.547062535955
13.1408723599
12.747024365784
12.359838153383
11.951023778404
11.157522525258
11.137499293296
3.5083186899675
1.3609174410187
1.1440653124302
1.138889049339
1.158172264675
1.1871626210441
1.2191189174508
1.2531332342248
1.2809903238632
1.298394469233
1.3193081456894
1.312919986448
1.276090253998
1.2302668102281
1.141287757127
1.015939915432
0.87778062842953
0.77545827042872
0.69512001171723
0.62959761796501
0.57463448584997
0.52852026692422
0.48643235885728
0.44853515264315
0.41465345004775
0.38451480174541
0.35774487964197
0.33392516685085
0.31266031800704
0.29361005633266
0.27647003406514
0.26095613275831
0.24685433187088
0.23401040665933
0.2222824297953
0.21155884071483
0.20175958022117
0.19278473046468
0.18454769426087
0.17696789668925
0.16995276243169
0.16345733191464
0.15743065925709
0.15182205638986
0.14659921234575
0.14171296247462
0.13714398048253
0.13286518456634
0.12884773386972
0.12507189492914
0.12151344299326
0.11816243404795
0.11500236681009
0.1120185985064
0.10919905897471
0.10653235683886
0.10401437376787
0.10163512461997
0.099384950427752
0.097254851309347
0.095235896708207
0.093322362817082
0.091506596384473
0.08978061104997
0.088137637016186
0.086572160366944
0.10918295521626
1480.1902427022
3607.6596452755
2333.3912280574
1593.7260547495
1147.6243824619
860.19206309003
664.33180468872
524.61754163633
421.32527833118
342.97814301962
282.5029459735
235.06920187292
196.93547613037
165.25132258726
138.49118130163
116.59057467621
99.771782957464
87.910615920492
78.154677495452
70.696499642622
65.051019768216
60.951548184139
58.115476161053
56.220388711074
54.954149760103
54.057146493319
53.332677212842
52.640154312732
51.877057909563
50.972794964012
49.88574683143
48.593923665099
47.0897370917
45.378475110772
43.475792218714
41.405563082542
39.200253280253
36.786645489316
34.360859905316
31.970710991444
29.662469581339
27.486217755847
25.484507197361
23.689054523172
22.116601381317
20.759292285779
19.605596027822
18.641669046312
17.855683405135
17.230155625962
16.741730176352
16.354582304314
16.023274607038
15.706554899901
15.379155196361
15.023847051725
14.623133582674
14.165375431511
13.678462519809
13.180457845793
12.6824633213
12.196590668881
11.732645016456
11.312174956014
10.910230709241
10.540305794726
10.179729723057
9.8538015108206
9.5316340112103
9.2445112833116
8.944865924042
8.4679602737106
8.3198706390098
4.1870925638216
1.2283877002341
0.98118570831704
0.91748100932717
0.93260514599058
0.96145502722512
0.99589253349433
1.0308025479478
1.0662668746734
1.0942468365176
1.1223740404576
1.1468523344938
1.1465678330536
1.1191292093753
1.0902080243277
1.0257121900757
0.92834508563451
0.80678909405065
0.71008860215929
0.63562393295961
0.57561296545458
0.52587130717373
0.48354122626935
0.44710483674686
0.4140751954577
0.38427558234659
0.35750835140379
0.33354517314325
0.31210505179402
0.2928864932326
0.27564590157957
0.26013799813269
0.24605848101437
0.23321278178873
0.22147961312811
0.21074758047699
0.20090664187282