/*--------------------------------*- C++ -*----------------------------------*\
| =========                 |                                                 |
| \\      /  F ield         | OpenFOAM: The Open Source CFD Toolbox           |
|  \\    /   O peration     | Version:  2312                                  |
|   \\  /    A nd           | Website:  www.openfoam.com                      |
|    \\/     M anipulation  |                                                 |
\*---------------------------------------------------------------------------*/
FoamFile
{
    version     2.0;
    format      ascii;
    arch        "LSB;label=32;scalar=64";
    class       volScalarField;
    location    "0.00011";
    object      nut;
}
// * * * * * * * * * * * * * * * * * * * * * * * * * * * * * * * * * * * * * //

dimensions      [0 2 -1 0 0 0 0];

internalField   nonuniform List<scalar> 
109340
(
0.00071893080445101
0.00049304488641425
0.00026607758936174
0.00022236142748854
0.00021540201254927
0.00021980951327736
0.00022800322916109
0.00024231832347726
0.00021119827905603
0.00018785496042306
0.00016938027723969
0.00015431047289858
0.0001417550512272
0.0001311220996942
0.00012199684909051
0.0001140778804984
0.00010714002329111
0.00010101131782346
9.5558009019916e-05
9.0674409954104e-05
8.6275852016476e-05
8.2293656857601e-05
7.8671484303865e-05
7.5362640719472e-05
7.2328070626306e-05
6.9534834635185e-05
6.6954934975138e-05
6.4564395923317e-05
6.2342527162329e-05
6.0271311227528e-05
5.8334863620116e-05
5.6518897104144e-05
5.4810031947032e-05
5.3194508194923e-05
5.1654663655946e-05
5.0160339551436e-05
0.00071057704973844
0.00034458245803172
0.00025243544765535
0.00023092564462548
0.00022937722699461
0.00023394822843183
0.00020946365231152
0.00018221178498796
0.00016103756034078
0.00014427432098438
0.00013070276358188
0.00011949768551675
0.00011009266295117
0.00010208802104648
9.5194036996372e-05
8.9195621338821e-05
8.3929761350461e-05
7.9270662297196e-05
7.511969427433e-05
7.1398384034409e-05
6.8043413302688e-05
6.5003056048002e-05
6.2234624163774e-05
5.9702607959915e-05
5.737726619791e-05
5.5233526833757e-05
5.3250126713068e-05
5.1408915518128e-05
4.969427603733e-05
4.8092647288651e-05
4.6592102554056e-05
4.5181940905972e-05
4.3852252826831e-05
4.2593382327964e-05
4.1395032397125e-05
4.024077420093e-05
0.00041733592463495
0.0002940930470759
0.00025349283345701
0.00023793721494426
0.00019034793663483
0.0001586931306194
0.00013573900199744
0.00011844026671366
0.00010499590968981
9.429172461067e-05
8.5593249457323e-05
7.8398612843848e-05
7.2356377521304e-05
6.7214694334382e-05
6.2789078424734e-05
5.894164686207e-05
5.5567442969365e-05
5.2585220577361e-05
4.9930922833616e-05
4.7552914029457e-05
4.5408939160683e-05
4.3464307365852e-05
4.1690615940699e-05
4.0064637181585e-05
3.8567215534599e-05
3.7182494630356e-05
3.5897311186532e-05
3.470050131593e-05
3.3582624517228e-05
3.2535545201855e-05
3.1552129281023e-05
3.0626087977661e-05
2.9751639582477e-05
2.8923984546848e-05
2.814141678928e-05
2.740573067195e-05
0.00023983575115681
0.00024226752806657
0.00015204571123792
0.00011068844227084
8.7073804132781e-05
7.1825078900363e-05
6.1197440614725e-05
5.3384212881893e-05
4.7410161973727e-05
4.2702949397342e-05
3.8904745369656e-05
3.5780124253734e-05
3.3167876772183e-05
3.0954056216482e-05
2.9056063385428e-05
2.7412673394597e-05
2.5977445938761e-05
2.4713994701856e-05
2.3589782698997e-05
2.2576944444869e-05
2.1654764957968e-05
2.0808588975883e-05
2.0027836256965e-05
1.9304686251145e-05
1.8633122952842e-05
1.8008298994901e-05
1.7425774569636e-05
1.6882344073998e-05
1.6375133264822e-05
1.5901602036479e-05
1.5459175913309e-05
1.5044088441357e-05
1.465040815286e-05
1.4273226036472e-05
1.3914169228418e-05
1.3586734645582e-05
0.00014443565158064
4.7216415509524e-05
2.8711170120061e-05
2.0821468333773e-05
1.6473857673193e-05
1.3744653843256e-05
1.1888151601215e-05
1.0554140696468e-05
9.5564086438727e-06
8.7877201473347e-06
8.1823999407339e-06
7.6987990842468e-06
7.30933535738e-06
6.9954311154144e-06
6.7444539157961e-06
6.5475616977206e-06
6.3969407580776e-06
6.2795303199297e-06
6.1738720215387e-06
6.0684527105811e-06
5.9622592633765e-06
5.8587318317933e-06
5.7615358133268e-06
5.673193342454e-06
5.5951094828831e-06
5.5279857340853e-06
5.4720037156767e-06
5.4270394979861e-06
5.3934645302921e-06
5.3710277025475e-06
5.3587626914398e-06
5.3558896013916e-06
5.3615815188813e-06
5.3743526605876e-06
5.3897742529143e-06
5.3997008530159e-06
3.6372105894738e-07
5.428864108125e-07
6.9850513752135e-07
8.1992575864404e-07
9.0671532050022e-07
9.6394833641885e-07
9.9835463394069e-07
1.0162362509992e-06
1.0226085654873e-06
1.0216329136277e-06
1.0157176309477e-06
1.0067608138334e-06
9.9606801927157e-07
9.8452076072947e-07
9.7271104882803e-07
9.6106058199996e-07
9.498441943119e-07
9.3924633448395e-07
9.2945584041192e-07
9.2070578832975e-07
9.127952680033e-07
9.0559451717614e-07
8.9903787559995e-07
8.9308794931802e-07
8.8771403827263e-07
8.8288476896924e-07
8.7856596964255e-07
8.747195576101e-07
8.7130005672037e-07
8.6824907944221e-07
8.6548796755544e-07
8.6288242545435e-07
8.6021672557363e-07
8.5698459806853e-07
8.5123795135369e-07
8.3339100522344e-07
4.5069160562893e-05
2.49412067349e-05
1.4079260700134e-05
9.2360427053879e-06
6.6998488611347e-06
5.0430356955271e-06
3.8768036107019e-06
3.0147341212826e-06
2.4306502829177e-06
2.1678720558352e-06
2.2130905311855e-06
2.7953763302185e-06
3.3016005913977e-06
3.7950374211997e-06
4.2238460428018e-06
4.5550508983446e-06
4.8531498601768e-06
5.0899138017453e-06
5.3015307069062e-06
5.5297802673066e-06
5.7250488657846e-06
5.8836937895232e-06
5.9034480004289e-06
5.6522846616465e-06
5.4237649833648e-06
5.2154492648541e-06
5.019896588413e-06
4.8455113165874e-06
4.683475909626e-06
4.5272286515629e-06
4.3949197791837e-06
4.2595349429306e-06
4.1457314620303e-06
4.0281256530762e-06
3.9282941591724e-06
3.8251808355121e-06
3.737107525739e-06
3.6457008411054e-06
3.5678853603658e-06
3.4864668816455e-06
3.4174129926314e-06
3.3445827252636e-06
3.2825412642796e-06
3.2176264794743e-06
3.1607225886526e-06
3.1036981322626e-06
3.0501727161351e-06
2.999853425626e-06
2.9499010745348e-06
2.9041739526312e-06
2.858738437627e-06
2.8157677167456e-06
2.7744528362253e-06
2.7348022591114e-06
2.6966095390645e-06
2.6598561157946e-06
2.6244387756687e-06
2.5903363775265e-06
2.5574942001308e-06
2.5258531808403e-06
2.4953183306276e-06
2.4658082790814e-06
2.4372522986394e-06
2.4095901622182e-06
2.3827719631063e-06
2.356758669875e-06
2.3315170173902e-06
1.0356203466905e-05
0.00040718008142781
0.00045996491877508
0.00040918841659536
0.00037010182789096
0.00033997875222479
0.00031554717781589
0.00029479767481743
0.00027682929947346
0.00026130415988157
0.00024788726888042
0.00023578413212908
0.00022401983980993
0.00021326306100415
0.00020778795136092
0.00021220841814713
0.0002232677347389
0.00023139831814824
0.00022878064623616
0.0002204563028999
0.0002112527355092
0.00020360495287581
0.00019776750559809
0.00019321555849859
0.00018940567501929
0.00018595037533958
0.00018260938867868
0.0001792041202376
0.00017562648084742
0.00017181864126261
0.00016775111804831
0.00016341392681917
0.00015882813821232
0.00015402916577778
0.00014906239631882
0.0001439788175255
0.0001388307604231
0.00013241916791695
0.00012738359282681
0.00012249312318995
0.00011783299134507
0.00011346806675836
0.0001094501415975
0.00010581561859306
0.00010258273925683
9.977206689566e-05
9.7359017992124e-05
9.532312344167e-05
9.3632645012344e-05
9.2254078895694e-05
9.1152792290927e-05
9.0273183135492e-05
8.9558224083625e-05
8.8951234047001e-05
8.8411972056421e-05
8.79056844436e-05
8.7384383853574e-05
8.6818332964163e-05
8.6234227091924e-05
8.5593553728773e-05
8.4874002636808e-05
8.4111042448226e-05
8.330532759435e-05
8.2458803401459e-05
8.1594576686647e-05
8.0721107571275e-05
7.9835095293234e-05
7.8904674903852e-05
7.8068764349756e-05
7.7130186658502e-05
7.6400649053541e-05
7.4529973124758e-05
7.4701368451618e-05
3.4826053351462e-05
1.9578699847646e-05
1.2148809681224e-05
8.6024429888251e-06
6.4091415734146e-06
4.8537859299786e-06
3.7434500961728e-06
2.9371000899217e-06
2.3525871388032e-06
1.9611436666592e-06
1.732332426198e-06
1.6820661569349e-06
1.7516427338476e-06
1.8881386772384e-06
2.0963505029362e-06
2.361746579265e-06
2.6790181857248e-06
3.0459176890013e-06
3.4273459527793e-06
3.8172867521642e-06
4.2141982325573e-06
4.6148754611162e-06
5.010543383698e-06
5.3999931864661e-06
5.2807642429964e-06
5.0758152184021e-06
4.8893932024365e-06
4.7181800665321e-06
4.5616250475929e-06
4.4172225795105e-06
4.2842680527786e-06
4.1612290863473e-06
4.0464683035835e-06
3.9398476498225e-06
3.8396854611437e-06
3.746254505483e-06
3.6579732099607e-06
3.5754360051228e-06
3.4973190364504e-06
3.423965552371e-06
3.3544219192732e-06
3.2887651089717e-06
3.2263902755764e-06
3.167046630484e-06
3.1106661022775e-06
3.056748102309e-06
3.005614066578e-06
2.9565787581443e-06
2.9100087537394e-06
2.8652406676797e-06
2.8224073831034e-06
2.7811309508465e-06
2.7414693939481e-06
2.7033075233355e-06
2.6665548959488e-06
2.6311541332725e-06
2.5970415898664e-06
2.5641748564968e-06
2.5324889209286e-06
2.5019208053524e-06
2.472398679261e-06
2.4438528023704e-06
2.416207170675e-06
2.3893954576012e-06
2.3633725063637e-06
2.3381301430608e-06
2.3106024503273e-06
4.1248521803932e-05
0.00047554096166747
0.00044608972597545
0.00039808453528467
0.00036166106706592
0.00033329301579341
0.00030997302999832
0.00029001963704078
0.00027272313460018
0.0002577992036547
0.00024483687882097
0.00023292308096412
0.00022125888092434
0.00021129419757411
0.00020797247038733
0.00021469201138871
0.00022587285685346
0.00023146893353461
0.0002289641702415
0.00022073185192863
0.00021157648571684
0.00020395132726149
0.00019813036280752
0.00019359562679205
0.00018980403175482
0.00018636625402114
0.00018304084832163
0.00017964984696457
0.00017608257141996
0.00017228195839602
0.00016821809318552
0.00016388332443089
0.00015929582026816
0.00015449172787752
0.00014951741752335
0.00014442512751939
0.00013926776333008
0.00013284241042059
0.00012779535248973
0.00012289382595866
0.00011822292975312
0.00011384740134619
0.00010981879812866
0.00010617378378378
0.00010293019666614
0.0001001086143871
9.7683407502159e-05
9.5638249342225e-05
9.3940844597779e-05
9.2555672968911e-05
9.144344684706e-05
9.0553292915686e-05
8.9830318089922e-05
8.9211280745746e-05
8.8658121633352e-05
8.8136693602185e-05
8.7599198671609e-05
8.7013864898929e-05
8.6412377668714e-05
8.575423965595e-05
8.5028736954846e-05
8.4252482688743e-05
8.3428488017416e-05
8.2563391741674e-05
8.1682493573498e-05
8.0791685187372e-05
7.9886472212227e-05
7.8937582325101e-05
7.8073389507151e-05
7.7141235087475e-05
7.6339782556238e-05
7.4350100642772e-05
7.4601826982234e-05
2.5490151999329e-05
1.3293588373022e-05
8.6029705572452e-06
6.2857333595985e-06
4.7125440898162e-06
3.7038284088792e-06
2.9588098654936e-06
2.4295485496146e-06
2.0641889682839e-06
1.8322470085673e-06
1.7416137788195e-06
1.7195140884411e-06
1.7792443929059e-06
1.8973314186793e-06
2.0565734064113e-06
2.2493668811388e-06
2.4771864211106e-06
2.7226471160748e-06
2.9599924106543e-06
3.2026802328483e-06
3.464401101584e-06
3.7331088317961e-06
4.008724059054e-06
4.3067061838611e-06
4.618599989643e-06
4.9371016114878e-06
4.8168527748677e-06
4.6455981959016e-06
4.4886450201146e-06
4.3451950788576e-06
4.2129505643065e-06
4.0911404179166e-06
3.9782862129186e-06
3.8736836485989e-06
3.776270515008e-06
3.6854970299396e-06
3.6002377245882e-06
3.5201356901942e-06
3.4446483739777e-06
3.373578455623e-06
3.3063277507596e-06
3.2428505825021e-06
3.1824287087401e-06
3.1251932843474e-06
3.0704444760551e-06
3.0184977827727e-06
2.9688138976982e-06
2.9215630056108e-06
2.8763272984046e-06
2.8330541276435e-06
2.7915368575147e-06
2.7516194080039e-06
2.7132051419688e-06
2.6761625403626e-06
2.6404972726153e-06
2.6061294104659e-06
2.573017625499e-06
2.5410990377686e-06
2.5103129947842e-06
2.4805985285631e-06
2.4518928409923e-06
2.4241249656661e-06
2.3972193875046e-06
2.3711149255107e-06
2.3457706407921e-06
2.3211721069178e-06
2.2950912107581e-06
4.2924056964383e-05
0.00047620090152511
0.00044567281915766
0.00039764713777426
0.00036132989722866
0.00033306636793406
0.00030983274175505
0.00028995640935714
0.00027272424575327
0.0002578534577527
0.00024494347064976
0.00023309277367147
0.0002214963026207
0.00021155505734047
0.00020815097669189
0.00021475212403179
0.00022598274354721
0.00023176002495192
0.00022952455010781
0.00022147508591542
0.00021239305533356
0.00020478451982984
0.0001989711582353
0.00019445185558711
0.00019068378116962
0.00018727369494252
0.00018397630250896
0.00018061325359893
0.00017706810800498
0.00017328421480563
0.00016923097082564
0.00016490351031479
0.00016031529865746
0.00015550352175948
0.00015051588077923
0.00014540685273555
0.00014023082217815
0.00013377528241767
0.00012870122536336
0.00012377263253023
0.00011907468665344
0.00011467227905825
0.00011061683806044
0.00010694586587689
0.00010367697012471
0.00010083137223245
9.8381550609286e-05
9.6316617503795e-05
9.4603755198409e-05
9.3204758841775e-05
9.2074442742871e-05
9.1165421797093e-05
9.0427018272722e-05
8.9788589757105e-05
8.9212816670409e-05
8.8665215765463e-05
8.809812291638e-05
8.7476419794808e-05
8.684164220227e-05
8.6155357685159e-05
8.5409708165043e-05
8.4600323425665e-05
8.3740376921796e-05
8.2838994381965e-05
8.1923062028118e-05
8.0997263801719e-05
8.0054910643333e-05
7.9069201249315e-05
7.815813498897e-05
7.7218333195953e-05
7.6267057713692e-05
7.4228746411173e-05
7.4629482054364e-05
1.3396018059851e-05
7.6694727300308e-06
5.1921849674402e-06
3.8339942237047e-06
3.0437183637432e-06
2.5665577560521e-06
2.2531896683743e-06
2.0593494443901e-06
1.9474577211366e-06
1.9164343449061e-06
1.8987949937778e-06
1.9112440210866e-06
1.9551053745223e-06
2.0348777582171e-06
2.154830691366e-06
2.3165925920806e-06
2.5029856150904e-06
2.7088420699793e-06
2.9162969947231e-06
3.110473791852e-06
3.2918507694865e-06
3.4878902509733e-06
3.6963891332884e-06
3.9049827107661e-06
4.1253256313714e-06
4.3694246925029e-06
4.6213680178325e-06
4.583602444905e-06
4.4278490049284e-06
4.2847477697308e-06
4.1530064493821e-06
4.0312039415629e-06
3.9185753301382e-06
3.8137800749951e-06
3.7164368619273e-06
3.62545137804e-06
3.5405927161017e-06
3.461024062139e-06
3.3866662069928e-06
3.3164861376984e-06
3.2507005364404e-06
3.1886943992502e-06
3.1302225690325e-06
3.0748381070643e-06
3.0222092732217e-06
2.9720322942962e-06
2.9241690548053e-06
2.8785937721289e-06
2.8349544626469e-06
2.7932632786833e-06
2.7531825044657e-06
2.7147186586666e-06
2.6776519012488e-06
2.6419325224944e-06
2.6075027110557e-06
2.5743212741271e-06
2.5423501128901e-06
2.511524316695e-06
2.4817886912641e-06
2.4530793012431e-06
2.4253320148309e-06
2.398475570666e-06
2.3724436960034e-06
2.3471808883921e-06
2.3226462753712e-06
2.2988155604352e-06
2.2737406336001e-06
4.5465591263685e-05
0.00047678787046455
0.00044502354651916
0.00039701438482913
0.00036085566771331
0.00033273828948716
0.00030962812414415
0.00028986346273928
0.00027272523468715
0.00025793264781057
0.0002450994179954
0.00023334061598131
0.00022184351220372
0.00021193937035447
0.00020842050746215
0.00021485049226415
0.0002261484105817
0.00023221136127254
0.00023039186290492
0.00022262030135325
0.00021364312486921
0.00020605031181831
0.00020023816121808
0.00019573292965826
0.00019199235000899
0.00018861798345585
0.00018535893158769
0.00018203317508252
0.00017851903476364
0.00017475807472585
0.00017071882182504
0.00016639725799737
0.00016180485966105
0.00015697849718938
0.0001519668016635
0.00014682717750822
0.00014161823679104
0.00013511013532545
0.00012998898563511
0.00012501364483456
0.00012026906344119
0.00011582050359294
0.00011171965562298
0.0001080045321059
0.00010469218700274
0.00010180538479894
9.9315958020152e-05
9.7215549508351e-05
9.5471182804818e-05
9.4042637918622e-05
9.2882589997335e-05
9.1944263746461e-05
9.1176724388725e-05
9.0506111824106e-05
8.9894518185165e-05
8.9305674781328e-05
8.8693264309254e-05
8.8026813459915e-05
8.7344116529249e-05
8.660902981974e-05
8.5819214905905e-05
8.4963443717882e-05
8.4055048929199e-05
8.3102738425006e-05
8.2137020860345e-05
8.1165722522924e-05
8.017683471806e-05
7.9144245290897e-05
7.8179005228596e-05
7.7179580845177e-05
7.6144860103981e-05
7.4034353525638e-05
7.4456787253546e-05
5.3692867375135e-06
4.353012350532e-06
3.637077557924e-06
3.2822079408019e-06
2.9856207640544e-06
2.6947163655697e-06
2.502693339827e-06
2.3958221439099e-06
2.3392566822294e-06
2.2493145763245e-06
2.2282996826777e-06
2.2333333678824e-06
2.2614632352634e-06
2.3183658057454e-06
2.393196510243e-06
2.4945152200497e-06
2.6373048976949e-06
2.7937733021395e-06
2.9517162789057e-06
3.117803614767e-06
3.2913625630561e-06
3.4530501292039e-06
3.6157223084991e-06
3.793682999439e-06
3.975446635781e-06
4.1577015817084e-06
4.3562399942437e-06
4.524470034705e-06
4.3722022076001e-06
4.2312471863927e-06
4.1009680479141e-06
3.9802618676913e-06
3.8682173884911e-06
3.7639070146987e-06
3.6667805983817e-06
3.5760781901574e-06
3.4912679316044e-06
3.411909746958e-06
3.3375662947717e-06
3.2677101529834e-06
3.2020823673503e-06
3.1402521082777e-06
3.081967062195e-06
3.0267008949768e-06
2.9743274450768e-06
2.9245672679422e-06
2.8774312059288e-06
2.8325760122366e-06
2.7898578943503e-06
2.7491862828854e-06
2.710300074488e-06
2.6730934360689e-06
2.6373958453928e-06
2.6030376150571e-06
2.5698703420494e-06
2.5378920006861e-06
2.5070684609666e-06
2.4773635641068e-06
2.4487157786428e-06
2.4210533347038e-06
2.3943113969334e-06
2.3684220691515e-06
2.3433228941517e-06
2.3189606073661e-06
2.2952946760456e-06
2.2723009011259e-06
2.2483884283038e-06
4.9160083263458e-05
0.00047765946718091
0.00044411906949183
0.00039617811781184
0.00036023875758356
0.00033230737609732
0.00030935713076881
0.00028973831418922
0.0002727236029828
0.00025803441486927
0.00024530194087199
0.0002336625613226
0.00022229488049333
0.00021244143508959
0.00020877631053675
0.00021497779826288
0.00022634360558557
0.00023278431443238
0.00023151940729661
0.00022412525096633
0.00021529056745377
0.000207714493982
0.00020189554092522
0.00019739990022884
0.00019368758758384
0.00019035387177545
0.00018713955535426
0.00018385718922103
0.00018037861580665
0.00017664294834317
0.00017261692026277
0.00016829561875479
0.00016369081451258
0.00015883823558946
0.00015378644893963
0.0001485957639418
0.00014333454904437
0.00013674525942194
0.00013155125717659
0.00012650490583375
0.00012168992011778
0.00011717177856472
0.00011300303770849
0.00010922172920081
0.00010584348290312
0.00010289360622176
0.00010034277746767
9.8184193905815e-05
9.6385023438332e-05
9.4903268938781e-05
9.369245534635e-05
9.2706157253859e-05
9.188939171336e-05
9.1167415152339e-05
9.0501506489119e-05
8.9852373298666e-05
8.917605975492e-05
8.8453590301716e-05
8.7709071352248e-05
8.6909471006895e-05
8.6057596285424e-05
8.5143145424317e-05
8.4175353751127e-05
8.3162649663782e-05
8.2138967818833e-05
8.1114896587639e-05
8.0072559374721e-05
7.8988509397376e-05
7.7967909345727e-05
7.6907333295294e-05
7.5802080595757e-05
7.3603135637369e-05
7.4003726186016e-05
2.4466690243165e-06
2.9485156205878e-06
3.6276861549715e-06
4.2894362503969e-06
5.0211962525012e-06
4.8870298489416e-06
4.1839799667676e-06
3.588526474367e-06
3.1703665765192e-06
2.9381024344751e-06
2.7934531995575e-06
2.7138858010682e-06
2.6841769803564e-06
2.6908012572193e-06
2.7275565017081e-06
2.787614733293e-06
2.8663294354357e-06
2.9611339721869e-06
3.0721122984509e-06
3.1955810279604e-06
3.3292239293495e-06
3.477442082772e-06
3.6274641270808e-06
3.7791156558648e-06
3.94241142449e-06
4.1066594980252e-06
4.2693886671319e-06
4.4416038010823e-06
4.3176799408971e-06
4.1805837705463e-06
4.0531153024381e-06
3.9344188522916e-06
3.8239316384499e-06
3.7209198486101e-06
3.6244980400318e-06
3.5343959746604e-06
3.4499900564392e-06
3.3709005253271e-06
3.2965599888587e-06
3.2267823712454e-06
3.1611018443589e-06
3.0992747400111e-06
3.0409096486595e-06
2.9857224353541e-06
2.9334009253453e-06
2.8837462003537e-06
2.8366923090756e-06
2.7920335809787e-06
2.7496229605228e-06
2.709156223197e-06
2.6705203244861e-06
2.6335457853921e-06
2.5981217264896e-06
2.5641340015925e-06
2.5314879210094e-06
2.500133248962e-06
2.4699721718115e-06
2.4409880890839e-06
2.4131402605342e-06
2.386334633229e-06
2.3605141063362e-06
2.33557408255e-06
2.3113983055244e-06
2.28790280636e-06
2.2650759319758e-06
2.2429128813601e-06
2.2204093942229e-06
5.4758537976814e-05
0.00047898201322316
0.00044292558148841
0.00039513238308417
0.00035947785531861
0.00033177211760406
0.00030901831581324
0.00028957881009362
0.00027271686185946
0.00025815633842556
0.00024554822961485
0.00023405448900408
0.00022284478445158
0.00021305600272015
0.00020921485882171
0.00021512552456587
0.00022654294353712
0.00023343803291462
0.00023285913742976
0.00022594676283475
0.00021729925703907
0.00020974326143685
0.00020390716692938
0.00019941238536805
0.00019572495963419
0.00019243274926493
0.00018926469129483
0.0001860290574356
0.00018258697654086
0.0001788752225187
0.00017485798848719
0.00017052814476677
0.0001658984946613
0.00016100319794027
0.00015589033489896
0.00015062190089812
0.0001452816837479
0.00013857848901991
0.00013327992654757
0.00012813394901662
0.00012322126322517
0.00011860632073038
0.00011434187971557
0.00011046701905822
0.00010699488872765
0.00010395307591655
0.00010131289317604
9.9068111980028e-05
9.7184695306683e-05
9.5620516888534e-05
9.433199388997e-05
9.3271701238428e-05
9.2382332111308e-05
9.1586938293954e-05
9.0844745688205e-05
9.0114149111865e-05
8.9355789447599e-05
8.8563121487856e-05
8.7742049296954e-05
8.6866116101759e-05
8.5941132627416e-05
8.4959285643587e-05
8.3925830753602e-05
8.2851306902436e-05
8.1771893301664e-05
8.0696363543226e-05
7.9601042694708e-05
7.8468172403476e-05
7.7396686451885e-05
7.6283034490566e-05
7.5117078870784e-05
7.2821728315264e-05
7.3174787320014e-05
9.8424867577331e-07
1.9088378018106e-06
2.2160348489345e-06
2.7775170067022e-06
3.3687812432586e-06
4.0318768117441e-06
4.843505180865e-06
5.6685855207689e-06
4.7943030135989e-06
4.1433970164352e-06
3.7125271192472e-06
3.4492761297257e-06
3.284146164132e-06
3.1881945680157e-06
3.1434696731643e-06
3.1327715446671e-06
3.1461867616314e-06
3.1838979814767e-06
3.2418403997375e-06
3.3159049044662e-06
3.4079951968555e-06
3.516001202193e-06
3.6405235244042e-06
3.7795773518971e-06
3.9088522478714e-06
4.0651649793983e-06
4.2223744662594e-06
4.3816484017239e-06
4.2984209511401e-06
4.1628318270509e-06
4.0366961880843e-06
3.9191326799749e-06
3.8090995565759e-06
3.7061486568058e-06
3.609793480103e-06
3.5194876898059e-06
3.4345485367475e-06
3.3548362926613e-06
3.2798482596124e-06
3.2092538412865e-06
3.1426488289072e-06
3.0799383653903e-06
3.0207206853948e-06
2.9647121936077e-06
2.911579752136e-06
2.8612104390142e-06
2.8134398910522e-06
2.7681169933207e-06
2.725077629431e-06
2.6841051823903e-06
2.6450516320845e-06
2.6077165121318e-06
2.5719947007434e-06
2.5377724556889e-06
2.5049784124406e-06
2.4735329634691e-06
2.4433465300749e-06
2.4143624373295e-06
2.3865176146262e-06
2.3597561542103e-06
2.3340063937487e-06
2.3091856591302e-06
2.2852146288537e-06
2.262020153955e-06
2.2395293323308e-06
2.2177106276787e-06
2.1966085197105e-06
1.8745245113767e-05
0.00045288693384369
0.0004553342353676
0.00040443798931158
0.00036651023903304
0.00033744271484645
0.00031388777088061
0.00029393428276724
0.00027665245863897
0.00026169593520745
0.00024880298379594
0.00023729451676395
0.00022621618521673
0.00021589153148394
0.00020991330818254
0.00021303705839178
0.00022382471086538
0.00023412878920118
0.00023435923934653
0.00022803768592973
0.00021963047100791
0.00021210145126334
0.00020623620320659
0.0002017292752364
0.00019805899913345
0.00019480554091268
0.00019168129923807
0.00018849241017746
0.00018508454860641
0.00018139254380539
0.00017737681923621
0.00017302737172429
0.00016835767494978
0.00016340015818308
0.00015820238786734
0.00015282642262181
0.00014735675039291
0.00014154502262179
0.00013603254836386
0.00013067335544725
0.00012554712933965
0.00012072249426935
0.00011625372781614
0.00011217845014801
0.00010850705697828
0.00010526474198471
0.00010242922581703
9.9993533035675e-05
9.7928335049614e-05
9.6197653472772e-05
9.4753549496252e-05
9.3543677784447e-05
9.2507970234062e-05
9.1572414968755e-05
9.0685440528543e-05
8.9807550239642e-05
8.8908616357583e-05
8.799349877109e-05
8.7045010998272e-05
8.604925002902e-05
8.501249766268e-05
8.3931569019256e-05
8.2804550671485e-05
8.1646105125671e-05
8.0491866548038e-05
7.9335814401738e-05
7.8155570030815e-05
7.6950568020651e-05
7.5797909524672e-05
7.4610420585184e-05
7.3363423520837e-05
7.0934886885583e-05
7.120443259703e-05
4.9065953480509e-07
1.2602972860458e-06
1.503362134215e-06
1.7746770994123e-06
2.1384987922281e-06
2.6204942378236e-06
3.1640272629655e-06
3.8125263007406e-06
4.5767618804679e-06
5.2696339525142e-06
5.7736291724814e-06
5.2496497630448e-06
4.7163971116583e-06
4.348923952072e-06
4.1054250828871e-06
3.9493436909475e-06
3.8413250543312e-06
3.7785032302447e-06
3.7515763756183e-06
3.7524517534545e-06
3.778026175872e-06
3.8247083410416e-06
3.8889678655056e-06
3.9709109295731e-06
4.0756271788524e-06
4.1964662279902e-06
4.3054697869096e-06
4.303323690807e-06
4.1651152022738e-06
4.0367228315037e-06
3.9177937251342e-06
3.8071034464374e-06
3.7041551297131e-06
3.6077209917144e-06
3.5170068250435e-06
3.4312751480913e-06
3.3505372111237e-06
3.2743801340367e-06
3.2024467762485e-06
3.1342886724112e-06
3.0698140184242e-06
3.008803271233e-06
2.9510038486202e-06
2.8960731649307e-06
2.8438682126964e-06
2.7942389656944e-06
2.7470459684661e-06
2.7021424976132e-06
2.659388699617e-06
2.6186828635024e-06
2.5798277619892e-06
2.5426918898156e-06
2.5071265678952e-06
2.4730702377246e-06
2.4404544872789e-06
2.4092091329748e-06
2.37926580172e-06
2.3505348071907e-06
2.3229637421895e-06
2.2964918926239e-06
2.2710644711278e-06
2.2466096904451e-06
2.2230437201287e-06
2.2002887868686e-06
2.1782878816891e-06
2.1570315971644e-06
2.1411472462922e-06
8.86773499969e-05
0.0004815442929319
0.00043714718204951
0.00039077068913108
0.00035633969492528
0.00032955890875921
0.0003076058974441
0.00028888469511819
0.00027264356689355
0.00025861571279444
0.00024651563848252
0.00023560094540733
0.00022502039771887
0.00021551707815454
0.00021100106597073
0.0002156263358506
0.00022690913669044
0.00023543408704787
0.00023760187001921
0.00023280812623558
0.00022508661484455
0.00021766066765685
0.00021170387089185
0.00020712183236608
0.00020344676386209
0.00020024556219655
0.0001971941686929
0.00019408488722595
0.00019073785080455
0.00018706860872887
0.0001830304704768
0.00017860706498526
0.00017380861451783
0.0001686634861154
0.00016321894877579
0.00015753927830386
0.00015171415706599
0.00014540945151255
0.00013944890931129
0.0001336360822478
0.00012806266463991
0.00012280242731883
0.00011791047158193
0.00011341716043838
0.00010934283610717
0.00010572795653228
0.00010254060360423
9.9767432937843e-05
9.7379556731246e-05
9.5334904950524e-05
9.3589048684051e-05
9.20851129898e-05
9.0758723540256e-05
8.9545659942614e-05
8.8376778200339e-05
8.7223486682613e-05
8.6074070032982e-05
8.4914551529661e-05
8.3746105151436e-05
8.2559422558503e-05
8.1354227099051e-05
8.0129802002245e-05
7.8872397692494e-05
7.7614399943681e-05
7.636871924672e-05
7.5094896507258e-05
7.3814866377925e-05
7.2526898239754e-05
7.1274792330009e-05
7.0008538913325e-05
6.8679000148886e-05
6.6113908780101e-05
6.6232456558612e-05
5.618522815595e-07
9.6265067195565e-07
1.1468143750118e-06
1.3104535113355e-06
1.5477215953991e-06
1.8505645792496e-06
2.2399094438437e-06
2.6997084579035e-06
3.2539182345403e-06
3.9037628622025e-06
4.5676959340773e-06
5.0859364402205e-06
5.4073170874013e-06
5.4890166223211e-06
5.2639216880769e-06
4.886267431588e-06
4.6367581887099e-06
4.4633417741497e-06
4.3439505977426e-06
4.2652821715882e-06
4.226409859808e-06
4.2167435058158e-06
4.231716327658e-06
4.2672170882375e-06
4.3221355902292e-06
4.3942071641843e-06
4.333455651109e-06
4.2029934588154e-06
4.0778731195634e-06
3.958205330415e-06
3.8444690461188e-06
3.7374206116569e-06
3.6366184858858e-06
3.5421111339568e-06
3.4531557892353e-06
3.3697392376061e-06
3.2918308912179e-06
3.2186694787294e-06
3.1493735608222e-06
3.083562920619e-06
3.0211084521553e-06
2.9617428577412e-06
2.905228951184e-06
2.8513330112184e-06
2.8000395431314e-06
2.7511255233195e-06
2.7044681597287e-06
2.6598904798143e-06
2.6173541266859e-06
2.5767565696261e-06
2.5379479778663e-06
2.5007721041615e-06
2.4651114237314e-06
2.4309267590628e-06
2.3981373672991e-06
2.3666888716312e-06
2.3365042442257e-06
2.3075258574023e-06
2.2797056190511e-06
2.2529771878733e-06
2.2272881431215e-06
2.202577492769e-06
2.1787792444151e-06
2.1558311230268e-06
2.1336793704689e-06
2.1122971987046e-06
2.1066945855211e-06
0.0001176725209091
0.00048067712207414
0.00043179281996624
0.00038694205466192
0.00035361208408125
0.0003276507577223
0.0003063742705154
0.00028824696403774
0.0002725321640764
0.00025896910521303
0.00024730883752182
0.00023688121968208
0.0002268320819153
0.00021760707083588
0.00021257073115416
0.00021598631592165
0.00022674254967
0.00023631949363275
0.00024072682848873
0.00023793794939219
0.00023126941299903
0.00022409369706478
0.00021803437464587
0.00021330818546028
0.00020956008834741
0.00020636261800709
0.00020335443488134
0.00020030418754334
0.00019700741755417
0.00019334484207275
0.00018926123394539
0.00018473040274204
0.00017975152042126
0.0001743480181047
0.00016856592525804
0.00016247140046517
0.00015615803982951
0.00014913118338998
0.00014253139781057
0.00013606023513821
0.00012982252274727
0.00012391558881458
0.00011840275790037
0.0001133360845739
0.00010873071777885
0.00010457022240371
0.00010085507949505
9.7578579538011e-05
9.4712481386813e-05
9.2215837640542e-05
9.0044077565961e-05
8.8131323131587e-05
8.6408817333168e-05
8.4808790647541e-05
8.3258717446768e-05
8.1757977327057e-05
8.0297545681351e-05
7.8859379060868e-05
7.7443684597871e-05
7.6048998176331e-05