/*--------------------------------*- C++ -*----------------------------------*\
| =========                 |                                                 |
| \\      /  F ield         | OpenFOAM: The Open Source CFD Toolbox           |
|  \\    /   O peration     | Version:  2312                                  |
|   \\  /    A nd           | Website:  www.openfoam.com                      |
|    \\/     M anipulation  |                                                 |
\*---------------------------------------------------------------------------*/
FoamFile
{
    version     2.0;
    format      ascii;
    arch        "LSB;label=32;scalar=64";
    class       volScalarField;
    location    "0.00011";
    object      omega;
}
// * * * * * * * * * * * * * * * * * * * * * * * * * * * * * * * * * * * * * //

dimensions      [0 0 -1 0 0 0 0];

internalField   nonuniform List<scalar> 
109340
(
9613.2333219954
9901.1598911238
10702.234484259
12431.161026979
15315.588313078
19243.273989548
23815.941702616
28427.005610715
32542.950966875
36486.585140351
40335.453329554
44110.79265218
47818.940890749
51461.095957403
55036.479302609
58543.587608671
61980.739093091
65346.318802099
68638.909107168
71857.336716108
75000.686098144
78068.298120942
81059.770450862
83974.943214172
86813.859579025
89576.694545003
92263.645323935
94874.783076191
97409.855304885
99867.995750077
102247.26985863
104543.87368262
106750.49860485
108852.30210584
110815.77318596
112556.436638
9719.8388945943
10818.433289897
13665.344405786
17965.136915935
22968.202165226
28033.197574267
32871.860175554
37702.129794021
42536.134708636
47314.722444793
52020.210384195
56643.825146454
61179.343408199
65621.722912963
69966.803436694
74211.21926348
78352.368023411
82388.393619546
86318.175240811
90141.340328609
93858.320026071
97470.318973446
100979.21013544
104387.34457784
107697.33021409
110911.78988132
114033.11412705
117063.21046624
120003.1947291
122852.95868116
125610.43646434
128270.22739106
130820.33784413
133232.96940999
135437.5911124
137255.23154626
9962.3981347152
13963.659807629
21390.836780515
28994.175797854
36204.649605196
43348.897994781
50550.407458803
57742.760968529
64875.376708263
71902.265976466
78789.77854335
85515.162026208
92062.990915137
98422.849475263
104588.01593207
110554.67532068
116321.43124299
121889.17725372
127261.51160301
132445.51021871
137451.77333715
142292.89121523
146981.97086478
151531.49155374
155952.61371679
160254.8452832
164445.85934257
168531.29779336
172514.52686146
176396.15534487
180172.88654834
183835.26470932
187361.65976808
190697.10898712
193687.56090796
195912.38916528
11923.735485414
28463.308292028
45342.797257247
62200.071274391
78870.010627583
95263.044890178
111269.79901382
126805.81933154
141803.08329972
156209.95028566
169990.25809304
183123.58872504
195603.99825154
207437.55593264
218639.99903693
229234.67416403
239252.88152687
248745.41660114
257806.04535622
266558.57983441
275109.54709161
283533.11112805
291876.32717239
300166.58976901
308417.62677244
316633.77161343
324812.52773989
332946.55775839
341023.3797809
349025.66760649
356933.28625942
364744.64121554
372485.83950629
380078.87159518
386990.19014635
391335.30153394
46691.089401112
146239.39564409
240738.44519123
331320.0039239
416681.04219721
495516.0719603
567021.53078567
630923.22745791
687410.14639532
736960.44823703
780211.22692278
817846.23759605
850534.98730513
878892.40987148
903459.12454461
924735.07249889
943427.12078836
961451.19147267
981929.91725793
1006348.6256986
1034477.3697616
1065381.7459948
1098055.1673149
1131654.4669076
1165517.8512417
1199110.2099945
1232003.3074778
1263845.7991779
1294334.7694531
1323167.9015077
1350052.2573925
1374580.2041453
1396214.6965335
1413934.8652336
1425182.2596347
1418593.7783529
4713785.8294871
5536387.7781488
6151512.9837502
6581344.3003489
6862222.5837636
7031562.7323808
7121365.5390537
7156448.6179853
7154687.9321138
7130004.4326828
7090264.3112311
7041544.0594741
6987992.8889715
6932413.9222623
6876704.7600389
6822236.6955153
6769925.1326623
6720403.9458092
6674300.4883283
6632253.1767488
6593625.4101671
6558015.3697768
6525236.0773471
6495200.6960145
6467857.7711074
6443174.0515325
6421135.7144353
6401755.596586
6385084.6069074
6371229.8632708
6360396.0481257
6352973.9201275
6349551.5760866
6351464.4945754
6360197.6384926
6374796.328444
113883.12089997
114057.69540113
113301.24305923
112724.01297525
113217.31225209
115199.85134095
119310.45277522
125767.30056182
133879.50741041
144422.78046475
157464.45069988
169447.15401108
178809.79865097
182255.68167267
181181.11174747
177432.6224957
172025.6342399
165794.52161745
159273.05054412
152760.95781722
146445.40019803
140400.18377667
134722.71295768
129558.60676109
124877.48939917
120617.98524486
116634.60785843
113080.85940926
109748.14361186
106541.99184676
103802.38116822
101012.71777594
98649.787604228
96213.752575911
94124.650194082
91967.256794426
90103.928733807
88173.85968149
86513.178413589
84784.909727208
83304.847944517
81754.10346463
80419.890149864
79029.785884264
77798.843374261
76564.744610222
75398.985312782
74297.049172107
73205.527638164
72201.050617261
71204.376341571
70259.165682166
69346.487297551
68465.561647924
67612.618298655
66787.859293907
65990.310972986
65220.651179132
64478.594584842
63763.362645692
63073.033385125
62405.612215519
61759.132488502
61131.713152724
60521.692967399
59927.738678077
59349.334988307
132185.73692882
8469125.7150948
6819408.7945981
5050057.6675228
3870787.5812116
3053453.6987036
2466100.1780308
2028183.1144574
1689200.2131282
1418183.0854444
1196859.9008772
1014460.8030692
861838.9580276
725987.62916268
593572.29155148
467373.56656162
367037.49676774
295551.13519006
261758.16682735
244070.72926213
235224.61807793
230840.68847814
228657.19653231
227595.46275531
227116.17322397
226915.55721173
226826.65045308
226725.73416422
226523.17751131
226151.58514171
225569.52412108
224751.40856478
223701.74144803
222437.296205
220984.32194785
219376.25531669
217645.66537987
215388.90962857
213598.53879409
211892.57600303
210358.79062121
209064.01564911
208067.74832537
207422.05400011
207140.26691829
207207.01335477
207666.43504979
208440.1725779
209498.64950801
210830.66874622
212411.58317621
214164.81634628
216018.07659187
217938.52649157
219868.90697427
221736.2842266
223482.00720501
225062.50168342
226470.1387389
227658.88432822
228582.43122139
229367.75215231
230035.35931596
230511.92309007
230737.74376989
230837.36678111
230911.20658947
230907.63203209
231024.60220907
230912.48921954
231282.59848953
229386.98317944
231486.23146075
138231.71998553
137022.4588449
134008.77938165
130170.24472484
125975.90105124
122010.91897501
118645.01861128
116104.5642172
114390.41436762
113613.02383257
113573.29241718
114213.12725152
114924.30950329
115340.77746982
115702.08990027
116149.71345001
116648.56714977
116980.20753849
116622.6122096
115737.96371694
114423.61906319
112780.12275809
110911.26008055
108859.91275355
106749.94580163
104700.06079696
102696.3643972
100692.69673963
98726.128324471
96789.060715934
94923.880940469
93134.644180331
91404.612979958
89741.98195482
88126.124710728
86575.172982284
85069.950431101
83631.720737132
82244.574648584
80923.259285098
79653.781455583
78440.916040925
77274.368277108
76151.07371239
75069.452219102
74021.429874814
73015.537817703
72042.561672744
71112.262524435
70213.076168775
69347.170729809
68506.329043696
67691.05569391
66899.070306602
66129.387385746
65382.132970036
64657.608907373
63956.414483375
63278.312640276
62622.585951552
61987.884555186
61372.593397695
60774.80944119
60192.653210067
59624.635356919
59070.305129635
58485.526142469
734405.13632718
8485925.0704632
6301088.4574794
4705947.1656472
3634611.5546248
2885666.9718606
2342791.9551254
1934173.020163
1615047.1762858
1358209.2763452
1147776.7435925
974019.72503563
827263.8590597
693581.73260982
561890.30691803
440396.39009379
348597.36790407
296044.78724037
262047.72661326
244255.97839363
235365.63037503
230971.75238022
228794.98921888
227746.05894595
227281.08174049
227093.4580542
227015.02115002
226924.1719796
226729.06640069
226363.28531683
225784.70403586
224970.45069453
223921.25772215
222654.17835224
221196.32209229
219582.27360756
217845.36874384
215578.15585943
213778.15632204
212062.65390236
210519.55541637
209215.91109377
208211.19050982
207558.30767955
207271.49170207
207334.0905334
207787.77009592
208562.2616175
209628.87499466
210970.86563384
212555.13518948
214315.26010831
216183.34208764
218113.17693269
220051.76525771
221928.79516259
223684.68260089
225271.91540924
226679.73078772
227870.77634302
228836.9828307
229644.13346657
230305.56943654
230780.37171342
231018.64044884
231112.03706506
231163.51726081
231141.92779629
231223.99587079
231135.56911778
231379.96692742
229251.34685746
231552.6646151
196127.02115304
191882.05929195
183457.82065511
173048.96441852
162462.17970483
152704.13155626
144268.07020737
137248.66159497
131720.83152805
127099.44957147
123601.78895958
120582.86168931
118322.03331768
116517.01943141
114970.7293481
113546.53960274
112026.00206924
110306.1941429
108156.13925023
105818.04109147
103468.57968647
101187.89864573
99014.783632147
96968.577832686
95040.025928023
93206.993844631
91500.02064929
89960.786212913
88541.317196124
87219.494910771
85978.939438456
84830.803161014
83735.826768232
82671.742290894
81619.8354753
80568.684046704
79520.847420927
78486.942576064
77472.728337454
76486.323401176
75524.997303758
74592.556572311
73680.528218894
72794.27530195
71922.903305542
71074.597120029
70243.755785121
69439.579352696
68658.413633665
67901.750801552
67165.771707632
66447.407348451
65744.671981978
65055.756339881
64382.160868196
63724.223609613
63083.289422635
62460.137263754
61855.074975161
61267.752541688
60697.279220348
60142.281788233
59601.109904059
59072.182224105
58554.245586112
58046.885098143
57495.254649526
776663.59075714
8488312.6521714
6290445.9647389
4697192.1016354
3627689.1618525
2880666.2546246
2339372.136489
1931917.0751201
1613666.2905292
1357504.9314414
1147601.0483128
974278.27199263
827965.76193343
694871.38157209
563814.50524413
442548.48791833
350441.5011531
297282.96355523
262886.87852876
244836.64208196
235807.52545301
231352.98491872
229158.42836445
228112.32872203
227659.91434732
227488.73413828
227426.50088379
227354.3057775
227175.84666718
226825.31975666
226259.26492199
225458.18739436
224416.48238092
223151.43676362
221690.77673611
220070.6608478
218326.01481762
216041.33190619
214221.93641372
212485.45020127
210920.64296529
209595.75481112
208570.95610403
207901.77069478
207605.22512364
207663.74214168
208114.90589255
208899.27146145
209989.81451178
211362.76546598
212974.97223363
214767.62775166
216682.05069633
218656.98217428
220640.16041852
222563.29631792
224363.38134931
225982.15761045
227410.36274671
228642.98826459
229687.27398723
230519.54024121
231185.12862979
231671.60379422
231935.64701733
232017.10089912
232046.26914163
232000.24063972
232042.46711152
231974.71175088
231934.04577697
229865.26365761
232612.16305235
385668.85006983
363335.6584823
324989.6601623
283385.28347311
246875.46936048
216627.69808059
193132.95945018
175005.58876021
160970.61254426
149539.54921056
140943.02054045
133800.39529734
127885.06580117
123057.89741556
119008.53071272
115612.75137633
112866.24204502
110276.07603991
107376.1613681
104228.62862872
101032.93004933
97935.299958268
95039.816870295
92373.969262285
89925.606935005
87683.75331559
85635.013200687
83771.631816621
82119.406951676
80649.423699198
79335.414518334
78155.297822297
77092.852469881
76115.592986785
75207.803493359
74350.09977116
73539.742953892
72763.770524897
72025.494542835
71320.750127134
70646.817707367
69990.457522611
69348.370257771
68708.900432385
68069.646985215
67432.873669303
66800.557057411
66180.033231865
65570.546452376
64975.369059672
64389.200373399
63812.354450216
63241.181675681
62675.884072902
62117.203552838
61566.830054646
61026.817426453
60498.549075645
59982.931949992
59479.918157461
58988.889489079
58508.736121501
58038.187977075
57575.993818414
57121.103891148
56673.105463811
56183.983637985
839963.61288952
8482489.7837352
6271654.2369662
4683373.5904357
3617333.0924634
2873386.3788774
2334437.928361
1928664.9017535
1611671.3563655
1356484.943721
1147347.1066104
974655.55689059
828985.93138823
696739.96318874
566607.00176553
445690.44996298
353157.04636895
299206.95000482
264224.28475576
245774.20097605
236517.69032858
231955.96070842
229722.68176519
228672.19012736
228231.76240401
228080.98570955
228041.03399713
227993.36004853
227839.60054201
227511.73609647
226965.04678149
226180.76689267
225150.32523495
223889.34384663
222424.84501571
220794.32398904
219036.53399882
216724.45889912
214873.93717674
213103.92616786
211504.13124236
210144.87130539
209088.15980062
208392.6086781
208079.71917749
208130.06632522
208581.31033974
209379.55418447
210498.95371486
211912.2814106
213573.61817498
215424.20884843
217406.69235221
219453.22333629
221509.57465576
223506.68526767
225379.18930776
227063.34440383
228545.30190759
229828.48532664
230936.66617963
231812.14945152
232501.8926689
233007.62139811
233292.08424243
233369.42716774
233390.56988901
233328.41933492
233338.04446319
233224.39748079
233075.67927854
230968.99639861
233881.05743402
1321520.5761371
1071712.5010319
803388.98441544
593648.89605009
446708.25522316
346755.48437331
280100.24639262
234545.52384976
202854.24458067
180313.07858158
163806.38838859
151188.97760658
141185.11862771
133086.3580883
126415.36585874
120861.71548896
116235.41584017
112046.03358296
108115.64732751
104401.0833529
100858.58173226
97430.977375727
94124.846432339
91039.690786013
88192.017583665
85572.502366862
83164.598962432
80962.512447981
78984.389077451
77221.485005567
75651.816764949
74251.91246142
73002.109324229
71878.138107076
70859.712277271
69928.002883759
69070.69335787
68280.025806777
67550.243024197
66874.369168213
66247.300785819
65659.973280043
65106.391931952
64576.64913104
64066.707463598
63568.8408311
63083.925260591
62612.518796251
62156.163462314
61710.654991457
61271.139055834
60833.892367802
60394.742497927
59954.995967795
59514.309897199
59075.513972391
58640.926048128
58212.785697246
57792.298608355
57379.626409936
56974.388657536
56575.759920942
56182.747090923
55794.123430504
55409.063571202
55027.336285172
54609.564076921
931303.43251797
8471310.5153883
6245210.5722306
4664142.0020931
3603450.8107394
2863856.5773963
2328020.2867462
1924429.0762153
1609059.9640209
1355138.0260796
1146999.6821706
975133.63789256
830300.05445941
699153.04830999
570232.81191976
449806.82843562
356748.58080548
301822.67752807
266059.45314409
247066.48898662
237491.36818009
232772.9365585
230477.69986267
229413.95524193
228983.94664479
228856.58564536
228843.62495069
228824.68702167
228700.91778055
228400.96015769
227878.06785428
227112.10463846
226094.41268697
224837.76785042
223366.56647007
221718.45269223
219939.56632871
217590.02357892
215695.33582433
213878.38106708
212229.28224276
210820.99246089
209718.8609362
208985.02736416
208647.11546381
208683.55560802
209134.05164075
209946.2778102
211096.22116865
212555.54981113
214279.36619947
216207.97664839
218276.35117691
220416.5853614
222571.05237479
224666.00201686
226633.71370927
228408.36851526
229974.62448987
231326.82413768
232494.90346469
233418.64862821
234144.31882003
234675.18076759
234972.15578899
235044.81930541
235058.65604548
234985.85788594
234969.44490345
234806.7574205
234588.90516385
232372.83626856
235358.65298569
4661608.1192941
2571329.3084104
1598986.5077815
1065508.2060199
741736.64150869
537007.69966438
404389.13886209
317245.02401143
259026.01401448
219803.23585138
192274.0486078
172341.55628989
157247.10316026
145366.23374619
135822.70891774
128006.30447818
121354.54345422
115498.68244843
110279.18419951
105612.7252288
101417.99999086
97609.376066094
94117.0905435
90854.987515864
87786.464627665
84927.04282947
82286.257107028
79845.962157614
77625.963505912
75631.352586072
73836.430286287
72217.949291076
70761.558214932
69449.525158665
68259.097892022
67177.655162915
66191.024527748
65291.878314759
64470.901316435
63723.523689531
63039.359384986
62411.236376336
61830.379013256
61290.047047327
60781.740025517
60299.127827937
59840.546489973
59404.869524629
58992.466593809
58599.28580965
58222.051326209
57855.467789415
57496.205947705
57141.517334482
56789.700123616
56441.306638071
56097.855287518
55760.066527092
55427.915627152
55101.149939051
54778.397287298
54458.960286582
54141.913078057
53826.152241874
53510.943438015
53196.156518158
52852.181036026
1066162.2209506
8453405.0446661
6211127.1328537
4639323.8786499
3586107.3417839
2852164.3938368
2320168.6384561
1919229.069296
1605832.3409371
1353453.7089389
1146543.7373029
975694.57112434
831883.37139432
702073.81885882
574653.24419793
454884.40617695
361230.7829498
305150.22455818
268409.3155571
248725.35285427
238734.32921367
233803.95133615
231418.98183369
230329.85847561
229906.67165119
229803.13393847
229821.1729367
229832.51314606
229742.21688119
229473.26406397
228976.57597344
228229.51426647
227224.34818706
225970.21067124
224488.10260628
222813.82080789
221002.45404575
218607.62682583
216654.85247308
214777.24487862
213064.12852942
211591.41133127
210428.55398164
209642.42256832
209269.26207107
209283.61276742
209728.66276907
210552.94694837
211734.38450963
213245.70962032
215042.40116258
217061.75508508
219233.90554908
221489.14221234
223764.05218168
225979.1198468
228063.84008437
229949.64588622
231619.30686255
233057.72158544
234295.46761775
235271.29019712
236035.9333312
236589.77633343
236887.43350971
236945.71101686
236945.48285356
236853.02788819
236801.68408089
236591.16042509
236319.23675643
233954.6628582
236970.96845647
6463379.6572222
3571828.2636055
2315703.7552349
1583821.1402589
1117209.1999679
802629.59730365
583249.01948193
440669.32068543
345236.02279699
280017.20815859
235022.43504633
203292.08313453
180315.0956929
163007.20304846
149491.78758588
138518.66986238
129375.83917952
121657.72326339
114996.78489757
109164.088568
104029.72752125
99495.861117337
95467.158547481
91866.139922121
88590.058328897
85571.53047551
82754.921456458
80124.399891733
77696.455940505
75489.434056782
73490.113839765
71674.38604863
70018.845537512
68511.812743426
67139.972721469
65887.482494832
64739.401932699
63691.875404145
62736.360647245
61865.23735819
61068.26988449
60340.047927019
59671.493427893
59055.780620144
58484.532210113
57952.548937387
57455.073452711
56989.85607037
56555.668546407
56149.818615267
55768.854266033
55407.021507106
55060.068233902
54724.454359651
54398.544503254
54081.491166183
53773.166975065
53474.389595922
53185.497294986
52906.092718754
52634.848956065
52370.166984262
52110.196616198
51852.940077627
51596.813954011
51340.98317262
51084.691035926
251042.96294369
8737934.64669
6673702.7620038
4940020.0510665
3790689.2785337
2997943.9592781
2428501.5708777
2003084.94208
1673285.0062548
1409374.4966699
1193662.3943693
1015804.4557356
867450.53238389
736964.5238516
611150.20751944
489019.01761567
387141.14986995
309219.81533294
271303.55593595
250773.36112813
240260.5123413
235054.90547465
232546.40429755
231415.52500808
230992.54203788
230910.09005335
230961.37745086
231003.21307407
230948.23671966
230711.57337381
230241.58611559
229513.1129726
228519.17229198
227265.01494734
225768.16978545
224060.49391387
222193.70870153
220366.83480214
218305.68671674
216312.89255866
214475.76568129
212876.91948312
211593.95435618
210702.21807743
210249.4570827
210213.26930261
210636.65073556
211471.62747737
212699.81583167
214297.89744083
216221.40329034
218402.98870332
220766.44181553
223231.5338039
225723.41235977
228154.64799326
230447.11388441
232529.32888743
234379.39263911
235968.55499532
237320.70996117
238374.04213611
239188.12082183
239736.38781115
239979.26760299
239984.05652756
239930.7018382
239761.26771368
239598.23431832
239280.21247503
238892.42794925
236208.18543434
239225.81224287
5627895.3212824
2714229.3214882
2108577.3719631
1652533.1170913
1306485.7854752
1006521.5094093
776788.79165693
599315.84227993
461986.70842392
368155.36964841
301129.81551393
251019.30188111
215102.0825606
188626.20042592
168621.31898119
153028.77107037
140453.67269838
130049.9738002
121298.96771835
113848.03767143
107432.10762909
101848.10315804
96954.167926192
92641.020626639
88818.481699918
85411.848598926
82341.725712116
79561.592365137
77055.47922104
74773.18252504
72674.596320145
70724.125110221
68919.015650245
67252.61611942
65715.163019656
64291.321257988
62977.090431634
61764.866651893
60647.39223797
59613.941846162
58658.650513729
57775.073773303
56957.411323821
56198.688729371
55494.63971307
54840.848008372
54233.322795818
53668.598084491
53143.990131043
52657.406552
52204.431849352
51780.73239831
51381.427874037
51003.627915532
50645.393954416
50305.838912323
49984.761298113
49681.617629963
49395.932074844
49126.410848994
48871.495170735
48629.333327835
48397.839430944
48174.743471835
47957.927940481
47746.201038205
47545.817008378
1852925.5624684
8316092.5257914
6052810.3873689
4532817.4082172
3515830.5863951
2805391.9549523
2288555.8502855
1898045.2132899
1592456.4311363
1346263.3386438
1144352.452674
977663.21618468
837953.33645461
713428.87730606
592169.54696953
475664.26722077
380203.08892493
319735.69945816
278881.19153778
256166.96180832
244254.38407835
238270.75158059
235384.65297313
234101.09934147
233645.03838874
233590.10336663
233701.83803368
233806.79235177
233816.24371134
233642.61429353
233222.23520074
232527.65136691
231549.1210346
230284.98194263
228747.00189702
226960.81727097
224975.97647245
223087.34056128
220833.43298278
218627.48446745
216558.32364981
214719.7318318
213203.53159443
212099.01733094
211471.68990558
211325.13947914
211683.49033731
212511.6093906
213798.62772662
215528.28924811
217654.50700765
220103.83935345
222785.98524894
225599.49176664
228455.45493272
231241.61638997
233861.550405
236239.81812673
238327.82603253
240072.04264727
241493.15073377
242547.80202318
243311.32916818
243696.37740823
243736.25585125
243617.77639727
243379.26560864
242988.00215975
242564.19533911
241998.38844976
241362.62703794
238066.62727691
241006.98745557
5204269.8937825
2115392.1145571
1824054.5917147
1544257.3696306
1291501.9257543
1070395.0633909
877963.05558175
711570.61419488
574884.36165379
458952.4956825
371442.75272846
309348.31395187
257685.50283029
219304.31325247
191374.42571049
170273.69010432
153919.75604315
140824.77080578
129980.42615079
120846.30307358
113082.33583326
106417.34564562
100632.54435464
95568.317823961
91102.392749452
87137.563664201
83601.92609047
80459.455442376
77657.577731095
75147.972180219
72890.700119196
70837.778165831
68957.090689286
67221.248449277
65603.525992709
64091.936061356
62674.269192298
61349.815180104
60114.904977592
58964.805951949
57894.28581684
56895.74964463
55962.777484264
55089.388435074
54273.361082213
53509.845508591
52795.555131038
52126.18457048
51499.725613866
50913.743888036
50365.122638903
49850.068156668
49364.809933662
48906.962490271
48474.39682062
48066.431302225
47682.509964385
47322.152226657
46984.417448031
46667.525038187
46369.741666766
46089.309914093
45824.440239693
45573.240102091
45333.760719633
45104.654713959
44945.956866253
2726143.6162643
8118096.6542433
5909153.4869624
4442071.322003
3456375.4659508
2765257.5888439
2261038.536656
1879356.1975527
1580424.5609426
1339552.8478807
1142002.2332068
978957.84094107
842744.04148122
722604.17540624
606707.54023287
493747.73828736
397585.59063989
333697.65191502
289169.9068031
263585.54144773
249734.66409254
242599.37411903
239103.71996126
237535.03596846
236973.65334032
236907.91316103
237058.416069
237218.34586624
237279.10830824
237159.09727422
236777.97420756
236108.29486451
235132.84474435
233846.04253083
232254.99991036
230379.73025622
228263.17475079
226268.96644507
223764.05213737
221276.59609679
218896.1297008
216729.24310402
214886.47997931
213477.41774181
212588.23610391
212265.4883577
212516.97054616
213312.78706341
214656.34018304
216542.63486373
218925.1308935
221721.98812558
224819.3218483
228087.55260537
231406.04597843
234572.65959843
237476.791228
240052.72156491
242235.78539231
243957.06397323
245239.17368701
246104.96512785
246578.75055318
246564.86743769
246360.01078408
245942.35814416
245391.75958197
244688.76119593
243942.80834743
243059.64892725
242106.14030977
238163.14809875
240967.48728764
5189456.1945696
1812461.3309355
1555898.2489528
1383945.0790913
1211064.9731593
1046245.1507328
893552.10649524
754790.01863207
631371.1955336
526940.9501413
433049.45632403
356742.3335855
302038.29651705
256619.66847703
217925.95421967
189492.92039016
168209.93718767
151836.4522751
138841.72867329
128173.84278273
119182.97950196
111497.17146266
104861.51639673
99096.327044988
94054.557909313
89616.639517082
85683.123037002
82177.1873392
79043.807608486
76240.480348529
73722.605087608
71450.017212792
69389.802245897
67512.110153829
65789.308947303
64202.598621817
62732.197537379
61363.834269942
60088.524928083
58891.730543763
57763.676128364
56695.56257134
55684.853985903
54734.012531407
53839.887511137
53000.058571286
52209.771386616
51465.782230072
50765.52884251
50105.174184424
49482.181389983
48892.953567484
48335.432592832
47807.155545406
47306.38567879
46832.316160936
46384.390539808
45962.403743842
45565.033678522
45190.637803917
44837.474353002
44503.88957239
44188.516149714
43889.809511081
43606.147162627
43336.253570667
43394.473776831
4089801.1599387
7913473.9928915
5752154.5232765
4338695.2442353
3387023.1503645
2717851.5735509
2228314.3273567
1856971.7134269
1565815.252304
1331155.1919092
1138719.9392792
979953.95313998
847741.43301262
732457.87041451
622709.10622653
514582.53032445
418669.47899813
351430.39747695
302622.57878723
273478.74362672
257088.08121821
248341.71644966
243924.61210184
241876.96201695
241095.29960648
240952.75671792
241099.36847851
241291.00998342
241384.8574098
241298.54888622
240940.61228892
240278.27080481
239289.62514916
237966.53924528
236312.10788649
234339.20679463
232078.4186515
229968.05263859
227176.4748277
224351.18752247
221583.67020481
218993.38144095
216714.99327987
214887.14478396
213627.25112098
213033.34557643
213121.02162408
213843.77692021
215228.39271704
217287.33199819
219978.730806
223200.7776854
226794.85701514
230568.13347895
234315.41194365
237718.76545985
240689.5357094
243157.03144771
245072.71745092
246438.60051831
247323.22201213
247790.67773997
247723.31219528
247383.88640007
246783.36328336
245946.12873583
244932.85352371
243759.5713407
242543.71236861
241184.38331712
239694.17057147
235010.94254733
237093.27199084
5833331.0353801
1657439.8194917
1368250.3893426
1234738.1159555
1114857.3775412
992102.79278485
872524.5408106
759412.41928538
654625.7670746
559002.85782239
476252.33530289
400429.48033428
335001.50045737
288427.46842946
249469.9363473
213897.53635893
186049.2739934
165037.95555253
148887.08980895
136121.00473303
125718.90681622
117001.54602748
109552.34407103
103112.98099433
97508.884791197
92598.787869674
88263.105686464
84409.579051858
80968.178628433
77882.982638625
75107.343872622
72601.044389119
70328.281639718
68258.553913398
66368.440269392
64639.911131267
63054.449135073
61595.432411945
60247.690896098
58994.114034831
57822.540966191
56723.921072586
55688.067086462
54709.337027704
53781.79007609
52899.1315388
52060.243468691
51264.678970314
50510.193204553
49794.833000301
49115.436906559
48471.088032214
47859.368643468
47277.947762232
46725.138784132
46199.681276317
45701.749760539
45230.148837678
44783.351928711
44359.720202598
43957.578753181
43575.952077522
43213.508796552
42868.810805819
42540.626464952
42227.945228308
43988.884312824
6078344.0193403
7645856.699579
5570526.3542442
4219812.4142929
3307218.6676076
2663173.14157
2190430.5535052
1830882.108787
1548553.4445565
1320928.82573
1134296.3666849
980374.08620221
852570.60739505
742423.29382749
639327.61814343
537305.90474366
443073.59168585
373081.19563387
319712.30424217
286371.65194136
266807.77878961
255916.32418864
250179.50275115
247382.95009506
246208.63243141
245884.07272153
245951.48095478
246128.10588678
246224.51117105
246139.06842898
245776.04490189
245093.18607886
244066.7744264
242687.31078928
240954.95009465
238875.98094243
236465.77644556
234241.73178565
231157.00274715
227963.20395376
224749.53374199
221646.48855604
218814.79309063
216432.49185072
214663.0084736
213656.75387107
213488.96837995
214080.42917959
215463.89581063
217671.21261754
220687.35966223
224365.82980124
228438.00529841
232624.88881443
236461.80949602
239720.81734746
242400.72334583
244301.36518028
245564.49623629
246179.00185798
246025.82919003
245454.10704786
244470.62984342
243202.04188627
241708.96678666
240028.30385467
238228.04171866
236311.14610535
234355.64745027
232377.53033146
230288.15153039
225627.51159082
226006.14417511
7383346.023994
1542417.9328661
1256237.013138
1114332.051408
1022556.1681204
929287.15802155
836178.6175931
744317.33444236
656006.2031292
573008.31027976
497783.9428367
430480.94939229
366785.7866471
311699.69558601
272721.86737626
239453.25892687
207884.42241395
181563.95072914
161350.27228961
145697.39136075
133289.75488465
123202.73530161
114786.48084186
107610.36744726
101404.26091742
95985.206615342
91217.992626604
86996.516343065
83238.803554944
79878.463923667
76858.652840988
74130.210067243
71653.033695303
69395.793006863
67333.429214413
65446.076381836
63717.147376844
62131.243365262
60672.324791982
59324.222995302
58074.171267526
56910.182170003
55820.700263451
54798.450872798
53837.609990912
52931.000571725
52074.283431613
51261.06912549
50485.146841968
49743.511414075
49032.451017557
48350.874424526
47699.681282051
47077.471188727
46483.681529593
45918.913532286
45381.876350297
44871.585961569
44386.137250353
43923.71102186
43483.338033054
43063.534522541
42662.985454438
42280.620585351
41915.146478249
41566.179907396
56500.896376522
8132003.3054515
7334982.211988
5368179.7914071
4087534.9096481
3218203.7723109
2601900.1262844