/*--------------------------------*- C++ -*----------------------------------*\
| =========                 |                                                 |
| \\      /  F ield         | OpenFOAM: The Open Source CFD Toolbox           |
|  \\    /   O peration     | Version:  2312                                  |
|   \\  /    A nd           | Website:  www.openfoam.com                      |
|    \\/     M anipulation  |                                                 |
\*---------------------------------------------------------------------------*/
FoamFile
{
    version     2.0;
    format      ascii;
    arch        "LSB;label=32;scalar=64";
    class       volScalarField;
    location    "0.00011";
    object      p;
}
// * * * * * * * * * * * * * * * * * * * * * * * * * * * * * * * * * * * * * //

dimensions      [1 -1 -2 0 0 0 0];

internalField   nonuniform List<scalar> 
109340
(
389433.26385895
387876.91809601
384930.95256039
381396.09819601
377529.83358309
373542.47264605
369515.89776827
365500.23384416
361582.63702547
357753.84863066
353959.59016083
350196.24243121
346467.37019494
342775.41718851
339122.10296116
335508.94884411
331935.38444987
328399.04457714
324895.1637258
321417.08644776
317954.82122248
314497.49214013
311032.7224514
307545.72493548
304016.74679378
300420.13447235
296721.63036052
292875.10850194
288817.21891369
284458.98288096
279672.31435977
274267.16665343
267956.3996015
260314.81349236
250754.11681081
238545.00599383
389667.6844115
387669.18231313
384366.75492906
380600.40337518
376631.4990432
372640.1497257
368678.51400968
364757.35491974
360872.92579616
357028.58419356
353218.74621269
349444.3523465
345707.85740428
342010.79343739
338354.16214244
334737.56218909
331161.03037575
327621.65423707
324113.86869129
320629.91499209
317159.58430865
313691.75948779
310213.69964249
306709.79034979
303159.14564403
299534.26074927
295798.38445322
291901.68978164
287775.20218034
283321.25094683
278397.42291689
272788.13437096
266154.9030774
257974.88449263
247394.1613556
233500.00555999
390540.67100513
388223.1459505
384584.20729468
380726.74177475
376789.44009584
372852.3269123
368908.14467749
364969.09168303
361060.06360393
357188.766714
353354.24591118
349557.08176887
345799.11111395
342081.8491316
338406.83905697
334775.16351892
331186.54569208
327638.17131891
324124.00121131
320635.90127386
317162.87937678
313693.62739568
310215.25881144
306711.95644985
303162.6934182
299539.71290721
295806.13499813
291912.02290815
287788.24459521
283336.49026462
278412.72453339
272795.15754051
266117.10995141
257767.53413558
246652.77173013
231027.52821286
391759.13397511
388958.76693493
385129.899578
381158.65908812
377141.01530738
373118.26093313
369104.85057998
365115.02104303
361165.18922842
357261.05954672
353402.20136511
349588.08474958
345818.87333905
342094.86970326
338416.30670178
334783.14341362
331194.63024549
327647.55634518
324134.9654895
320648.95662049
317177.08251066
313708.58529645
310230.92112252
306728.26731522
303180.1454356
299558.6930033
295827.11745953
291935.50362964
287814.55329172
283365.05466799
278441.0204761
272815.05550416
266083.57732233
257522.64544082
245640.13359082
227088.3809726
393688.54323071
390033.9582469
385636.52037
381389.82525439
377260.82612389
373197.39905113
369170.51358406
365182.11446907
361235.85025146
357332.15935704
353472.68041992
349657.87440459
345888.08886374
342163.76562777
338485.38417029
334853.37809302
331267.99740315
327727.2446375
324217.41096104
320737.30083735
317269.19609511
313803.87797241
310329.35437917
306829.29549316
303284.33499847
299666.34299051
295938.63834785
292051.28980207
287934.66833543
283488.44212643
278561.00020051
272932.32345527
266151.0926083
257384.41103287
244639.20544994
221626.09268473
397313.78194558
390606.00816279
385756.50973735
381420.14971262
377285.9409688
373231.15106195
369214.67077856
365229.12270631
361280.79413428
357371.22801215
353503.16255501
349677.47612583
345894.72314442
342155.41112843
338460.10209043
334809.49782473
331204.58170004
327651.65134077
324165.94783131
320680.45248217
317204.75664684
313732.41031756
310251.55091343
306746.51331363
303196.75631562
299574.50461292
295842.80324342
291951.70019927
287831.61686476
283381.76088446
278440.3571216
272814.26973397
266008.14512145
257142.27325829
243927.08809301
216066.15832836
223838.36855678
209155.17037035
196870.84719505
186883.07476794
178102.86957751
168564.36779945
158002.19235586
146317.42609606
133635.0873775
120238.45431188
105947.33268826
93086.38907334
80540.865822938
69071.414543613
58991.69822384
50227.059475685
42764.7665479
36460.041931482
31166.080364374
26766.092721786
23116.307386814
20061.71533123
17501.674495067
15356.263385258
13550.590507212
12022.000629175
10692.305979551
9581.4657529659
8621.6322947707
7756.2213375752
7057.8193029058
6394.3923722923
5859.3585463426
5346.1727249169
4926.7611996184
4523.647751392
4190.7539942418
3868.2224107512
3601.3214530793
3339.6789906453
3123.2148594273
2908.8451071125
2730.5496264817
2554.6645601758
2404.7592459954
2261.1179767557
2132.1043909115
2013.9330736953
1902.2725999559
1802.3267311081
1707.469608676
1620.544021982
1539.8300293795
1464.9352682526
1395.1804213682
1330.1628729447
1269.4054943832
1212.5840914139
1159.370221425
1109.4724760292
1062.6046676876
1018.5286675666
977.03976333467
937.95541258794
901.09865045679
866.30469529245
833.42853263906
803.87684224778
1645.7337176913
5112.7021015347
5536.2235018274
5582.2790710477
5626.0326426721
5677.6246273372
5732.3707574567
5783.6001317425
5825.4103437594
5854.1626984386
5868.849208134
5870.4996888937
5859.8110603567
5836.6839671458
5802.2009892394
5760.1971936872
5709.2603499042
5666.3416742793
5624.1788329511
5583.6832826992
5545.6628064794
5510.9145587208
5480.0298131354
5453.1093939645
5430.3696051113
5412.6715921478
5398.2003313848
5388.3448805878
5383.1514059437
5382.8012038373
5387.0927622127
5396.3572915527
5410.4681471903
5429.4598405331
5453.2210216834
5481.7163897197
5524.533627521
5563.0841939191
5604.9863479434
5649.7277807102
5696.5319410946
5744.8118298778
5794.5048008719
5844.0230555459
5892.5889874039
5941.5473481149
5989.3122683627
6034.8427215649
6078.1858049271
6117.9976291533
6152.8604671723
6183.9490036504
6210.7323422918
6232.0965538613
6247.6161671415
6257.1462315738
6260.917564634
6260.2882185613
6253.1205122048
6238.0955211099
6220.1607093963
6201.0479728804
6178.2038778813
6152.8790881061
6125.7231682878
6101.6427401157
6077.3124875947
6055.5082225932
6039.6385892449
6023.0259531053
6070.9523098337
5997.7351225257
216288.59176091
200787.54705211
189183.58283349
180163.07170279
170805.75322572
160966.81282551
150066.42599645
138251.87850115
125747.30477774
112812.4205673
99823.355200186
87024.82655507
75604.062334446
65103.301536216
55715.155734905
47585.673965187
40611.40150446
34711.452834078
29765.294389686
25628.871536863
22175.168497226
19289.446221497
16868.147900597
14826.958140462
13100.743564564
11634.66451944
10381.343004817
9303.5903935822
8376.2524717538
7569.4450109437
6867.4582749245
6253.4714255491
5712.4952963565
5236.0050506689
4812.2938973409
4436.6019546619
4099.7868367256
3799.255922705
3528.1872155153
3284.6073684304
3063.8383227083
2864.0936785329
2682.3652458977
2516.7063102844
2365.6640514636
2226.9893835169
2100.2031274395
1983.1277777753
1875.7208843322
1776.1880274622
1684.2971007615
1598.9394082976
1519.7629779854
1446.1894789571
1377.674805137
1313.7794024571
1254.0789162133
1198.2294993515
1145.8969635514
1096.7987969638
1050.6754918684
1007.2985668283
966.45461745455
927.95362528033
891.62678599759
857.32945550293
824.9383539315
802.57450357841
2767.1150463716
5343.8016099624
5549.0648078836
5589.5326255064
5635.1935284509
5687.7426295832
5741.8375363953
5790.7252883496
5829.0278613947
5853.8341095531
5864.7364901783
5863.1866257915
5849.355231489
5823.4417757764
5786.9318196824
5744.2527694486
5704.8585774987
5662.01607413
5620.5686723084
5580.7502118918
5543.3255665479
5509.1172001148
5478.7166796948
5452.2430228558
5429.8971574229
5412.4656660587
5398.4071534312
5388.8569626094
5383.9277172816
5383.7380137982
5388.2787523935
5397.6925455354
5411.937926447
5431.0374531226
5454.8819381426
5483.4368085875
5526.2668608623
5564.7906877519
5606.6476135747
5651.3348463318
5698.0845755425
5746.2991380823
5795.9243987331
5845.3780962064
5893.9284095938
5942.6988784375
5990.3554744243
6035.8861075086
6079.1669437253
6118.7514406132
6153.6872920002
6184.8755530885
6211.4012590633
6232.5454747184
6247.9550871267
6257.4440431818
6261.2386757392
6260.6372994211
6252.9304110341
6237.7900011367
6220.0804504091
6200.6348029068
6177.4472711267
6152.133108838
6125.0428966681
6101.1185859435
6076.8916411528
6055.4044973687
6038.5062672234
6022.1192693629
6063.1728907901
5983.3423139978
209765.41348041
191487.59189405
180958.9602724
171648.18851553
161693.10556603
151459.41596798
140736.29598625
129464.39874494
117825.84591674
105659.55933618
94375.884245902
83152.322656384
72554.373186366
62834.751446533
54087.684043275
46383.846645891
39731.160903877
34082.729720746
29312.695466329
25290.531677257
21919.550960262
19096.480380968
16719.118594082
14711.274906693
13011.379284911
11563.267254136
10323.856012188
9258.6567788667
8338.2217403068
7540.0092800368
6841.9917228374
6232.2074596359
5694.7518743906
5220.7350708228
4799.7739192966
4425.3845782327
4090.6896237801
3791.0812192516
3521.3655266567
3278.5585982806
3058.6053116195
2859.5931701861
2678.1935587404
2513.3638771282
2362.3437860397
2224.4269773697
2097.556570373
1981.0678100975
1873.5966745991
1774.3577402706
1682.5820977607
1597.4691010793
1518.4722869174
1444.9558968908
1376.5325195318
1312.7159180762
1253.1122827786
1197.3446705875
1145.084712808
1096.0492042525
1049.985367081
1006.6630329191
965.86840222818
927.41302002563
891.12813206538
856.86665806419
824.48940159134
802.57455129624
2809.3892490969
5351.7413646509
5551.5400800753
5591.3614222456
5636.4349288022
5688.4093689193
5741.9282138811
5790.2755248143
5828.1339573101
5852.6334836438
5863.3728934331
5861.770716171
5848.0137488111
5822.2874551779
5786.0239525846
5743.5322830496
5704.2358604348
5661.4631203053
5620.2121513919
5580.6192598206
5543.385191627
5509.297351341
5478.943793276
5452.583140225
5430.2760970515
5412.7717697295
5398.8503705034
5389.2521636137
5384.3875732519
5384.0268591363
5388.7673920921
5398.2541404008
5412.5999512438
5431.8090295257
5455.7617971906
5484.4180975413
5527.3398457655
5565.9098106019
5607.7933306821
5652.4958663946
5699.2663394967
5747.4808199527
5797.0359170759
5846.4180207768
5895.0761988207
5943.5179408156
5990.8545690078
6036.1997394317
6079.0561497729
6118.5251483161
6153.8336971101
6184.871522168
6211.1113121599
6232.0953620335
6247.4519190017
6256.9442820325
6260.8074427647
6260.1828976009
6251.3977932206
6236.9240933287
6219.6378174251
6199.4405720743
6176.0506165832
6150.9558336031
6124.2427932832
6100.4540148831
6076.4217488632
6055.6212570006
6038.032442732
6024.2279047667
6059.5543800445
5982.8828136687
197529.66697315
176231.13599855
166029.31762141
155594.4083401
146360.45999276
136481.30055676
126758.15810257
116905.26186512
106895.61591599
96661.15677177
87410.266957627
77857.462381392
68550.795034297
59848.126496902
51848.958345969
44751.942821485
38556.340810227
33213.25175042
28665.411644999
24823.606317485
21575.534625505
18825.654698513
16511.949266072
14554.014790393
12886.172871798
11462.952493297
10244.618879353
9194.7507412123
8285.6922936917
7496.4886740092
6807.0269548109
6201.8514659032
5669.9715347081
5199.2029152501
4781.9636015829
4409.8355315344
4077.8374761851
3779.6059343438
3511.8795988374
3270.0351288396
3051.5078347157
2853.0794528521
2672.796946575
2508.3725731272
2358.0738999004
2220.5205991924
2094.1145911582
1977.9931179609
1870.7563526851
1771.8682100417
1680.2523892061
1595.4198625948
1516.5992940737
1443.2785226336
1374.9858563755
1311.2853800391
1251.7933496522
1196.1281377989
1143.9709604646
1095.0299928832
1049.0477494919
1005.7938252886
965.06467899832
926.67522766226
890.45335841647
856.24043188228
823.90029831232
802.51733195128
2874.4234941049
5362.1735649154
5555.0349466327
5593.9132718208
5638.1788485611
5689.3539218961
5742.0625798177
5789.6414614859
5826.8639359509
5850.9188818958
5861.4129290868
5859.749620368
5846.1173119114
5820.6574430236
5784.7179056886
5742.5044566466
5703.5910588021
5660.9315375375
5619.8642026266
5580.4656222996
5543.4093917279
5509.4890494436
5479.2704261951
5453.03382704
5430.9074397679
5413.2630897284
5399.4938371305
5390.0323497573
5385.2670332309
5384.9496723434
5389.8757372933
5399.4680155489
5413.9155813905
5433.2490843687
5457.3340277337
5486.1283726718
5529.2004741722
5567.8655652315
5609.8315518969
5654.6031687729
5701.4362799088
5749.6571349779
5799.1874824652
5848.5423027091
5897.0676798047
5945.1585774479
5992.2002083701
6037.2948520003
6079.8836719052
6119.1203577788
6154.2745539739
6185.2367313149
6211.2927784955
6232.0580033346
6247.2378408254
6256.6095110369
6260.3812641998
6259.6089483396
6250.5030505137
6236.2203150169
6218.7072033475
6198.0065724085
6174.3844395583
6149.5127806436
6122.9563101156
6099.5493851661
6075.5347088825
6055.4927452106
6037.6819692013
6024.9521052702
6063.1801274887
5983.6726646808
171068.67816048
151334.44623992
140115.9573835
130603.4560186
123416.38149925
116093.43861296
109137.71622323
102097.31025329
94923.739643034
87552.046552237
79711.835801348
71703.67081464
63806.397944125
56249.845397515
49208.126975103
42788.516708545
37099.487853104
32145.795592092
27875.89974216
24225.430368544
21123.561691347
18494.820167384
16251.488311722
14347.392028738
12725.707750933
11337.681813711
10142.151873287
9111.7112491768
8218.8317512511
7440.8600386
6760.9957638884
6163.7771281381
5637.6488087495
5171.9171379749
4758.7025533047
4390.2773359328
4060.8268453254
3765.2376277725
3499.3808336704
3259.2573988326
3042.1075229488
2844.9093147297
2665.6634300647
2501.9942119947
2352.5484161764
2215.4945092863
2089.7341282651
1973.9479141735
1867.1990744328
1768.6150538844
1677.321561306
1592.7411768129
1514.153782384
1441.0985153084
1372.9965870145
1309.4607556008
1250.1000685221
1194.5673846526
1142.5402106417
1093.7159422929
1047.8349060465
1004.6704947859
964.02834104215
925.72298311065
889.57939167339
855.43459553526
823.15018488804
802.91826683722
2960.1715786949
5375.8931935588
5559.4701096932
5597.1067172135
5640.3778888425
5690.5523918023
5742.2215138267
5788.8112137322
5825.2180064198
5848.7051592248
5858.8850145967
5857.1297479968
5843.6423499816
5818.5116585053
5782.9868444707
5741.134802548
5702.6301419606
5660.0992266629
5619.2835436797
5580.1600073313
5543.363600845
5509.664452803
5479.6295877625
5453.5561960892
5431.6045302344
5413.9216334866
5400.301491296
5390.9919483385
5386.3449106722
5386.1182036735
5391.1826599894
5400.930272923
5415.5606031074
5435.0921006867
5459.3583860408
5488.3167885845
5531.5651821569
5570.3199973593
5612.3439103535
5657.1496566325
5704.009102433
5752.252155568
5801.7550391337
5851.0459267874
5899.4123417018
5947.1825250926
5993.7969664784
6038.4800956258
6080.6394002586
6119.5829989689
6154.695626835
6185.4968475193
6211.4003687438
6231.9744206235
6246.9179032819
6256.1304501621
6259.8181705619
6258.9950779761
6249.5484239185
6235.273097841
6217.6618103419
6196.5995051454
6172.7708243986
6148.081692861
6121.8206798821
6098.8282772801
6074.7766397541
6055.6329257688
6037.3194529658
6024.7399814798
6062.4773049494
5983.5840164401
103573.62377902
99978.834347883
98735.546456671
98518.868304272
97299.805007774
94924.841903627
91665.1382679
87837.794455334
82975.785391977
77572.040534993
71520.015504811
65184.147036576
58710.687089248
52314.199274547
46219.303694272
40564.944055606
35445.709433164
30907.133857944
26948.464341112
23529.137347698
20593.695964418
18082.262307654
15942.419607244
14104.891935407
12532.045358255
11182.396638464
10020.52311354
9011.670735505
8136.2692630844
7373.3032969034
6705.1737124455
6116.9624635489
5598.1537701948
5138.9969503612
4730.3543586405
4366.2170830209
4040.2713808042
3747.7423813618
3484.0309599103
3246.1324926895
3030.6225833548
2834.9721384983
2656.8127767036
2494.3057130951
2345.7029873451
2209.4152477324
2084.2820464958
1969.0545938965
1862.851633527
1764.6389071125
1673.7470406665
1589.4601407146
1511.1924954158
1438.3990945772
1370.5417477528
1307.2217437898
1248.0421429406
1192.6771522828
1140.7918145716
1092.0976500951
1046.3424202981
1003.2977493396
962.76016405755
924.55004992041
888.49961062815
854.44608648438
822.22628181493
804.74483141327
3065.957084687
5393.0731738289
5564.6806437781
5600.8494568654
5643.010108114
5692.0071995055
5742.4179740115
5787.8005311593
5823.2088582205
5845.9972203566
5855.7881627666
5853.9151359813
5840.5814784281
5815.8408486393
5780.813011175
5739.396289455
5701.3338487839
5659.0417260141
5618.5217546291
5579.7164407567
5543.2222093002
5509.7837539185
5479.9853681051
5454.1207807461
5432.3701284139
5414.7395820778
5401.2948803563
5392.1988817535
5387.7340192185
5387.6814600956
5392.9227309574
5402.8731405293
5417.6893571957
5437.4067399803
5461.8727855035
5491.0546595637
5534.4599698849
5573.360470061
5615.5261783775
5660.4607920907
5707.4141230676
5755.7030763352
5805.176137752
5854.3959153033
5902.5351843771
5949.9185910547
5996.070069771
6040.296122441
6082.0101433249
6120.5942511472
6155.4540724848
6185.9886268885
6211.6630981026
6232.0320575852
6246.736347131
6255.7933549493
6259.3915438671
6258.47620631
6248.7588458307
6234.5510997621
6216.8490917298
6195.5471455347
6171.5683585329
6146.9882089212
6120.8814682046
6098.2435786254
6074.0653470699
6055.8843771907
6037.0843545128
6024.9605185254
6062.262121607
5984.1926013951
10103.820285507
46051.221360226
60045.528606962
68559.736577321
73731.297480626
76081.063852309
76052.201318731
74625.086741074
72076.122491145
68639.115143371
64523.293180529
59838.45840445
54780.129958761
49544.64228806
44342.522693781
39362.771640978
34725.127802737
30519.521221932
26778.186631495
23495.656058565
20643.325652677
18180.940936234
16059.42838653
14240.02490136
12669.708979137
11312.25361052
10142.06097905
9128.1932828359
8244.5946562934
7471.2417295196
6794.7636246972
6200.1738567869
5674.1543154554
5207.8464773945
4793.6310459446
4424.3681675178
4093.3074004877
3796.3362984541
3528.8636112285
3287.3737589892
3068.4547572414
2869.8984505622
2689.1129801173
2524.1711675263
2373.2348127286
2234.9631793699
2107.9818898164
1991.0808790411
1883.279786945
1783.6515742798
1691.4898619796
1606.0182104231
1526.6466293787
1452.8217425396
1384.0697665495
1319.9390016106
1259.9928899104
1203.8958174757
1151.3377839405
1102.03931539
1055.7274705523
1012.1609297949
971.13405061304
932.46246738909
895.9707633634
861.51257101557
828.95018612875
800.81557269013
2041.9720011081
5237.601692667
5559.3813401792
5596.2070475389
5635.0072502913
5681.4462715266
5730.6578445787
5776.3933714538
5813.3905301016
5838.5278544966
5850.9636434802
5851.6644929709
5841.2557411797
5819.7389895011
5787.5927521913
5747.8290603677
5699.6207289378
5657.674241088
5617.4974114494
5579.0721789522
5542.9439216303
5509.8258987593
5480.3079903958
5454.7023797155
5433.1803946726
5415.70173677
5402.460224982
5393.6173613639
5389.3825265283
5389.5701531239
5395.007567773
5405.1924070142
5420.2366574196
5440.1752186329
5464.856039955
5494.2152710507
5540.1305079914
5579.2493208637
5621.6001472568
5666.6721895923
5713.7408377872
5762.0834640273
5811.4623820787
5860.4735622038
5908.1946670214
5954.9127193433
6000.2020289144
6043.5170095864
6084.3744451277
6122.232624108
6156.4963838761
6186.5446453829
6211.8119114128
6231.8629640983
6246.3042024354
6255.1067184596
6258.5601608222
6257.4605869114
6247.5197375988
6233.5068135102
6215.7440791484
6194.2757800576
6170.0880840644
6145.512661217
6119.430388525
6097.0592970371
6072.6703496776
6055.1457558069
6036.1752927619
6024.7008715389
6061.4252546261
5985.9996254182
7947.9876296485
14677.468357637
25096.174360574
33699.652391
40435.578050307
45383.968145895
48648.702570032
50594.385046774
50758.859133277
50030.607399268
48507.802828667
46225.924955394
43385.527532217
40144.193348451
36680.460952468
33179.363041439
29775.539239942
26569.034724846
23628.45617743
20981.355374359
18629.251167015
16558.499408539
14745.513914348
13162.288387934
11783.342894938
10583.761252744
9535.7199246419
8615.7160520917
7811.2761523811
7104.6595245228
6482.28885822
5930.2059701486
5441.0661500413
5006.111824736
4618.0424309969
4269.8433016737
3957.4916707693
3676.3613924203
3422.6280522648
3192.5975123918
2983.8613778235
2794.0343627975
2620.9722185387
2462.620107795
2317.5429997246
2184.4161351383
2061.9775228126
1949.0996628716
1844.8114814409
1748.3996156967
1659.06261847
1576.1666983223
1499.0763417557
1427.3155453712
1360.431066377
1297.9879322158
1239.6072940775
1184.9200080214
1133.6419143572
1085.4971650862
1040.2422134845
997.65467025217
957.53439608512
919.70410297692
884.00140765192
850.2835843241
818.36389740377
819.72684750402
3498.7283075114
5452.7466347534
5582.7807948688
5614.8333406486
5653.3098408821
5697.8485357854
5743.2778419748
5783.831394416
5815.213337758
5835.1389180099
5843.2728019847
5840.8086590231
5827.88430352
5804.6107723638
5771.513913109
5731.8203506693
5695.1061092605
5653.9974949646
5614.6362924728
5577.1221316146
5541.884958411
5509.5797840791
5480.757539242
5455.8145217155
5434.8894393363
5417.9650005287
5405.269058591
5397.0830123181
5393.4929568503
5394.4080228626
5400.3793686979
5411.1584246257
5426.7694902496
5447.250582718
5472.5007458144
5502.4545447069
5549.6302541063
5589.1810736438
5631.973692442
5677.432308336
5724.7943878958
5773.2694866355
5822.5051305273
5871.1244979345
5918.2067123443
5963.9151166364
6007.937334908
6049.9003495915
6089.4529583392
6126.1296382995
6159.3436718345
6188.4689669442
6212.9344611883
6232.301965315
6246.2946248644
6254.8315413903
6258.1815256997
6256.8870982121
6246.8581263696
6233.1270539234
6215.2793277147
6193.6221991142
6169.1397181153
6144.4466912288
6118.2084359389
6095.9809921193
6071.3899430327
6054.0669583722
6035.2923890092
6024.6079110789
6060.4756396965
5991.1905063124
7688.4649649931
8434.4499459958
12977.495953361
18447.18642272
23493.497613957
27791.963863839
31258.980377412
33853.147775527
35668.659130165
36544.664278025
36456.799505365
35799.586096123
34545.73852576
32798.499580195
30670.034279613
28325.932679778
25904.193851791
23506.993086401
21214.239904705
19078.981306014
17128.426928318
15370.34380302
13800.942288177
12408.152785285
11176.208939078
10089.894627282
9132.1374666438
8287.2633479224
7541.3083159282
6879.8666077589
6293.0115660276
5771.9950250896
5307.7211819662
4893.4678764675
4521.4293068704
4187.1234116121
3886.3398264284
3614.9638776245
3369.0711454774
3145.8221529535
2943.0296607301
2758.2296259383
2589.3633837829
2434.5596615344
2292.6848759162
2162.2732928382
2042.1995328021
1931.3081177368
1828.8146055152
1733.968659613
1646.0320514456
1564.3412152452
1488.3135398614
1417.5211941586
1351.4855528595
1289.803239926
1232.0860281738
1178.0092579796
1127.2953751936
1079.6580120886
1034.8546155124
992.66980446736
952.91639476898
915.42941069953
880.04651271405
846.61826782518
814.91927570601
842.12871445682
3855.7268553229
5492.8940720715
5596.7736714082
5626.399208388
5662.0528789599
5702.88685773
5744.1112598608
5780.5674668211
5808.4927718503
5825.900149243
5832.5000706689
5829.3879637471
5816.6082915999
5794.4308272668
5762.9037578956
5724.6951886214
5689.1075039965
5648.9671506831
5610.5535957305
5574.1190874061
5539.9688860176
5508.6844927954
5480.7834496316
5456.6763983371
5436.5743714578
5420.499437607
5408.5927897089
5401.2453375304
5398.5295369111
5400.4495997163
5407.1822348698
5418.7298671521
5435.0713032285
5456.2379434894
5482.183357514
5512.834836869
5561.1637769598
5601.1348190819
5644.3146474089
5690.0703681113
5737.6032574578
5786.0333970247
5834.9090084566
5882.9028970382
5929.2312633967
5973.8846826751
6016.6202489081
6057.1765807167
6095.3055366242
6130.6473191278
6162.6880348753
6190.8486303842
6214.5830533036
6233.444798299
6247.0158477697
6255.4176117077
6258.7468042459
6257.1573960769
6247.4488359379
6234.0497773319
6216.3255203813
6194.6776761083
6170.0889947791
6145.2304745724
6118.7906809564
6096.3300131235
6071.5404294365
6053.379799401
6035.3912989007
6024.9988321567
6057.6343988448
5999.9757401413
7007.6868043879
6994.3809573379
8440.6059235517
11605.878460462
15084.782638932
18365.155837754
21272.743736065
23721.198607274
25668.926441558
27019.782288597
27688.63225476
27821.382722482
27412.25721886
26613.132832964
25421.770514941
23940.931462458
22284.913256339
20558.745535762
18830.963488459
17160.000052129
15585.543244828
14129.341172203
12799.729733515
11597.629627542
10517.691969159
9551.5044771932
8689.7536233986
7921.5803578775
7236.7036997045
6625.8651223981
6080.5928847094
5593.0215482713
5155.6626006157
4762.8507845167
4409.7745738672
4091.5790921718
3804.1809001933
3543.1505509612
3306.3317730062
3091.1684782521
2895.0912794801
2716.0380738371
2551.8219269915
2401.4028480163
2263.2040368196
2136.0297336322
2018.6279018198
1910.1025211874
1809.7723693915
1716.789004908
1630.5032157798
1550.2158055876
1475.4814389004
1405.8387012992
1340.828990676
1280.0475829146
1223.1171080654
1169.7656546797
1119.7069768028
1072.6744809088
1028.4253211311
986.73806303036
947.4369643856
910.35910137321
875.33938661757
842.22994344805
810.89601839823
892.97763821576
4252.3194012372
5535.1981763865
5613.2855086612
5639.8506606906
5672.1288876763
5708.6984530117
5745.1444541039
5776.9460751025
5800.8974084671
5815.3413441154
5820.0700306641
5816.0528203092
5803.2916567292
5782.0548643194
5752.2988261366
5715.8172831062
5681.5731461937
5642.5126904982
5605.1218631941
5569.8748445509
5536.9716092486
5506.9002105307
5480.1372449074
5457.0570857088
5437.9909241777
5423.0136616517
5412.2264935973
5405.8899806489
5404.2221915729
5407.2972384257
5415.0428132989
5427.5217098744
5444.7323604846
5466.7035146206
5493.4342925409
5524.809637646
5574.1299114897
5614.4816591526
5657.9689945325
5703.8473748413
5751.2865543291
5799.3536346633
5847.5735159892
5894.7894038262
5940.2980690276
5983.9007558827
6025.3650323732
6064.5356690046
6101.2562243341
6135.236433966
6166.0394399888
6193.1835584168
6216.046372351
6234.2462900972
6247.4280690061
6255.842312858
6259.1477944049
6257.032452209
6247.9676988889
6234.6469437503
6216.9586010485
6195.3301014051
6170.7372888041
6145.2649824485
6118.1836064978
6094.422138597
6069.7470638488
6050.8773459712
6034.7603050559
6025.7468204634
6055.4049257766
6017.6137799674
6363.703858153
6364.0129423808
6595.478870577
8176.3013439404
10489.811448093
12892.737242252
15179.091039734
17245.364031223
18989.068098888
20384.94985047
21351.554887807
21800.648214844
21898.066641385
21651.284451454
21051.972205489
20173.407661358
19097.491311849
17881.209590276
16607.282564488
15325.886391008
14078.589763802
12893.520569557
11786.865537384
10766.193845803
9833.3726112899
8986.1938741787
8220.3588428466
7530.3555251006
6909.4096370863
6350.6571745482
5847.8485929677
5395.1116338958
4987.1682184711
4619.113364104
4286.1530734988
3984.3586137116
3710.7990377292
3462.2339013588
3235.9490590632
3029.6270294313
2840.6476506523
2667.6491165655
2509.1470671494
2363.5029120962
2229.5534154404
2105.7874776451
1991.4622854064
1885.7837890715
1787.867618869
1697.0435214673
1612.5383085584
1533.9207593031
1460.6906220265
1392.3664386554
1328.5254050323
1268.7403318597
1212.7524870876
1160.2497955003
1110.9460065542
1064.5962606353
1020.9579622249
979.85697981067
941.10884578153
904.52653649919
869.94995632089
837.23452289845
805.89472709273
1011.1140199619
4646.5438367623
5577.4676198907
5632.2067003086
5654.8954550664
5683.2184510275
5715.0480217093
5746.274160184
5772.9926711277
5792.5515548839
5803.6420200664
5806.2062149622
5800.9633937348
5788.0467792603
5767.6100591959
5739.5732535631
5705.0755246104
5672.4390701655
5634.57708508
5598.2203906939
5564.1962028428
5532.6645588495
5503.9679298712
5478.5335464566
5456.7299157496
5438.8517694851
5425.1729146037
5415.7486377209
5410.6972064361
5410.3108612266
5414.598264447
5423.4813036333
5437.0033893728
5455.1771753342
5478.0309594103
5505.571318919
5537.6093520753
5587.6242740399
5628.2904281687
5671.8928555207
5717.6504652998
5764.7267609825
5812.165384288
5859.5357586973
5905.8558572459
5950.421458208
5992.9107998667
6033.1056693772
6070.9275005825
6106.2693919652
6138.9870473485
6168.70950881
6194.7872233519
6216.760610271
6234.3853205537
6247.0109704864
6255.3387703525
6258.1184470147
6255.4498656719
6246.1478200328
6231.8606588882
6212.9383058203
6190.8741786681
6167.5293928529
6142.7995806456
6115.8448563195
6090.8262087518
6064.8743737688
6042.6635593263
6026.7440303271
6019.2672381125
6044.0782251562
6051.557324268
5841.7108724771
5822.3537149375
5782.6947590808
6370.6801314053
7805.0751356805
9541.6175250705
11298.617095172
12971.060350242
14455.9585526
15703.971641757
16702.925925515
17342.958419453
17682.90730981
17729.0215575
17511.922827114
17023.014856868
16327.341755159
15505.606805848
14586.620546885
13624.50993433
12653.26633121
11702.752372672
10793.967065391
9938.8049726439
9143.374988064
8409.8432744993
7737.2335646866
7123.7174814589
6566.0348405182
6059.7699546964
5600.5012863964
5183.9727665091
4806.0733645395
4463.0036047127
4151.2275281732
3867.6892492134
3609.4788945293
3373.7199058315
3158.0859193987
2960.8879912599
2780.1818124803
2614.3742548922
2461.9845272559
2321.3525534693
2191.6388214916
2071.9216727264
1961.1718224888
1858.6240159719
1763.3159623216
1674.7211504478
1592.367466712
1515.62496222
1444.0696285163
1377.1927877025
1314.5814260953
1255.9974904674
1201.0696438954
1149.5215244675
1101.0713651182
1055.4648107437
1012.5359344915
972.08422780343
933.91777426528
897.87592131317
863.78054083752
831.51873100302
800.41969514343
1249.9087735075
4989.4912747972
5616.0882581456
5651.9131385632
5670.7254901307
5694.7595002703
5721.5140987838
5747.2129789161