/*--------------------------------*- C++ -*----------------------------------*\
| =========                 |                                                 |
| \\      /  F ield         | OpenFOAM: The Open Source CFD Toolbox           |
|  \\    /   O peration     | Version:  2312                                  |
|   \\  /    A nd           | Website:  www.openfoam.com                      |
|    \\/     M anipulation  |                                                 |
\*---------------------------------------------------------------------------*/
FoamFile
{
    version     2.0;
    format      ascii;
    arch        "LSB;label=32;scalar=64";
    class       volScalarField;
    location    "0.00011";
    object      pTsat;
}
// * * * * * * * * * * * * * * * * * * * * * * * * * * * * * * * * * * * * * //

dimensions      [1 -1 -2 0 0 0 0];

internalField   nonuniform List<scalar> 
109340
(
389433.26010891
387876.92206232
384930.9536634
381396.09848381
377529.83360871
373542.4725589
369515.89760858
365500.23397099
361582.63727376
357753.84882941
353959.59031975
350196.24255063
346467.37028887
342775.41726233
339122.1030162
335508.94888846
331935.3844847
328399.04460649
324895.16373838
321417.08645459
317954.8212217
314497.49213394
311032.72244218
307545.72492406
304016.74677953
300420.13445171
296721.63034586
292875.10848596
288817.21889732
284458.98286585
279672.3143458
274267.16663736
267956.39958904
260314.81348064
250754.11680009
238545.005985
389667.68507837
387669.18401979
384366.75537457
380600.40351443
376631.49905265
372640.14974323
368678.51417516
364757.35508994
360872.92591924
357028.58429349
353218.74627844
349444.35239781
345707.85744538
342010.7934702
338354.16216748
334737.56220256
331161.03037913
327621.65423413
324113.86868636
320629.91497715
317159.58429008
313691.75946895
310213.69962405
306709.79032511
303159.14561827
299534.26072674
295798.38442788
291901.68975543
287775.20215541
283321.25092199
278397.42289769
272788.13435211
266154.9030591
257974.88447656
247394.16134742
233500.00555508
390540.6710186
388223.14668798
384584.20761976
380726.74199542
376789.44030802
372852.32707887
368908.14480297
364969.09178051
361060.063671
357188.76677045
353354.24595618
349557.08180964
345799.1111484
342081.84916469
338406.83908753
334775.16354521
331186.54571123
327638.1713362
324124.00121928
320635.90128535
317162.8793829
313693.62739874
310215.25881581
306711.95645016
303162.69341649
299539.71290485
295806.13499498
291912.02290107
287788.24459122
283336.49026089
278412.72452665
272795.15753572
266117.10994423
257767.53412691
246652.77172297
231027.52820161
391759.13305364
388958.76735096
385129.89996789
381158.65928189
377141.01542727
373118.26102579
369104.85064903
365115.02110585
361165.1892753
357261.05958339
353402.20138599
349588.08476194
345818.87334778
342094.8697085
338416.30670561
334783.14342112
331194.63024922
327647.5563442
324134.9654941
320648.95661843
317177.08251054
313708.58529347
310230.92112271
306728.26731428
303180.1454332
299558.69300371
295827.11745657
291935.50362757
287814.55329016
283365.05466628
278441.02047176
272815.0554997
266083.57731597
257522.64543226
245640.1335825
227088.38096101
393688.54245238
390033.95850781
385636.52044906
381389.82526345
377260.82612035
373197.39904392
369170.51358456
365182.11446966
361235.85025957
357332.15936254
353472.68042323
349657.87439947
345888.08886199
342163.7656257
338485.38417131
334853.37809278
331267.99740463
327727.24463472
324217.41096079
320737.30083604
317269.19609001
313803.87797941
310329.35438121
306829.29549438
303284.3349999
299666.34299096
295938.63834559
292051.28980095
287934.66833473
283488.44212723
278561.00019184
272932.32345643
266151.09260597
257384.41102808
244639.20544129
221626.09267243
397313.78128389
390606.0082171
385756.50975237
381420.14971783
377285.94097324
373231.15106093
369214.67076067
365229.12271326
361280.79413762
357371.22801082
353503.16255352
349677.47612551
345894.72314416
342155.41113173
338460.10209251
334809.49782185
331204.58169351
327651.65133887
324165.94782758
320680.45247506
317204.75664166
313732.41031387
310251.55091032
306746.5133104
303196.75631094
299574.50460864
295842.80323657
291951.70019347
287831.61685798
283381.76087729
278440.35701852
272814.26975
266008.14511207
257142.27324465
243927.08807449
216066.15830478
223838.36856186
209155.1703553
196870.84708284
186883.07617963
178102.86925923
168564.36761824
158002.19254818
146317.42618254
133635.0873606
120238.45448059
105947.29690829
93086.387127828
80540.868333564
69071.413603254
58991.698810893
50227.0588923
42764.766766885
36460.042141762
31166.080106957
26766.092721829
23116.307299559
20061.71482123
17501.673475087
15356.263700112
13550.595397523
12022.000393869
10692.294800754
9581.4898894752
8621.6156237873
7756.226147806
7057.8275515746
6394.391877435
5859.3675871094
5346.1707409349
4926.762668344
4523.6427135758
4190.7602581488
3868.2183526379
3601.3298308704
3339.6785091751
3123.2130340356
2908.8458384265
2730.5454045686
2554.6669145329
2404.7569755396
2261.1257597047
2132.1017092134
2013.9319814479
1902.2715301601
1802.3265673565
1707.4699612124
1620.543943123
1539.8300680636
1464.9352552104
1395.1804247129
1330.1628573593
1269.4054863885
1212.5840781858
1159.3702136679
1109.4724696838
1062.6046658646
1018.5286689357
977.03976804435
937.95541962127
901.09865610132
866.30469919501
833.42852684441
803.87672349333
1645.737476565
5112.6983288828
5536.2229399858
5582.278726563
5626.0324360362
5677.6245343722
5732.3707726593
5783.6002363332
5825.4105174199
5854.1629086508
5868.8494220416
5870.4999123772
5859.8112648248
5836.6841646842
5802.2011341517
5760.1972032393
5709.2598441454
5666.3416105005
5624.1787614876
5583.6832076806
5545.6627318041
5510.9144850336
5480.0297408892
5453.1093225218
5430.3695220809
5412.671504052
5398.2002627749
5388.3448144031
5383.1513432384
5382.8011412194
5387.0927060176
5396.357243174
5410.4681033595
5429.4598007422
5453.2209844287
5481.7163648359
5524.533615933
5563.084177309
5604.9863351109
5649.7277717189
5696.5319346624
5744.8118248463
5794.5047957854
5844.0230531347
5892.5889822106
5941.5473424334
5989.3122697913
6034.8427263882
6078.1858136309
6117.9976390084
6152.8604733684
6183.9490176769
6210.7323537053
6232.0965626932
6247.6161730165
6257.1462289444
6260.9175535969
6260.2881971667
6253.1204764378
6238.0954727644
6220.1606423349
6201.0478933984
6178.2037860543
6152.8789783589
6125.7230447718
6101.6426112729
6077.3123538491
6055.5080941817
6039.6384659458
6023.0258453702
6070.9521075493
5997.7353236534
216288.59177045
200787.54707556
189183.58578659
180163.09447591
170805.74323547
160966.79940314
150066.42804758
138251.87846164
125747.30472563
112812.42145461
99823.357161913
87024.827340442
75604.061244502
65103.301858213
55715.155605811
47585.673906867
40611.401645781
34711.452755882
29765.294438103
25628.871517966
22175.168451393
19289.446265364
16868.148020229
14826.95815663
13100.743230901
11634.664209737
10381.344865931
9303.5887787967
8376.2535554536
7569.4450671021
6867.4578503407
6253.4725915496
5712.4949201211
5236.0062817761
4812.2934973345
4436.6029366333
4099.786485574
3799.2567894954
3528.1866591871
3284.6082752957
3063.838526349
2864.0939807718
2682.3655752027
2516.7060269497
2365.6641842373
2226.9888492277
2100.2032229479
1983.1275017662
1875.721005265
1776.1880403495
1684.2971017247
1598.9394581455
1519.7629569562
1446.1894880089
1377.674791746
1313.779393754
1254.0789015886
1198.2294882244
1145.8969538677
1096.7987919619
1050.6754902091
1007.2985683292
966.45462054178
927.95362857905
891.62678888569
857.32945732794
824.93838376532
802.57498793247
2767.1138000777
5343.8006834594
5549.0644599129
5589.5323950524
5635.1933984761
5687.7425901588
5741.8375886042
5790.7254216879
5829.0280542927
5853.8343320651
5864.7367065471
5863.186866861
5849.3554482057
5823.441972548
5786.9319339169
5744.2528183598
5704.8581630692
5662.0160203422
5620.5686079485
5580.7501437318
5543.3254965774
5509.117129283
5478.7166078915
5452.2429512715
5429.8970754778
5412.4655851973
5398.4070943811
5388.8569127419
5383.9276721308
5383.7379638883
5388.2787061731
5397.6925034715
5411.9378866609
5431.0374155772
5454.8819024697
5483.4367834497
5526.2668483889
5564.790667895
5606.6475954277
5651.3348299924
5698.0845602433
5746.2991242152
5795.9243850408
5845.378081694
5893.9283967444
5942.6988670976
5990.3554669399
6035.886104156
6079.1669393517
6118.7514375247
6153.6872936658
6184.8755538146
6211.4012613636
6232.5454769251
6247.9550876713
6257.4440364165
6261.2386620354
6260.6372764234
6252.9303727797
6237.7899535629
6220.0803824916
6200.6347228806
6177.4471789703
6152.1330015447
6125.0427764071
6101.1184612657
6076.8915145094
6055.404382099
6038.5061505584
6022.1191741993
6063.1727763715
5983.3425220072
209765.41348323
191487.59184832
180958.9595111
171648.19268552
161693.09464981
151459.50412295
140736.29549704
129464.39891475
117825.84592214
105659.55906787
94375.884616286
83152.322524877
72554.373085486
62834.751366779
54087.683927725
46383.846714378
39731.160959303
34082.729598102
29312.69552383
25290.531699622
21919.550879276
19096.480435055
16719.118636314
14711.274914294
13011.379226265
11563.267207452
10323.856277791
9258.6565101062
8338.2218063089
7540.0093860401
6841.9915558305
6232.207804269
5694.7515440933
5220.7353616712
4799.7736035159
4425.3848435315
4090.689356165
3791.0814251476
3521.3653311692
3278.558735733
3058.6051590434
2859.5932636242
2678.1934965092
2513.3639086633
2362.3438537401
2224.4269336369
2097.5566929574
1981.0677222493
1873.5967794232
1774.3576820278
1682.5821634741
1597.4690823267
1518.472296104
1444.9558968426
1376.5325047334
1312.7159088112
1253.1122659049
1197.3446583431
1145.0847013837
1096.0491981601
1049.9853642367
1006.6630340105
965.86840498324
927.4130230591
891.12813359457
856.86665853929
824.48942324641
802.5750779344
2809.3879062705
5351.7404149579
5551.539743225
5591.3612108961
5636.4348097778
5688.4093359912
5741.9282699619
5790.2756595288
5828.1341474645
5852.6336989356
5863.3730942287
5861.7709418144
5848.013947572
5822.2876312443
5786.0240517768
5743.5323073662
5704.2354665745
5661.4630832885
5620.212103979
5580.6192084898
5543.385139234
5509.2972964909
5478.9437382664
5452.5830872959
5430.2760378896
5412.7717126476
5398.850314535
5389.2521072783
5384.3875246226
5384.0268113483
5388.7673476801
5398.2541009596
5412.5999153295
5431.8089966693
5455.7617671825
5484.4180795837
5527.3398417534
5565.9098000136
5607.793322592
5652.4958607041
5699.2663361174
5747.4808183675
5797.0359139465
5846.4180190365
5895.0761967371
5943.5179393333
5990.8545701209
6036.1997427548
6079.0561569063
6118.525156844
6153.8337030063
6184.8715321846
6211.1113203434
6232.0953678876
6247.4519217624
6256.9442763416
6260.8074298208
6260.1828717408
6251.3977580573
6236.924039442
6219.6377500078
6199.4404887873
6176.0505183822
6150.9557194908
6124.2426730544
6100.4538926614
6076.421626938
6055.6211518405
6038.0323328485
6024.2278126567
6059.5542453059
5982.8830382247
197529.66696884
176231.1361424
166029.3178122
155594.40156408
146360.45603072
136481.29651409
126758.15811781
116905.26148287
106895.61579963
96661.156905556
87410.266827285
77857.462281499
68550.795024448
59848.126295106
51848.958432254
44751.942857188
38556.340774075
33213.251807562
28665.411680657
24823.6063405
21575.534491728
18825.65477396
16511.949286773
14554.01478708
12886.172906178
11462.952433356
10244.618917767
9194.7508422999
8285.6920390735
7496.4888872178
6807.0267708504
6201.8515852434
5669.9714306854
5199.2029643004
4781.963565258
4409.8355736529
4077.8374439271
3779.6059929647
3511.879543812
3270.0352170403
3051.5077494491
2853.0795560773
2672.7968412818
2508.372672012
2358.0738082216
2220.5206724185
2094.1145556467
1977.993154377
1870.7563778317
1771.8682068026
1680.2524303994
1595.4198473979
1516.5993184107
1443.2785039555
1374.9858512651
1311.2853649722
1251.7933333769
1196.1281234265
1143.9709477864
1095.0299853929
1049.0477455461
1005.7938257548
965.06468150445
926.6752304855
890.45335910437
856.24043163379
823.90029144009
802.51786701408
2874.4211163807
5362.1724413343
5555.0346230824
5593.9130766349
5638.1787359889
5689.3538914608
5742.0626368928
5789.6415959302
5826.8641246218
5850.9190951675
5861.4131254272
5859.7498429575
5846.1175100783
5820.6576229821
5784.718067526
5742.5044969331
5703.5905773769
5660.9314990134
5619.8641534952
5580.4655690641
5543.4093367276
5509.4889936183
5479.2703687947
5453.0337705645
5430.9073794572
5413.2630310157
5399.4937814755
5390.0322958609
5385.2669857107
5384.9496239812
5389.8756921126
5399.4679742187
5413.9155437165
5433.2490496892
5457.3339956315
5486.1283521748
5529.2004694016
5567.8655538802
5609.8315405478
5654.6031597326
5701.4362721464
5749.6571297137
5799.187475381
5848.5422966689
5897.0676743208
5945.1585737142
5992.2002063076
6037.2948522276
6079.883674018
6119.120360538
6154.2745617814
6185.2367371584
6211.2927840243
6232.0580069431
6247.2378413083
6256.6095026898
6260.3812489831
6259.6089201925
6250.5030116326
6236.2202588996
6218.7071338992
6198.0064850696
6174.3843376841
6149.5126710743
6122.9561921228
6099.5492641619
6075.5345923546
6055.4926364746
6037.6818690134
6024.9520196784
6063.1800011349
5983.6728753679
171068.6781437
151334.44629133
140115.95746746
130603.45590677
123416.3894814
116093.43801297
109137.71655364
102097.30977302
94923.739688826
87552.046626868
79711.83582546
71703.67076308
63806.397846742
56249.845330425
49208.126990484
42788.516649291
37099.48785481
32145.795642697
27875.899684108
24225.43034249
21123.561719639
18494.820264655
16251.488290266
14347.392003321
12725.707788018
11337.681814609
10142.151820158
9111.7112884992
8218.8317045273
7440.8599901828
6760.9958263733
6163.7770050729
5637.6489099918
5171.9170202523
4758.7026603452
4390.2772341096
4060.8269430882
3765.2375499904
3499.3809147813
3259.2573425649
3042.1075764959
2844.9092876727
2665.6634510234
2501.9942250101
2352.5484044001
2215.4945544952
2089.7340989006
1973.9479707901
1867.199050096
1768.6150988193
1677.3215604889
1592.7411911001
1514.1537863027
1441.0985044788
1372.996583984
1309.4607361931
1250.1000544995
1194.5673676252
1142.5401978082
1093.7159334112
1047.834901501
1004.6704945028
964.02834339156
925.72298596069
889.57939223975
855.43459279371
823.15018179516
802.91806763754
2960.1689491491
5375.892107778
5559.4698162034
5597.10654003
5640.3777829912
5690.5523644415
5742.2215722699
5788.8113479732
5825.2181933623
5848.7053700539
5858.8852077949
5857.12996434
5843.6425467028
5818.5118358411
5782.9869366506
5741.1348487082
5702.629662511
5660.0991898852
5619.2834960122
5580.1599554401
5543.3635465715
5509.6643968704
5479.6295321201
5453.5561399147
5431.6044716404
5413.9215758062
5400.301436196
5390.991894801
5386.3448624494
5386.118154574
5391.1826144023
5400.930230271
5415.5605639544
5435.092064612
5459.3583527818
5488.3167670124
5531.5651799406
5570.3199876615
5612.3439055345
5657.1496521595
5704.0090996315
5752.2521552627
5801.755037088
5851.045926179
5899.4123410781
5947.1825250149
5993.7969680012
6038.4800984321
6080.6394049227
6119.5830066127
6154.6956343494
6185.4968558298
6211.4003755382
6231.9744245647
6246.9179032921
6256.1304415572
6259.8181549048
6258.9950495696
6249.5483842033
6235.2730374609
6217.6617371384
6196.5994165978
6172.7707209804
6148.0815777754
6121.820562175
6098.8281600128
6074.7765254457
6055.6328322239
6037.3193569456
6024.7399029438
6062.4771836612
5983.584217905
103573.6237751
99978.834354852
98735.54637552
98518.867046561
97299.801030576
94924.84136392
91665.138527482
87837.794368097
82975.785446711
77572.040579844
71520.015579213
65184.147035988
58710.687000962
52314.199245962
46219.303659966
40564.944034094
35445.709479453
30907.133854938
26948.464300731
23529.13736175
20593.695963041
18082.262259074
15942.419583186
14104.891950825
12532.045386183
11182.396626893
10020.523101187
9011.6707307647
8136.2692829777
7373.3032281988
6705.1737398153
6116.9624044082
5598.1537825015
5138.9969204347
4730.3543619666
4366.2170632965
4040.2713979922
3747.7423667937
3484.0309907191
3246.1324681979
3030.6226232964
2834.9721027931
2656.8128191456
2494.3056819434
2345.7030250684
2209.4152353435
2084.2820685784
1969.0546073054
1862.8516384555
1764.6389392567
1673.7470354666
1589.4601654351
1511.1924861238
1438.3990983794
1370.5417361808
1307.2217293474
1248.0421287306
1192.6771347061
1140.7918022764
1092.0976404192
1046.3424157605
1003.2977483975
962.7601663896
924.55005354866
888.49961214017
854.44608601462
822.22627796492
804.7441889086
3065.9542590948
5393.0721817378
5564.6803941013
5600.8492952551
5643.0100086759
5692.0071757558
5742.4180342709
5787.8006650656
5823.2090430176
5845.9974281926
5855.7883530791
5853.9153464087
5840.5816718573
5815.8410264612
5780.813128432
5739.3963418681
5701.3333773627
5659.0416916463
5618.5217089493
5579.7163907485
5543.2221575674
5509.783702481
5479.9853142922
5454.1207258904
5432.3700717406
5414.7395257081
5401.2948259716
5392.1988285162
5387.7339699718
5387.6814105529
5392.9226846297
5402.873096292
5417.689316511
5437.4067023841
5461.8727509092
5491.054632667
5534.4599684976
5573.3604571711
5615.5261725544
5660.4607903083
5707.4141223359
5755.7030792695
5805.1761377057
5854.3959169504
5902.5351856493
5949.9185924167
5996.0700715742
6040.296124672
6082.0101460824
6120.5942557267
6155.4540782762
6185.9886327599
6211.6631030153
6232.0320583987
6246.7363477311
6255.7933412632
6259.3915228727
6258.4761715634
6248.7587991395
6234.5510370847
6216.8490173749
6195.5470554157
6171.5682546158
6146.9880957382
6120.8813516569
6098.2434637984
6074.0652354841
6055.8842753811
6037.0842730549
6024.9604398851
6062.2620033411
5984.1927908853
10103.820293347
46051.221310188
60045.528262937
68559.736602228
73731.297887508
76081.063976108
76052.201495479
74625.086769477
72076.122707809
68639.115160226
64523.293235356
59838.45844595
54780.12990013
49544.642240716
44342.522637522
39362.771615596
34725.127835948
30519.521204801
26778.186603676
23495.656066279
20643.325627241
18180.940900045
16059.428373519
14240.02494261
12669.708951452
11312.253592089
10142.060963912
9128.1932647869
8244.5946279491
7471.2416993006
6794.7636103127
6200.1738415843
5674.1542860337
5207.8464765482
4793.6310088222
4424.3681726871
4093.3073758303
3796.3363148734
3528.8636056682
3287.3737625314
3068.454758415
2869.8984398659
2689.1129943145
2524.1711492369
2373.2348368486
2234.9631649598
2107.9819137157
1991.0808764285
1883.2798042479
1783.6515882127
1691.4898676893
1606.0182292866
1526.6466237089
1452.8217493371
1384.0697547583
1319.9389925457
1259.9928753554
1203.8958010818
1151.3377715026
1102.0393043169
1055.7274648881
1012.1609273497
971.13405077789
932.4624670061
895.97076137586
861.51256895089
828.95018372363
800.81543409801
2041.9756456154
5237.5997780834
5559.3810633896
5596.2068828412
5635.0071411377
5681.4462309238
5730.6578904128
5776.3934890258
5813.390702525
5838.5280557793
5850.963848927
5851.664702104
5841.2559340919
5819.7391741793
5787.5928930588
5747.8290781801
5699.6202624778
5657.6742096894
5617.497368331
5579.0721312139
5542.9438727104
5509.82584874
5480.3079393934
5454.7023269701
5433.1803403225
5415.7016818479
5402.4601714812
5393.6173086688
5389.3824765028
5389.5701028923
5395.0075205949
5405.1923616111
5420.2366151685
5440.1751794523
5464.8560032403
5494.215249248
5540.1305292785
5579.2493133242
5621.6001385343
5666.672181531
5713.7408319282
5762.0834588056
5811.4623777265
5860.4735581999
5908.1946635442
5954.9127159178
6000.2020257156
6043.5170066989
6084.3744437078
6122.232623659
6156.4963846849
6186.5446462466
6211.8119111103
6231.8629614382
6246.3041943654
6255.1067045087
6258.5601401427
6257.4605526594
6247.5196951887
6233.5067530522
6215.7440063321
6194.2756924274
6170.0879836315
6145.5125519261
6119.4302756832
6097.0591843351
6072.6702428579
6055.1456604424
6036.1752096222
6024.7007999245
6061.4251418884
5985.9998050837
7947.9876476626
14677.468316008
25096.174553535
33699.6523819
40435.577887308
45383.968193611
48648.702458768
50594.385314055
50758.859248169
50030.607407331
48507.802998816
46225.925085135
43385.527410627
40144.193310258
36680.460913464
33179.363065454
29775.539235893
26569.034696899
23628.456196259
20981.355370884
18629.25114117
16558.499406968
14745.513904125
13162.288365762
11783.342896533
10583.761302599
9535.7199299325
8615.7160258431
7811.2761356288
7104.6595153169
6482.2888460951
5930.2059418214
5441.0661353131
5006.1117961887
4618.042426765
4269.8432871144
3957.4916792285
3676.3613825047
3422.6280594711
3192.5975036359
2983.8613755083
2794.0343512429
2620.972206209
2462.6201058688
2317.5429906366
2184.4161401974
2061.9775148222
1949.0996711831
1844.8114824149
1748.3996234909
1659.062625194
1576.1666986483
1499.0763469343
1427.3155388653
1360.431062967
1297.9879213683
1239.6072826192
1184.919997238
1133.6419034044
1085.4971592279
1040.2422101404
997.6546708649
957.53439824823
919.70410546335
884.00141096906
850.28358677981
818.3639224114
819.72604419532
3498.7265860761
5452.7458172874
5582.780586284
5614.8332029188
5653.3097601834
5697.8485281762
5743.2779106874
5783.8315264273
5815.2135137959
5835.1391140076
5843.2729836077
5840.8088521725
5827.8844889379
5804.6109496325
5771.5140455904
5731.8204533034
5695.105657145
5653.9974706947
5614.6362556027
5577.1220893925
5541.8849144236
5509.5797391062
5480.7574946014
5455.8144741744
5434.8893899277
5417.9649493803
5405.2690076271
5397.082961403
5393.4929073669
5394.4079720088
5400.3793200173
5411.1583776089
5426.7694457504
5447.2505410294
5472.5007065151
5502.4545192843
5549.6302782482
5589.1810686925
5631.9736884604
5677.4323058357
5724.7943881574
5773.2694881016
5822.5051325431
5871.1245010815
5918.2067154519
5963.915119903
6007.937338591
6049.9003534823
6089.4529636725
6126.1296440194
6159.3436772913
6188.4689719706
6212.9344637761
6232.3019670907
6246.2946174549
6254.8315274985
6258.1815041279
6256.8870659234
6246.8580815847
6233.126991869
6215.2792535189
6193.6221112116
6169.1396188189
6144.4465839062
6118.2083260439
6095.9808831128
6071.3898405604
6054.0668669927
6035.2923109215
6024.607846293
6060.4755384056
5991.1906670064
7688.4649597981
8434.4499329265
12977.495925804
18447.186409267
23493.497604019
27791.963928401
31258.980386562
33853.14775759
35668.65913266
36544.664835302
36456.798731849
35799.587868696
34545.734835207
32798.498438804
30670.034087743
28325.932543112
25904.193704339
23506.993143449
21214.239891881
19078.981309182
17128.42693332
15370.343802873
13800.942282706
12408.152789377
11176.208960453
10089.894626945
9132.1374436879
8287.2633480487
7541.3083194095
6879.8665883288
6293.0115358561
5771.9949950767
5307.7211508119
4893.4678530014
4521.4292946323
4187.1234015247
3886.3398153555
3614.9638767898
3369.0711397988
3145.8221536512
2943.0296541991
2758.2296136071
2589.363376334
2434.5596524332
2292.6848737678
2162.273285744
2042.1995341529
1931.3081162599
1828.8146076469
1733.9686607176
1646.0320497098
1564.3412160469
1488.3135351186
1417.5211910725
1351.4855457093
1289.8032320408
1232.0860207794
1178.0092491141
1127.295369565
1079.6580075153
1034.8546143211
992.66980509272
952.91639561244
915.42941133408
880.04651153584
846.61826484934
814.91925719943
842.127178659
3855.7242584052
5492.8933824558
5596.7734735385
5626.3990832992
5662.0528144561
5702.8868640917
5744.1113346064
5780.5675974314
5808.4929412732
5825.900336322
5832.5002448707
5829.3881451529
5816.6084688978
5794.4310013894
5762.9038989784
5724.6953416045
5689.107072694
5648.9671355051
5610.5535667965
5574.119052261
5539.9688486007
5508.6844536424
5480.7834052746
5456.6763552369
5436.5743283912
5420.4993919491
5408.5927420668
5401.2452897685
5398.5294887531
5400.4495494918
5407.182186872
5418.7298206516
5435.0712587605
5456.2379014582
5482.1833181467
5512.8348130863
5561.1637996814
5601.1348099799
5644.314640135
5690.0703612683
5737.6032533868
5786.0333985177
5834.9090061703
5882.9028988148
5929.2312652513
5973.8846851713
6016.6202510933
6057.1765842014
6095.3055401505
6130.6473232359
6162.6880396206
6190.8486328983
6214.5830547066
6233.4447925005
6247.0158411319
6255.4175967272
6258.746781626
6257.1573572279
6247.448794022
6234.0497151114
6216.3254445357
6194.6775868486
6170.0888927125
6145.2303634842
6118.7905656005
6096.3298986252
6071.5403196411
6053.3797022148
6035.3912131785
6024.9987619478
6057.6343047365
5999.9758754697
7007.6868149535
6994.3809666675
8440.6058760249
11605.878456146
15084.782641314
18365.155821025
21272.743822265
23721.198614453
25668.92619149
27019.782838099
27688.638035558
27821.394156696
27412.256377569
26613.132243369
25421.768483776
23940.93145007
22284.913173513
20558.7454493
18830.963506517
17160.000043149
15585.54319074
14129.341140565
12799.729734548
11597.629632888
10517.691969525
9551.5044603179
8689.7536151383
7921.5803691477
7236.7037069881
6625.8651194694
6080.5928812837
5593.0215410158
5155.662567811
4762.8507522181
4409.7745528727
4091.5790861464
3804.1808966092
3543.1505412671
3306.3317732596
3091.1684757654
2895.0912716084
2716.0380651405
2551.8219170607
2401.4028406732
2263.2040285936
2136.0297327623
2018.6279042872
1910.1025248114
1809.7723706978
1716.7890028325
1630.5032138863
1550.2158010067
1475.4814338535
1405.8386936449
1340.8289828198
1280.0475762116
1223.1171010012
1169.7656498414
1119.7069725111
1072.6744787006
1028.4253206022
986.73806272826
947.43696412095
910.35909945841
875.33938360154
842.22994089114
810.89599757737
892.97661060979
4252.3172422686
5535.1976013788
5613.2853389434
5639.8505565182
5672.1288436801
5708.6984751686
5745.1445363284
5776.9462058036
5800.8975723732
5815.3415228615
5820.0702044751
5816.0529928912
5803.2918250041
5782.0550326326
5752.2989745109
5715.8174349468
5681.5727572695
5642.5126827569
5605.1218442634
5569.8748183945
5536.971579889
5506.9001798166
5480.1372150496
5457.0570544722
5437.990889051
5423.0136231277
5412.2264521526
5405.8899374718
5404.222146352
5407.2971926934
5415.0427684701
5427.5216661289
5444.7323182447
5466.7034745976
5493.4342557853
5524.8096173923
5574.129936523
5614.4816510675
5657.9689878389
5703.8473730145
5751.2865523903
5799.3536374081
5847.5735172499
5894.7894087498
5940.298074164
5983.9007611529
6025.3650386417
6064.5356751886
6101.2562304741
6135.2364394689
6166.0394438945
6193.1835600963
6216.0463709448
6234.2462855547
6247.4280577926
6255.8422953462
6259.1477679054
6257.0324127755
6247.967650914
6234.6468792317
6216.9585209864
6195.3300066992
6170.7371816229
6145.2648643806
6118.1834826813
6094.4220147401
6069.7469435957
6050.8772379137
6034.7602094216
6025.7467421251
6055.40482918
6017.6138885138
6363.703869939
6364.0129367445
6595.4788574995
8176.3013370691
10489.811485341
12892.737216523
15179.091079623
17245.364046496
18989.067904129
20384.949284199
21351.550432152
21800.639116613
21898.0626347
21651.282277805
21051.973110329
20173.406406189
19097.491832775
17881.210362262
16607.282494906
15325.886384208
14078.589793507
12893.520565276
11786.865521416
10766.193844996
9833.3726088813
8986.1938839528
8220.3588537475
7530.3555138774
6909.4096132266
6350.6571612573
5847.848589847
5395.1116226815
4987.1681977446
4619.1133367978
4286.1530562169
3984.3585994518
3710.7990273307
3462.2339008046
3235.9490712543
3029.6270383883
2840.6476493158
2667.649120021
2509.1470705014
2363.5029056536
2229.5534081154
2105.7874782604
1991.4622895548
1885.7837936135
1787.8676195029
1697.0435206064
1612.5383071051
1533.9207551617
1460.6906152831
1392.3664295458
1328.525396295
1268.7403237234
1212.7524812463
1160.2497909298
1110.9460036558
1064.596259056
1020.9579604465
979.85697824559
941.10884338114
904.5265336007
869.94995273089
837.23451726289
805.8947374148
1011.1118870457
4646.5407379639
5577.4672772288
5632.2065732648
5654.8953805694
5683.2184315456
5715.0480638598
5746.2742530427
5772.9928048578
5792.5517157092
5803.6421923932
5806.2063815052
5800.9635574323
5788.046938419
5767.6102204873
5739.5734059347
5705.0756894317
5672.4387323036
5634.577095753
5598.2203835722
5564.1961877192
5532.6645394655
5503.9679086068
5478.5335236645
5456.7298889502
5438.8517422035
5425.172884078
5415.7486048263
5410.6971699546
5410.3108230746
5414.5982253706
5423.4812641092
5437.003351701
5455.1771373647
5478.0309232244
5505.5712860956
5537.6093394736
5587.6243037403
5628.2904224842
5671.8928514159
5717.6504626099
5764.7267615017
5812.1653882211
5859.5357627585
5905.8558640208
5950.4214658109
5992.9108082057
6033.1056776472
6070.927508402
6106.2693990483
6138.9870528299
6168.7095120877
6194.7872248134
6216.7606065794
6234.3853138023
6247.0109564362
6255.3387484012
6258.1184157419
6255.4498228863
6246.1477640285
6231.8605881594
6212.9382188151
6190.8740758774
6167.5292758343
6142.7994532687
6115.8447211014
6090.8260730078
6064.8742414378
6042.6634444413
6026.7439233668
6019.2671531744
6044.078135421
6051.5573580763
5841.7108332396
5822.3537229186
5782.6947686284
6370.6801183456
7805.0751376132
9541.6175072419
11298.617097896
12971.06030496
14455.958594236
15703.971536362
16702.92578463
17342.95654741
17682.904140853
17729.018090458
17511.925804963
17023.017123943
16327.342822201
15505.605550037
14586.620933443
13624.509944689
12653.26639114
11702.752440623
10793.967082451
9938.8049702205
9143.3749885534
8409.8432836772
7737.233587724
7123.7174985101
6566.034844044
6059.7699470961
5600.5012663311
5183.972742436
4806.0733491244
4463.0035959468
4151.2275136583
3867.6892264971
3609.478868879
3373.7198924317
3158.0859158942
2960.8879961109
2780.1818251224
2614.3742733112
2461.9845407781
2321.3525583435
2191.638826846
2071.9216767018
1961.1718269326
1858.6240164329
1763.3159650324
1674.721150148
1592.3674670036
1515.6249586732
1444.0696181287
1377.1927758687
1314.5814164891
1255.9974821985
1201.0696378291
1149.5215193985
1101.071361258
1055.4648065003
1012.5359302695
972.08422362219
933.91777138876
897.87592052951
863.7805408532
831.51873487158
800.41976123811
1249.9048981318
4989.4886306111
5616.088032686
5651.913047715
5670.7254491481
5694.7595100575
5721.5141620373
5747.2130865372