/*--------------------------------*- C++ -*----------------------------------*\
| =========                 |                                                 |
| \\      /  F ield         | OpenFOAM: The Open Source CFD Toolbox           |
|  \\    /   O peration     | Version:  2312                                  |
|   \\  /    A nd           | Website:  www.openfoam.com                      |
|    \\/     M anipulation  |                                                 |
\*---------------------------------------------------------------------------*/
FoamFile
{
    version     2.0;
    format      ascii;
    arch        "LSB;label=32;scalar=64";
    class       volScalarField;
    location    "0.00011";
    object      rho;
}
// * * * * * * * * * * * * * * * * * * * * * * * * * * * * * * * * * * * * * //

dimensions      [1 -3 0 0 0 0 0];

internalField   nonuniform List<scalar> 
109340
(
662.48284160637
662.47779839541
662.46819856574
662.45658606843
662.44376409198
662.43040425217
662.41676629288
662.40298020749
662.38919112203
662.37506531602
662.35996179225
662.34326856709
662.32425320268
662.30202621001
662.27552686083
662.24350015478
662.20445013395
662.15658326831
662.0977239207
662.0252029373
661.93569572032
661.82502962276
661.68791265081
661.51756638001
661.30520170304
661.03928594626
660.70445756114
660.27988048501
659.73663646011
659.03339859297
658.10886744457
656.86769334677
655.15252174162
652.68526316661
648.93711886886
642.8246738765
662.48360028838
662.477124584
662.46635295373
662.45395837464
662.44076688204
662.42736164632
662.41391085789
662.40040188654
662.38663290005
662.37227157679
662.35680751139
662.33960821592
662.31989950271
662.29674765915
662.26904333189
662.23546939008
662.1944659347
662.14415427541
662.08224783171
662.00593061985
661.91168994687
661.79510495041
661.65055509759
661.47082128091
661.24651695187
660.96528237088
660.61058823848
660.15989983874
659.58173599733
658.83072732548
657.83882315552
656.49854384667
654.62844984147
651.89725899653
647.63650164052
640.39927710464
662.4864203363
662.47892409582
662.46706592767
662.45437681597
662.44129512371
662.4280786168
662.41469665667
662.40114638881
662.38732930791
662.37292812755
662.35744693986
662.34024991932
662.32055838902
662.2974363643
662.2697746767
662.23626128145
662.19533554799
662.14512111659
662.08333233211
662.00715530617
661.91307659719
661.79667534399
661.65233100917
661.47282242776
661.24876072351
660.96778121491
660.61334811208
660.1629200232
659.58501177593
658.83424451841
657.84252713692
656.50211335648
654.62957463292
651.882762097
647.53941832371
639.85326586528
662.49034657616
662.48130993282
662.46885264302
662.45580543563
662.44247032525
662.42897736696
662.41537021297
662.40166427489
662.3877431129
662.37328467
662.35779405712
662.34063010075
662.32100657031
662.2979813372
662.27043806313
662.23705721867
662.19627208033
662.14619914383
662.08454056455
662.00847117136
661.9144497379
661.79802406128
661.65352725972
661.47366922802
661.24896813019
660.96692194691
660.61080102409
660.15778685074
659.57599447235
658.81944788217
657.81910893411
656.46557788128
654.5706417157
651.7741122287
647.26634208267
638.7428092033
662.49654041212
662.48479018848
662.47051133667
662.45657251221
662.44287439623
662.42924893054
662.4155993952
662.40190910128
662.38803192769
662.37363396741
662.35822685106
662.34116602989
662.32165215025
662.29872271336
662.27123106016
662.23781393067
662.19684509337
662.14636009458
662.08390499349
662.0065235169
661.91041763228
661.79081423648
661.641599995
661.45485338513
661.22023113212
660.9240161304
660.54777960122
660.06630300378
659.44426683727
658.63067232852
657.54878690165
656.07752583038
654.00631647049
650.92434159154
645.84753542272
635.3186250976
662.50809365661
662.4865986222
662.47083053698
662.45656625675
662.44281926647
662.4291928218
662.41555024699
662.40181408767
662.38775529117
662.37290412852
662.35658412774
662.33790137433
662.31573905668
662.28873598696
662.25524970156
662.21330116556
662.16049649641
662.09395050615
662.01021611883
661.90436606224
661.77046410651
661.60084556653
661.38556081351
661.11160931997
660.76187227327
660.31357952418
659.73608194787
658.9874601704
658.00913352531
656.7167855887
654.98368847076
652.61274163982
649.25878929476
644.24876144407
635.92554560912
617.32435868555
632.3094746017
614.68736000884
587.64134206923
550.86269036324
506.21731159394
455.25075636584
400.10981331259
343.3326005687
287.57086606006
235.29658194577
187.63838030214
148.25677040683
115.65102895009
89.731262693878
69.728312829239
54.40312770544
42.772239241184
33.931082836721
27.182741079209
22.023095616652
18.04966533906
14.944255297091
12.495713689233
10.551666657114
8.9930864594569
7.7292552812209
6.6776673154654
5.8304029450701
5.1177985371851
4.5029048949403
4.0125545649475
3.5658824770979
3.2096544382728
2.8793599697576
2.6127662307164
2.3633905739386
2.159913485381
1.9674677388727
1.8096373606553
1.6585876330008
1.5341848026848
1.4140580418158
1.3141769278774
1.2181642248709
1.1361646852248
1.0594828436844
0.99051852618737
0.92844874153591
0.8702358175521
0.81861216997042
0.77016539302369
0.72607386522201
0.68548777974615
0.64811496373934
0.61357632309266
0.58161829022759
0.55196961690847
0.5244319480039
0.4988142964433
0.47494724406431
0.45266997273335
0.43184686991314
0.41236089836596
0.39410800347832
0.3769895346862
0.36091518119048
0.34580484166761
0.33221237578764
0.66090414957014
1.9990410797914
2.1293029956128
2.1135457802396
2.0974497275963
2.0844682266579
2.0723023436145
2.0578847340161
2.0384039377934
2.0118268785208
1.9772215937969
1.935262690322
1.8887641847104
1.8434548852422
1.8056878078453
1.7775528032202
1.7542790115178
1.7387056672066
1.7250995981641
1.7127055545466
1.7012869790824
1.6909078403453
1.6816735561588
1.6736030030597
1.6667636878094
1.6614292700732
1.6570421847926
1.6540333426586
1.6524200993232
1.6522601039688
1.6535008274305
1.6562454322617
1.6604614525744
1.6661631354375
1.6733211501846
1.6819286736716
1.6948964675965
1.7065944090718
1.7193304455424
1.73295251495
1.7472277438235
1.7619798981556
1.7771859363922
1.7923641099214
1.8072801198107
1.8223357467807
1.8370410753844
1.8510822718333
1.8644676673478
1.8767891169733
1.8876136342343
1.8972868200417
1.9056594494091
1.9123835638476
1.9173287605782
1.9204485122112
1.9218123952977
1.9218330698889
1.9198510437677
1.915474743356
1.9102060161623
1.9045661227072
1.8977764175201
1.8902266444509
1.8821074524752
1.8749234665111
1.8676515006481
1.8611757419721
1.8562304681202
1.8496047839242
1.8502041028524
1.7091609403289
627.19625133002
604.64002197384
571.19625206451
528.42819023736
478.48071201127
424.09124828068
367.60865102405
311.78240984828
258.97353149184
210.94246450204
168.8384284738
133.0528266568
104.54501016135
81.788425789219
63.960861019517
50.249888151565
39.733077106843
31.689047518111
25.527625900257
20.77783262154
17.090379047464
14.203530695498
11.919596906598
10.093886073387
8.6219382293539
7.4245459310222
6.4404758067825
5.6244006479753
4.9446533503086
4.3710486064207
3.8857785477332
3.4719229413245
3.1161846114246
2.809532616482
2.5426844013926
2.3104467880877
2.106187789794
1.9268705244082
1.7678515105738
1.6269986206137
1.501254279256
1.3889320559711
1.288116797353
1.1972869322845
1.1154538950937
1.0411437746382
0.97391299674442
0.9124734124624
0.85662567479016
0.80536851475044
0.75845608014268
0.71526353879848
0.67551899457283
0.63887818073043
0.60501325328704
0.5736625842144
0.54457711578404
0.51755370737812
0.49239955048539
0.46895122653104
0.44706023554505
0.42659629805726
0.40743955318712
0.38948365990694
0.37263440466376
0.35681021236514
0.34194170101928
0.33119170091393
1.1001347387764
2.080291888671
2.1256446294631
2.1079432882192
2.0926955178807
2.0800899612067
2.0675723629279
2.0520462869026
2.0308834874309
2.0023213887783
1.9657617292537
1.9224126321856
1.8756470210185
1.8317821559996
1.7964432876833
1.7704642541217
1.7529901746437
1.7374139658672
1.7240164588698
1.7118279078255
1.7005945038434
1.6903857205611
1.6813053747001
1.6733770160426
1.6666633739061
1.6614141277295
1.657157063601
1.6542445293825
1.6527139753595
1.6526038714847
1.6539211392333
1.656710625388
1.6609661414479
1.6666985497327
1.6738792957092
1.6825019008414
1.6954693240858
1.7071555103424
1.7198743181284
1.7334767767587
1.7477328163317
1.7624632345169
1.7776477062286
1.792805751634
1.8077173038116
1.8227167827272
1.8373914834258
1.851435146837
1.8648054050867
1.8770610734532
1.8879121742447
1.8976216618545
1.9059213638321
1.912584358677
1.9175019354341
1.9206150973696
1.9219919143217
1.92202658095
1.919883762702
1.9154785199645
1.9102822587063
1.9045440198847
1.8976538151116
1.8901116955606
1.8820158808718
1.8748829101335
1.8676458260894
1.8612722405666
1.8560118383376
1.8494586108751
1.8479101369634
1.7044846930674
624.40394588347
595.96323395238
555.21279589546
505.10937376978
449.29347050845
391.79382813027
335.55207512282
282.53929742911
234.19310070426
190.82448865149
154.34978842673
123.34109772605
97.827909069037
77.31709054408
61.060268435784
48.33420972924
38.466270828297
30.858176448517
24.975103314328
20.397041449697
16.823044571414
14.0140770636
11.781835488052
9.9924851128443
8.5469426650332
7.3672590215219
6.3963289698258
5.5909360556104
4.9174665159858
4.3505741268696
3.8686291685665
3.4581302772756
3.1048846829729
2.8001653692319
2.5350891436788
2.3038996076628
2.1009095970493
1.9222959780911
1.7640517709419
1.6237425201404
1.4984453706592
1.3865934705496
1.2859611001771
1.1956017346838
1.1137984287051
1.0398820300486
0.97263189792913
0.91147717932179
0.85562230493939
0.80450729189835
0.7576631734229
0.71458470091924
0.67493112271312
0.63832059306707
0.60450163411158
0.57319004151378
0.5441506068122
0.51716593857318
0.49204585844139
0.46862682060818
0.44676326184745
0.42632428924627
0.40718990827067
0.3892545266395
0.37242390734753
0.35661571286601
0.34175357492225
0.33117978771475
1.1166001060024
2.0830803147913
2.1263209420291
2.1083919760496
2.0929567183512
2.0801892155388
2.0675333293692
2.0519106595714
2.030720063118
2.0022158591673
1.9657907931064
1.9226011960496
1.8759454736197
1.8320642544527
1.7966094379225
1.7705020978862
1.7529312893597
1.7373172256953
1.7239554159009
1.7118316780005
1.70066225221
1.6905013214244
1.681447658271
1.673565621967
1.6668750620165
1.6616110822958
1.6574041670597
1.6544827372917
1.6529759618073
1.6528154132725
1.6541943824039
1.6570045062212
1.6612872059917
1.6670482095705
1.6742560386736
1.6829029210595
1.6958891694674
1.7075816812917
1.7203012214829
1.73390176819
1.7481586257638
1.7628850596273
1.7780459959256
1.7931814663199
1.8081267139243
1.8230277740636
1.8376099322836
1.8516026474577
1.8648517630874
1.8770808547697
1.8880537098787
1.8977322287319
1.9059559861045
1.912583073863
1.9174974635979
1.9206244284811
1.9220347786756
1.9220733052706
1.9196110465469
1.9154226190697
1.9103627986071
1.9044027391109
1.8974602889149
1.8899930113708
1.8820195266424
1.8749348457158
1.8677629594253
1.8616111182553
1.8561386967216
1.8503755604784
1.8468855333153
1.7024774552638
618.16540797698
576.30291995671
520.58927284091
458.02831759282
396.81804611035
339.11450647821
287.35352736289
241.46645238116
201.08784915828
165.68726924518
136.38718203566
110.91054326605
89.389812793436
71.675927173046
57.284542809951
45.841998134591
36.824067538077
29.74785630844
24.214019739082
19.882023515576
16.466298214367
13.752376526092
11.592145026746
9.854788727193
8.4425778381602
7.2871957628323
6.3352047822411
5.5433541797141
4.8796000457334
4.3202027294912
3.8447598758557
3.4380653232406
3.0888475284115
2.7865804267741
2.5240756693358
2.2944837356128
2.0932585121915
1.9156039711289
1.758598359273
1.6189357260159
1.4944906207413
1.3830390993384
1.2830375799463
1.1929571888161
1.1115499345278
1.0378697689307
0.97086907594649
0.90993242507236
0.8542079843281
0.8032843432899
0.75653162559428
0.71359884929396
0.67404005549774
0.63752851853224
0.60377950955061
0.57252813357376
0.54354599664754
0.51661289038347
0.49154342368809
0.46817032788416
0.44634628363931
0.42594045545655
0.40683729410259
0.38893272095029
0.372131112921
0.35634551534478
0.34150029483285
0.33112569567342
1.1419531676576
2.0866859207196
2.1272592213743
2.109001727363
2.0933133099829
2.0803242622915
2.0674764742137
2.0517179551836
2.0304881480959
2.002065944873
1.9658314377547
1.9228784127763
1.8763914214856
1.8324911455518
1.7968612771094
1.7705687855562
1.7529366747391
1.737265859799
1.7239213511261
1.7118491985765
1.7007423738037
1.6906488904296
1.6816548187988
1.6738284914723
1.6672092857571
1.6619152688334
1.6577667689075
1.6548962781421
1.6534261145922
1.6532825730029
1.6547187069747
1.6575589852757
1.6618679104955
1.6676597232823
1.6748988130376
1.6835777298829
1.6965962026104
1.7083058620619
1.7210392133806
1.734650691122
1.7489180976162
1.763640218353
1.7787901571501
1.793915718934
1.8088212034588
1.8236190396779
1.8381179222408
1.8520428396621
1.8652216590401
1.8773937384134
1.8883340283069
1.8980072479871
1.9061935869591
1.9127734074786
1.9176529064373
1.9207617451778
1.9221621626806
1.9221719708524
1.9196271770691
1.9155107616597
1.9103938503924
1.9042924039798
1.8972905125569
1.8899013967272
1.8819852057483
1.8750256713988
1.8678656884619
1.8619574111672
1.856421310174
1.8509868657446
1.8482330253072
1.701316719327
597.29054175023
520.43959126114
438.81551530433
368.43091002324
312.75338684642
266.3711921408
227.69564136206
194.49605389321
165.54976011899
140.12648164733
117.35401491545
97.282650036099
79.920048112576
65.199979161868
52.955938591829
42.924960196844
34.85022016876
28.413556419074
23.299022299523
19.238190656491
16.010131924802
13.434134447775
11.355975730426
9.6770908631629
8.3101713419227
7.1875754702119
6.2569988055318
5.4820934209228
4.8316928920183
4.2815258941209
3.8136239425633
3.4128735518486
3.0680133488639
2.7693434630705
2.5096992946872
2.282578914172
2.083122176998
1.9071474139697
1.7513774301815
1.6127838959778
1.4892151035708
1.3785015873708
1.279136027536
1.1895107900128
1.1085999230787
1.0352222970317
0.96858373629363
0.90785435158248
0.85239419511711
0.80164974132709
0.75507092894084
0.71228104425821
0.6728477524723
0.6364747304882
0.60282669842134
0.57166212825569
0.54275034424775
0.5158857614502
0.49088218792954
0.46756762988221
0.44579426067661
0.42543297949199
0.40637232350084
0.38850814039425
0.37174370140662
0.35599030262144
0.34117181041308
0.33123335266457
1.1754096809325
2.0914236950052
2.1284262542782
2.1097395103354
2.0937465222455
2.0804853843639
2.067393383702
2.0514613290037
2.0301837212234
2.0018709683823
1.965886208915
1.9232401229715
1.8769757901526
1.8330555263684
1.7971990693225
1.7706616251546
1.7529209515413
1.7371633092488
1.7238404574974
1.7118393912179
1.7008212052211
1.690815823543
1.6819017523115
1.6741486426666
1.6676042128471
1.6623164114516
1.6582287257194
1.6554171425401
1.6539920011781
1.6538815214646
1.6553610973866
1.6582466482812
1.6626055438093
1.6684487065567
1.675731126856
1.6844468980272
1.6975014075517
1.7092223214417
1.7219578904023
1.7355657991041
1.7498293207652
1.764549085799
1.7796856021864
1.7947888848152
1.8096471878269
1.8243516437493
1.838728607292
1.8525397873249
1.8656024769256
1.877703111905
1.8886509042994
1.8982978271798
1.9064621405452
1.9130089858712
1.9178413236409
1.920925277522
1.9223224836776
1.922337165794
1.9197063820147
1.9156080953804
1.9104757891372
1.9042774208012
1.8972244827845
1.8899009764556
1.8820830457636
1.8752578408385
1.8680926130204
1.8624705926538
1.856786907579
1.8514053346259
1.8484025024267
1.6998462309245
449.00386623109
325.1027799333
272.79545455317
240.76411246408
214.64180557611
191.48781282901
170.34373015211
151.03530037068
132.4438087297
115.07446428938
98.716726375956
83.763653119376
70.299654743625
58.446175367435
48.277750513416
39.728355684315
32.661956752513
26.900791763885
22.246108597465
18.498365919483
15.481131405916
13.046393937539
11.077987083962
9.469316347919
8.1517148256511
7.0656398462827
6.1644420834556
5.4086809776693
4.7730606127924
4.2348361034779
3.7760193085264
3.3821236744652
3.0426584565163
2.7486151847164
2.4922222978074
2.268011934538
2.0708738128687
1.8968791511281
1.7425166743706
1.6053032810601
1.4827593270012
1.3729797287276
1.2742888455834
1.1853391211477
1.1049349030735
1.0319990509362
0.96573030796469
0.90531736147651
0.85016312838016
0.79963148400047
0.75327344669568
0.7106494133621
0.67138685869099
0.63515597569386
0.60163670784547
0.5705861039528
0.54176962379804
0.51499223788741
0.49006262297267
0.46681508961518
0.44510534184092
0.42480361160765
0.405794890272
0.38797761577255
0.37125820836124
0.35554823465743
0.3407612546183
0.33189944432633
1.2166253315254
2.0973664870706
2.129756849827
2.1105687061003
2.0942473357726
2.0806725501731
2.067286952568
2.0511431469218
2.0298061316504
2.0016254196868
1.9659459872718
1.9236797306044
1.8776939114937
1.833761134261
1.797629581522
1.7707830298638
1.7528846251487
1.737035478536
1.7237284714976
1.7118043115341
1.7008873286686
1.6909850787714
1.682172204128
1.6745114946079
1.6680549948938
1.6628065780979
1.6587909629788
1.6560607237849
1.6547029578456
1.6546532853088
1.6561890745521
1.659134557876
1.6635436816955
1.6694329000684
1.6767619409981
1.6855293354151
1.6986108495803
1.7103556808851
1.7231146373759
1.7367437858195
1.7510205318209
1.7657420673956
1.7808625177626
1.7959401127345
1.8107301578547
1.8253221289344
1.8395681073763
1.853254432596
1.8661996926221
1.8782125851489
1.8891086758455
1.898702419617
1.906826791112
1.9133415580425
1.9181300821513
1.9211937691677
1.9225891118055
1.9225978354463
1.919903546122
1.9158414066663
1.9106941907558
1.9044336716644
1.8973433381619
1.8900593166792
1.8822933791413
1.8755814479715
1.8683800092099
1.8630589654824
1.8572332713394
1.8520053330107
1.8487788738661
1.6980518185143
15.282874525207
103.78859318468
127.5843449176
136.55891864924
138.05206768871
134.04647584201
126.29070326584
116.82782511342
106.37499842575
95.469629405113
84.507587614465
73.743812747312
63.500945605316
54.02588802931
45.51841312992
38.095228981884
31.75675786366
26.448924154006
22.06327006419
18.468569825816
15.534195949277
13.141660359058
11.18589221271
9.5860072480502
8.2652915023098
7.1693036791714
6.2583030683816
5.4952918092228
4.8510994392054
4.3036697345463
3.837376286907
3.4375918549641
3.0921784881132
2.7925961971471
2.5318024453599
2.3036858559948
2.1028550160665
1.9257026962826
1.7686703078104
1.6290069182651
1.5042062319754
1.3925150909988
1.2921208813559
1.2016309435475
1.1197896126483
1.0456322663912
0.9782475156157
0.91683503852416
0.86074979093372
0.80939572186396
0.76230738424523
0.71901042880308
0.67913038934557
0.64232994660951
0.60831545923038
0.57681897273378
0.5475864080138
0.52041783805545
0.49513120298126
0.47156363447564
0.44956102131553
0.42898721371666
0.40972559452987
0.39167197613082
0.3747292681527
0.35881529828966
0.34385384506441
0.33083992105757
0.81658555250045
2.0446206276407
2.1352932582115
2.116234529012
2.0986301842284
2.0842384620753
2.0707320208384
2.0552527316821
2.0352807012561
2.0090106610769
1.9755166495831
1.9351562806245
1.8900449782925
1.8450747499292
1.8063909202659
1.7769601953729
1.7528116488202
1.736860930842
1.7235614380989
1.7117229956856
1.7009243788456
1.6911451218331
1.6824511624665
1.6749030873066
1.6685478969167
1.6633740172414
1.6594431238236
1.6568099936095
1.6555374615746
1.6555713337226
1.6571709509625
1.6601869432039
1.6646592465621
1.6706044645223
1.6779826517631
1.6867818424448
1.7007512372039
1.7125239689313
1.7253023195312
1.7389387680918
1.7532204978288
1.7679342673785
1.7830112415023
1.7980169818065
1.812680775776
1.8270795233369
1.8410806662255
1.8545155079279
1.8672337364331
1.8790667180687
1.8898289123035
1.8993262056957
1.9073791546609
1.913847163109
1.9186037875769
1.9216334487641
1.9230201781525
1.9229993136271
1.9202577020816
1.9162669416745
1.9111073401836
1.904798475607
1.89764380069
1.8903580968577
1.8825951922363
1.8759587205215
1.8686907606984
1.8635677653526
1.8577023493085
1.8527087971718
1.8491720466012
1.6942815508229
6.8279363534482
18.24154242736
32.545536547424
44.466594059686
53.491059646696
59.548285236381
62.697312778997
63.500405092944
61.769653122049
58.755887997317
54.768870566282
50.04530282556
44.943798921027
39.729097769654
34.649034040669
29.911746221554
25.635384903981
21.874367424306
18.636255245985
15.888399773944
13.577359969531
11.643631078081
10.028442638089
8.6781562142414
7.5482012660869
6.60061310278
5.800815000866
5.1212426592867
4.5440477454568
4.0506874761625
3.6270205951286
3.2602400762772
2.9423670810577
2.6655042279329
2.423254557847
2.2099252512902
2.0218199009999
1.8552465257456
1.7072013626906
1.5749570994012
1.4566030503918
1.3503680570139
1.2547138754912
1.1682375229016
1.0899050132519
1.0187965052744
0.95406819543744
0.89498582716572
0.84091804028457
0.79138358909179
0.74588294673752
0.70401419832939
0.6653927959831
0.62971845121238
0.59671544117507
0.56612481897519
0.53772307358603
0.51129820773097
0.48668207352947
0.46371619608539
0.44226064350931
0.4221893198496
0.40338920774755
0.38576049280344
0.36921260376986
0.35366567172832
0.33902499823345
0.33758428294636
1.3849195158141
2.1174360614625
2.1338619480242
2.1133973877842
2.096081250639
2.0813604589403
2.0668233105511
2.0498311914639
2.0282434481502
2.0005704752809
1.9661007209688
1.9253878233747
1.8806046839719
1.8367776970548
1.7995962892316
1.7714270639425
1.7526548882362
1.736395492592
1.723064471604
1.711399640234
1.7008699134799
1.6913878028408
1.6829806135755
1.6757146164387
1.6696185620133
1.6646843383078
1.6609813847964
1.6585979442104
1.6575640170698
1.6578500243283
1.6596287009964
1.6628295109066
1.6674649583705
1.6735530395331
1.6810701364751
1.6900047728722
1.7043342865036
1.7161748621014
1.729022774416
1.7427143122512
1.7570288855281
1.7717360456009
1.7867370053113
1.8016069404475
1.8160750877941
1.8301816111691
1.8438275084946
1.8568959118991
1.8692756624699
1.8808194836522
1.891340598021
1.9006351061305
1.9085171170747
1.9148421355979
1.9195129664284
1.9224983259766
1.9238723615736
1.9237954621178
1.9210177824961
1.9170915285647
1.9118873184011
1.9055005464373
1.8982331706504
1.8908847722373
1.8830475222835
1.8764252850581
1.869065103144
1.8639523703035
1.8581749267716
1.8534821872779
1.8495564282633
1.686151252005
5.439806332037
8.0318401342665
12.983414011856
18.985871807515
24.618840820084
29.428935419806
33.170300469774
35.73249818272
37.189770294351
37.397395380972
36.47269810494
34.871089657506
32.636611788138
29.971437410325
27.058666841536
24.096186544505
21.235333382222
18.572100481887
16.164265232948
14.0353704663
12.183005835825
10.588046543646
9.2237246591888
8.0602674187426
7.0688040634294
6.2241398172615
5.5030131040905
4.8856746206366
4.3555976097298
3.8978641489241
3.501589205826
3.1576595780045
2.8576925450213
2.5953279438043
2.3642243384473
2.1602583967548
1.9797940763892
1.8195368980709
1.6765287391895
1.5485501432791
1.4338488177392
1.3306626492726
1.2375298765572
1.1531633525339
1.076694486903
1.0071515867232
0.94377182423045
0.88581594168904
0.8327500870313
0.78408104182411
0.7393448241857
0.69813105684126
0.66008174988425
0.62492266226639
0.59236798324205
0.56217619372271
0.53412089124743
0.50801101428584
0.48368271063428
0.46097367253337
0.43974577469138
0.41987650139642
0.4012591565986
0.38379967579744
0.36740790658019
0.35200168113305
0.33747016373733
0.34618070970923
1.5229905242403
2.1301321586437
2.1366480435415
2.1155545023435
2.0975337147534
2.0818824907225
2.0663806388309
2.0486682684552
2.0268514025738
1.9995797505021
1.9661168648177
1.9267593869879
1.883125887914
1.8395957588182
1.8016301678647
1.7722672624236
1.7525891708903
1.7358167591258
1.7223435859648
1.710816911192
1.7005737007093
1.6914354072078
1.683384317255
1.6764651470757
1.6707135705883
1.6661272446801
1.6627460976299
1.6606885073418
1.6599779273279
1.6606178659617
1.662660836293
1.6661122501968
1.6709704536309
1.6772511588719
1.6849477825163
1.6940475657084
1.7086935955425
1.7205866655613
1.7334712785204
1.7471711813985
1.7614606556796
1.7760877088875
1.7909287090584
1.8055828766302
1.8198162922142
1.8336193475373
1.8469111876435
1.8596078162771
1.8716271389663
1.8828472524462
1.8930930253953
1.9021712264486
1.9098913938694
1.9161011512208
1.9206535846315
1.9235822236706
1.9249271869457
1.9247277780223
1.9220042230905
1.9181161892095
1.9128616326302
1.9063672396374
1.8989405844954
1.8914035241362
1.8833569506675
1.8765094331548
1.8689272171878
1.8633677111329
1.8577920309291
1.8531764364725
1.8485837007109
1.6770851131157
4.3488791920956
5.6966697050778
7.2103817192315
10.193177310496
13.518190185541
16.695484735695
19.5263179464
21.846059585009
23.583731378177
24.652703662612
24.944207484585
24.652825859796
23.816523246395
22.589516061503
21.021885096095
19.25017316628
17.400856946986
15.577532537243
13.843811943244
12.243963227048
10.800560834575
9.5188264494149
8.3928277021119
7.4110356216692
6.558576999829
5.8199509458277
5.1805806717285
4.626457273129
4.1453245817175
3.7267202498334
3.3616313010073
3.0422361438672
2.7616345026414
2.514484501769
2.2963405802822
2.1031117833881
1.9314098589622
1.7779316255007
1.6407200182838
1.5177680437638
1.4071997186296
1.307498638509
1.2171817985451
1.135388455877
1.0610617319714
0.99337793259884
0.93152975133612
0.87491204971156
0.82304658115034
0.77540434705075
0.7315685580694
0.69111820693665
0.65376169155988
0.61921261737972
0.5871978043058
0.55747747589538
0.5298323283554
0.50409618806845
0.4801025656659
0.45769922455114
0.4367487625935
0.41712717303995
0.39873347681499
0.38147511341258
0.36526148642147
0.35001173584307
0.33565351828545
0.36587618633292
1.6756317398997
2.1430438894804
2.1398667426025
2.1179656413048
2.0991007717533
2.0823862601143
2.0657968935976
2.0472700147358
2.025175221218
1.9983235650481
1.9659816687695
1.9281936148474
1.8860291601775
1.8430566106036
1.8044097363126
1.7736566250353
1.7527942301927
1.7352373998386
1.7214411208486
1.7099569697291
1.6999761967135
1.6911988520326
1.6835548418462
1.6770417144096
1.6717108879676
1.6675643439409
1.6646244096853
1.6629659436994
1.6626530573026
1.6637109239425
1.6661152630738
1.6698855424439
1.6750250531203
1.6815478483184
1.689460918032
1.6987386972427
1.7136509582516
1.7255774384327
1.7384616497676
1.752098761585
1.7662605432368
1.7806880315653
1.7952587999529
1.8096352005533
1.8236068942059
1.8371076703957
1.8500553513725
1.862395317271
1.8740664336165
1.8849558906915
1.8949046865609
1.903726215562
1.9111949735078
1.9171811508987
1.9215854039777
1.9244621669596
1.9256949814867
1.9251641078363
1.9224049516638
1.918241210945
1.9126483057264
1.905770821702
1.897922667944
1.8897529756716
1.8810450749942
1.8733178259034
1.8652789192067
1.8589737338449
1.8535866707544
1.8490850134217
1.8447381763626
1.6731960683274
3.5394805519558
4.6549995129637
5.052178029796
6.4293958674743
8.4087321686745
10.489980400948
12.488854663772
14.290067775224
15.776474117721
16.911089786149
17.620539273299
17.809287005845
17.655463919119
17.18575429703
16.400531020765
15.384534270783
14.231554906619
13.006025913936
11.781746626084
10.601894038065
9.4978832518216
8.4867439760036
7.57449982098
6.7603499105073
6.0390527490888
5.4029812690848
4.8437367546868
4.3528698519538
3.9219320073912
3.5431470092843
3.2097442456744
2.9157458475518
2.6559956307719
2.425959321727
2.221524757802
2.0393293135458
1.8767618750881
1.731252578721
1.6006674413478
1.4832044928095
1.3770356254285
1.2810394329858
1.194106659091
1.1151224773722
1.0432525853838
0.97754725751423
0.91745343238335
0.86242467174284
0.81190098656464
0.76544367264922
0.72258769752495
0.68303848377635
0.64648428566039
0.61263434997241
0.58123467665279
0.55203877198885
0.52488148109247
0.49958094134156
0.47597268321784
0.45391517151195
0.43327243508307
0.4139416205724
0.39581878347123
0.37880209746193
0.36280374969744
0.34774472137061
0.33340881826928
0.41198848192427
1.8262578045639
2.1553180364959
2.1434688272529
2.1205120545364
2.1006508799167
2.0827656541285
2.0650033032924
2.0455940880222
2.023175364957
1.9967360146516
1.9655895069563
1.929522361422
1.8891451508135
1.8471240012083
1.8080223831626
1.7758141645186
1.7535063018724
1.7348449137414
1.7204612584519
1.7088496999305
1.6990532640697
1.69061787018
1.6834006406362
1.6773554135595
1.6724927594629
1.6688578973159
1.6664494999718
1.6652932392097
1.6654715424077
1.6669844844262
1.6698102949665
1.6739555718146
1.6794257567428
1.6862334137304
1.6943866313619
1.7038362361898
1.7189314135331
1.7308731891833
1.7436915581035
1.7571772198671
1.7711087471393
1.7852315234444
1.7994492206994
1.813489602673
1.8271501949996
1.8403262462512
1.8529323641738
1.8649313432913
1.8762628648402
1.8868470464607
1.8965103557319
1.9049994507012
1.9121664097713
1.9179103356261
1.9219703893759
1.9245193290456
1.9251398791275
1.9238438089443
1.9202751797918
1.9149413234697
1.907971530269
1.8998564303999
1.8911952719469
1.8819923137631
1.8720161544847
1.8625385434176
1.8527345921757
1.8439376416474
1.8372377623557
1.8319848006358
1.8283438688338
1.6947434905792
2.9164698378562
3.9313567876559
4.0818490761369
4.6122754585797
5.7530443544824
7.1344265576728
8.5416519465878
9.8891423286427
11.077311103452
12.051443812556
12.80007765751
13.226864838244
13.367678745874
13.252951314531
12.919551072558
12.36198905655
11.645151672175
10.84553600053
9.9957610837919
9.1415117775376
8.3100403858179
7.5232642256521
6.7942933178069
6.1283444477071
5.5262237602541
4.9857275025583
4.502707290373
4.072689508394
3.6906889143321
3.3514339429878
3.0500273551586
2.7820284932012
2.5434134655325
2.3306221729824
2.1404922264132
1.9703344328033
1.8177237420776
1.6804174425225
1.5565828987255
1.4448140153509
1.3436752666213
1.2519816647969
1.1686682668661
1.0926474008561
1.0232663103807
0.9598697781466
0.90178825521774
0.84850299304222
0.79943170068525
0.75421084762045
0.71251844342049
0.67397703512375
0.63831447939329
0.6052327712626
0.57448628056603
0.54591397722631
0.51930420051782
0.49449296042914
0.4713195990278
0.44964024068675