/*--------------------------------*- C++ -*----------------------------------*\
| =========                 |                                                 |
| \\      /  F ield         | OpenFOAM: The Open Source CFD Toolbox           |
|  \\    /   O peration     | Version:  2312                                  |
|   \\  /    A nd           | Website:  www.openfoam.com                      |
|    \\/     M anipulation  |                                                 |
\*---------------------------------------------------------------------------*/
FoamFile
{
    version     2.0;
    format      ascii;
    arch        "LSB;label=32;scalar=64";
    class       volScalarField;
    location    "0.00011";
    object      rhoHat;
}
// * * * * * * * * * * * * * * * * * * * * * * * * * * * * * * * * * * * * * //

dimensions      [1 -3 0 0 0 0 0];

internalField   nonuniform List<scalar> 
109340
(
661.22274299241
661.21793015444
661.20871334863
661.19746683616
661.18492507155
661.17171872823
661.15808984149
661.14412830364
661.12982777084
661.11455013325
661.09719478044
661.07654667212
661.05112490667
661.01913777585
660.97845312558
660.92655059705
660.86043479355
660.7765212248
660.67046959552
660.53695979552
660.36937391728
660.15940445103
659.89651679469
659.56722337249
659.15405275778
658.63410259946
657.97690550164
657.14119793292
656.06981404642
654.68123688623
652.85487310084
650.40375031693
647.02055612967
642.16506645406
634.81801137326
622.91797191146
661.22346525477
661.21728557405
661.20693300313
661.19490715072
661.18197459833
661.16869129829
661.15521681932
661.14148907166
661.12711587812
661.11141908146
661.09339392631
661.07176872181
661.04498267857
661.0111586045
660.968069423
660.91307695313
660.84305581478
660.75425307401
660.6421093857
660.50101503221
660.32397729704
660.10219428896
659.82447781725
659.47646576725
659.03950274882
658.48905097766
657.79233794247
656.90475466735
655.76410077103
654.28094132013
652.32150453025
649.67523611277
645.98822873249
640.61797271315
632.27897996419
618.22897766729
661.2261459967
661.21900609872
661.20762104544
661.19531511067
661.18249511235
661.16940540548
661.15600935046
661.14225966585
661.12787379684
661.11218892389
661.09421357009
661.07267056308
661.04599220654
661.01229680006
660.96935578231
660.91453609683
660.84471195141
660.7561347291
660.64424852925
660.50344907577
660.32674477163
660.10533430692
659.82802987955
659.48046581106
659.04398235023
658.49403244188
657.79783071269
656.91075479595
655.77059630013
654.28790283755
652.32882666412
649.68230441822
645.9905917406
640.59012061328
632.09147052857
617.18098221794
661.22986782504
661.22128326601
661.20934353582
661.19670691704
661.18365232314
661.17029994735
661.1566881305
661.14279926513
661.1283437275
661.11265595411
661.09474471256
661.07332587523
661.0468222857
661.01334404097
660.97065265619
660.91610388001
660.8465612955
660.75826329108
660.64663263543
660.50604162015
660.32944792166
660.10798556879
659.83037282631
659.48210617278
659.04433833052
658.4922487113
657.79266577365
656.90041685906
655.75250292127
654.25829750523
652.28210144645
649.60964328097
645.87396171681
640.37668952622
631.5602678575
615.04837994572
661.23571445072
661.22459690452
661.21094028039
661.1974534932
661.18404990883
661.17057009884
661.15691906097
661.1430567175
661.12867745816
661.113109882
661.0953687677
661.07415982275
661.04787891758
661.01459479625
660.97200730521
660.91738287385
660.84746236802
660.75831779666
660.64508220591
660.50184255361
660.32106043716
660.09322281817
659.8061539105
659.44409138403
658.98646676937
658.40604181577
657.6662697143
656.71722366377
655.48912593842
653.88148328889
651.74357818256
648.83846806794
644.75629686566
638.70225502196
628.78836818598
608.47090159519
661.24653967284
661.22631662385
661.21124957964
661.1974496797
661.18399734065
661.17051476582
661.15686782956
661.14292631362
661.12820930332
661.11176932679
661.09224029646
661.06782659104
661.03628704407
660.99489114824
660.94034503036
660.86868075413
660.77509960103
660.65380269321
660.4978387667
660.29757763066
660.04111703395
659.71316443107
659.29389813022
658.75744804315
658.06979658272
657.18577699525
656.044726062
654.56389971872
652.62806218729
650.07206069938
646.64900435089
641.97733958988
635.3945552453
625.62167354253
609.55187131623
574.40432462429
602.69295150655
569.52003536333
520.40736111055
457.1607474412
385.88949718111
311.91800461357
240.76027077334
177.123322379
124.13103111295
83.002812895363
52.72039508165
32.854875564771
19.959014825588
11.994163295195
7.2294927423359
4.3929181691661
2.7104788687361
1.7027837468792
1.0909961510187
0.71497936367705
0.47952507601729
0.32824341661579
0.2291809098118
0.16319888528893
0.11839020838358
0.087368434589019
0.065160533305667
0.049572842399554
0.038192801378161
0.029526180578581
0.02343065867595
0.018490077840422
0.014964746268023
0.012038791321093
0.0099005850415033
0.0080993690691455
0.0067568209637709
0.005605333081405
0.0047374314455333
0.0039781705351505
0.0034013192865319
0.0028878750568151
0.0024932300607412
0.0021404275764165
0.0018617329699078
0.0016171060182177
0.0014136806783258
0.001241029474876
0.001090166121351
0.00096412989634254
0.00085301321729458
0.00075785821871555
0.00067523172280748
0.0006033854107429
0.00054058914331179
0.000485569169421
0.00043717281562328
0.00039450562185028
0.0003567861435731
0.00032335520668425
0.00029363958071843
0.00026716288083783
0.0002435229724278
0.00022237546920478
0.0002034180617973
0.00018638822777112
0.00017106103396758
0.0001578368752293
0.00062562005873701
0.0057009231721961
0.0064583964321705
0.006355541839782
0.0062516110782855
0.0061670288904629
0.0060878192175107
0.0059958342638118
0.0058749200196466
0.0057141826425915
0.0055099591249079
0.005268460719702
0.0050079677096695
0.0047611627109274
0.0045610228922905
0.0044157323072054
0.0042984972185729
0.004221661180454
0.0041555430006943
0.004095992920611
0.0040415973372405
0.0039924946894778
0.0039490554155419
0.0039112651419981
0.0038793640165822
0.0038545353568102
0.0038341522826173
0.0038201633359876
0.0038126213981078
0.003811786333157
0.0038173921088858
0.0038299455700179
0.0038493253715091
0.0038756590043161
0.0039088849332891
0.0039490624880196
0.0040100400531289
0.0040654873159538
0.0041263243680651
0.0041919316696908
0.0042612762381986
0.0043335630336832
0.0044087466133798
0.0044844777487723
0.0045595324433898
0.0046359403948557
0.0047112309908539
0.0047837048928179
0.0048533432042519
0.0049179084003452
0.004974996289294
0.0050263560337263
0.005071016336323
0.0051070615843238
0.0051336908737198
0.0051505750587979
0.0051580264705389
0.0051582402548229
0.0051477237273518
0.0051243301385513
0.005096186332062
0.0050661537649612
0.0050301099962624
0.0049901387795535
0.0049473102574202
0.0049095358808815
0.0048714434257313
0.0048376218556654
0.0048118546839897
0.0047773574880103
0.0047797229219788
0.0040751101289616
592.98282472957
551.03155158014
491.63496387101
420.60353895092
344.66649092832
270.58378109844
203.14489600536
145.98925636192
100.61059337013
66.666343281619
42.64820321264
26.444143643121
16.299302092878
9.9583170269772
6.0793990434704
3.7456617033569
2.3377496245283
1.4844666163467
0.96173703466072
0.63613786681517
0.42973734066742
0.29639674952874
0.20845819808606
0.14930015196414
0.10880012159198
0.080586088724671
0.060575117416574
0.04614964331966
0.035633005315433
0.027821053501578
0.021966195567087
0.017522532501275
0.014103901253642
0.011456344596661
0.0093763541161835
0.0077366000549408
0.0064246764124216
0.0053739688328411
0.0045206564851452
0.00382685288425
0.0032562078427951
0.0027857770284847
0.0023946796063747
0.0020679028562498
0.0017939379574052
0.0015621738934997
0.0013662721004322
0.0011987962847904
0.0010560777954807
0.00093308534389269
0.00082720900662892
0.00073538002694429
0.00065567673647149
0.00058625423095426
0.00052555922432973
0.00047233454682005
0.00042550512498241
0.00038419298034253
0.00034764036123863
0.00031521711333432
0.00028638446648249
0.00026068595944934
0.00023772732778121
0.0002171718323985
0.00019873118059177
0.00018215981874098
0.00016724787661165
0.00015686214688271
0.0017315453968509
0.0061706678499505
0.0064342181994883
0.0063199616525638
0.0062213966925979
0.0061392675464806
0.0060581731322187
0.0059599162973201
0.0058295896631324
0.0056580818754139
0.0054438502675744
0.0051961898993864
0.0049362171506209
0.0046991074665987
0.0045131913513661
0.0043799262773585
0.0042922046524989
0.0042154037669815
0.0041503352121328
0.0040918034950512
0.0040383149122025
0.003990036928754
0.0039473346198597
0.0039102186113382
0.0038789070553016
0.0038544782985961
0.0038346979265071
0.0038211538123685
0.0038139942195421
0.0038133918855263
0.0038193520415541
0.0038321173993037
0.0038516871711665
0.0038781724117989
0.0039115154432658
0.0039517774359028
0.0040127738786573
0.0040681832150207
0.0041289565112135
0.0041944883736327
0.0042637589015662
0.0043359586430896
0.0044110536260322
0.0044867032149785
0.0045617541324274
0.0046378957886513
0.0047130429535147
0.0047855452141141
0.0048551159911558
0.004919351289153
0.0049765901562639
0.0050281473401381
0.0050724272838647
0.0051081510395043
0.0051346352805872
0.0051514852741015
0.0051590067226439
0.0051592968030127
0.0051479250164639
0.005124365011957
0.0050966131264174
0.0050660619996268
0.005029482228726
0.0049895467968601
0.0049468426627817
0.0049093353780787
0.0048714236233669
0.0048381283403065
0.0048107342103469
0.004776603815142
0.00476788261771
0.004052823698774
587.72390902161
535.32266356187
464.46253829423
384.23329259231
303.82040355802
230.85775400894
169.18619809725
119.8283125407
82.233759159161
54.527119277667
35.62387798437
22.713508694861
14.265555516562
8.8957421722883
5.5386050801462
3.4644766285875
2.1905113290647
1.4073469727119
0.92039092739575
0.61294268835164
0.41634540953582
0.28851112368673
0.20364847874991
0.146303570804
0.10690838668932
0.079343222024512
0.059743577752585
0.045600066573952
0.035241517125212
0.027559247599318
0.021772768583842
0.017382514533585
0.01400191661202
0.011379502131994
0.0093205135779701
0.0076924884582872
0.0063925972157888
0.0053482857826395
0.0045013297504923
0.0038114177973201
0.0032441089099975
0.002776305684083
0.0023867066786529
0.0020620193466789
0.0017886153034239
0.0015583622159252
0.0013626690775072
0.00119618412272
0.0010535959480298
0.00093109378811362
0.00082547294668345
0.00073398772669964
0.0006545324121936
0.00058523069864891
0.00052466966303744
0.00047155590087944
0.00042483823075867
0.00038361693885924
0.00034714066649211
0.00031478075443886
0.00028600377976812
0.00026035331053698
0.00023743582279917
0.00021691613801456
0.00019850656112314
0.00018196110563429
0.0001670640317562
0.00015684829858981
0.0017837414681274
0.0061871511760967
0.0064382609376699
0.0063225945046042
0.0062229036814863
0.006139825257272
0.0060579349901841
0.0059591405963109
0.0058286911634591
0.0056575607809199
0.0054441287588205
0.0051973680352391
0.0049379692230236
0.0047007230643488
0.0045141519955143
0.0043801935134369
0.0042919601549116
0.0042149599636572
0.0041500578096905
0.0040918344268015
0.0040386512186299
0.0039905996545189
0.0039480225657729
0.003911123842969
0.0038799168551953
0.003855424574877
0.0038358749701952
0.0038222915503832
0.0038152441706458
0.0038144132378395
0.0038206591854739
0.003833524598295
0.0038532267941296
0.0038798518310581
0.0039133292570936
0.0039537148791058
0.004014814482767
0.00407026624812
0.0041310559091383
0.0041965917603619
0.0042658799496254
0.0043380756737732
0.0044130681056476
0.0044886193305491
0.0045638565052308
0.0046395199277238
0.004714201277688
0.0047864501773001
0.0048553918572538
0.0049194917304305
0.0049773859656801
0.0050287629390235
0.0050726472745415
0.0051081807907045
0.0051346481300001
0.0051515725209157
0.0051592741029438
0.0051595893814673
0.0051465110938997
0.0051240966411488
0.0050970878825596
0.0050653607710383
0.0050284973264221
0.0049889537799177
0.0049468932742538
0.0049096318954056
0.0048720607478852
0.0048398985883633
0.0048114221218356
0.0047813789304991
0.0047626214036831
0.0040432213867836
576.05230022063
500.55384614601
408.25153431437
315.80751785443
236.87068355082
172.83523126143
123.97971603709
87.451456922289
60.578344763466
41.074573726442
27.793856474435
18.353313361125
11.9035013294
7.6409545811828
4.8725674525267
3.1152098627827
2.0068105389593
1.3075225446126
0.8649458186193
0.58226401700944
0.39880658335906
0.27779550595732
0.19711894326976
0.1422836345621
0.10430320995182
0.077621770793224
0.058603218282336
0.044823677563594
0.03469922997294
0.02717423236217
0.021503900671132
0.017180786143276
0.013856999818865
0.01126909497652
0.0092393022792261
0.0076296121781181
0.006345884452335
0.0053110369095017
0.0044734068097312
0.0037888293534822
0.0032269380072358
0.0027620437055496
0.0023758407413421
0.0020528669494977
0.0017813984314405
0.0015523031797819
0.0013577362612935
0.0011921082150379
0.001050114649999
0.00092825277637454
0.00082300530003587
0.0007319586111606
0.00065280030193038
0.00058377689778233
0.00052341358880137
0.00047046543595741
0.00042389269727294
0.00038279539452335
0.00034643077044472
0.00031416669690193
0.00028546921512651
0.00025988389522796
0.00023702406138371
0.00021655701391488
0.00019819405219051
0.00018168503467242
0.00016681667175561
0.00015679885032249
0.0018655891715056
0.0062085037992681
0.0064438593086291
0.0063261659446399
0.006224958045387
0.0061405816971281
0.0060575878968696
0.0059580382752866
0.0058274164804439
0.0056568213917858
0.0054445226346038
0.0051990951513192
0.0049405791276274
0.0047031584829118
0.0045156012103758
0.0043806412001197
0.0042920555684201
0.0042147523143004
0.0041499213496392
0.0040919404398048
0.0040390535985244
0.0039913205348394
0.0039490237129989
0.0039123856996806
0.0038815108751842
0.0038568798044627
0.0038376021574307
0.0038242563873645
0.0038173815818361
0.0038166318385062
0.0038231480454314
0.00383615988088
0.0038559933447073
0.0038827733593387
0.0039164107827891
0.0039569635918362
0.004018239210507
0.0040737937544908
0.0041346721625017
0.0042002845803168
0.0042696492587193
0.0043418513733815
0.0044168159978368
0.0044923472639111
0.0045674162368339
0.0046425836384398
0.0047168605070129
0.0047887806755722
0.0048573729572772
0.0049211847233681
0.0049789212975606
0.005030274487752
0.0050739655704533
0.0051092494955327
0.0051355337755665
0.0051523629689822
0.0051600120558299
0.0051601758053788
0.0051466548224965
0.0051246276502919
0.0050973165723396
0.0050648320722628
0.0050276476444182
0.0049885135153271
0.0049467473332465
0.0049101374825962
0.0048726309698319
0.0048417292795426
0.0048129222036761
0.0047845819719077
0.0047696231946124
0.0040376799813731
537.80793337884
408.09402035179
289.890571676
204.1702524666
146.98630302134
106.51902020281
77.754174943789
56.672653027026
41.012829161563
29.348246898474
20.558064894484
14.108014958834
9.5078093430474
6.3184132973106
4.1616535084285
2.7300510200535
1.7966993966716
1.1924446554326
0.8005775868759
0.54502731440942
0.37693439323733
0.26503874180577
0.18913908498015
0.13717988050296
0.1010451291425
0.075505951126599
0.0571601625093
0.043834887075348
0.034018493835857
0.026688342379884
0.021155573527096
0.016929192122793
0.013669918967526
0.011129704669211
0.0091339209431673
0.0075504220604219
0.0062843183234329
0.0052641243653544
0.0044365831594297
0.0037600216759637
0.0032040895494918
0.0027439110316385
0.0023613438755181
0.0020409959705876
0.0017719138955328
0.0015443715078765
0.0013513305626714
0.0011866500198386
0.0010456501625952
0.00092446316030581
0.00081982398935443
0.00072924763829774
0.00065048764061104
0.0005818426178068
0.00052175823559342
0.00046903959971278
0.00042264924747504
0.00038171595785252
0.00034549702010966
0.00031335640921915
0.00028476186935161
0.00025926358270978
0.00023648134342102
0.0002160833845315
0.00019778067173282
0.00018132227972822
0.00016649515790068
0.00015691017166519
0.0019762052340604
0.0062366053792307
0.0064508057154242
0.0063304775317072
0.0062274488660972
0.0061414797490849
0.0060570822638457
0.0059565690304835
0.0058257416994523
0.0056558585698827
0.0054450443399234
0.0052013477306458
0.0049439990567337
0.004706377679504
0.0045175430591877
0.0043812577110276
0.004292072056769
0.0042143106941341
0.0041495683062271
0.0040919222129185
0.0040394561667585
0.003992139647929
0.0039502199092134
0.0039139253044977
0.0038833993663427
0.0038587976381386
0.0038398042883989
0.0038267341216509
0.0038200713664078
0.0038194781114498
0.0038262033209631
0.0038394330402449
0.0038595099903571
0.0038865438633362
0.0039204023206871
0.0039611495431175
0.004022626045282
0.004078261139189
0.004139178342591
0.0042048028736521
0.0042741792949943
0.0043464024117588
0.0044213335529684
0.0044967894315766
0.0045716556332414
0.0046463838760342
0.0047200642775482
0.0047914193851575
0.0048594250896186
0.0049228746007761
0.0049806611383816
0.0050318827841522
0.0050754623587916
0.005110573203172
0.0051366065286158
0.0051533029032189
0.0051609347949233
0.0051611265734135
0.005147145275149
0.0051252157512447
0.0050978187072757
0.0050648104897508
0.0050273467014188
0.0049885553287441
0.0049473045148956
0.004911398130355
0.0048738642034705
0.0048444460758477
0.0048148620633925
0.0047868032954259
0.0047705583559479
0.0040306695732708
303.75883919845
159.00050664902
111.83189890631
87.031761431361
69.10969033315
54.954897360626
43.44934411061
34.125161107488
26.214514031416
19.768142570302
14.530623428561
10.448967735187
7.3500952027954
5.0733113232549
3.4565495464727
2.3372496801133
1.5773872851403
1.0684130640244
0.72959897547192
0.5037633765049
0.35234745082068
0.24990608443568
0.17995816016737
0.13133064366146
0.097214526205917
0.07295659746019
0.055475330252774
0.042664594763884
0.03319488504988
0.026107411681335
0.020738974412884
0.016624395797259
0.013444176092368
0.010963094179667
0.0090067608693629
0.0074539984538093
0.0062104075234268
0.0052073774705002
0.0043916649715252
0.0037250957767827
0.0031762780544136
0.0027218984806385
0.0023434171436043
0.0020266629674655
0.0017601707888539
0.0015347439884508
0.001343347932759
0.0011800097838178
0.0010401627799881
0.00091980030424155
0.00081591313508744
0.00072589933621103
0.00064765810833523
0.00057942571901837
0.00051969459030043
0.00046726998867497
0.0004211187542138
0.0003803910256478
0.00034434104045716
0.00031234578153272
0.00028388003000074
0.00025849503200259
0.00023580799110495
0.00021549207727811
0.00019726304552975
0.00018087099569991
0.00016609372643406
0.00015755318093752
0.002116905369989
0.0062718893185547
0.0064586991275455
0.0063353121483436
0.0062303237743588
0.0061425193901288
0.006056434632002
0.0059547460265765
0.0058236621414225
0.0056546395995525
0.005445641203591
0.0052040883742013
0.0049482041565903
0.0047104017621689
0.0045200137491239
0.004382057492212
0.0042920143492027
0.0042137625336871
0.0041490755381652
0.0040917902021591
0.0040398042617495
0.0039929765571962
0.0039515337943374
0.003915673229808
0.0038855582013437
0.0038611404298692
0.0038424842861395
0.0038297944127197
0.003823448274658
0.0038231400142863
0.0038301362054107
0.0038436551067347
0.0038639805155158
0.0038912478060371
0.0039253460749917
0.0039663621434647
0.0040280047402543
0.0040837873275814
0.0041448531181565
0.004210618653292
0.0042800995422925
0.0043523745253151
0.0044272701556989
0.0045026447919692
0.0045772135156243
0.004651413733135
0.0047244594131983
0.0047951998377151
0.0048626195550479
0.004925629627109
0.0049831583904221
0.0050341094219208
0.0050774835430301
0.0051124267220162
0.0051382258042427
0.0051548143842335
0.0051624353442736
0.0051625952233592
0.0051482698738843
0.0051265321556622
0.0050990483284306
0.0050656968149216
0.0050280255727804
0.0049894392705552
0.0049484584104951
0.004913140439363
0.0048754135433324
0.0048475596033963
0.0048172206127874
0.0047899614921976
0.0047725560152989
0.0040220993788016
0.34820158023611
16.141949524142
24.3874826401
27.927777324687
28.527360867003
26.879695858638
23.842789898038
20.388087644407
16.888759892349
13.59097576715
10.63837989092
8.0920823362491
5.9931871734999
4.3326609638582
3.071492048965
2.1484213583505
1.4908768012853
1.0327001565832
0.71761563171662
0.50213884711889
0.3547784154679
0.253584182738
0.18349572442414
0.13460026740034
0.099953166370584
0.075121707456425
0.057184386142069
0.044047351021441
0.034293530368707
0.026966338006047
0.021421122880007
0.017176246336423
0.013887065889841
0.011318088239143
0.0092962254623048
0.0076912109898504
0.0064044455259569
0.0053674192435409
0.0045249833722676
0.0038363146721054
0.0032691727741898
0.0028001839436755
0.0024097044833729
0.0020829547314509
0.0018079880231761
0.0015757060942214
0.0013785203244477
0.0012103332523101
0.0010663195000498
0.00094248125527319
0.00083566842575189
0.00074314074925408
0.00066273569448638
0.000592634010396
0.00053133684255058
0.00047756923150577
0.00043024121201429
0.00038847579270951
0.000351525172679
0.00031875440748419
0.00028961142110778
0.00026362897757509
0.00024041400244135
0.00021962957547228
0.00020098154696951
0.00018422155026004
0.00016913217058567
0.00015653454791714
0.00095467585327857
0.0059626255016401
0.0064940701406146
0.0063710824026568
0.0062581475448469
0.006165338277174
0.0060784442225321
0.005980556330806
0.0058572356874338
0.0056988335799795
0.0055015062961297
0.0052693644043269
0.0050165516009584
0.0047713183783711
0.0045660062342716
0.0044137434971783
0.0042918060598112
0.0042130047595028
0.0041483279268999
0.0040914437229638
0.0040400196015669
0.0039937760062998
0.0039528939923701
0.003917562988297
0.003887922259378
0.0038638528728221
0.0038455930878827
0.0038333573878153
0.0038274116787334
0.0038274948013051
0.0038347992887824
0.0038486588437963
0.0038692956315034
0.0038968460005
0.0039312007579084
0.003972397614217
0.0040383806583149
0.0040943605921357
0.004155588745691
0.0042214641721054
0.0042910471854598
0.0043633649220152
0.0044381283495898
0.0045132278917552
0.0045872411190571
0.0046605344066206
0.0047323897540383
0.0048018831822463
0.0048681625320606
0.0049302604617385
0.004987103209052
0.0050375580511659
0.0050805627840156
0.0051152622524662
0.0051408856711415
0.0051572843604928
0.0051648507854605
0.005164848033393
0.0051502521257347
0.0051288927772766
0.0051013319285202
0.0050677091409654
0.0050296840185482
0.0049910797200319
0.0049501062461652
0.0049151795004414
0.004877090258377
0.0048502755830864
0.0048197063431803
0.0047936499632502
0.0047746274007445
0.0040040666529007
0.068778677310201
0.49465858909102
1.576056888891
2.9435439611503
4.2604460792215
5.27993311812
5.851969096081
6.0005470240869
5.6750286646397
5.1315379863693
4.4554225570012
3.7168902671585
2.9949184815749
2.3378355392718
1.7762210473422
1.3221754577014
0.96996900692978
0.70536186747009
0.51134893601139
0.37121401803707
0.27074989866872
0.19888458661436
0.14736493163612
0.11023071816276
0.083305406601457
0.06363728818061
0.049101810533132
0.038235295693034
0.030075341024679
0.023878659552409
0.01912916802261
0.015443791255181
0.012569581127691
0.010307942612164
0.0085135198311383
0.0070758185701743
0.0059187115776891
0.0049805546565196
0.0042148793234205
0.0035851265493421
0.0030648480641022
0.0026326860974957
0.0022717467040543
0.0019684101051294
0.0017124617894875
0.001495597268522
0.0013109979358041
0.001153144439444
0.0010175915891659
0.00090086513557008
0.0007999300753927
0.00071236654790929
0.00063610822274562
0.00056951736880106
0.00051120075558408
0.00045996911675272
0.00041483217289673
0.0003749367769833
0.00033959252992077
0.0003082002189071
0.0002802523916306
0.0002553139501289
0.00023301240287493
0.00021302930651501
0.00019508905222787
0.00017895527589801
0.00016440026554931
0.00016300837407224
0.0027412226165755
0.0063913963821247
0.0064829028504843
0.0063517408755014
0.0062408213208864
0.0061463107754709
0.0060536097764605
0.0059472163441843
0.005815034693931
0.0056493417219796
0.0054475530019358
0.0052147920844239
0.0049652843257326
0.0047275954372017
0.0045312358849885
0.0043861289557894
0.0042914354609702
0.0042109842347471
0.0041460833307791
0.0040900030517197
0.004039853652779
0.0039950207080965
0.0039554955660626
0.0039214924540267
0.0038930677649347
0.0038701197202562
0.0038529262567735
0.0038418583307729
0.0038370322794403
0.0038382987056451
0.003846462637711
0.0038612153385444
0.0038826566884613
0.0039109298922142
0.0039460029530194
0.0039879168324235
0.0040557512671591
0.0041121688390104
0.0041738538506249
0.0042401267264056
0.0043100079207803
0.0043824369396146
0.0044569708488276
0.0045315344730095
0.0046046962273822
0.0046766271734655
0.0047467692504439
0.0048144593080901
0.0048790501007308
0.0049396902976848
0.0049953053149403
0.005044715240843
0.0050868272739686
0.0051207681249794
0.0051459285070068
0.0051620742679923
0.0051695517155401
0.0051692268407943
0.0051543994180874
0.0051333689783
0.0051055449218291
0.0050714774505118
0.0050328238594177
0.0049938594283128
0.004952468842425
0.0049175966548931
0.0048789955056889
0.0048522240667181
0.004822077136325
0.0047975566506195
0.0047764905127816
0.0039651514781434
0.043420487813162
0.095392577586906
0.24955932182438
0.53404154540227
0.89838443512239
1.2841388059025
1.6316179783765
1.8933440264572
2.0505145498886
2.0727117511657
1.9705660136433
1.800177946935
1.5757781956651
1.3278738246218
1.081343036704
0.8566975312225
0.66466520702156
0.50785671171228
0.3842883126136
0.2894106153796
0.21782034863184
0.16434290556417
0.12458676315203
0.095040816423677
0.073024586750205
0.056561022853495
0.044172916906926
0.03478685842077
0.02762409461212
0.022104836221516
0.017824590942253
0.014483994279666
0.011854139243832
0.0097705073905474
0.0081024254387616
0.0067602892273331
0.0056744093420558
0.004790035549725
0.0040642938616313
0.0034655194787858
0.0029695316867875
0.0025561625244559
0.0022097460599886
0.0019177782676509
0.0016710671750337
0.0014614959281658
0.0012827632334143
0.0011295624138307
0.00099785764658089
0.00088426515644924
0.00078592498538654
0.00070047373942383
0.0006259637557765
0.00056084913524257
0.0005037566913817
0.0004535555609736
0.00040927607879659
0.00037011681577326
0.00033540705976232
0.00030455465793056
0.00027706476759065
0.00025251616782407
0.00023055103694053
0.00021086298217754
0.00019318121115219
0.00017727064984085
0.00016289231237865
0.00017142058933634
0.0033136189235161
0.0064674834888785
0.0064992613503745
0.0063642352970992
0.0062491068007771
0.0061491484587615
0.0060509079154176
0.0059405261693311
0.0058073240499934
0.005644292881239
0.0054485254971839
0.0052234668536579
0.0049801168015347
0.0047436441614104
0.0045427467395256
0.0043911671063641
0.0042916718097883
0.0042085137108143
0.0041428200956697
0.0040873560944081
0.004038559015741
0.0039953568892355
0.0039575207580811
0.0039251523241859
0.0038983468253637
0.0038770301856661
0.0038613420818803
0.003851799811267
0.0038484921408526
0.0038514231583819
0.0038608471951531
0.0038768104026774
0.0038993476842111
0.0039285932828375
0.0039645960352441
0.0040073923040913
0.0040769043679869
0.004133711979911
0.0041957235643513
0.0042621963383493
0.0043321203629829
0.0044043233349678
0.0044782311736082
0.0045518681188335
0.0046239876173697
0.004694501684863
0.0047629389949917
0.0048288006988293
0.0048915901933955
0.0049505917231829
0.0050047964014064
0.005053085722188
0.0050943448569101
0.0051276605126747
0.005152165616364
0.0051679726851139
0.0051752566914014
0.0051742396079699
0.005159631276749
0.0051387720460498
0.0051106255141673
0.0050759256358812
0.0050363646688627
0.0049963473409163
0.0049537966324213
0.0049176920251588
0.0048778792577324
0.0048487275662898
0.0048195864170753
0.0047954168652422
0.0047708804047313
0.0039215997608564
0.027630813444831
0.047802011429747
0.076678479479933
0.1533595039615
0.26988555650508
0.41183683476764
0.56350334208057
0.70544607433792
0.82213486552865
0.89822414327068
0.9192426748689
0.8975225985308
0.83734476863865
0.75281006966346
0.65151457087595
0.54588876842085
0.44565959501804
0.35683286613411
0.2815568939807
0.22002771138341
0.17104103395202
0.13272367721267
0.10308046653971
0.08029772747676
0.062828999734842
0.049429501409148
0.039131149657146
0.03118122521202
0.025012461510102
0.020199883953484
0.016423414863153
0.01344092611727
0.011067963972727
0.0091692934599732
0.00764228939203
0.0064061731723193
0.0053995282401027
0.0045727700674056
0.0038919665110106
0.0033286672698722
0.0028598191825366
0.0024676551710563
0.0021374448474982
0.0018589243313838
0.0016227414910046
0.0014216678703551
0.0012495962319868
0.0011018380640881
0.0009746664066741
0.00086474272769554
0.00076942888702025
0.00068642927174034
0.00061399812661622
0.00055061621785446
0.00049497519150821
0.00044598289416686
0.00040271070684217
0.00036441748176863
0.00033044562350754
0.00030023064689538
0.00027329009916766
0.00024921055841359
0.00022764950745602
0.00020830921075099
0.00019092427599193
0.00017526628007558
0.00016113771492915
0.00019151628247682
0.0040093840193742
0.006545261098613
0.0065181784159289
0.0063781831949838
0.0062580066836269
0.0061518225031305
0.0060473444839335
0.0059324636971256
0.0057980091492555
0.0056378044937642
0.0054487634185461
0.0052326616061407
0.0049972476105566
0.0047633651869636
0.0045583785213918
0.0043992179069003
0.0042934432887183
0.004206176231172
0.0041387682677212
0.0040834344245599
0.0040358611994007
0.0039943657496948
0.003958456632118
0.0039280089197218
0.0039031821307864
0.0038839297742104
0.0038703089159098
0.0038626385424991
0.0038611986011576
0.003866101241542
0.0038772448466451
0.0038947464634427
0.0039186661637114
0.0039491318398786
0.0039862567957756
0.0040300156014965
0.0041009982083271
0.0041581257200822
0.0042203046739095
0.0042866475887513
0.004356125525149
0.0044275187903666
0.0045002496253299
0.0045726414749456
0.0046435767321096
0.0047126739323304
0.0047794506635759
0.0048435556725877
0.0049046010370135
0.0049619199648785
0.0050145891892595
0.005061527492604
0.0051014306783561
0.0051335202026519
0.00515718800683
0.005172659212946
0.0051792751243664
0.0051763881648996
0.0051614805767293
0.0051390333068599