/*--------------------------------*- C++ -*----------------------------------*\
| =========                 |                                                 |
| \\      /  F ield         | OpenFOAM: The Open Source CFD Toolbox           |
|  \\    /   O peration     | Version:  2312                                  |
|   \\  /    A nd           | Website:  www.openfoam.com                      |
|    \\/     M anipulation  |                                                 |
\*---------------------------------------------------------------------------*/
FoamFile
{
    version     2.0;
    format      ascii;
    arch        "LSB;label=32;scalar=64";
    class       volScalarField;
    location    "0.00011";
    object      T;
}
// * * * * * * * * * * * * * * * * * * * * * * * * * * * * * * * * * * * * * //

dimensions      [0 0 0 1 0 0 0];

internalField   nonuniform List<scalar> 
109340
(
372.99991046522
372.99865133332
372.9964399803
372.99362160783
372.9906054312
372.98758655595
372.98463717102
372.98179342342
372.97901649972
372.9762278665
372.97343401259
372.97063793481
372.96783652448
372.96502212072
372.96218424137
372.95930948513
372.95638075003
372.95337672132
372.95027046498
372.94702825763
372.94360804945
372.93995853471
372.93601615619
372.93170032219
372.92690791482
372.92150503569
372.91531552688
372.90810404876
372.89954968852
372.88920351653
372.8764166331
372.86021135957
372.83903882259
372.81030448098
372.76935721518
372.70743817161
372.9997095875
372.99803719086
372.99548550268
372.99261056488
372.98966037098
372.98673144715
372.98384448434
372.98098928382
372.97816041488
372.97534612581
372.97253864935
372.96973328377
372.96692351654
372.96410046165
372.9612525181
372.95836537482
372.955421461
372.95239814479
372.94926680936
372.94599186861
372.94252934906
372.93882530574
372.93481271283
372.93040619537
372.92549605303
372.9199392597
372.91354699787
372.90606580509
372.89714803076
372.88630371902
372.8728176362
372.85559673459
372.83287214748
372.80159225128
372.75600099124
372.68464324719
372.99974927367
372.99777103194
372.99512189146
372.99229584538
372.98940128412
372.98649165139
372.98357928565
372.98068142568
372.97781143128
372.97496641164
372.97213769613
372.96931791639
372.96649901791
372.96367139567
372.96082344838
372.95794097561
372.9550064441
372.95199746737
372.9488855889
372.9456356222
372.94220357827
372.93853604378
372.93456652017
372.93020977173
372.92535604755
372.91986209436
372.9135390368
372.90613333859
372.89729724072
372.88654047095
372.87314696719
372.85601941545
372.83336197428
372.80200742371
372.75573002824
372.68086213415
372.99971039089
372.99741358018
372.99463235318
372.99171353675
372.98875451245
372.9857822253
372.98281305255
372.97986224569
372.97694170158
372.97405555396
372.97120002463
372.96836860524
372.9655528463
372.96274329013
372.9599302271
372.95709997237
372.95423581894
372.95131608252
372.94831291907
372.94519262365
372.94191164478
372.93841670441
372.93464032024
372.9304959703
372.92587188139
372.92062243704
372.91455580515
372.90741478487
372.8988469176
372.88835512579
372.87521283854
372.85830526201
372.83577822836
372.80427397783
372.75678855847
372.67550758569
372.99949674705
372.9964446892
372.99303142181
372.98969180915
372.98643041105
372.98324461563
372.98014594405
372.97716248541
372.97431392986
372.97159509469
372.96900916612
372.96655559541
372.96422701974
372.9620146246
372.95990865383
372.95789682661
372.95596365777
372.95408895499
372.95224248879
372.95039375789
372.94846453447
372.9463781093
372.94404911964
372.94137441399
372.93822691529
372.93444189003
372.92980437688
372.92402785246
372.91671936859
372.9073253215
372.89503421215
372.87861458402
372.85597766188
372.8232711804
372.77191440434
372.67547741388
373.00336272406
373.01758818811
373.03290642252
373.04810920516
373.06276484474
373.07663603489
373.08959566022
373.10158945333
373.11260680249
373.12265675339
373.13176236308
373.13995025519
373.1472464435
373.1536747278
373.15925388725
373.16399695143
373.16791094331
373.17100002065
373.17331455248
373.1749714788
373.17596139819
373.17623231715
373.17570674821
373.17425977059
373.1717700339
373.16801785619
373.162715426
373.15546771892
373.14572007903
373.13267641942
373.11514955366
373.09133447625
373.05810508611
373.00961941066
372.93233819979
372.77617957821
372.60917314347
372.45435810697
372.21739999892
371.87842132394
371.42737363122
370.85328007628
370.14154453232
369.27927644494
368.25555693767
367.06479917935
365.70434487903
364.19442303089
362.57411699562
360.87166371532
359.12742488133
357.37539022605
355.64525816262
353.95881547547
352.33022085543
350.76902192739
349.28056414578
347.86526870262
346.52219256042
345.2490394845
344.04216268863
342.89830237418
341.81092249121
340.77862526299
339.79982871445
338.86141664545
337.97492294242
337.12108660594
336.31147243677
335.53109468265
334.78787915586
334.07072294777
333.38575380704
332.72298609725
332.08940143372
331.47388569539
330.88556378466
330.31162516171
329.76300370602
329.22655180106
328.71247807672
328.21051821989
327.72628320368
327.25555172279
326.79776227232
326.35389806055
325.92115745698
325.50083037011
325.09151475584
324.69291882188
324.30434849998
323.9254306328
323.55565221403
323.19466071289
322.84205950705
322.49750283815
322.16063195313
321.83113940678
321.50873424824
321.1931371884
320.88411415108
320.5813845338
320.28474644059
319.98513701543
321.68812704225
321.31585692548
320.36986386286
319.406621564
318.43031364466
317.43023700405
316.3888990198
315.28064264735
314.07291002985
312.73307207979
311.24075074738
309.5990886986
307.84673814388
306.09318233236
304.5460256191
303.39507837054
302.58892916998
302.20473760316
302.00894726439
301.91836267074
301.87792536884
301.8574783243
301.84314172738
301.82962323847
301.81525270863
301.8000587728
301.78381808876
301.76682810294
301.74936797261
301.73167711327
301.71406020799
301.69677457293
301.68008394351
301.66422397124
301.64946581745
301.63604880692
301.62155175888
301.61205282333
301.60434620545
301.59861917415
301.59499506135
301.59347773406
301.59402612619
301.5964925571
301.60070551228
301.60685151667
301.61421386506
301.62236973049
301.63103145179
301.63966665478
301.64770550714
301.65501464361
301.66133892333
301.66617863647
301.66925659216
301.67055215695
301.67016018553
301.66824095247
301.66400440137
301.65754723117
301.64992571617
301.64125439787
301.63119320111
301.61997598963
301.60816279771
301.59623524328
301.58398366407
301.57041968943
301.58517575755
301.78384851013
303.64605839256
321.54800879711
372.56588460348
372.37289111544
372.07891995531
371.67114145922
371.14406160814
370.4884083996
369.6945368715
368.75586721061
367.66774705183
366.42974586055
365.04625379105
363.5331901442
361.92304051638
360.24533705165
358.5307646978
356.81060835251
355.11206703303
353.4559290179
351.85680525148
350.32351013119
348.86066531022
347.46955706512
346.14909117078
344.89667307954
343.7093250769
342.58290492432
341.51344905794
340.49683834567
339.52999216679
338.60874421998
337.73018169414
336.8913291441
336.08892565218
335.32098449688
334.58449359381
333.87798250175
333.19876457166
332.54577433901
331.91667087196
331.31054018896
330.72545759431
330.16058127826
329.61438583054
329.08597391315
328.57432284257
328.07836793627
327.59751249532
327.13061029995
326.67735035865
326.23658944523
325.80805138687
325.39085726802
324.98468558143
324.58894756008
324.20316530587
323.82686762075
323.45962753486
323.10104416262
322.75073671897
322.40835529808
322.07357243881
321.74608368735
321.42559757148
321.11186391005
320.80458885674
320.50357528673
320.20854340668
319.95437867146
321.84524198129
321.07860773632
320.12495549188
319.15954247381
318.17918548557
317.17175044397
316.11789798447
314.99007411801
313.75491262651
312.38166800899
310.85487056908
309.18469278926
307.42218003414
305.70023702308
304.2383528159
303.19261994835
302.59764058091
302.21104763893
302.01378543085
301.92241620667
301.88169696931
301.86126839548
301.84708932872
301.83376932022
301.81960689793
301.804573178
301.78848751819
301.77161461753
301.75423943574
301.73658461649
301.71901774108
301.70173457942
301.68501936341
301.66911327461
301.65429219588
301.6408024561
301.6261880604
301.61656754333
301.60873216413
301.60287770271
301.59913329635
301.59751620447
301.59796864858
301.60035816259
301.60452294183
301.6105789481
301.61788742816
301.6260088252
301.63462084081
301.64316613123
301.65114226784
301.65835931505
301.66451020205
301.66913859919
301.67201426113
301.67308920822
301.67244954812
301.67024808106
301.66560764277
301.65887462921
301.65092016391
301.64181053316
301.63134063593
301.61980950648
301.60765084975
301.59541685908
301.58284145562
301.5688384956
301.58336122239
301.78183764244
303.65110354261
321.64313517856
372.54637790965
372.31182689563
371.95325652252
371.46562047994
370.85172261757
370.11163606127
369.24720950461
368.25629407192
367.13838277169
365.89231483023
364.52718679256
363.05497537883
361.49169073649
359.86402061832
358.20028291212
356.52728007138
354.87101797375
353.25202832252
351.68454406249
350.17739734791
348.73594667789
347.36246315062
346.05640240827
344.81577718625
343.6379152442
342.51939022609
341.45686733735
340.44645129641
339.48442501863
338.56776213609
337.69283352055
336.85718407239
336.05775309192
335.29219339119
334.55810963786
333.85339635098
333.17616858706
332.52461580895
331.8971055826
331.29218165875
330.70836594708
330.14455673863
329.59931042941
329.07193266364
328.56096689597
328.0659902347
327.58565590034
327.11962712808
326.66679098344
326.22673139314
325.79865239927
325.38205319045
324.97633918217
324.58098861568
324.1955897823
323.81965396734
323.45277136199
323.09451743242
322.74451945485
322.40242717561
322.06791837537
321.7406900944
321.42044326102
321.10692669102
320.79988982665
320.49907347934
320.20423539639
319.95391001828
321.84157438727
321.07002712181
320.11714137935
319.15243922722
318.17309991067
317.16725530997
316.11571908603
314.99112273899
313.76029870095
312.39260813385
310.87245915011
309.20957885483
307.45386291071
305.73556339522
304.27168796446
303.21989389454
302.61653952541
302.22505874026
302.02455303756
301.9314217302
301.89004321686
301.86962135834
301.85576512649
301.84286626363
301.82914054316
301.81445390675
301.79868649274
301.78205565688
301.76485185393
301.74727882447
301.72980480048
301.71251568382
301.69573762933
301.67972324344
301.6647574963
301.65110544552
301.6362379868
301.62635083291
301.61823261987
301.61209742247
301.60808685349
301.60624493752
301.60647751855
301.60869462953
301.61273620309
301.61858800165
301.6257568185
301.63376874643
301.64222293131
301.65060248862
301.6584291488
301.66541691424
301.67117844728
301.67534265156
301.67773957499
301.67827947306
301.67703295592
301.67420460422
301.66869305037
301.66131089503
301.65257113695
301.64252197115
301.63118020429
301.61893820316
301.60597452806
301.59308191618
301.57975171037
301.56481148138
301.578791188
301.77697007679
303.67144097901
321.95643196811
372.50715364372
372.17742684012
371.68013265315
371.04093620289
370.28832619064
369.43222122071
368.48711348661
367.45335646319
366.32677085797
365.10384731525
363.79196151
362.38916825154
360.90350751403
359.35324296004
357.76137253068
356.15370590145
354.55385823814
352.98272299254
351.45555312304
349.98260992065
348.56971019183
347.21907731559
345.93222580126
344.70775380901
343.54308216108
342.43547358103
341.38192503234
340.37931856854
339.42408014588
338.51309710101
337.64339250775
336.81193213955
336.01647416011
335.25419198947
334.52318191401
333.82107126704
333.14631833451
332.49681195917
331.87134250854
331.26806957691
330.68595442761
330.12344157939
329.57966727841
329.05332311409
328.54357500519
328.04947547873
327.57014082522
327.10491162592
326.65285239029
326.21354154832
325.7861074621
325.37018207047
324.96504334408
324.57026982875
324.18536163771
323.80989751788
323.44345589935
323.08562242918
322.73602827983
322.39431828281
322.06016567425
321.73326268566
321.41333264858
321.1001086234
320.7933802948
320.49282943508
320.19824079063
319.95444244391
321.83696709846
321.05767383789
320.10585027402
319.142136667
318.16428887869
317.16075027563
316.11254402247
314.99257827402
313.76798315921
312.40828014197
310.89770637532
309.24535632706
307.49949858323
305.78662312339
304.32009327405
303.2596818013
302.64536452569
302.24655504115
302.04107728008
301.94519187649
301.90275019176
301.88229661798
301.86890234388
301.85662249937
301.84353596994
301.82936961814
301.81404765707
301.79776880407
301.78080760409
301.76338048302
301.74598348925
301.72867177951
301.71178583708
301.69559218919
301.68038628778
301.66647192533
301.65122167364
301.64091781829
301.63235920729
301.62578612031
301.62135768792
301.61915452238
301.61905885429
301.62098467877
301.62476584313
301.63034931207
301.63728088213
301.64505692039
301.65324589319
301.66133519763
301.66881548595
301.67534100265
301.68047933414
301.68391211295
301.6854753484
301.68508747841
301.68284740625
301.67894007404
301.67222041074
301.6636488294
301.65360154048
301.64217477916
301.62950931851
301.61606199656
301.60189816674
301.58789835499
301.57337096073
301.55693350508
301.57006632049
301.7678202356
303.67902048741
322.1956894488
372.40215211677
371.79673134994
370.99569839889
370.11820663188
369.21832146624
368.28954744331
367.32588064524
366.31433720571
365.23890032283
364.09383563631
362.86726907335
361.55834011439
360.17037807447
358.71599409944
357.21471509234
355.68844831888
354.15939768989
352.64833219302
351.17143632982
349.74008155661
348.36175129083
347.04084574693
345.77767411179
344.57284856785
343.42498273747
342.33159918739
341.28969672577
340.2967810085
339.35009390812
338.44632395832
337.58280917333
336.75685362253
335.96599898571
335.20791757121
334.48049646664
333.78174666846
333.10977535644
332.46298655262
331.83977694099
331.23868629916
330.65843349537
330.09772041908
329.5555074846
329.03059470059
328.52221137223
328.02926454286
327.55111336524
327.08681725785
326.63578792913
326.19729311959
325.77071132591
325.35550834159
324.95108300454
324.55700087525
324.17270505881
323.79781356178
323.43189338044
323.07456864516
322.72545935624
322.38420550348
322.0504793588
321.72397554074
321.4044303729
321.09156649907
320.78518624176
320.48496853066
320.19067692529
319.95652635647
321.83233369134
321.04194170974
320.09111383377
319.12862086628
318.15275910981
317.15224008256
316.10834951513
314.99437177855
313.77784055797
312.42849778403
310.93036768638
309.29173547058
307.55880978132
305.85328891273
304.38368727207
303.31228378238
302.68438463261
302.27575660495
302.06352515642
301.96381994381
301.91983279723
301.89923853161
301.88639794787
301.8749038269
301.86262765972
301.84914052467
301.83437672936
301.8185349916
301.8018734783
301.78462824172
301.76728521145
301.74992033753
301.7328705432
301.71641193815
301.70084859856
301.68655386227
301.67080109742
301.65991479997
301.65074442664
301.64356367217
301.63855005917
301.63581886312
301.63527117134
301.63675997871
301.64014709885
301.6453395555
301.65188671866
301.65927361003
301.66702759241
301.67462633265
301.68154179778
301.68729989547
301.69148232402
301.69379454213
301.69408099697
301.69234292281
301.68863593868
301.68311270366
301.67462242205
301.66430841987
301.65242808373
301.63906957159
301.6245186027
301.60930734882
301.59343126482
301.57775502126
301.56146760285
301.54274992627
301.55456732068
301.75034899774
303.67163578108
322.44629870842
371.79391795856
370.24953324362
369.19525922794
368.32029750652
367.48259096645
366.64639674721
365.7873540268
364.89128311291
363.93352504241
362.90285799068
361.79064496519
360.59591969524
359.3209892007
357.97522486052
356.57502301072
355.1406789403
353.69274524718
352.25119504887
350.83315229022
349.45108080513
348.11382284478
346.82666308918
345.59266531127
344.41166057948
343.28347435875
342.20678642825
341.17941741702
340.19842633858
339.2618678678
338.36697607251
337.51108220744
336.69164202111
335.9064725139
335.15347224852
334.4303781135
333.73552553066
333.06703764063
332.4233686993
331.80285393048
331.20430807291
330.62626948206
330.06763603672
329.52719867462
329.00404261492
328.49714779156
328.00563780997
327.52874218641
327.06565255021
326.61574416819
326.17823156936
325.75261620499
325.33825628105
324.93467783997
324.54134506832
324.15777513316
323.78355282436
323.41825596304
323.06151881913
322.71295233138
322.37221657609
322.03898872275
321.71296479059
321.393857894
321.08140837872
320.77542578581
320.47560013063
320.18164871645
319.96289781981
321.82710814661
321.02302809152
320.07290460927
319.1118774598
318.13852350718
317.14172980941
316.10310481846
314.99641635121
313.78971461647
312.45302884477
310.97013614919
309.34835297021
307.63144225576
305.93539046093
304.46263100084
303.3780848544
302.73400015181
302.31301712268
302.09216818584
301.98747328224
301.94135846033
301.92043322427
301.90818035315
301.89759895762
301.88627305392
301.87360208836
301.85949465823
301.84415261535
301.82782212698
301.81077101462
301.79344416177
301.77596562739
301.75866540295
301.74183018075
301.72577329922
301.7109399567
301.69459076558
301.68292961017
301.672969016
301.6650079538
301.65923765143
301.65579303899
301.65464646372
301.65553021957
301.65834731371
301.66298664785
301.66897734692
301.67577208691
301.68287443964
301.68972103344
301.69570521768
301.70028106139
301.70307233828
301.70377184049
301.70231763383
301.69868649858
301.69288824698
301.68509507723
301.67417434832
301.66141072483
301.64698282684
301.63102455518
301.6139043433
301.59620739766
301.57790469494
301.55986644603
301.54113963468
301.51926287502
301.52907990688
301.7210803071
303.64999316656
322.76814881836
362.98195663742
366.5903629817
366.33277144142
365.91427389558
365.42824149267
364.85674082631
364.20371732572
363.47788794835
362.68145742045
361.8103776726
360.85456717185
359.80949600465
358.67835150218
357.46729627485
356.18899761177
354.86167930732
353.50527947829
352.1392654877
350.78164961818
349.44701727387
348.1462470776
346.88689114635
345.6731720543
344.50776424289
343.39083715761
342.32140869191
341.2989799179
340.3214601833
339.38671589429
338.49213872799
337.63595345566
336.8157756828
336.02923668306
335.27435903877
334.54938759785
333.85243954566
333.18164558557
332.53562143509
331.91282798639
331.31191101149
330.73148802562
330.17054577385
329.62786052997
329.10247008808
328.59335241579
328.09974899417
327.6207880898
327.15571283879
326.70382351133
326.26444573293
325.8370249401
325.42090895574
325.01561657469
324.62062042575
324.23548876
323.85975655238
323.49298477596
323.13480463538
322.78485354244
322.44279521852
322.10828732088
321.78102006999
321.46071270402
321.14710848244
320.83993137825
320.53895499385
320.24392604051
319.94623886062
321.77338597155
321.23329184683
320.2897645008
319.33246777072
318.3657067802
317.38024414999
316.35991595635
315.28097054068
314.11306383988
312.82515175285
311.39641613484
309.82664729995
308.14601828217
306.44280128364
304.89500114564
303.69373829285
302.79472063711
302.35880214312
302.127374343
302.01639551106
301.96744980013
301.94590650328
301.93420147974
301.92461168461
301.91434257723
301.90259733976
301.88922874026
301.87442519345
301.85843625884
301.84156481852
301.82420117669
301.80653016285
301.78887956231
301.77154601232
301.75484333495
301.73917055852
301.73705235311
301.72385698642
301.71238145595
301.70291259745
301.69567069784
301.69082042133
301.68844126515
301.68811532531
301.68975699764
301.69324353583
301.69804636169
301.70354361926
301.70912912542
301.71414726505
301.71789604294
301.71977849759
301.71964029314
301.7172903484
301.7123619895
301.70471823331
301.69449175912
301.68192584915
301.66598856563
301.64810490584
301.62839316498
301.60708230914
301.58461668513
301.56165664199
301.53818493841
301.51509467182
301.49134961819
301.46306922018
301.46819063122
301.65102121362
303.58953369538
323.41887438035
353.84513835229
359.05644263012
359.88617897646
360.28056440403
360.44425052534
360.42298728872
360.21710793674
359.85740088974
359.36686563473
358.76127585113
358.0489880965
357.24005430959
356.33796223483
355.34606422332
354.27496527002
353.14127634548
351.96322599956
350.75937095849
349.54660647035
348.34014345459
347.15228066055
345.99176733915
344.86451152328
343.77414756695
342.72288392802
341.7114348544
340.73966750266
339.80616937671
338.91045118346
338.05082273774
337.22560915518
336.43271834634
335.67075054793
334.93812351605
334.23312657676
333.55401681369
332.89955709833
332.26839521247
331.65917848536
331.07056712384
330.50151185421
329.95098845957
329.41796570466
328.90141823319
328.40055691677
327.91459524115
327.44276895723
326.98432596766
326.5386088358
326.10506186161
325.68306546746
325.27209261469
324.87159350115
324.48114408547
324.1002947366
323.72862023619
323.36571772037
323.01119193297
322.66471258619
322.32593960919
321.99456523129
321.67029358932
321.35285958147
321.04200547184
320.73751471865
320.43913249221
320.14619932981
320.03673201721
321.79530773007
320.94465927987
319.99650626815
319.04239809671
318.07983709655
317.09822355137
316.08061889784
315.00291071422
313.83540748737
312.54946475935
311.12802500092
309.57473475564
307.92431578831
306.27145104047
304.79292261798
303.65947032367
302.95198094146
302.47833264423
302.21944247198
302.09144253586
302.03414878162
302.0100359732
301.9989591839
301.99135677406
301.98337218951
301.97368931539
301.96195334226
301.94828157231
301.93292652181
301.91627246033
301.8986090472
301.88024098492
301.86151141814
301.84275609134
301.8243154869
301.80662243876
301.80517321122
301.78932287273
301.77510368493
301.76286789281
301.75287964313
301.74533812203
301.74038905885
301.73758079726
301.73674316948
301.73766825131
301.73967504267
301.7420410105
301.74396657877
301.74460954838
301.74322849854
301.7397010789
301.73332198944
301.72354694024
301.71018548842
301.69323713276
301.67291429637
301.64958275584
301.62239439559
301.59296224489
301.56148852516
301.52824920418
301.49381283153
301.45890847139
301.42366357404
301.388937499
301.35389978903
301.31408429378
301.30146514806
301.46188422398
303.39748643188
324.72067959685
349.45032345697
354.04494742242
355.07873520248
355.72845867934
356.15434111794
356.42085310271
356.52030942394
356.47170650326
356.27024975413
355.93058018831
355.46726404259
354.89563281409
354.214843571
353.43617957706
352.5715933008
351.63222701154
350.63347326612
349.59234659624
348.52497214066
347.44581405514
346.36803094441
345.30274179836
344.25763266264
343.23816668936
342.2477382393
341.28878938273
340.36239168828
339.46858648786
338.60720499671
337.77720828938
336.97750855291
336.20744457147
335.46555628143
334.75067983396
334.06119062944
333.39593514351
332.75390547138
332.13380962577
331.53441310639
330.95461170378
330.39359443795
329.85029058122
329.3237605812
328.81306795504
328.31758958156
327.83652710489
327.36916206759
326.91477506209
326.47280307649
326.04270104486
325.62389415874
325.21583775561
324.8180465467
324.43011646963
324.05160552356
323.68210639125
323.32121956815
322.96859779192
322.62390901351
322.28681667436
321.95701132942
321.63421265615
321.31816370967
321.00861130658
320.70531814576
320.40806649037
320.11611974276
320.17333293983
321.74744792259
320.87193729913
319.92764049994
318.98054225567
318.02765834973
317.05911490638
316.05931756669
315.006060477
313.87171800046
312.62896071132
311.26023883573
309.76635320349
308.1752509249
306.56549461177
305.09129987869
303.92218087024
303.16189207434
302.64010829981
302.34468284201
302.19270724866
302.12238628768
302.09297719178
302.08120534081
302.07511562433
302.06934879244
302.061799835
302.05175720893
302.03917371792
302.02428517129
302.00751852873
301.98914681056
301.96955504581
301.94913571978
301.92828673272
301.90740311547
301.8869677027
301.88457794187
301.86519771291
301.84731797048
301.83133900773
301.81757396941
301.8062592241
301.79756876404
301.79109194544
301.78647279574
301.78341772818
301.78105914386
301.77842379033
301.77438447874
301.76810175578
301.75922304299
301.74640658592
301.72893943116
301.70643443667
301.67872173508
301.64593370941
301.60854752173
301.56691210973
301.52051336094
301.47097169385
301.41854868627
301.36388355521
301.30789665815
301.25135526031
301.1947524997
301.13823884878
301.0827357504
301.02506237146
300.9727262414
301.0929266241
302.94933873778
325.96366487518
346.74558513436
350.43156338966
351.45676484381
352.15183796074
352.6662216104
353.05010204386
353.30307387273
353.41918969295
353.41177633299
353.26965476755
352.99058261186
352.60728826803
352.12216491191
351.53088756084
350.84367060383
350.07615829966
349.24018253356
348.35066601615
347.42244952256
346.46928844567
345.50386978281
344.53685627769
343.577609185
342.6329471406
341.70788628444
340.80573443509
339.92872698131
339.07814365296
338.25450898709
337.45776887356
336.68764553885
335.94356449582
335.2244959928
334.52953992556
333.8581433127
333.20907926711
332.5815204587
331.97413126603
331.3861738178
330.81694029474
330.26536887867
329.73063859606
329.21174599407
328.70817238056
328.21914912018
327.74396605197
327.28191536824
326.8323927039
326.39496030736
325.96900648396
325.55402007537
325.14946520318
324.75494551385
324.37005631708
323.99436145757
323.62746482293
323.26899211133
322.91863723454
322.57607482291
322.24098086651
321.91305136665
321.59200922811
321.27760860567
320.96960085694
320.66776860231
320.37182178196
320.08073656165
320.43672485767
321.67774552283
320.78493135387
319.84549668848
318.90664910186
317.96501651347
317.01150762968
316.0320206651
315.00652922663
313.90984007211
312.71629498588
311.40805139389
309.98299562527
308.46228564068
306.90840117798
305.4501143057
304.24879538598
303.43086685252
302.85127450527
302.50966764811
302.32558932383
302.23612757848
302.19738386293
302.18255102629
302.17676652358
302.17268111889
302.16704860708
302.15856860524
302.14688884854
302.13221471781
302.1148854567
302.09527192912
302.07381221145
302.05096627055
302.02721490771
302.00302663724
301.97892899124
301.97416249769
301.95025253817
301.92768469927
301.9068808918
301.88818240825
301.87185437719
301.85811199412
301.84656512691
301.83667356878
301.8279371583
301.81921487359
301.80910012824
301.79630758625
301.78008817892
301.75844835431
301.73021187431
301.69451140033
301.65100276416
301.59970784084
301.54054483045
301.47382028405
301.40031210264
301.32018399577
301.23489515575
301.14549293473
301.05308920968
300.95907366038
300.86379585446
300.76899430235
300.67291629992
300.57920482484
300.48207289857
300.37032213848
300.42031901618
302.04054401968
326.00474716228
345.17406037651
347.56020934417
348.59910921536
349.26407287743
349.79611630973
350.22008491345
350.53922060853
350.75835687703
350.84800891139
350.8374249323
350.71032272564
350.45861238493
350.11470794619
349.67830270105
349.14668301539
348.52479730264
347.83285435725
347.07972920024
346.27925765722
345.44367912582
344.58555722127
343.71571000948
342.84271187157
341.97420774892
341.11624433271
340.2731631112
339.44808587603
338.64319891384
337.85985416521
337.09877532377
336.36023330694
335.64409927236
334.95008206643
334.27775719687
333.62636376282
332.99507084029
332.38340918322
331.79066494105
331.21589494548
330.65853831842
330.11753767071
329.59229472876
329.08234632692
328.5868676432
328.10527214706
327.63675188332
327.18082755348
326.737081241
326.30488627789
325.88376787679
325.47316948226
325.07273066825
324.68206386603
324.30071956237
323.92830745002
323.56442932998
323.2088096111
322.86112424661
322.52103998776
322.18826100869
321.86249876866
321.54351770096
321.23107014054
320.92490569504
320.62479323506
320.33048832229
320.03952538943
320.88598555089
321.59310695962
320.68367389489
319.7499044278
318.82045871449
317.8915052027
316.95474188673
315.99764225465
315.00253147391
313.94693351349
312.80718654185
311.56545743102
310.21688180352
308.77621922418
307.29104135663
305.8638801644
304.64014049354
303.76444399098
303.11977910765
302.72232682038
302.49710027096
302.38096625993
302.32741948668
302.30590556476
302.29827171864
302.29467303932
302.29031191404
302.28299594797
302.27190958611
302.25706001943
302.23868550354
302.21719960684
302.19313667117
302.16702977422
302.13945390864
302.11096613
302.0821316694
302.0735945097
302.04406362052
302.01566791106
301.98885964222
301.96397903297
301.94131143303
301.92108864367
301.90289235877
301.88601443611
301.86953496349
301.85191863581
301.83118558508
301.8061547601
301.77389840054
301.7322991653
301.67965135419
301.61501432407
301.5375557825
301.44690729669
301.34287235984
301.22629070136
301.09894479481
300.96042355798
300.81290488202
300.65892156019
300.50025964211
300.33984779118
300.17639862016
300.01312745683
299.84636250513
299.6819221924
299.5105934495
299.31426094535
299.24265168504
300.33117905261
320.52425295077
344.40546760354
345.14980309219
346.24652967408
346.8687439274
347.38068352984
347.81088836595
348.15639688913
348.42349512655
348.58173082476
348.6417941174
348.61939034567
348.48542768894
348.2365179924
347.90741411212
347.50778851113
347.01608978271
346.44314670816
345.80791619666
345.1211748964
344.39396036964
343.63565606181
342.85714598484
342.06770690296
341.27443407185
340.48363792106
339.70050296448
338.9286676409
338.17102107122
337.42961086696
336.70580359634
336.00047305466
335.3140469391
334.64659523506
333.99797796224
333.36791999215
332.75609840374
332.16205362206
331.58505577166
331.02443361041
330.47993520423
329.95084162383
329.43649596856
328.9364700783
328.44987485307
327.97627361992
327.51534001333
327.06643682352
326.62911193098
326.20275033093
325.78694954578
325.38142316186
324.98568782594
324.59935733749
324.2220145975
323.85327371466
323.49290959567
323.14056391542
322.79591747246
322.45866869707
322.12852341702
321.80526960661
321.48865903396
321.1784626352
320.87444099079
320.5763527936
320.28402979505
319.9942413477
321.4120914084
321.48443248819
320.56663094695
319.64011551654
318.72143184521
317.80655273389
316.88801815647
315.9549561765