/*--------------------------------*- C++ -*----------------------------------*\
| =========                 |                                                 |
| \\      /  F ield         | OpenFOAM: The Open Source CFD Toolbox           |
|  \\    /   O peration     | Version:  2312                                  |
|   \\  /    A nd           | Website:  www.openfoam.com                      |
|    \\/     M anipulation  |                                                 |
\*---------------------------------------------------------------------------*/
FoamFile
{
    version     2.0;
    format      ascii;
    arch        "LSB;label=32;scalar=64";
    class       volScalarField;
    location    "0.00011";
    object      TpSat;
}
// * * * * * * * * * * * * * * * * * * * * * * * * * * * * * * * * * * * * * //

dimensions      [0 0 0 1 0 0 0];

internalField   nonuniform List<scalar> 
109340
(
372.99991045531
372.99865133332
372.9964399803
372.99362160783
372.9906054312
372.98758655595
372.98463717102
372.98179342342
372.97901649972
372.9762278665
372.97343401259
372.97063793481
372.96783652448
372.96502212072
372.96218424137
372.95930948513
372.95638075003
372.95337672132
372.95027046498
372.94702825763
372.94360804945
372.93995853471
372.93601615619
372.93170032219
372.92690791482
372.92150503569
372.91531552688
372.90810404876
372.89954968852
372.88920351653
372.8764166331
372.86021135957
372.83903882259
372.81030448098
372.76935721518
372.70743817161
372.9997095875
372.99803719086
372.99548550268
372.99261056488
372.98966037098
372.98673144715
372.98384448434
372.98098928382
372.97816041488
372.97534612581
372.97253864935
372.96973328377
372.96692351654
372.96410046165
372.9612525181
372.95836537482
372.955421461
372.95239814479
372.94926680936
372.94599186861
372.94252934906
372.93882530574
372.93481271283
372.93040619537
372.92549605303
372.9199392597
372.91354699787
372.90606580509
372.89714803076
372.88630371902
372.8728176362
372.85559673459
372.83287214748
372.80159225128
372.75600099124
372.68464324719
372.99974927367
372.99777103194
372.99512189146
372.99229584538
372.98940128412
372.98649165139
372.98357928565
372.98068142568
372.97781143128
372.97496641164
372.97213769613
372.96931791639
372.96649901791
372.96367139567
372.96082344838
372.95794097561
372.9550064441
372.95199746737
372.9488855889
372.9456356222
372.94220357827
372.93853604378
372.93456652017
372.93020977173
372.92535604755
372.91986209436
372.9135390368
372.90613333859
372.89729724072
372.88654047095
372.87314696719
372.85601941545
372.83336197428
372.80200742371
372.75573002824
372.68086213415
372.99971039089
372.99741358018
372.99463235318
372.99171353675
372.98875451245
372.9857822253
372.98281305255
372.97986224569
372.97694170158
372.97405555396
372.97120002463
372.96836860524
372.9655528463
372.96274329013
372.9599302271
372.95709997237
372.95423581894
372.95131608252
372.94831291907
372.94519262365
372.94191164478
372.93841670441
372.93464032024
372.9304959703
372.92587188139
372.92062243704
372.91455580515
372.90741478487
372.8988469176
372.88835512579
372.87521283854
372.85830526201
372.83577822836
372.80427397783
372.75678855847
372.67550758569
372.99949674705
372.9964446892
372.99303142181
372.98969180915
372.98643041105
372.98324461563
372.98014594405
372.97716248541
372.97431392986
372.97159509469
372.96900916612
372.96655559541
372.96422701974
372.9620146246
372.95990865383
372.95789682661
372.95596365777
372.95408895499
372.95224248879
372.95039375789
372.94846453447
372.9463781093
372.94404911964
372.94137441399
372.93822691529
372.93444189003
372.92980437688
372.92402785246
372.91671936859
372.9073253215
372.89503421215
372.87861458402
372.85597766188
372.8232711804
372.77191440434
372.67547741388
373.00336272406
373.01758818811
373.03290642252
373.04810920516
373.06276484474
373.07663603489
373.08959566022
373.10158945333
373.11260680249
373.12265675339
373.13176236308
373.13995025519
373.1472464435
373.1536747278
373.15925388725
373.16399695143
373.16791094331
373.17100002065
373.17331455248
373.1749714788
373.17596139819
373.17623231715
373.17570674821
373.17425977059
373.1717700339
373.16801785619
373.162715426
373.15546771892
373.14572007903
373.13267641942
373.11514955366
373.09133447625
373.05810508611
373.00961941066
372.93233819979
372.77617957821
372.60917314347
372.45435810697
372.21739998729
371.87842139819
371.42737374331
370.85328014352
370.14154455308
369.27927621787
368.25555710368
367.06479775202
365.70427868485
364.19442563461
362.57412270092
360.87166013175
359.12742754812
357.37538708554
355.64525950586
353.95881716982
352.33021842835
350.76902169858
349.28056320202
347.86526124942
346.52217791992
345.24905935857
344.04226494382
342.89822606062
341.81059170037
340.7792442661
339.79950851207
338.86162176802
337.97477428952
337.12095650049
336.31150416207
335.53074026619
334.78803884415
334.07029495798
333.38589493844
332.72260017531
332.08942169192
331.47366126059
330.88547289015
330.3116485899
329.76279027973
329.22690648713
328.7121648127
328.211269343
327.7259572507
327.25586331566
326.79754162709
326.35388503177
325.92120745654
325.50081855333
325.09152185484
324.69291639156
324.30434897038
323.92542698791
323.55565002526
323.19465721895
322.84205728096
322.49750098756
322.16063137985
321.83113986687
321.50873582692
321.19313971654
320.88411619006
320.58138599543
320.28474346593
319.9851011698
321.68709605397
321.31584628934
320.36986670913
319.40662528224
318.43031829316
317.43024206205
316.38890381662
315.28064678771
314.07291339279
312.73307462237
311.2407524515
309.59908949811
307.84673781391
306.09318086916
304.54602378803
303.39507657059
302.5889280301
302.20473630744
302.0089458947
301.91836118083
301.87792372099
301.85747654154
301.84313985026
301.82962133588
301.81525084966
301.80005712276
301.78381663166
301.76682692913
301.74936705559
301.73167652697
301.71405987019
301.69677449417
301.68008408478
301.66422427211
301.64946622627
301.63604928196
301.62155218243
301.61205324564
301.60434661387
301.59861955459
301.59499539437
301.59347798434
301.5940263522
301.59649271077
301.60070553671
301.6068515745
301.61421393062
301.62236978235
301.63103152233
301.63966671901
301.64770555722
301.65501471769
301.66133894899
301.66617856042
301.66925635206
301.67055165303
301.6701592529
301.66823955515
301.66400240622
301.65754448603
301.64992234943
301.64125039147
301.63118840797
301.61997048759
301.60815678636
301.59622900013
301.58397738645
301.5704135959
301.58516992224
301.78384339563
303.64605188107
321.54802228478
372.56588460348
372.37289111544
372.0789198101
371.67114036949
371.14406302483
370.48840946976
369.69453639643
368.75586703364
367.6677470836
366.42974732425
365.04625642477
363.53319242135
361.9230368912
360.2453383345
358.53076457334
356.81060755302
355.11206817673
353.45592847678
351.85680545225
350.32351028439
348.86066431111
347.469557214
346.14909103768
344.89667123256
343.70932476778
342.58291165908
341.51344379176
340.49683022344
339.53001316018
338.60871786733
337.73020641194
336.89130469495
336.08894836691
335.32096505975
334.58451200569
333.87796623599
333.19878369272
332.54575842876
331.91669476519
331.31051998125
330.72548985767
330.16055102913
329.61441390417
329.08593751294
328.57433677772
328.07834187219
327.59752080382
327.13061025497
326.67735637992
326.23659345652
325.80805197789
325.39086653843
324.98468179508
324.58894927932
324.20316222892
323.82686543069
323.45962373598
323.10104112659
322.75073396298
322.40835381784
322.07357193313
321.74608417853
321.42559860871
321.11186504808
320.80458996054
320.50357579268
320.20855557339
319.95427237832
321.84492022463
321.07860591048
320.12495836749
319.15954632335
318.17919031945
317.17175550006
316.117902618
314.99007797303
313.75491559787
312.3816700817
310.85487175569
309.18469304568
307.42217917337
305.70023524944
304.23835086259
303.19261821523
302.59763953066
302.21104652192
302.01378427209
301.92241494388
301.88169555895
301.86126683768
301.8470876719
301.83376762304
301.81960523126
301.80457168003
301.78848619099
301.7716135333
301.75423858732
301.73658403935
301.71901740052
301.70173446226
301.68501944044
301.669113492
301.65429250346
301.64080282397
301.62618836491
301.61656784477
301.60873245271
301.60287796744
301.59913352199
301.59751635385
301.59796878402
301.60035823661
301.60452291058
301.6105789481
301.61788744366
301.62600884637
301.63462091176
301.64316619351
301.65114228993
301.65835940279
301.66451024106
301.66913853755
301.67201403879
301.67308872235
301.67244863185
301.67024670027
301.66560564117
301.65887191349
301.650916814
301.6418065006
301.63133582632
301.61980404443
301.60764490071
301.59541070837
301.58283531856
301.56883264482
301.5833556715
301.78183299833
303.65109744585
321.643148743
372.54637790965
372.31182689563
371.9532564927
371.46561929793
370.85172071283
370.11163351398
369.24720885069
368.25629438639
367.13838269873
365.89231464606
364.52718733253
363.0549744688
361.49169117886
359.8640202902
358.20028167671
356.52728119182
354.87101853016
353.25202708668
351.68454490804
350.17739784672
348.73594562745
347.36246400506
346.0564032691
344.81577705822
343.63791358259
342.51939104796
341.45687381653
340.44644069142
339.48442901476
338.56776265051
337.69282614421
336.8571969529
336.0577380334
335.29220927507
334.55809187731
333.85341373731
333.17615117861
332.5246320583
331.89708933016
331.29219480656
330.70835353954
330.14456430416
329.59930633718
329.07193283343
328.56097504946
328.06598175331
327.58567208679
327.11961309549
326.66680814555
326.22672200166
325.79866411216
325.38205031796
324.97634090482
324.58098844882
324.19558648732
323.81965156065
323.45276704678
323.09451408
322.74451623512
322.40242536972
322.06791751236
321.74069046192
321.4204441905
321.10692775761
320.79989035274
320.49907370257
320.20424357783
319.95382483667
321.8412611541
321.07002508819
320.11714405275
319.15244312473
318.17310478145
317.16726036237
316.11572371166
314.99112659433
313.7603016794
312.39261021829
310.87246036966
309.20957914258
307.45386208756
305.73556166012
304.27168605967
303.21989219526
302.61653849969
302.22505765865
302.02455192227
301.93142051894
301.8900418552
301.86961985934
301.85576351987
301.84286461318
301.82913892338
301.81445242408
301.79868518906
301.78205458215
301.76485101875
301.74727819668
301.72980444679
301.71251553455
301.69573766512
301.67972341668
301.6647577655
301.65110577084
301.63623824799
301.62635109292
301.6182328686
301.61209764945
301.60808704449
301.60624505342
301.6064776286
301.60869466587
301.61273617465
301.61858798121
301.62575680774
301.63376874643
301.64222296483
301.65060254288
301.65842921883
301.66541698589
301.67117847114
301.6753425824
301.67773933842
301.67827896837
301.67703201866
301.67420322174
301.66869097438
301.6613082098
301.65256775381
301.64251784555
301.6311753324
301.61893275971
301.60596859215
301.59307584987
301.57974569409
301.56480601275
301.57878583463
301.77696565951
303.67143533425
321.95644584656
372.50715364372
372.17742684012
371.68013266948
371.04095163352
370.28832258254
369.43222320765
368.48711361163
367.4533559553
366.32677082667
365.10384764575
363.79196141435
362.38916778434
360.90350727979
359.35324186083
357.76137305425
356.15370625646
354.55385747591
352.98272344721
351.45555359275
349.98260917111
348.56970856847
347.21907842112
345.93222592942
344.70775383453
343.54308278732
342.43547205726
341.38192679926
340.37932043259
339.42407158928
338.51310503332
337.64338447569
336.81193825499
336.0164679994
335.25419553623
334.5231786841
333.82107501589
333.14631515473
332.49681723544
331.87133729371
331.26807764789
330.68594607264
330.12345203333
329.57965635617
329.05333437922
328.54356527069
328.04948446608
327.57013738792
327.10491609524
326.65285706722
326.21354089059
325.78611511763
325.37017950918
324.96504795384
324.57026608436
324.18536027197
323.8098938222
323.44345170117
323.08561851077
322.73602471074
322.39431605955
322.06016447319
321.73326285832
321.41333350432
321.10010960756
320.79338048581
320.49282942563
320.19823938573
319.95432781848
321.83667566959
321.05767119763
320.1058527835
319.14214065956
318.16429379403
317.16075531941
316.11254863579
314.99258213167
313.7679861517
312.40828224875
310.89770762982
309.24535666253
307.49949781829
305.78662144228
304.3200914773
303.25968013263
302.64536353875
302.24655398289
302.04107619315
301.94519070026
301.90274887335
301.88229516705
301.86890078554
301.85662089324
301.84353439116
301.82936815811
301.81404636681
301.79776772752
301.78080675655
301.76337982176
301.74598310587
301.72867159138
301.71178582648
301.69559231587
301.68038651117
301.6664722076
301.65122189378
301.64091804085
301.63235942449
301.62578631741
301.62135785361
301.61915461006
301.61905894862
301.62098470521
301.62476580978
301.63034927263
301.63728085413
301.64505690474
301.65324590667
301.66133524742
301.66881554653
301.67534106484
301.68047934486
301.68391201657
301.68547508163
301.68508693462
301.68284642852
301.67893865917
301.67221828509
301.66364609352
301.65359807986
301.64217053305
301.62950434744
301.6160565166
301.60189232386
301.58789249842
301.57336518014
301.55692847499
301.5700612866
301.76781608927
303.67901505994
322.19570299194
372.40215211677
371.79673136476
370.99569833256
370.11820685559
369.21832106273
368.28954683661
367.32587927624
366.31433720571
365.23890033497
364.0938359683
362.86726927219
361.55833990967
360.1703775149
358.71599358635
357.21471516657
355.68844797403
354.15939764527
352.64833287303
351.17143567638
349.74008093406
348.36175226275
347.04084691104
345.77767351288
344.57284840482
343.42498363764
342.33159894545
341.28969528066
340.29678225366
339.35009190816
338.4463224448
337.58281133928
336.75684819069
335.96600353025
335.20791128353
334.48050274783
333.78174038078
333.10978208249
332.46298102126
331.83978340558
331.23868209754
330.65843814793
330.09771837601
329.55550917773
329.03059683089
328.52220942357
328.0292708335
327.55110930974
327.08682586485
326.63578483707
326.19730064656
325.77071169776
325.35551102374
324.95108398341
324.5569985441
324.17270414959
323.79780891433
323.43188967484
323.0745640691
322.72545571438
322.38420287986
322.05047796811
321.72397546907
321.40443119387
321.09156750259
320.78518644378
320.48496738274
320.19067622222
319.95627238407
321.83207669223
321.0419384325
320.09111634665
319.12862499945
318.1527640649
317.1522451088
316.10835411164
314.99437563939
313.77784357
312.42849992242
310.93036897874
309.29173586662
307.55880909338
305.853287306
304.38368554027
303.31228215823
302.6843836635
302.27575557021
302.06352409846
301.96381880451
301.91983153035
301.89923713646
301.88639644448
301.87490227194
301.86262612527
301.84913909335
301.83437545326
301.81853391226
301.80187261618
301.78462755529
301.76728478826
301.74992010602
301.73287048538
301.71641201791
301.70084877463
301.68655409593
301.6708012719
301.65991498564
301.65074460736
301.64356383563
301.63855019765
301.63581892726
301.63527125381
301.63675999974
301.64014706163
301.64533950703
301.65188667926
301.65927358247
301.66702758017
301.67462634981
301.68154186106
301.68729994438
301.69148231924
301.69379442051
301.69408068201
301.69234232206
301.68863489955
301.68311122347
301.67462020995
301.66430560666
301.65242454082
301.63906523295
301.6245135975
301.60930194072
301.59342556558
301.57774935873
301.5614620155
301.54274514162
301.55456262575
301.75034506861
303.67163052137
322.44631183858
371.79391795856
370.24953337427
369.19525921644
368.32029690295
367.4825901076
366.6463975715
365.78735320693
364.89128284284
363.93352532967
362.9028583269
361.79064537333
360.59591960852
359.32098860941
357.9752245343
356.57502277876
355.14067881751
353.69274565232
352.25119510615
350.8331516947
349.45108084093
348.11382281867
346.82666205542
345.5926648621
344.41166126998
343.2834747986
342.20678604963
341.17941710802
340.19842597358
339.2618682875
338.36697316386
337.51108335973
336.6916388451
335.90647318155
335.15347022706
334.43037835372
333.73552378173
333.0670391341
332.42336739107
331.8028568135
331.20430564868
330.62627346202
330.06763242203
329.52720337824
329.0040391909
328.49715236488
328.0056366438
327.52874514171
327.06565502297
326.61574500346
326.17823736403
325.75261555815
325.33826104386
324.93467614244
324.54134571417
324.15777249089
323.78354924833
323.41825223381
323.06151409918
322.71294881162
322.37221373407
322.03898732456
321.71296449603
321.39385872445
321.08140966662
320.77542630055
320.47559979356
320.18164736405
319.96248627175
321.82688105714
321.02302482995
320.07290738321
319.11188174687
318.1385284837
317.14173480649
316.10310939352
314.99642021492
313.78971765182
312.45303102224
310.97013748932
309.34835343722
307.63144166125
305.93538894797
304.46262932934
303.37808328445
302.73399920311
302.31301611535
302.09216716199
301.98747218597
301.94135724536
301.92043186954
301.90817891336
301.89759746415
301.88627157212
301.87360069308
301.85949340072
301.84415153594
301.82782124965
301.8107703036
301.79344369317
301.77596534575
301.75866528981
301.74183020171
301.72577341469
301.71094013279
301.69459086033
301.68292970588
301.6729691249
301.66500805525
301.65923774002
301.65579305966
301.65464652018
301.65553022445
301.65834726423
301.6629865847
301.66897729423
301.67577204789
301.68287441899
301.68972104844
301.69570527395
301.70028110118
301.70307232074
301.70377170001
301.70231725584
301.69868584372
301.69288715111
301.68509354207
301.67417206417
301.66140782163
301.64697921191
301.63102021187
301.61389938728
301.59620207179
301.57789912767
301.5598609717
301.54113422407
301.5192584009
301.52907552092
301.72107663297
303.64998812935
322.76816156914
362.98195670235
366.59036357132
366.33277300076
365.91427342153
365.4282416701
364.85674082631
364.20371802228
363.47788781343
362.6814579587
361.8103780721
360.85456745055
359.80949621276
358.67835114219
357.46729581309
356.18899718514
354.86167915348
353.50527978963
352.13926535009
350.78164917
349.44701725484
348.14624661004
346.88689033718
345.67317210409
344.5077652833
343.39083647482
342.321407909
341.29897974771
340.32145953962
339.38671499488
338.49213752218
337.63595309404
336.81577467345
336.02923523824
335.27435864952
334.54938531084
333.85243952515
333.18164394627
332.53562245705
331.91282766867
331.3119110909
330.73148825173
330.17054445844
329.62786212049
329.10246795072
328.59335546602
328.09974727748
327.62079145132
327.15571282782
326.70382630875
326.26444849239
325.83702608534
325.4209126738
325.01561557136
324.62062177425
324.23548615337
323.85975425401
323.49298105012
323.13480025327
322.78485001335
322.44279199837
322.10828557883
321.78101930024
321.4607127677
321.14710833961
320.83993058779
320.53895444836
320.24392732585
319.94616420085
321.77269057676
321.23328344847
320.28976682921
319.33247193272
318.36571166916
317.38024915351
316.35992064219
315.28097459265
314.11306710806
312.8251541853
311.39641773991
309.82664807436
308.1460180651
306.4428000624
304.89499953466
303.69373676109
302.79471971052
302.35880116665
302.12737335754
302.01639446321
301.96744864375
301.94590521587
301.93420010977
301.92461026071
301.91434115487
301.9025959886
301.88922750786
301.87442411965
301.85843536739
301.84156408742
301.82420066563
301.80652982801
301.78887939041
301.7715459702
301.75484338701
301.73917067446
301.73705228918
301.72385695067
301.71238142608
301.70291257035
301.69567066105
301.69082037905
301.68844124497
301.68811528322
301.68975691976
301.69324344918
301.69804628759
301.70354356219
301.7091290913
301.71414727955
301.71789608563
301.71977852698
301.71964026085
301.71729018683
301.71236161908
301.70471753183
301.69449061924
301.68192425742
301.66598623059
301.64810198348
301.62838957142
301.60707803052
301.58461182457
301.56165143507
301.53817951359
301.51508935989
301.49134444098
301.4630648294
301.46818660969
301.65101790624
303.58952907112
323.41888676037
353.84513842031
359.0564430421
359.88618190799
360.28056423302
360.44424989734
360.42298749232
360.21710687633
359.85740220323
359.36686655472
358.76127599752
358.04898822919
357.2400552031
356.33796118748
355.34606416139
354.27496490503
353.14127648794
351.96322637157
350.75937071695
349.54660678502
348.34014340228
347.15228018485
345.99176717964
344.86451125221
343.77414705118
342.72288388053
341.71143610614
340.7396676354
339.80616840259
338.91045053627
338.05082232528
337.22560853812
336.43271687874
335.67074956974
334.9381216954
334.23312614548
333.55401571375
332.89955767509
332.26839450105
331.65917905005
331.0705663109
330.50151149056
329.95098718848
329.41796412512
328.90141798901
328.4005556674
327.91459592597
327.4427678284
326.98432724165
326.53860912485
326.10506321575
325.68306680001
325.27209270342
324.87159458103
324.4811426833
324.10029383376
323.72861756793
323.36571469796
323.01118897511
322.66470948361
322.32593784513
321.99456421562
321.67029379188
321.35286033398
321.04200629125
320.73751602112
320.43913371825
320.14620465524
320.03612639163
321.79518873195
320.94465909019
319.99650978035
319.04240253372
318.07984195495
317.09822838784
316.08062337845
315.0029145754
313.83541060419
312.54946708901
311.12802653493
309.57473549678
307.92431557569
306.27144992665
304.79292123025
303.65946897753
302.9519800682
302.47833174353
302.21944157933
302.09144160249
302.03414776364
302.01003485765
301.99895795879
301.99135551133
301.98337091211
301.97368807543
301.96195218492
301.94828053487
301.93292561984
301.91627170768
301.89860846199
301.88024055731
301.86151113472
301.84275592776
301.82431541252
301.80662243365
301.8051730331
301.78932273019
301.77510356729
301.76286779677
301.75287955738
301.74533806258
301.74038903633
301.73758076147
301.73674312312
301.73766819408
301.73967498895
301.74204096737
301.7439665555
301.7446095728
301.74322853642
301.73970108853
301.7333219201
301.72354671997
301.71018506608
301.69323637833
301.67291312102
301.64958110591
301.62239205098
301.5929592972
301.56148489226
301.52824488602
301.49380793636
301.4589032491
301.42365814499
301.38893216805
301.35389468068
301.31407979218
301.3014612706
301.46188113402
303.39748217643
324.72069100246
349.45032359305
354.04494686756
355.07873736738
355.72845839841
356.15434087938
356.42085400951
356.52030944656
356.47170607399
356.27024973208
355.93058548412
355.46726076564
354.89565090947
354.21485616208
353.43617737747
352.57159455647
351.63222576865
350.63347127278
349.59234738615
348.52497199023
347.44581358998
346.36803097435
345.3027419081
344.25763243979
343.23816685119
342.24773889237
341.28878925488
340.36239097316
339.46858649417
338.60720502371
337.77720734932
336.97750688011
336.20744277438
335.46555470841
334.75067814352
334.06118958534
333.39593431417
332.75390469112
332.13380955607
331.5344127191
330.95461176822
330.39359372325
329.85028908379
329.32375964799
328.81306677742
328.31758924452
327.83652607531
327.36916223837
326.91477485214
326.47280342778
326.04270127517
325.62389382388
325.21583789525
324.81804555167
324.43011569343
324.05160381924
323.68210438397
323.32121760488
322.96859536427
322.6239073694
322.28681532088
321.95701095196
321.6342128584
321.3181639996
321.00861150051
320.70531780038
320.40806505587
320.11611419737
320.17261398327
321.74737155994
320.8719376261
319.92764377605
318.98054647579
318.02766301318
317.05911959462
316.05932195534
315.00606431741
313.87172116936
312.62896316015
311.26024054165
309.76635418137
308.1752510367
306.56549386313
305.09129876959
303.92217983664
303.16189126892
302.64010749473
302.34468206307
302.19270644988
302.12238542885
302.09297625442
302.08120433064
302.07511455197
302.0693476918
302.06179874121
302.05175616168
302.03917275266
302.02428430984
302.00751778857
301.98914619782
301.96955456603
301.94913536471
301.92828648463
301.90740295118
301.88696760668
301.88457768813
301.86519750337
301.84731779651
301.83133888754
301.81757390274
301.80625915694
301.79756879207
301.79109194544
301.78647280604
301.78341773406
301.78105915394
301.77842380506
301.77438451991
301.76810180726
301.75922307397
301.74640657418
301.72893931372
301.70643417527
301.67872119599
301.64593285749
301.60854627858
301.56691043405
301.52051100117
301.4709686949
301.4185450025
301.36387917337
301.30789170036
301.25134992536
301.19474693424
301.13823330226
301.08273041181
301.02505758656
300.97272207623
301.09292336245
302.94933457476
325.96367545789
346.74558522052
350.43156398746
351.45676411254
352.15183829885
352.66622148389
353.05010183426
353.30307538454
353.41918973559
353.41177289669
353.26966075508
352.99064280288
352.60737549327
352.12216245912
351.53091506353
350.84366626667
350.07615841343
349.24018311781
348.35066458423
347.42244988536
346.46928832077
345.50386865077
344.53685559824
343.57760899665
342.63294729436
341.70788633403
340.80573383339
339.92872666826
339.07814413856
338.25450933316
337.45776868517
336.68764533427
335.94356406457
335.22449402682
334.52953780683
333.85814191585
333.20907876756
332.58152014793
331.97413071261
331.38617386738
330.81694027235
330.2653680432
329.73063758369
329.21174483181
328.70817136124
328.21914792331
327.74396591087
327.28191572909
326.83239331409
326.39496055669
325.96900610444
325.55401968108
325.14946422244
324.7549443728
324.37005455104
323.99435953732
323.62746310841
323.26899024381
322.91863586858
322.57607358573
322.24098019404
321.91305119594
321.59200913142
321.27760849996
320.96960013193
320.66776738907
320.37182083747
320.08074023915
320.43569889774
321.6776938989
320.7849315998
319.84549961427
318.90665307028
317.96502096323
317.01151214447
316.03202493125
315.00653301937
313.90984327726
312.71629755223
311.40805326855
309.98299687071
308.46228611629
306.90840086129
305.45011355888
304.24879466321
303.43086609031
302.85127381937
302.50966700414
302.32558867604
302.23612689511
302.19738311932
302.18255021599
302.17676563855
302.17268021966
302.16704769608
302.15856771214
302.14688799668
302.13221393733
302.11488476466
302.09527134002
302.07381173139
302.05096589364
302.02721462106
302.00302642342
301.97892885542
301.97416223657
301.9502523301
301.92768454089
301.90688077052
301.88818236602
301.87185435199
301.8581120565
301.84656517559
301.83667364114
301.82793723943
301.81921495553
301.80910022025
301.79630768348
301.78008825516
301.75844839166
301.73021183255
301.69451122526
301.65100238792
301.59970722849
301.54054390294
301.47381896732
301.40031030372
301.32018158504
301.23489206272
301.14548910492
301.05308464569
300.95906848816
300.86379025959
300.76898841475
300.67291035656
300.57919909643
300.48206769999
300.37031759666
300.42031552448
302.04053987349
326.00475586663
345.1740604747
347.56020896541
348.59910853066
349.26407249777
349.79611755199
350.22008409271
350.53922160244
350.75835559496
350.84800591462
350.83741773342
350.71024497186
350.45842480581
350.11468254508
349.67827482493
349.14670188114
348.52477539881
347.83284932531
347.07972895562
346.27925594459
345.44367894219
344.58555795701
343.71570986664
342.84271137612
341.97420768455
341.11624422509
340.2731634919
339.44808631521
338.64319840768
337.85985297731
337.09877462597
336.3602331243
335.64409857492
334.95008065159
334.27775520885
333.6263623899
332.9950694463
332.38340846056
331.79066484048
331.2158960246
330.65853934954
330.11753792413
329.5922952515
329.0823465505
328.58686684225
328.1052710856
327.63675196051
327.1808282349
326.73708201557
326.30488640789
325.88376769215
325.4731691235
325.07272977264
324.6820623423
324.30071743483
323.9283052985
323.5644272458
323.20880802431
322.86112296874
322.52103913828
322.18826053766
321.86249821089
321.54351715882
321.23106933324
320.92490462672
320.6247920214
320.33048579162
320.03952005494
320.88491280688
321.59308047324
320.68367488882
319.74990727467
318.82046249363
317.89150943514
316.9547461989
315.9976463619
315.00253517994
313.94693672157
312.8071892028
311.56545951435
310.21688330929
308.7762200755
307.29104151233
305.86387985689
304.64014014406
303.76444347919
303.11977856604
302.72232633673
302.4970997902
302.3809657609
302.3274189448
302.30590497064
302.29827107565
302.29467233644
302.29031120784
302.2829952417
302.27190889861
302.25705937269
302.23868492431
302.21719910562
302.19313624606
302.16702943662
302.13945364637
302.11096594219
302.0821315511
302.07359427518
302.04406344914
302.01566780149
301.98885959965
301.96397904511
301.94131147211
301.92108875706
301.9028924806
301.88601458515
301.86953512894
301.85191880492
301.83118575261
301.80615489614
301.77389849066
301.73229918426
301.67965126211
301.61501409006
301.53755533049
301.44690660306
301.34287134444
301.22628922628
301.09894279418
300.96042096766
300.81290159909
300.65891753658
300.5002548963
300.33984241182
300.17639277716
300.01312125383
299.84635625383
299.6819160929
299.51058794474
299.31425615261
299.24264806991
300.33117511296
320.52425670594
344.40546827723
345.14980354043
346.24653033278
346.86874352024
347.38068326961
347.81088803101
348.15639681913
348.42349433875
348.5817269088
348.64180606492
348.6193874898
348.4854189285
348.23648042266
347.90734820739
347.50780551381
347.01612777551
346.44315797329
345.80792634108
345.12117095651
344.39396027214
343.63565770389
342.85714803103
342.06770747091
341.27443396938
340.48363793029
339.70050337921
338.92866867407
338.17102189276
337.42961104658
336.70580316293
336.00047184751
335.31404535991
334.64659416409
333.99797729245
333.36791878575
332.75609648268
332.16205118756
331.58505436098
331.02443314022
330.47993565439
329.95084315809
329.43649822072
328.93647183689
328.44987564863
327.97627439609
327.51534079327
327.06643758669
326.62911199761
326.20275079121
325.7869495919
325.38142291662
324.98568692542
324.59935514066
324.22201192456
323.85327134242
323.49290748569
323.14056226608
322.7959160487
322.45866756603
322.12852212995
321.80526824149
321.48865764516
321.17846161821
320.87444071146
320.57635272806
320.2840307569
319.99424164572
321.41123420041
321.48442003412
320.56663197753
319.64011828625
318.72143542461
317.80655672094
316.88802222618
315.9549600681