/*--------------------------------*- C++ -*----------------------------------*\
| =========                 |                                                 |
| \\      /  F ield         | OpenFOAM: The Open Source CFD Toolbox           |
|  \\    /   O peration     | Version:  2312                                  |
|   \\  /    A nd           | Website:  www.openfoam.com                      |
|    \\/     M anipulation  |                                                 |
\*---------------------------------------------------------------------------*/
FoamFile
{
    version     2.0;
    format      ascii;
    arch        "LSB;label=32;scalar=64";
    class       volScalarField;
    location    "0.00011";
    object      Y.Liq;
}
// * * * * * * * * * * * * * * * * * * * * * * * * * * * * * * * * * * * * * //

dimensions      [0 0 0 0 0 0 0];

internalField   nonuniform List<scalar> 
109340
(
0.99999
0.99999
0.99999
0.99999
0.99998999999996
0.99998999999888
0.99998999996784
0.99998999938017
0.99998999584076
0.99998998469723
0.99998995927486
0.99998991100194
0.99998982950188
0.99998970258831
0.99998951614577
0.99998925388281
0.9999888968998
0.9999884230386
0.99998780594792
0.99998701379548
0.99998600752493
0.99998473861691
0.99998314617657
0.99998115307278
0.99997866060393
0.99997554104821
0.99997162693705
0.99996669509697
0.99996044197329
0.99995244371211
0.99994208827223
0.99992845293608
0.9999100684761
0.99988443729645
0.99984699305954
0.99978872253299
0.99999
0.99999
0.99999
0.99999
0.99998999999994
0.99998999999817
0.99998999994787
0.99998999908878
0.99998999451135
0.99998998104437
0.99998995150643
0.99998989685002
0.99998980622996
0.99998966697405
0.99998946443734
0.99998918170666
0.99998879913758
0.9999882936388
0.99998763764609
0.99998679772741
0.99998573273027
0.99998439138294
0.999982709183
0.99998060423623
0.99997797147651
0.99997467453614
0.99997053396455
0.99996530954412
0.99995867264907
0.99995016099673
0.9999391004731
0.99992446117783
0.9999045711603
0.99987650645223
0.99983466372776
0.99976733551573
0.99999
0.99999
0.99999
0.99999
0.99998999999997
0.9999899999992
0.99998999997313
0.99998999929933
0.9999899951778
0.99998998243538
0.99998995385499
0.99998990034711
0.99998981102539
0.99998967318124
0.99998947214133
0.99998919098108
0.99998881005685
0.99998830629625
0.99998765216361
0.9999868142634
0.99998575146516
0.99998441249203
0.99998273282998
0.99998063054622
0.99997800052372
0.99997470631569
0.99997056835727
0.99996534630396
0.9999587114313
0.9999502013697
0.99993914184072
0.99992450182184
0.99990459885656
0.99987644448399
0.99983409827148
0.99976404620365
0.99999
0.99999
0.99999
0.99999
0.99998999999999
0.99998999999984
0.99998999999217
0.99998999950631
0.99998999588769
0.99998998397208
0.99998995650628
0.99998990435712
0.999989816596
0.99998968047241
0.99998948126515
0.99998920199152
0.99998882293762
0.99998832094423
0.99998766835389
0.99998683159991
0.99998576927097
0.99998442965291
0.99998274761941
0.9999806403741
0.99997800160769
0.99997469320426
0.99997053326169
0.99996527816008
0.99995859456941
0.99995001352981
0.99993885082924
0.99992405965358
0.999903921361
0.99987532503246
0.99983178244208
0.99975651669337
0.99999
0.99999
0.99999
0.99999
0.99999
0.99999
0.99998999999906
0.99998999964185
0.99998999647433
0.99998998541989
0.99998995920302
0.9999899085731
0.99998982238448
0.99998968757336
0.99998948896632
0.99998920893914
0.99998882690318
0.99998831853395
0.99998765448096
0.99998679910937
0.99998570802746
0.99998432539708
0.99998258051989
0.99998038290861
0.99997761577681
0.99997412656831
0.99996971346254
0.99996410519099
0.99995692964315
0.99994766250465
0.99993553785621
0.99991938566755
0.99989727743396
0.999865670824
0.99981682906348
0.99972722295153
0.99999
0.99999
0.99999
0.99999
0.99999
0.99999
0.99998999999063
0.99998999916043
0.99998999364884
0.9999899762997
0.99998993705347
0.99998986311372
0.9999897389469
0.99998954611198
0.99998926288724
0.99998886365732
0.9999883180078
0.99998758959565
0.99998663514688
0.99998539817355
0.99998380651528
0.99998176904732
0.99997916895641
0.99997585534495
0.99997163192904
0.99996624113596
0.999959341337
0.99995047288434
0.99993900531873
0.99992405068048
0.99990431094399
0.99987781158595
0.99984127671509
0.99978864814082
0.99970630723612
0.99954735377914
0.99969276226633
0.9995342203676
0.99928342482048
0.99891850186026
0.99842940863248
0.99780613704982
0.99703358323858
0.99609875636735
0.99499116316187
0.99370654718343
0.99224598985907
0.99062611446958
0.98889826231962
0.98709124758839
0.9852497003755
0.98341065450187
0.98160566763906
0.97985736032898
0.97817982397785
0.97658130962223
0.97506602305532
0.9736338864758
0.97228244487136
0.97100800103706
0.96980601519852
0.96867197908814
0.96760092843618
0.96658807249857
0.96562990767122
0.9647204472195
0.96385786118554
0.96303714192855
0.96225592033555
0.96151102343374
0.96079965465623
0.96011971728861
0.95946857792651
0.95884465565754
0.95824575109221
0.95767043077068
0.95711707870169
0.95658421281335
0.95607077974266
0.95557523183696
0.95509695343467
0.95463442374729
0.95418723669124
0.95375408706453
0.95333457465959
0.95292770993806
0.95253297538542
0.95214968108934
0.95177726810686
0.95141518933592
0.95106293809339
0.95072004756715
0.95038608266544
0.95006063358209
0.94974331666797
0.94943377730783
0.9491316825027
0.94883671807807
0.94854858914602
0.94826701696392
0.94799174043169
0.94772251121969
0.94745910273525
0.94719860777533
0.94605016667767
0.94456418890759
0.94347824124166
0.94240662510959
0.94132726648866
0.94023019905894
0.93909798565279
0.93790442009208
0.93661374489344
0.93518124046473
0.93356190621182
0.93173892022387
0.92978432357931
0.92792760191176
0.9264794990799
0.9255724714768
0.92505070098595
0.92485118756174
0.9247723011066
0.92475000968911
0.92474985146946
0.92475645379725
0.92476293190022
0.92476731443424
0.9247692425082
0.92476896219632
0.92476650898027
0.92476211111775
0.92475603786974
0.92474856203649
0.92473996467439
0.92473054519462
0.92472061560659
0.92471050653751
0.92470055920934
0.92469106511205
0.92468028778719
0.92467285519122
0.924666710776
0.92466213269245
0.92465934063403
0.92465838922247
0.92465915599771
0.92466176200143
0.92466596349761
0.92467153779179
0.92467829025547
0.92468601645187
0.92469451408737
0.92470357694866
0.92471301198582
0.92472265531568
0.92473235369432
0.92474197874856
0.92475140800614
0.92476053789171
0.9247692827783
0.9247775921082
0.92478542483853
0.92479270395536
0.92479941190637
0.92480558612594
0.92481120365518
0.9248163011995
0.92482083928303
0.92482493870788
0.92482854913252
0.92483263678961
0.9248323308069
0.92481834220351
0.92470826281729
0.92394526426285
0.99965066304562
0.9994505749052
0.99913644834851
0.99869478394746
0.99812305174933
0.99741139076741
0.99655060193213
0.99553449693373
0.99435962951758
0.99302754267564
0.99154445077568
0.98992995679764
0.98821824237353
0.98644406988179
0.98464101095268
0.98284196104455
0.98107636154587
0.97936514474299
0.97772250993656
0.97615669323549
0.97467123773661
0.97326628826483
0.97193975335032
0.97068810798039
0.9695073060944
0.96839235265861
0.96733865393448
0.96634167505946
0.96539720347584
0.9645012707211
0.9636501126168
0.96284042365485
0.96206901197456
0.96133312768023
0.96063011711415
0.95995768525328
0.95931365400606
0.95869611142586
0.9581032467217
0.95753345924275
0.95698523077965
0.95645722195951
0.95594815189538
0.95545690228909
0.95498238399514
0.95452365428159
0.9540797936793
0.95364999163114
0.95323347586132
0.95282954244161
0.95243753626863
0.95205684654854
0.95168690236142
0.9513271709795
0.95097716062917
0.95063640854184
0.95030448742819
0.94998099312257
0.94966554952587
0.94935780642685
0.94905743536748
0.94876412776743
0.94847759324503
0.94819755578058
0.94792375043646
0.94765592406271
0.94739382392228
0.94711767220641
0.94555048615477
0.94428109234178
0.94320522069028
0.94213278893692
0.94105088259053
0.93994810996025
0.93880496332011
0.93759309036909
0.93627449830108
0.93480326370907
0.93313763353557
0.93127519491011
0.92932072783261
0.92753870324695
0.9262201662832
0.92543086750341
0.92505543919212
0.92485415506532
0.924774441548
0.92475188697511
0.92475179109066
0.9247586326911
0.92476541158988
0.92477009893884
0.92477230783354
0.92477225824117
0.92477001418696
0.92476578108456
0.92475982467449
0.92475241617882
0.92474383757944
0.92473438998675
0.92472438841876
0.92471416769703
0.92470407852315
0.9246944238525
0.92468341919461
0.9246757880018
0.9246694485662
0.92466469008144
0.92466174035066
0.92466067325191
0.92466135307091
0.924663910691
0.92466810462064
0.92467370699243
0.92468051869176
0.92468833324424
0.92469694437613
0.92470614336088
0.92471573346538
0.92472554247393
0.92473541289177
0.9247452132806
0.92475481547908
0.92476411059006
0.92477301153465
0.92478146513301
0.92478942358747
0.92479680849629
0.92480361687026
0.92480987806399
0.92481556707795
0.92482072429594
0.92482531669315
0.92482946961878
0.92483313076632
0.92483728618834
0.92483700675137
0.92482302298778
0.92471227683915
0.92394161002823
0.99963313100078
0.99938921926085
0.99900184047044
0.99847280339638
0.99780694799176
0.99700449057443
0.99606735797232
0.99499546397843
0.99378945485987
0.99245014608951
0.99098752014393
0.98941737795181
0.98775811959362
0.98603939606883
0.9842919439796
0.98254474352014
0.98082540898118
0.9791543201757
0.97754574117985
0.97600821175839
0.97454590350262
0.97315996056656
0.97184907355782
0.97061028113891
0.96943981899798
0.96833361320082
0.96728755331037
0.96629709937235
0.96535817469458
0.96446700292435
0.96362002208178
0.96281391121811
0.96204567880698
0.96131250331207
0.96061191895296
0.95994157697788
0.9592994294051
0.95868351275836
0.95809211656038
0.95752359085979
0.95697650095472
0.95644946521142
0.95594127075115
0.9554507679324
0.95497691885545
0.95451876720146
0.95407542362327
0.95364607619392
0.95322995697786
0.95282637640007
0.95243467049313
0.9520542470319
0.95168453102759
0.95132500270583
0.95097517006773
0.95063457579167
0.95030279247203
0.94997941940051
0.94966408290715
0.94935643370023
0.94905614438866
0.94876290699158
0.94847643246656
0.94819644621364
0.94792268651166
0.94765489983958
0.94739283767082
0.94711531887323
0.9455345991197
0.94427169593255
0.94319665284369
0.94212489878914
0.94104414005178
0.93994311390997
0.93880245016964
0.93759404058196
0.9362802452313
0.93481548427211
0.93315795217073
0.93130407009659
0.92935547468775
0.92757260297239
0.92624664406658
0.92544850202037
0.92506574582202
0.92486074650337
0.92477918371016
0.92475601543629
0.92475603135928
0.9247633803179
0.92477080789428
0.92477615585038
0.9247789779293
0.92477943085609
0.92477764251999
0.92477376847591
0.92476806677114
0.92476080533274
0.92475226805364
0.92474275897574
0.92473259953926
0.9247221336683
0.92471173154098
0.92470172444469
0.92469022209765
0.9246821522509
0.92467538163395
0.92467022387621
0.92466692408964
0.92466559641477
0.92466608271709
0.92466852853002
0.9246727005715
0.92467835848668
0.92468529391376
0.92469329549244
0.9247021487928
0.92471163921149
0.92472155991945
0.92473172223747
0.92474196110392
0.92475213519311
0.92476210247925
0.92477174340202
0.92478096774664
0.92478971510646
0.9247979263846
0.92480552755271
0.92481252946615
0.92481895167588
0.92482477160109
0.92483003676246
0.92483472274583
0.92483896610247
0.92484271162245
0.92484698197859
0.9248467567795
0.92483275200773
0.92472027208024
0.92393152537016
0.99959458224516
0.99924781939635
0.99870851467366
0.99801590154303
0.99719683700676
0.99626976391323
0.99524657597057
0.99413027223309
0.99291752849746
0.99160549208905
0.99020168224155
0.98870766973708
0.98713322128694
0.98549884655967
0.98383005406359
0.98215339498366
0.98049466481589
0.97887525962039
0.97731001503922
0.97580867466519
0.97437648798859
0.97301528885475
0.97172475407577
0.97050286537234
0.96934647295609
0.9682519092663
0.96721535816411
0.96623316822164
0.96530137056344
0.96441629492667
0.96357460502178
0.96277311036426
0.96200890555617
0.96127929517054
0.96058184647418
0.959914315885
0.95927466126
0.95866100266101
0.95807162495722
0.95750493860132
0.95695950139193
0.95643396809539
0.95592712689695
0.95543784460216
0.95496510363905
0.95450794826172
0.95406551885509
0.95363699259138
0.95322162893299
0.95281872572002
0.95242763868633
0.95204777023714
0.95167855746182
0.95131948395782
0.95097006341675
0.95062984427026
0.95029840120508
0.94997533810626
0.94966028366272
0.94935289079885
0.94905283410222
0.94875980703359
0.94847352179513
0.94819370626134
0.94792010178927
0.94765245696744
0.94739052594683
0.94711095690993
0.94551179518018
0.94425772090428
0.94318403864228
0.94211336470725
0.94103433304708
0.93993585132264
0.93879876443669
0.93759533100477
0.93628842676307
0.93483297288897
0.93318710703202
0.93134561426027
0.92940567048661
0.92762185420002
0.92628535050963
0.92547440484821
0.92508155348319
0.92487088212237
0.92478642441904
0.92476224431054
0.924762371155
0.92477044713577
0.92477883256426
0.92478516382567
0.92478890385872
0.92479011483612
0.92478901674228
0.92478568803724
0.92478037568076
0.92477334292795
0.92476487493971
0.92475527923635
0.92474488630915
0.92473405368212
0.92472317589845
0.92471263690822
0.92470038800853
0.92469164611237
0.92468421361947
0.92467844152761
0.92467460046197
0.9246728580439
0.9246730446921
0.92467530607323
0.92467943030418
0.92468515681681
0.92469226551037
0.92470053608536
0.9247097424599
0.92471965656585
0.92473005432728
0.92474072970942
0.9247515001621
0.92476220724466
0.92477268630882
0.92478280405831
0.92479246491669
0.92480159463848
0.92481012737652
0.92481799583769
0.92482521292118
0.9248318008647
0.92483774252455
0.92484310024548
0.92484785219408
0.92485216367412
0.92485596384051
0.92486031861042
0.92486014390358
0.92484612686305
0.92473208087568
0.92392596073113
0.99946707614045
0.99882226825483
0.99796094306988
0.99701828893331
0.99604384997023
0.99503994141567
0.9939981778212
0.99290706518391
0.99175073809679
0.99052340265776
0.98921478673331
0.98782466884604
0.98635748487287
0.98482741645213
0.98325620220479
0.98166770362635
0.9800847781636
0.97852924699907
0.97701751023327
0.97556056803151
0.9741651439388
0.97283450536389
0.97156922892922
0.97036820178177
0.96922920348235
0.96814923132066
0.96712495208885
0.96615294019529
0.9652299348532
0.96435239059639
0.96351715366034
0.96272126223714
0.96196191832076
0.96123658138367
0.96054288105171
0.95987868277187
0.95924198711334
0.95863098625067
0.95804398924836
0.95747946650899
0.95693598138431
0.95641223455688
0.95590701123138
0.95541921403571
0.95494782480199
0.95449191375091
0.95405062437914
0.95362315171626
0.95320876095435
0.95280675380132
0.95241649528488
0.95203738706342
0.95166887774137
0.9513104509675
0.95096162865453
0.95062196195119
0.95029102978066
0.94996843959507
0.94965382252002
0.94934683406951
0.94904715089498
0.94875446828491
0.94846849891727
0.94818897325342
0.94791563573015
0.94764823998454
0.94738654022615
0.94710390656929
0.94548209243879
0.94423933290597
0.94316727894023
0.94209811931377
0.94102143321106
0.93992629622512
0.93879385546579
0.93759686714958
0.93629888959231
0.9348555036468
0.9332248035638
0.93139952381077
0.92947116270489
0.92768660405596
0.92633665597027
0.92550897463684
0.92510311030357
0.92488468450223
0.92479618482039
0.92477050504743
0.92477067272918
0.92477963954664
0.9247892578671
0.92479687177031
0.92480181983989
0.92480406555728
0.92480385571428
0.92480125770068
0.92479647287364
0.92478975720265
0.9247813959151
0.92477169981181
0.9247610095919
0.9247496995364
0.92473818630036
0.92472693833292
0.92471371745573
0.92470406436643
0.92469573360482
0.92468912490781
0.92468454457795
0.92468220684019
0.92468198776115
0.92468397439212
0.92468801111096
0.92469380565741
0.92470112145149
0.92470972567833
0.92471937673647
0.92472982705481
0.92474082725564
0.92475214663293
0.92476357845216
0.92477493583399
0.92478602112547
0.92479668764019
0.92480683148252
0.92481635581664
0.92482519051551
0.92483328431447
0.92484064380591
0.92484730243938
0.92485325743233
0.92485859449029
0.9248632967649
0.92486756471338
0.9248712832796
0.92487555438979
0.92487535279539
0.92486129010001
0.92474581309392
0.92392024381935
0.99859874131763
0.9970361762339
0.99595977602222
0.99504522104043
0.99415795804871
0.99326625979959
0.99234506640942
0.99138221515753
0.99035507645251
0.98925337513318
0.98807037171238
0.98680522767527
0.98546133895847
0.98404926418078
0.98258717012093
0.98109719445754
0.97960105466809
0.97811982900933
0.97667038775463
0.97526533239032
0.97391308429857
0.97261825948579
0.97138279329639
0.97020663945453
0.96908841363719
0.96802587993413
0.96701630544606
0.96605672395777
0.96514427408389
0.96427576903698
0.96344828339766
0.9626590727911
0.96190554494265
0.96118528766584
0.9604960553194
0.95983578456666
0.95920257722726
0.95859467935017
0.95801046386441
0.95744843275473
0.95690719637366
0.95638548403439
0.95588210929612
0.95539599719106
0.95492614820835
0.95447165348952
0.95403166322163
0.95360539423935
0.95319211379072
0.9527911392752
0.95240183659695
0.95202361542239
0.95165593070209
0.95129827107686
0.9509501651315
0.9506111665778
0.95028085957308
0.94995885428116
0.94964478511006
0.94933830967584
0.94903910618449
0.94874687148937
0.9484613190693
0.94818218017454
0.94790920258882
0.9476421449553
0.94738076728355
0.94709330026774
0.9454459838723
0.94421656206366
0.94314628617252
0.94207912176296
0.94100542512903
0.93991442493457
0.93878766443872
0.93759853443903
0.9363114443963
0.93488279463353
0.93327066999916
0.93146541290445
0.92955174232982
0.92776703316302
0.92640106908707
0.92555274684126
0.92513079173692
0.92490236736276
0.92480853665964
0.92478074808928
0.92478079522557
0.9247907451644
0.92480182853562
0.92481099720005
0.92481742486757
0.92482098733168
0.92482184698221
0.92482016713808
0.92481605514528
0.92480975612786
0.92480155308957
0.92479175911175
0.92478072473323
0.92476884034668
0.92475654025833
0.92474438633931
0.9247300243676
0.92471920975393
0.92470973844122
0.92470206170499
0.92469653114302
0.92469340713416
0.92469265289691
0.92469426259519
0.92469815718192
0.92470400437862
0.92471154662169
0.92472053422887
0.92473070474051
0.92474178339813
0.92475348627361
0.92476554822345
0.92477773016241
0.92478980026471
0.92480151679413
0.92481272659649
0.92482330602227
0.92483312576099
0.92484212243756
0.92485025421434
0.92485751305416
0.92486397610882
0.92486967145195
0.92487471396215
0.92487909723995
0.92488303950261
0.92488637106955
0.92489018294889
0.92488978217175
0.9248755130528
0.92475839968384
0.92390779451536
0.98756637449243
0.99285999182427
0.99274106186641
0.99237577886069
0.9919003534825
0.99131252370348
0.9906304302717
0.98986639588891
0.98902158651903
0.98809499193696
0.98708014931616
0.98597489706096
0.98478440695372
0.98351608973254
0.98218361295982
0.98080648146254
0.97940609291336
0.97800274787044
0.97661569383163
0.97525927421149
0.97394407703926
0.97267708091186
0.97146211217852
0.97030082562137
0.96919316377383
0.96813786733535
0.96713303283922
0.96617630271816
0.96526520797024
0.9643969787988
0.9635689493256
0.96277855837302
0.96202340179359
0.96130119206117
0.96060979731165
0.95994721076432
0.95931159832853
0.95870124558802
0.95811456746454
0.95755008215041
0.95700642456511
0.95648233267903
0.95597663991481
0.95548827001532
0.95501623274123
0.95455961638725
0.95411757314321
0.95368932168447
0.95327412787889
0.95287131046563
0.95248023004988
0.95210029549439
0.95173095883478
0.95137170780446
0.95102206819154
0.95068159224588
0.95034986244289
0.95002648656467
0.94971109695306
0.94940334808471
0.9491029153255
0.94880949312905
0.94852279338158
0.94824254545439
0.94796849294495
0.9477003901184
0.94743801430971
0.9471754430117
0.94584384740295
0.94446249287372
0.94338696554632
0.94232276195769
0.94125479197585
0.94017409624746
0.93906460643721
0.9379025244132
0.936655528475
0.93528266816965
0.93374021282702
0.93200412677258
0.93012203145458
0.92828184912827
0.92677694415166
0.92578028624717
0.92516510035708
0.92492423638202
0.92482360916401
0.92479295243048
0.9247926038781
0.92480354413036
0.92481626942976
0.92482723243485
0.92483539284571
0.92484051867546
0.92484266112793
0.92484208069203
0.92483879654654
0.92483302841798
0.92482505319478
0.92481518470963
0.92480378188441
0.92479124979839
0.9247780348131
0.9247646508368
0.92475939586193
0.92474638142208
0.92473478079134
0.92472509386588
0.92471775688074
0.92471311565159
0.92471129699601
0.9247121552542
0.92471572403519
0.92472160836646
0.92472950841496
0.92473914009614
0.92475019884305
0.92476235326582
0.92477524792613
0.9247885438234
0.92480193846735
0.92481508995162
0.92482766992114
0.92483945265346
0.92485022573954
0.92485988606908
0.92486842157259
0.92487582996614
0.92488210392068
0.92488743495985
0.92489191116479
0.92489566682218
0.92489874817799
0.92490135072175
0.92490346693651
0.92490579383376
0.92490473324161
0.92488970760803
0.92476970371503
0.92386839253164
0.97725063128704
0.9847700350799
0.98575686537333
0.98627807802742
0.986516404713
0.98653814816641
0.98635701557185
0.98599471615748
0.98549389182774
0.98486802265722
0.98412577706693
0.9832793200266
0.98233672267594
0.98130469029454
0.98019576169138
0.97902733625675
0.97781897982629
0.97658972577297
0.97535665151114
0.97413611869351
0.97294028454377
0.97177747860976
0.9706532453574
0.9695708170471
0.96853166650223
0.96753610151877
0.96658345301525
0.96567254952421
0.96480170330453
0.96396899731997
0.96317245549339
0.96241009722215
0.96167996626535
0.96098018781872
0.96030895624301
0.95966455210278
0.9590453830562
0.95844994350946
0.95787681909556
0.95732469033732
0.95679233016417
0.95627859619841
0.95578242988364
0.95530285544401
0.95483896564412
0.95438990958094
0.95395489669514
0.9535331882143
0.953124098483
0.95272698276057
0.95234124008115
0.9519663100846
0.95160167431501
0.95124685148267
0.95090138976561
0.95056486454152
0.95023687441138
0.94991704400774
0.94960502033876
0.94930047108905
0.94900308256235
0.94871255813904
0.94842861824176
0.94815099940568
0.94787945295322
0.94761374991206
0.94735368424339
0.94703214870977
0.94530405386191
0.94411990839963
0.94305733948822
0.94199968137825
0.94093880902365
0.93986470485044
0.93876069275884
0.93760289157559
0.93635924300155
0.93498955784864
0.93345234704462
0.93172958519994
0.92988062928848
0.92810404449716
0.92667932549213
0.92574675260574
0.92525630128
0.92498230538441
0.92486283094534
0.92482342186051
0.92482089076271
0.92483340706879
0.92484966360037
0.92486477106796
0.92487706681936
0.92488600759645
0.92489147136316
0.92489353347044
0.92489241978317
0.92488812837865
0.92488090664966
0.92487106206975
0.9248589616084
0.92484503505276
0.92482977482597
0.92481375271411
0.92480738011149
0.92479075576741
0.92477545861894
0.92476217535183
0.92475153007673
0.92474403850695
0.92474005343161
0.92473945518876
0.92474223159247
0.92474798380555
0.92475631058787
0.92476684960785
0.92477920039124
0.92479290405535
0.92480744479227
0.92482227934879
0.92483679683161
0.92485046118332
0.92486276233259
0.924873491299
0.92488236186088
0.92488943402501
0.92489476224279
0.92489859544882
0.92490135461208
0.92490307095355
0.92490384125338
0.9249037245518
0.92490299589433
0.92490168442218
0.92489988861717
0.9248974888704
0.92489313534019
0.92487499998553
0.92474939484418
0.92374086657921
0.97197135610406
0.97952586133311
0.98071317284316
0.98145611142547
0.98196534621352
0.98229826746582
0.98244321146435
0.98241768556656
0.98223103827841
0.98188386683726
0.98141775319375
0.98083499888023
0.98013249324752
0.9793288813598
0.97843949162795
0.97747651888065
0.97645725747245
0.97539949574397
0.97431976486317
0.97323258235375
0.97215151895522
0.97108752102256
0.97004811624008
0.96903847504938
0.96806184369918
0.96711997275434
0.96621362389488
0.96534265323973
0.96450630425899
0.96370351828175
0.96293300621194
0.96219336980998
0.96148315017135
0.96080087727543
0.96014511210823
0.95951444602347
0.95890749820104
0.95832296049665
0.95775959515932
0.95721622148837
0.95669172838153
0.956185084349
0.95569531932806
0.95522153737071
0.95476289598847
0.95431861380143
0.9538879517323
0.95347021761865
0.95306476461451
0.95267098724505
0.95228831851555
0.95191622428512
0.9515542067282
0.95120180352588
0.95085858678495
0.95052415153097
0.95019811231131
0.94988010362801
0.94956978120364
0.94926682255363
0.94897092343728
0.94868179688115
0.94839917144861
0.94812279108279
0.94785241510848
0.94758782101468
0.94732880722283
0.94696190997679
0.94518207816297
0.94403151164716
0.94297687148431
0.94192838705449
0.94087898497453
0.9398194790735
0.93873480471547
0.93760349891714
0.93639658073039
0.93507687902719
0.93360383289168
0.93195380113497
0.9301670721741
0.92840898284046
0.92694293729983
0.92593817940356
0.92538368812479
0.92506380224114
0.92491677556032
0.9248631083665
0.9248553758336
0.92486803145127
0.92488751747822
0.924907147852
0.92492426831031
0.92493784450342
0.92494748712594
0.92495308965099
0.92495475274343
0.92495261788077
0.92494670659701
0.92493730382266
0.92492476674029
0.924909534598
0.92489213803528
0.92487321712882
0.92486476196885
0.9248437889305
0.92482387458222
0.92480594706639
0.92479090026627
0.92477951281811
0.92477236883439
0.92476964608616
0.92477112106519
0.92477645445096
0.92478506856307
0.92479646800715
0.924810064573
0.92482512346478
0.92484081084625
0.92485615193426
0.92487005539259
0.92488181689017
0.9248907383726
0.92489673358964
0.92490034673035
0.92490159647569
0.92490025197702
0.92489676231849
0.92489095865713
0.9248831186053
0.92487363504665
0.92486279508825
0.92485094878642
0.92483813527417
0.92482477479322
0.92481024542613
0.92479435361744
0.92476562671638
0.92463366419319
0.92350775825614
0.96774255132451
0.97572957887651
0.97697967531261
0.97775326297168
0.97833744529285
0.97877132193222
0.97908057556174
0.9792303760261
0.97923586961813
0.97911645179972
0.97884105409226
0.97845479783509
0.97796865557762
0.97736798103308
0.97666772208566
0.97588644975074
0.97503914358757
0.97414003335553
0.97320544963525
0.97224978191688
0.97128550744173
0.97032327587707
0.96937246300941
0.96843966716085
0.96752965250031
0.96664562966396
0.96578946810901
0.96496208620394
0.96416380258788
0.9633943968059
0.96265320746577
0.96193938509106
0.96125195300496
0.9605898344123
0.95995191034687
0.95933709011686
0.9587442586164
0.95817234845963
0.95762030419735
0.95708711823514
0.95657182912343
0.95607351859149
0.95559132777946
0.95512443343862
0.95467206216494
0.95423349355242
0.95380805135845
0.95339509141816
0.9529940109468
0.95260424861306
0.95222527637856
0.95185659784681
0.95149773945986
0.95114825798788
0.95080774454541
0.95047581643961
0.950152109061
0.94983627237222
0.9495279748336
0.94922690436774
0.9489327679707
0.94864529038356
0.94836421170155
0.94808928532337
0.94782027662825
0.94755696397693
0.94729912908765
0.94684043246901
0.94504314739149
0.94392551962476
0.9428801915923
0.94184258895377
0.94080663576361
0.93976400840768
0.93870146936103
0.93760030506203
0.93643502140874
0.93517198775936
0.9337722884042
0.93220752430717
0.93049917080326
0.92877596154864
0.92727538782123
0.92619022796496
0.92555703792779
0.92517627124688
0.92499063114544
0.92491511475845
0.92489745660412
0.92490739808899
0.92492879973376
0.92495270772281
0.92497497044418
0.92499380077656
0.92500838661404
0.92501837217166
0.92502364020435
0.92502433990762
0.92502045839458
0.92501211800098
0.92499964424801
0.92498346112071
0.92496410731338
0.92494224021306
0.92493126327042
0.92490539639092
0.92488006543572
0.92485646501974
0.92483583318221
0.92481932404984
0.92480786692163
0.92480201910004
0.92480153956755
0.9248060222536
0.92481462435058
0.9248265982728
0.92484102483184
0.92485671182172
0.92487213478682
0.92488547099173
0.92489512348199
0.92490059803041
0.92490231698626
0.9248993987467
0.92489154332483
0.92487815135574
0.92485921913437
0.92483508914877
0.92480634510724
0.92477368658848
0.92473791117389
0.92469948572707
0.92465918389733
0.92461677551664
0.92457343996877
0.9245270939243
0.92448003310505
0.92442051540764
0.92427681127702
0.92311389543036
0.96380058036369
0.97270934776996
0.97403344481183
0.97480492798871
0.97539500240302
0.97586336140134
0.97622444059619
0.97647145731592
0.97659197755897
0.97659672941954
0.9764919655453
0.97624342686228
0.97589674039159
0.97546882425431
0.97493704703853
0.97431220370864
0.97361342906645
0.97285693910942
0.97205530977264
0.97122121036511
0.97036792707427
0.96950600874331
0.96864378165296
0.96778928565491
0.96694803409586
0.96612413953493
0.96532056042101
0.96453928882252
0.96378151349849
0.96304775662744
0.96233806063502
0.96165215757968
0.9609895254398
0.96034949646448
0.95973131904671
0.95913416990172
0.95855717646127
0.95799948214483
0.9574602253262
0.95693855630105
0.95643367788847
0.95594479667662
0.95547116192839
0.95501206130201
0.95456680403674
0.95413474043784
0.95371525505001
0.9533077653277
0.95291172101241
0.95252660029129
0.95215191586504
0.95178720623996
0.95143202823184
0.95108596404488
0.95074862268983
0.95041964015467
0.95009866986466
0.94978537959826
0.94947945442309
0.9491805973396
0.94888852860062
0.94860298340367
0.9483237125114
0.94805048041758
0.94778306024828
0.94752123119472
0.94726469046507
0.94663023654416
0.94488964089021
0.94380168644861
0.94276707095202
0.94174200886876
0.94072131556454
0.93969756905243
0.93865952105558
0.9375913889923
0.93647141349838
0.93526990825243
0.93395037689449
0.93248113713814
0.93086676827889
0.92919898695991
0.92767951822201
0.92651303762547
0.92578832604971
0.92533045767158
0.92509252496086
0.92498511726755
0.92495057339375
0.9249534085224
0.92497409707964
0.92500105813837
0.92502818118019
0.92505251415057
0.92507259238462
0.92508766961099
0.92509738414525
0.92510160739858
0.92510052544155
0.92509398516577
0.92508223944507
0.92506567119587
0.92504479250279
0.92502024071575
0.92500666628469
0.92497571945727
0.92494441548162
0.92491425411094
0.924886859713
0.92486387739537
0.9248467455226
0.92483645090834
0.92483311228373
0.92483610384002
0.92484414421585
0.92485609359199
0.92487046914322
0.92488507995328
0.92489699995
0.92490370026187
0.92490474144212