/*--------------------------------*- C++ -*----------------------------------*\
| =========                 |                                                 |
| \\      /  F ield         | OpenFOAM: The Open Source CFD Toolbox           |
|  \\    /   O peration     | Version:  2312                                  |
|   \\  /    A nd           | Website:  www.openfoam.com                      |
|    \\/     M anipulation  |                                                 |
\*---------------------------------------------------------------------------*/
FoamFile
{
    version     2.0;
    format      ascii;
    arch        "LSB;label=32;scalar=64";
    class       volScalarField;
    location    "0.00011";
    object      Ybar.Liq;
}
// * * * * * * * * * * * * * * * * * * * * * * * * * * * * * * * * * * * * * //

dimensions      [0 0 0 0 0 0 0];

internalField   nonuniform List<scalar> 
109340
(
0.99909168049515
0.9990880459264
0.99908108528846
0.99907259186793
0.99906312003254
0.99905314600942
0.99904285254801
0.99903230724947
0.99902150416201
0.99900995892205
0.99899683658591
0.99898121475759
0.998961969194
0.99893773978917
0.99890690803492
0.99886756068306
0.99881742372115
0.99875377556147
0.99867332013265
0.99857201623169
0.99844483520877
0.99828546193313
0.99808588421405
0.99783583753679
0.99752201544966
0.99712695900995
0.99662741588197
0.99599185047123
0.99517649962013
0.9941188284626
0.9927260883249
0.99085401975872
0.98826454495386
0.98453681883685
0.9788702577705
0.96962391708341
0.99909222639152
0.99908755967323
0.99907974136491
0.9990706592052
0.9990608920294
0.99905085973576
0.999040682827
0.99903031401996
0.99901945555518
0.99900759246486
0.99899396198097
0.9989775986619
0.99895731765021
0.99893169396963
0.99889903706206
0.99885734423954
0.99880424273673
0.99873688296267
0.99865180231397
0.9985447393097
0.99841038001678
0.99824203273733
0.99803118700751
0.99776691090349
0.99743499328669
0.99701672371142
0.99648708275895
0.99581196497861
0.99494373063689
0.99381373109323
0.99231900908524
0.99029696751549
0.98747313021666
0.98334624877231
0.976904733581
0.96595731169109
0.99909425161007
0.99908885982614
0.99908026160584
0.9990709677902
0.99906128558792
0.9990513995393
0.99904128192932
0.99903089669707
0.9990200289378
0.99900817526128
0.99899458291654
0.99897828230444
0.9989580833326
0.99893255760421
0.99890001342944
0.99885845199282
0.99880550022666
0.99873831182368
0.99865342681498
0.99854658787473
0.99841248196174
0.99824441786232
0.99803388546607
0.99776995022485
0.99743839779791
0.99702051084926
0.99649126038436
0.99581653103613
0.99494867734368
0.99381903792996
0.99232459846871
0.99030237422744
0.98747494939725
0.98332484115241
0.97675959091064
0.96513665617638
0.99909706344116
0.99909058062198
0.99908156351576
0.99907201998854
0.99906216063283
0.99905207621571
0.99904179567492
0.99903130544834
0.99902038536654
0.99900852996412
0.99899498665312
0.99897878055919
0.99895871442503
0.99893335363972
0.99890099899543
0.99885964319614
0.99880690511974
0.99873992860703
0.99865523752033
0.9985485567482
0.99841453476962
0.99824643125158
0.99803566468976
0.99777119569508
0.99743866711469
0.99701915305423
0.99648732954128
0.99580865989115
0.9949348914739
0.99379645796397
0.99228891175605
0.99024677285286
0.98738546649228
0.98316046298838
0.9763479437394
0.96346412846673
0.99910148071406
0.99909308517392
0.99908277172932
0.99907258640388
0.99906246374319
0.99905228330122
0.99904197328555
0.99903150320164
0.99902064089417
0.99900887654344
0.99899546208569
0.99897941490331
0.99895951725242
0.99893430312217
0.99890202648264
0.99886061221775
0.99880758601312
0.99873996533909
0.99865405413683
0.99854536035282
0.99840815556567
0.99823520734114
0.99801725376157
0.99774229660913
0.99739466603271
0.99695358957923
0.99639116020901
0.99566919364646
0.99473421913823
0.99350904253848
0.99187754468459
0.98965648268848
0.98652747563205
0.98186949274404
0.97419570383718
0.95828448026571
0.99910965438412
0.99909435956144
0.99908295856441
0.99907251490615
0.99906233436923
0.99905213180805
0.99904180603089
0.99903125830779
0.9990201233644
0.99900768173249
0.99899289614788
0.99897440335662
0.99895050195509
0.99891911910405
0.99887775422958
0.99882339477875
0.99875239687581
0.99866035602517
0.99854199038518
0.99838998186758
0.99819527936735
0.9979462464669
0.99762778821939
0.9972201833475
0.99669746575337
0.99602510246732
0.99515661620284
0.99402844679219
0.99255178552291
0.99059883421807
0.98797758336339
0.98438931448898
0.97931153141291
0.9717255258673
0.959124992137
0.93098840977602
0.95370740018575
0.92701601869088
0.88603337358035
0.83029742810742
0.76264879883813
0.68545355393395
0.60198046561786
0.51608901548185
0.43180321328441
0.35286792469404
0.2810194805689
0.22166290850953
0.1726173547028
0.13369145605149
0.10369744335963
0.080758075595216
0.063377405865825
0.050188596020412
0.040138926807224
0.032467335750371
0.02656863428419
0.021965608456106
0.018341447993009
0.015467457497019
0.013165882782441
0.011303579407495
0.0097564417575888
0.0085053905272209
0.0074618814446746
0.0065577852391284
0.0058391832924278
0.0051849525114318
0.0046626667521419
0.0041804542081015
0.0037896771403018
0.0034264477064785
0.0031285481269208
0.0028486003213945
0.0026179841236867
0.0023983205173967
0.0022169918692013
0.0020422506554833
0.0018970762954155
0.001757282806027
0.0016384821371002
0.0015266778650452
0.0014270934056946
0.0013368094368696
0.0012526494884927
0.0011777648839377
0.0011075900035398
0.0010437777011637
0.00098504433258101
0.00093098869008388
0.00088104991398716
0.00083486135535492
0.00079202581981053
0.00075225526575591
0.00071527052602164
0.00068082535349935
0.00064868553727767
0.00061865383349288
0.00059055981088062
0.00056425200101373
0.00053958714232875
0.00051643373813455
0.00049467590481001
0.00047510537588672
0.00094531472288912
0.002851363555896
0.0030331452585286
0.0030071911898615
0.002980798105154
0.0029588439340893
0.002938015170921
0.0029138862656083
0.0028823758121489
0.0028405032028879
0.0027868729507119
0.0027224607240648
0.0026515254967379
0.0025827883490274
0.002525954203975
0.0024841848454527
0.0024502987699043
0.0024280401504473
0.0024088496641958
0.002391499207051
0.0023755663140864
0.0023610999758553
0.0023482284722097
0.0023369714343522
0.0023274239854499
0.0023199637660047
0.002313818561762
0.0023095882871325
0.0023072998102746
0.0023070378646991
0.0023087229966046
0.0023125042828025
0.0023183352421678
0.0023262390624054
0.0023361766739158
0.0023481402022076
0.0023661858714859
0.0023824789315032
0.0024002308256399
0.0024192310811296
0.0024391552709142
0.0024597554977349
0.0024810020899794
0.0025022235510839
0.0025230816740104
0.0025441421902251
0.0025647275521828
0.0025843899072966
0.0026031448621742
0.0026204155878896
0.0026355942198575
0.0026491774435112
0.0026609346076552
0.0026703888189608
0.0026773553857925
0.0026817677778363
0.002683719643865
0.0026837873257359
0.0026810614756532
0.0026749731182427
0.0026676269823087
0.0026597639307409
0.0026502935314974
0.0026397497239279
0.0026284038181468
0.0026183560767684
0.0026081837019127
0.0025991196601843
0.0025921879282754
0.0025828587883443
0.0025833357914046
0.0023842780432925
0.94597363182018
0.91180682339731
0.86112832736941
0.79631914234688
0.72065291761398
0.63829722493527
0.55282536470729
0.46840812507173
0.38862432621224
0.3161338512715
0.25266450554004
0.19879505167597
0.15593743635014
0.12177820648743
0.095062798518612
0.074550126566078
0.058842839419735
0.046849147676921
0.037677410373579
0.030618319067908
0.025146492884225
0.020868929722004
0.017489506710806
0.014791735172103
0.012619440154558
0.010854410675695
0.0094056234394058
0.0082054298031566
0.0072066203549827
0.0063648937250588
0.0056531515193355
0.0050469573335986
0.0045261327191
0.0040776975908874
0.0036876576200218
0.0033485520976068
0.0030504388127668
0.0027889764629998
0.0025571965453572
0.0023520982235397
0.0021690354359554
0.0020056922202636
0.0018590863902402
0.0017271484154796
0.0016082766879956
0.0015004369115809
0.0014028814444742
0.0013137947748817
0.0012328442994487
0.0011585885112755
0.0010906542394179
0.0010281319328279
0.00097062997580757
0.00091763501657855
0.00086867668954381
0.00082336921437097
0.0007813517410998
0.00074232692164456
0.00070601465692433
0.00067217656898056
0.00064059673229213
0.00061108540993999
0.00058346831762584
0.00055759075736991
0.00053331564402659
0.00051052434440275
0.00048911457882848
0.00047361587460044
0.001572255782462
0.0029660683695769
0.0030270254698934
0.0029983272871499
0.0029731508338858
0.0029517350419237
0.002930396771609
0.0029046645374771
0.0028707156821463
0.0028259554475044
0.0027694762321332
0.0027030523941173
0.0026318079643615
0.0025653656035219
0.0025123241054808
0.0024739041661115
0.0024485108506298
0.0024262439082823
0.0024073425528788
0.0023902782774138
0.0023746039220044
0.0023603758876915
0.0023477199287119
0.0023366622641454
0.0023272907433947
0.00231995071041
0.0023139875633876
0.0023098922416316
0.0023077198756431
0.0023075284724452
0.0023093204102542
0.0023131646484929
0.0023190510644887
0.0023269978220715
0.0023369670413184
0.0023489514729724
0.0023669962901263
0.002383272493474
0.0024009997813651
0.0024199720541033
0.0024398688537866
0.002460438305619
0.0024816540662284
0.0025028472411988
0.002523699205211
0.0025446816484001
0.0025652237822858
0.0025848901962893
0.0026036236504178
0.0026208035882408
0.0026360202386431
0.0026496535823993
0.0026613091548541
0.0026706782883166
0.0026776065608893
0.0026820098984062
0.0026839800441556
0.0026840677788737
0.0026811196821072
0.0026749881502776
0.0026677447440893
0.0026597460110682
0.0026501343966133
0.0026395994548016
0.002628285968186
0.0026183090277489
0.002608184866644
0.0025992622576656
0.0025918926669898
0.0025826615903514
0.0025801396713929
0.0023777443382786
0.94176133171519
0.89868836664942
0.83693676966744
0.76102693064692
0.67649790491542
0.58946211673769
0.50438525032316
0.42425439335142
0.35124401066742
0.28582351096956
0.23085683631519
0.18419198188811
0.14585097433688
0.11507442207095
0.090720128670062
0.071686505335111
0.056952390670887
0.04561108827949
0.036855293639447
0.030052645396518
0.024749983619487
0.02058832798133
0.017285758873562
0.014641956027312
0.012508816247521
0.010770056786358
0.0093405969329811
0.0081562384205678
0.007166778216391
0.0063347628251977
0.0056281190302973
0.0050266834720654
0.004509684419699
0.0040639557514096
0.0036766256825812
0.0033389643755847
0.0030427912171252
0.0027822858058897
0.0025517096729178
0.0023473379661238
0.0021649921766436
0.0020022716766275
0.0018559823193861
0.0017246841606409
0.0016058844566238
0.0014986014652352
0.0014010272569564
0.0013123599510529
0.00123139256465
0.0011573495132817
0.0010895075393338
0.0010271567986383
0.00096978141097473
0.00091683259066619
0.00086794031918022
0.00082268948646183
0.00078073850677477
0.00074176960045963
0.00070550652739933
0.00067171067737965
0.00064017039304199
0.00061069500933091
0.00058311012683364
0.00055726209012117
0.00053301386890629
0.00051024553790167
0.00048884542769384
0.00047359437995178
0.0015957636498786
0.0029700125289564
0.0030279625736245
0.0029989392396799
0.002973500277226
0.0029518612880505
0.002930335263483
0.0029044769726803
0.0028705032295627
0.0028258437318993
0.00276957714048
0.0027034006040564
0.0026323240578612
0.0025658532926422
0.0025126272338383
0.0024740030873592
0.0024484546692638
0.0024261247703827
0.002407268225486
0.0023902926089369
0.0023747082059258
0.0023605483509321
0.0023479313152905
0.0023369403367797
0.002327602010921
0.0023202444242197
0.0023143521732642
0.0023102460316931
0.002308108238036
0.0023078478916552
0.0023097260335565
0.0023135997445781
0.0023195247651101
0.0023275115944857
0.0023375184463226
0.0023495364455769
0.0023676067208776
0.002383890731055
0.0024016177705012
0.0024205859460162
0.0024404824479508
0.0024610453994967
0.0024822269838709
0.0025033878373319
0.0025242869220838
0.0025451335337359
0.0025655455784777
0.0025851414909307
0.0026037049094003
0.0026208487515201
0.0026362392646145
0.0026498245971833
0.0026613762554634
0.0026706960311825
0.0026776204333414
0.002682043653319
0.0026840611195932
0.0026841558366668
0.0026807637692787
0.0026749307006774
0.0026678818406979
0.0026595749712821
0.0026498880891808
0.0026394558824954
0.0026283127868514
0.002618401551988
0.002608368946073
0.0025997513893384
0.0025920916590335
0.0025839658102641
0.0025787267804363
0.0023749117491569
0.93234528518157
0.8689525250064
0.78454451063193
0.68978634192987
0.5971468149916
0.50984724228788
0.43159521391371
0.36227775819677
0.30133694596593
0.24796691344264
0.20383308561472
0.16551234471288
0.1331880477465
0.1066209935615
0.085070837490646
0.067963533121179
0.054502865534186
0.043957470489373
0.035723658183853
0.029287915511657
0.024220969893847
0.02020087612131
0.01700530168054
0.014438601906406
0.012354873675818
0.010652132943731
0.0092506785400644
0.0080862393248117
0.0071112155820461
0.006290192555474
0.0055931293636021
0.0049973248359036
0.0044862011204659
0.0040441232435357
0.0036605159791701
0.0033252434299058
0.0030316145021929
0.0027725476342195
0.0025437557893945
0.0023403491460379
0.0021592358723887
0.0019971060691261
0.0018517389987769
0.0017208407569768
0.0016026315237849
0.0014956768482392
0.0013984818959471
0.0013101159490188
0.0012293511500492
0.0011555778597042
0.0010878738533395
0.0010257325537984
0.00096849435637794
0.00091569046692131
0.00086689844581303
0.00082173567576725
0.000779867414091
0.00074097331588571
0.00070478338413185
0.00067105394524607
0.00063957074002355
0.00061014323178556
0.00058260340499909
0.00055679980192054
0.00053259342110153
0.00050985766722046
0.00048848280275716
0.00047351863016563
0.001631944503046
0.0029751110975413
0.0030292585634964
0.0029997678115351
0.0029739756024851
0.0029520317468702
0.0029302455777035
0.0029042103169552
0.0028702018392699
0.002825685427462
0.002769720474462
0.0027039098859997
0.0026330905053043
0.002566585790568
0.0025130828183975
0.0024741639638144
0.00244850267844
0.0024260782085775
0.0024072380004159
0.0023903315642566
0.0023748345880264
0.0023607705179127
0.0023482391258356
0.0023373286189379
0.0023280925300784
0.0023206956141233
0.0023148873305287
0.0023108545698826
0.0023087699811566
0.0023085345401961
0.0023104938956213
0.0023144104279798
0.0023203726532618
0.0023284026780741
0.002338453001735
0.0023505153423592
0.0023686292729714
0.0023849356904436
0.0024026801208507
0.0024216614186053
0.0024415704849508
0.0024621257783344
0.0024832900945899
0.0025044363139939
0.0025252803157063
0.0025459830407987
0.0025662786954424
0.0025857808315955
0.0026042466792505
0.0026213109947901
0.0026366578831347
0.002650235670338
0.0026617357402977
0.0026709898950045
0.0026778666335784
0.0026822654169492
0.0026842697266909
0.0026843255869468
0.0026808188694159
0.0026750873197805
0.0026679599795245
0.0026594546469794
0.002649682788532
0.0026393580710255
0.0026282926923151
0.002618555076003
0.0026085403011127
0.0026002618057281
0.0025925145061906
0.0025848498967747
0.0025806380907655
0.0023732756903126
0.90080705063226
0.78443770919542
0.66085848332932
0.55434853097889
0.47012488043004
0.40000912373377
0.34157904316671
0.29145947033559
0.24779857277231
0.20948924627764
0.17521664384086
0.14504826545364
0.11898653342236
0.096922651726009
0.078597430127925
0.063607822177412
0.051560045097694
0.041971127501073
0.034363575835834
0.028332346419207
0.023544868569407
0.019729770530953
0.016656208017156
0.01417629771778
0.012159646887977
0.01050539607113
0.0091356476720451
0.0079962214649425
0.0070408556767238
0.00623349693786
0.0055474798538947
0.0049604665038341
0.0044557060227889
0.004018945001174
0.0036395070221371
0.0033078803426785
0.0030168214727947
0.0027602324015873
0.0025332280458619
0.0023314040498576
0.002151551664717
0.0019905172863613
0.0018460615426665
0.0017158413764684
0.0015983450495953
0.0014918383031833
0.001395168178882
0.0013071038054661
0.0012267268692694
0.0011532093928141
0.0010857629141241
0.0010238257166194
0.00096677240667536
0.00091416786753226
0.0008655227078584
0.00082048613048611
0.00077871973358307
0.00073992517703938
0.00070383054354291
0.00067018587999846
0.00063877597016897
0.00060941292075045
0.00058193449167471
0.00055618920277176
0.00053203646016258
0.00050934729143258
0.00048801081677511
0.00047368492598128
0.0016796027759158
0.0029818076662972
0.0030308640196154
0.0030007656660883
0.002974550205594
0.002952232639358
0.0029301156391806
0.0029038545777859
0.002869805353779
0.0028254788962683
0.0027699089625002
0.0027045736327367
0.0026340942092007
0.0025675533288538
0.0025136924416088
0.0024743840395499
0.0024485357390118
0.0024259690784569
0.0024071482093662
0.0023903368368271
0.0023749635208157
0.002361024411011
0.002348607915088
0.0023378031889376
0.0023286749921453
0.0023212899514588
0.002315569903894
0.0023116224223022
0.0023096032483696
0.0023094155876213
0.0023114374871187
0.002315418057882
0.0023214506454126
0.0023295525622818
0.0023396632564034
0.0023517763839648
0.0023699388704018
0.0023862589522546
0.0024040039422669
0.0024229774922094
0.0024428784370474
0.0024634281940896
0.0024845716769851
0.0025056859124411
0.0025264636570701
0.0025470366916037
0.0025671623027748
0.0025865059268076
0.0026048102441089
0.0026217753749333
0.0026371338220794
0.0026506756132293
0.0026621456415789
0.0026713542103309
0.0026781655738578
0.0026825301666132
0.0026845305470011
0.0026845942751379
0.0026809684229763
0.0026752629209316
0.0026681136505507
0.0026594712836174
0.0026496257338175
0.0026393912736181
0.0026284626951551
0.0026189130565821
0.0026088920457953
0.0026010127243981
0.0025930583059807
0.0025854711332448
0.0025809102629538
0.0023712062273781
0.67669693571268
0.48920371888869
0.41005237775038
0.36157328785659
0.32205767436498
0.28706018830437
0.25512930633215
0.22599340848381
0.19797244161305
0.17182075568992
0.14722297392934
0.12476494787232
0.10457001044431
0.086815204845192
0.071605986820962
0.058837169605681
0.048298963412546
0.039720112393763
0.032799088553671
0.027234609173997
0.022761082169562
0.01915612318752
0.016245373613915
0.013869620910796
0.011926071093583
0.010325867128256
0.0089994969577259
0.0078883671272973
0.0069547939657592
0.0061650365306776
0.005492391581173
0.0049154507922485
0.0044186333604336
0.0039886438729652
0.003613996265589
0.0032866174036662
0.0029989669404873
0.0027452627054192
0.0025203276270933
0.0023205133858369
0.00214216146379
0.0019824892827815
0.0018390168978511
0.001709785262192
0.0015930218231848
0.0014871652879633
0.0013910275050145
0.0013034294467339
0.001223493168745
0.0011502880152582
0.0010831617737363
0.0010214652307332
0.00096466091379678
0.00091226140649063
0.00086380417861115
0.00081893225492268
0.00077730436587228
0.00073863621302621
0.00070264877325826
0.00066910128411594
0.00063778344353115
0.00060850656496636
0.00058110321693403
0.00055542570124385
0.00053133799359144
0.00050871142358371
0.00048742066958665
0.00047465183850626
0.0017383330764512
0.0029901946745546
0.0030326841210522
0.0030018811107035
0.0029752114903722
0.0029524639139409
0.0029299493530316
0.0029034127541373
0.002869312285341
0.0028252155221554
0.0027701286561008
0.0027053814978054
0.0026353280757983
0.0025687617367483
0.0025144667966609
0.0024746681021757
0.002448555694241
0.0024258343265499
0.002407021229362
0.0023903114151744
0.0023750787552224
0.0023612859680646
0.0023490143416584
0.0023383429145927
0.0023293417268223
0.0023220156483676
0.0023164002678388
0.0023125700912774
0.0023106482125069
0.0023105472662149
0.002312650219139
0.0023167158102638
0.002322819393135
0.002330985899238
0.0023411611153441
0.0023533453615306
0.0023715435848761
0.0023878945938468
0.0024056694325211
0.0024246694243456
0.0024445854436994
0.0024651348735891
0.0024862534078715
0.0025073305976266
0.0025280127212256
0.0025484289151883
0.0025683716432438
0.0025875411537822
0.0026056821579358
0.0026225257772329
0.0026378128425629
0.0026512811673733
0.0026626959754383
0.0026718600189898
0.0026786100775109
0.0026829467698922
0.0026849446782348
0.0026850005460014
0.0026812858357416
0.0026756310289953
0.0026684597751669
0.002659727986495
0.0026498281892855
0.002639648170611
0.0026287917333964
0.0026193995403582
0.002609328058439
0.0026018691124676
0.0025937136816642
0.0025863439256175
0.0025814682482111
0.0023686668453949
0.022784389458228
0.15554603703618
0.19117828817539
0.20454721718958
0.20668187353105
0.20056509121662
0.18883069477857
0.17454810928853
0.15879645673993
0.14238498093182
0.12590819262938
0.10974978566576
0.094393204592239
0.080206577840895
0.067485994478444
0.056402032262169
0.046951168568787
0.039048294068634
0.032527709437149
0.02719057650907
0.022839827825677
0.019297159355854
0.016404937831886
0.014041889064512
0.012093541409103
0.010478570072641
0.0091376212983119
0.0080156731729387
0.0070693895285716
0.006266022479778
0.0055823374764442
0.0049966786616403
0.0044910991798902
0.0040529508198284
0.0036718281317571
0.003338696920044
0.0030456290232047
0.0027872839007954
0.0025584351756744
0.0023550246140017
0.0021733733129235
0.0020108982141165
0.0018649372295482
0.0017334512233363
0.0016145909576691
0.0015069499409598
0.0014091834717325
0.0013201286528145
0.0012388342222223
0.0011644327039058
0.0010962413399116
0.0010335663478849
0.0009758633871387
0.00092263603498725
0.00087345901911794
0.00082793880253212
0.00078570684404222
0.00074647085328004
0.00070996547061879
0.00067595372871055
0.00064421111571384
0.00061453981567747
0.00058677003551152
0.00056075029153483
0.00053633931644657
0.00051341735404812
0.00049187360348078
0.00047313548953722
0.0011676203038039
0.0029159189172893
0.0030413639501471
0.0030107319244151
0.002982241507536
0.0029583503163945
0.0029357000517119
0.0029101685310285
0.0028780983692042
0.0028368390401676
0.0027849996512541
0.0027230806061739
0.0026542774734778
0.0025860333607479
0.0025277378589822
0.0024839028398893
0.0024485414155348
0.0024256446715201
0.0024068238231359
0.0023902258589609
0.00237515710859
0.0023615385708128
0.0023494368294732
0.0023389275214513
0.0023300727475026
0.0023228555176563
0.002317363085467
0.0023136728535139
0.0023118738136677
0.0023118917783114
0.002314086857479
0.0023182525238717
0.0023244452769777
0.0023326901866261
0.0023429335005196
0.0023551608665809
0.0023746336328103
0.0023910187760893
0.002408815338197
0.0024278201620341
0.0024477377609215
0.0024682714763575
0.0024893253409962
0.0025102996458514
0.0025308042444021
0.002550950363655
0.0025705511673424
0.0025893696481105
0.0026071942215601
0.0026237873384172
0.002638887666004
0.00265222202735
0.0026635380316243
0.0026726373475652
0.0026793411321549
0.0026836282190968
0.0026856118091248
0.0026856251802429
0.0026818401468522
0.0026762840520851
0.0026690928133879
0.0026602900693087
0.0026502971673939
0.0026401121416465
0.0026292575099489
0.002619969184432
0.002609801063661
0.0026026201223841
0.0025944040391641
0.0025873597110227
0.0025820444501381
0.0023632982207066
0.010073347667523
0.027118221847077
0.048429659233794
0.066202638772192
0.079656267010918
0.088677087667938
0.0933487405286
0.094509027557213
0.091886529048604
0.087348202979243
0.081360072984968
0.074279735401829
0.066644639289228
0.058850749884374
0.051268263310987
0.044206516006847
0.037840177724212
0.032248369728533
0.027440170541608
0.023365179080805
0.019942290990096
0.017081754257142
0.01469529441581
0.012702549677565
0.011036819919389
0.0096414085258828
0.0084648660033538
0.0074661962130519
0.0066187670018196
0.0058950815899476
0.0052741672482694
0.0047370871301627
0.00427199260825
0.0038672164593178
0.0035133044156697
0.0032018738679462
0.0029274516804699
0.0026846059363132
0.0024689072204212
0.0022763530605454
0.0021041245021415
0.0019496211724285
0.0018105824145337
0.0016849518428145
0.0015712127810749
0.0014680135471211
0.0013741212290091
0.0012884577732788
0.0012101026297171
0.0011383482310206
0.0010724661790574
0.0010118686033106
0.00095599351305837
0.00090440344485615
0.00085669423999647
0.00081248963515669
0.00077146284716927
0.00073330553403471
0.00069777258599539
0.00066463298160898
0.00063368331374294
0.00060473988872461
0.00057763843273035
0.0005522336685991
0.00052839374145149
0.00050600265711016
0.00048492257391265
0.00048278355115961
0.0019779797724755
0.0030183942994559
0.0030382183358353
0.0030056444314711
0.0029776118007377
0.0029532970506094
0.0029292240047981
0.0029015832245844
0.0028672590965742
0.0028240525111068
0.0027708837879653
0.0027085452229796
0.0026403380920372
0.0025739114988864
0.0025179628776466
0.002476075696721
0.0024485556882247
0.0024251385473617
0.0024062232128262
0.0023898440479003
0.0023751443663951
0.0023619444033739
0.0023502519946011
0.0023401474558274
0.0023316663584609
0.0023247953681217
0.0023196324314039
0.0023163009832222
0.0023148443549773
0.0023152210327815
0.0023176729484835
0.002322101007809
0.0023285242475272
0.0023369694188966
0.0023474056645913
0.0023598192710913
0.0023797967014262
0.002396270160447
0.0024141561041734
0.002433229308055
0.0024531842218321
0.002473701048542
0.0024946426337829
0.0025154225461078
0.0025356508367052
0.0025553870063795
0.0025744906662428
0.0025927968746736
0.0026101488323375
0.0026263385635671
0.0026411026701263
0.0026541537659673
0.0026652298008578
0.0026741264298714
0.0026807057981571
0.0026849236236972
0.0026868805066746
0.002686806463398
0.0026829581343821
0.0026774848679563
0.0026702228465552
0.0026613018440661
0.0026511418097477
0.0026408592170229
0.0026298914648671
0.0026206143888366
0.0026103063731645
0.0026031318518987
0.0025950265578678
0.0025883941085891
0.0025825206952533
0.0023516187468282
0.0079821620665086
0.011877063150883
0.019222113568362
0.028129747538928
0.036494029781785
0.043638534441135
0.049193236462031
0.052991389464037
0.055141785094171
0.055429667589182
0.054033794455758
0.051629632646488
0.048287382128394
0.044308480041632
0.039966248977484
0.03555593648374
0.031302128099631
0.027346908518588
0.023775318482617
0.020621164191832
0.017879874747579
0.015522210480467
0.013507722045279
0.01179168117773
0.01033086872712
0.0090876192863912
0.0080272447596162
0.0071203409525679
0.0063423401684734
0.0056711202795041
0.0050905160040668
0.00458701140378
0.0041482104949783
0.0037647023184212
0.003427139516191
0.0031294257155243
0.002866192459709
0.002632584831523
0.002424254736433
0.0022379326830532
0.002071038525862
0.0019209840313565
0.0017856231122513
0.0016630697705191
0.0015520448495985
0.0014511268103398
0.0013591960593199
0.0012751731431049
0.0011982743715253
0.0011277784251748
0.0010630069716999
0.0010033602784071
0.00094831635033913
0.00089747322181208
0.00085041473317974
0.00080678807754829
0.00076626352511292
0.00072856270261347
0.00069344641621093
0.00066067879824091
0.00063005857444297
0.00060140761384515
0.00057457057818874
0.00054941047980059
0.00052579625190541
0.00050360848912836
0.00048268717212044
0.00049506565518218
0.0021745679634483
0.0030361657587262
0.0030419196816743
0.0030084856055065
0.0029794932535112
0.0029539078393517
0.0029285299643919
0.0028999516571561
0.0028654144512045
0.0028229217302832
0.0027713553346415
0.002711122373348
0.0026446849073864
0.0025786988179833
0.0025215163298178
0.0024777523497529
0.0024487907522592
0.0024245331463651
0.0024053457059599
0.0023891214226258
0.0023748076584056
0.0023620876440661
0.0023509013383312
0.0023412924982188
0.0023333058893372
0.0023269348517271
0.002322234344852
0.0023193702571391
0.0023183763286806
0.0023192563933838
0.002322084807187
0.0023268686005154
0.0023336065277995
0.0023423221518436
0.0023530084882875
0.0023656501929944
0.0023860683230963
0.0024026074013064
0.0024205356058485
0.0024396109325447
0.0024595212545849
0.0024799176232604
0.0025006288731762
0.0025211006715485
0.0025409963069915
0.0025603050156998
0.0025789118122861
0.0025966971488384
0.0026135444399917
0.0026292806951518
0.0026436581415706
0.002656403428957
0.0026672464615653
0.0026759709120046
0.0026823705975761
0.0026864911266381
0.0026883891312148
0.0026881269636771
0.0026843278860048
0.0026788915084856
0.0026715367756136
0.0026624407701628
0.0026520318232879
0.0026414595057298
0.0026301710651157
0.0026205509523439
0.0026099030456667
0.0026020724020495
0.0025942192664118
0.0025876655144078
0.0025808441819526
0.0023383688491875
0.0063536721111863
0.0083913862260037
0.010634689362965
0.015045786112613
0.019965434428889
0.024668775775427
0.028860357535414
0.032293753402708
0.034862567629028
0.036437938359958
0.036856627780828
0.03641142855994
0.035160864105261
0.03332859600078
0.030994250260257
0.02835945096754
0.025612928515424
0.022908160678884
0.020339159146226
0.017971148222709
0.015836980872678
0.013943820579011
0.01228240634342
0.010835237032748
0.009579950841074
0.008493337400746
0.0075536123007418
0.0067399145637723
0.0060340209909532
0.0054203855618408
0.0048856328709052
0.0044181767280352
0.0040078141402025
0.0036466363512586
0.0033280698508097
0.0030460801337313
0.0027956710431062
0.0025719863619846
0.0023721315097208
0.0021931525416828
0.0020322931377677
0.0018873241586681
0.0017560728036071
0.0016372693150295
0.0015293658490109
0.0014311538635607
0.001341453356882
0.0012593773296047
0.0011842241284659
0.0011152206995445
0.0010517571659019
0.0009932196765798
0.00093918105576018
0.00088922320593214
0.00084294745818251
0.00080000429581935
0.00076007436021752
0.00072291484182669
0.00068828337978007
0.00065595818855472
0.00062573943096093
0.00059744677193969
0.00057093310300541
0.00054606376196155
0.00052270696006375
0.0005007451622831
0.00048007300393818
0.00052324624211331
0.0023918209171083
0.0030541965336453
0.0030461876755311
0.0030116436958556
0.0029814998369808
0.0029544630788267
0.0029276156675414
0.0028979781461251
0.0028631740641966
0.0028214417854588
0.0027716651709439
0.0027138758358169
0.0026497012274753
0.0025845626618371
0.0025263022451856
0.002480358760596
0.0024495243229621
0.0024240061673479
0.0024042644368414
0.0023880415803069
0.0023740678469691
0.0023618444629157
0.0023512313369477
0.0023422015589311
0.0023348160555821
0.0023290744544665
0.0023250052266282
0.0023227127631618