/*--------------------------------*- C++ -*----------------------------------*\
| =========                 |                                                 |
| \\      /  F ield         | OpenFOAM: The Open Source CFD Toolbox           |
|  \\    /   O peration     | Version:  2312                                  |
|   \\  /    A nd           | Website:  www.openfoam.com                      |
|    \\/     M anipulation  |                                                 |
\*---------------------------------------------------------------------------*/
FoamFile
{
    version     2.0;
    format      ascii;
    arch        "LSB;label=32;scalar=64";
    class       volScalarField;
    location    "0.00011";
    object      yPlus;
}
// * * * * * * * * * * * * * * * * * * * * * * * * * * * * * * * * * * * * * //

dimensions      [0 0 0 0 0 0 0];

internalField   uniform 0;

boundaryField
{
    inlet
    {
        type            calculated;
        value           uniform 0;
    }
    outlet
    {
        type            calculated;
        value           uniform 0;
    }
    nozzleWalls
    {
        type            calculated;
        value           nonuniform List<scalar> 
144
(
35.087868461521
34.674034007702
34.243619532074
33.819070887069
33.406767123583
33.008832911452
32.62601905305
32.258255330956
31.905549216036
31.567885415011
31.245357310521
30.938159916361
30.646585132261
30.371028381964
30.11199100816
29.870053290538
29.645826827917
29.43931870336
29.247584711575
29.068468669041
28.901693773334
28.747274799846
28.605288914729
28.475849228285
28.359211647471
28.255824264435
28.166435509731
28.092254959009
28.035222348734
27.998518664701
27.987875581588
28.012246368958
28.091066171206
28.271945758951
28.722979217093
30.879029516078
35.32681776611
34.98921199428
34.566613754021
34.136551346608
33.714730649963
33.305888763695
32.911698321148
32.532674378897
32.168668453366
31.819721314935
31.485828387609
31.167110909207
30.86378782116
30.576176015754
30.304698895435
30.049879339673
29.812313758783
29.592588358871
29.39013157249
29.201645329933
29.025618764659
28.861928461793
28.710608792907
28.571745761509
28.445476172092
28.332099045783
28.232126969108
28.146403837786
28.076291485216
28.023977144661
27.99309445723
27.990175039435
28.025716214094
28.123617065259
28.346239383944
28.945514723298
35.17959014615
34.78075029112
34.35111530448
33.92419244359
33.508548470506
33.106906053811
32.72029248085
32.348787159824
31.992316502762
31.65088787541
31.324561268425
31.013507630742
30.717994194872
30.438389585221
30.175171117004
29.928900572124
29.700193798959
29.489402100224
29.294304117145
29.112089250772
28.94223102125
28.784717741733
28.639614290836
28.507021403157
28.3871506771
28.280393947928
28.187414071096
28.109284109415
28.047727060421
28.005542978166
27.987654241997
28.002072266245
28.064482440687
28.212067382091
28.561439250424
29.831535149883
35.261994293249
34.886168165472
34.458887523663
34.030043199235
33.611212254504
33.205930616813
32.815512171677
32.440262021999
32.080022827285
31.734833789636
31.404719446444
31.089826355634
30.790397512576
30.506775442534
30.239410152629
29.988845905132
29.755691365159
29.54045749836
29.341812342213
29.156481044963
28.983539469304
28.822936097129
28.674721393622
28.538988395801
28.415907975046
28.305822939966
28.209317916218
28.127344327238
28.061434075732
28.014059072509
27.989372670428
27.994820355237
28.042939465765
28.163384132943
28.440038008795
29.281245771897
)
;
    }
    tipWalls
    {
        type            calculated;
        value           nonuniform List<scalar> 
304
(
9.2151807808002
3.0165628462428
4.5512675304603
4.8696281459724
4.7574173599636
4.4715108484242
4.0528603460692
3.3666626184923
2.3180899640849
1.2408773860853
0.33449434519376
0.60711064589994
0.58525875922693
0.51537525206742
0.4468623029554
0.3919939436339
0.35089732915297
0.31914903864868
0.29327218378941
0.27123308024817
0.25199227047396
0.23494304127503
0.21964647458087
0.20583763760878
0.19338460869948
0.18212594678362
0.171919711656
0.16265383448288
0.1542365407026
0.14658569095672
0.13962316110718
0.13327628641604
0.12747894835216
0.12217022051367
0.11732669758245
0.11291378105337
0.10891597591875
0.10531867787886
0.10210289184264
0.099245537727815
0.096722950266602
0.094512951929862
0.092589419419121
0.090911715365278
0.089401643972092
0.087970434490074
0.086511273733525
0.084955868642414
0.083294933719747
0.08157856766865
0.079914496673528
0.078403814212534
0.077115864468523
0.076069216125121
0.075241004671357
0.074583686510307
0.074045068864939
0.073571598174342
0.073109572955319
0.072600902868349
0.071987925062493
0.071224805081951
0.070303054992311
0.069350693901371
0.069366906447418
0.13184779704929
0.12980437900832
0.12741969925961
0.12541151977312
0.12366032660177
0.12214575353728
0.1208770402897
0.11987908446232
0.11921846169123
0.11905230697557
0.11983008772942
0.12337036705796
0.23335877166681
0.23122337828464
0.22733933593092
0.22386438557571
0.22054915442859
0.21745746899492
0.21464021186982
0.21216001485454
0.21008619069384
0.20847982156315
0.2073608121984
0.20670312191928
0.20648391721731
0.20713702244116
0.20890192080484
0.21218297241681
0.21709323368438
0.22348312072915
0.22862064969166
0.22057201423466
1.5820902534516
4.0291227969571
4.795746158574
4.8436419728441
4.6280657807427
4.2835786616628
3.7544832323336
2.8866073475029
1.7450126301324
0.77256874213148
0.51869650560795
0.61056839606358
0.55549497058843
0.47884360364355
0.41803580856465
0.3700545468281
0.33407642652391
0.30566000769401
0.28185117787765
0.26131106360349
0.24322138939246
0.22709763633321
0.21256194757468
0.19945314947906
0.18761546935769
0.17689889867323
0.16717531444271
0.15834436445297
0.15032028738518
0.14302308229818
0.13637705532403
0.13031293398371
0.1247608864344
0.11969351412637
0.11506749762757
0.11086381728881
0.10706832432524
0.10366446651113
0.10063074332606
0.097943877031211
0.095580252152877
0.093517449307659
0.091723374547301
0.090142559005775
0.088683645969802
0.087249777648859
0.0857477203892
0.084136695459447
0.082437366395734
0.080733364075465
0.079134726305115
0.077729776945982
0.076563024549057
0.075630413826509
0.074894277197509
0.074302930552598
0.07380330311731
0.073342728973481
0.072864761038842
0.072310789568511
0.071627003614427
0.070781501701562
0.069810323115801
0.069024107785591
0.068605329535664
0.1311577793573
0.12858176452446
0.12636939483569
0.12451162527721
0.12287161469802
0.12148048757061
0.12034067628122
0.11950164025631
0.11904194573307
0.11928903193943
0.12093305532473
0.12313174772149
22.550389175565
2.1384945351669
4.3295357056172
4.8484772711638
4.8068931111822
4.5528256959662
4.1751935665881
3.5748784158056
2.6102026853223
1.480366708739
0.52691899524448
0.577856992138
0.60034317193186
0.53542337454613
0.46201084869645
0.40473751642166
0.36018695686892
0.32637159938287
0.29932760759124
0.27645254206001
0.25657970965401
0.2390259314108
0.22332523707414
0.20915553889585
0.19638017099342
0.18483677153927
0.17437915500453
0.16488741755593
0.15626588114328
0.14843089171426
0.14130334974772
0.13480900353468
0.12888029892131
0.12345101127433
0.11849652274491
0.1139775804853
0.10987724704576
0.10618140142342
0.10287229277016
0.09992750072499
0.097323479230103
0.095037383552594
0.093045305142499
0.091311340302329
0.089767239429433
0.088327250022556
0.086883292739828
0.085355371461213
0.083718262540272
0.082007070323165
0.080319782083198
0.078762429792121
0.077415151003473
0.076308952295846
0.07542994116449
0.074734844144145
0.07417159130737
0.073686626835618
0.073227144108173
0.072735676054052
0.072153819256211
0.071431151108937
0.070545882481754
0.069571811087518
0.069013948595198
3.2888645578348
3.6226196894843
4.6997724046579
4.8654994123786
4.6966684477143
4.3818658579158
3.9136874608693
3.1392927266406
2.0261670155261
1.0106794145952
0.42752993855414
0.61376715919702
0.57089940216241
0.49725313035797
0.43175991830203
0.38058313871568
0.34223920705131
0.31227309881031
0.28744683442163
0.26619166185276
0.24754175372103
0.23096700687095
0.21605879373117
0.20260497066079
0.1904640690991
0.1794806220009
0.1695189300604
0.16047325014993
0.15225509326973
0.14478348044596
0.137981422379
0.13177795276601
0.12610545801672
0.12091795731838
0.11618377698257
0.11187592246901
0.10797975565379
0.10447981539114
0.10135575778346
0.098584452211288
0.096141984014224
0.094006478985482
0.09214907336878
0.090522941263811
0.089041237143853
0.087611753162953
0.086132928598626
0.084549474224039
0.082867535952599
0.081153442771539
0.079519103570461
0.078059502081744
0.076831886157593
0.075843255055129
0.07506273417067
0.074440007387745
0.073922539067714
0.073457244765136
0.072989084025498
0.072459554919843
0.071812484125868
0.071008109743078
0.070056304226505
0.069157837020377
0.070586391311305
)
;
    }
    wedge1
    {
        type            wedge;
    }
    wedge2
    {
        type            wedge;
    }
    defaultFaces
    {
        type            empty;
    }
}


// ************************************************************************* //
