/*--------------------------------*- C++ -*----------------------------------*\
| =========                 |                                                 |
| \\      /  F ield         | OpenFOAM: The Open Source CFD Toolbox           |
|  \\    /   O peration     | Version:  2312                                  |
|   \\  /    A nd           | Website:  www.openfoam.com                      |
|    \\/     M anipulation  |                                                 |
\*---------------------------------------------------------------------------*/
FoamFile
{
    version     2.0;
    format      ascii;
    arch        "LSB;label=32;scalar=64";
    class       volScalarField;
    location    "0.00014";
    object      alphat;
}
// * * * * * * * * * * * * * * * * * * * * * * * * * * * * * * * * * * * * * //

dimensions      [1 -1 -1 0 0 0 0];

internalField   nonuniform List<scalar> 
109340
(
0.47624858753923
0.32660331857755
0.17625138915107
0.14729021536586
0.14267682281368
0.1455925269576
0.15101507023523
0.16050171232868
0.13988535525903
0.124421008604
0.11218188202597
0.10219818945477
0.093879938930743
0.086834943940728
0.080788367850118
0.075540460205717
0.070941973904035
0.066878900241019
0.063262522680918
0.06002269592082
0.057103167042292
0.054458235845828
0.052050322813207
0.049848169299854
0.047825482962507
0.045959896416266
0.044232139878522
0.042625357048031
0.041124497756867
0.03971571329626
0.038385650149113
0.03712044551483
0.035903983907443
0.034714367099951
0.033515763876823
0.032239481378444
0.47071530374607
0.2282580533889
0.16721379126999
0.15296212551928
0.15193260341073
0.15495594572655
0.13874158559833
0.12068816283619
0.10666091096544
0.09555571075043
0.086564768901281
0.079141370043284
0.072910229918316
0.067606527559006
0.063038278250001
0.059062934002079
0.055572438986802
0.052483381817
0.049730331689366
0.047261190560277
0.045033872929244
0.043013937883683
0.041172886190337
0.039486913754662
0.037935956580352
0.036502933066178
0.035173130098311
0.033933674235509
0.032773038677742
0.031680543534471
0.030645748161409
0.029657554494752
0.028702628324478
0.027762224267522
0.026804668924803
0.025765922285074
0.276459854316
0.19481316098431
0.16791454003214
0.15761140436205
0.12608493771824
0.10511485016423
0.089908556307147
0.078448747155038
0.069542294711194
0.062451053224522
0.056688438365526
0.051921948210326
0.047918736904016
0.044511930188291
0.041579277715342
0.039029397522358
0.036792714687497
0.034815353842259
0.033054816001659
0.031476816775876
0.030053268031331
0.028761069662894
0.027581256679247
0.026498251267982
0.02549911818262
0.024573032017607
0.023710845748134
0.022904585195526
0.022147191907763
0.021432120467998
0.02075291268137
0.020102661653306
0.019472862394597
0.018851595090582
0.018219217249428
0.017532197116273
0.15887695920582
0.1604867051681
0.10071821406585
0.07332065905457
0.057676890575016
0.047575186258016
0.040534759298411
0.035358759215441
0.03140112775394
0.028282701746082
0.025766419055363
0.02369630473111
0.021965548534815
0.020498648748937
0.019240868509416
0.018151628572233
0.01720013999775
0.016362268891941
0.015616425795136
0.014944114098885
0.014331567365873
0.013769022028808
0.01324939719221
0.012767418002144
0.012318976182813
0.011900698885068
0.011509430915248
0.011142752127356
0.010798350696166
0.010473953941585
0.010166971320456
0.0098735085534866
0.0095872450242878
0.00930035474915
0.0090035177373904
0.0086756977083164
0.095680284028327
0.031277675151031
0.019018730412671
0.013792132865691
0.010912011116299
0.00910400848411
0.0078741269671978
0.0069903679959332
0.0063293730838444
0.0058201012223469
0.0054190420989726
0.0050986010583752
0.0048405011558363
0.0046324295976012
0.004466010943177
0.0043353790820547
0.0042353447922629
0.0041572296635227
0.0040868213501779
0.0040164915773531
0.0039455630697612
0.0038762915299256
0.0038110700371575
0.0037515247456921
0.0036985290804872
0.0036524747804951
0.0036133824199092
0.0035810325270239
0.0035554773049347
0.0035362713026029
0.0035223539608403
0.0035125424125567
0.0035051305956435
0.003496880184779
0.0034795180494876
0.0034290454663681
0.00024095310781997
0.00035963354184913
0.00046271195108398
0.00054313284832659
0.00060061069540434
0.0006385081539581
0.00066128413163289
0.00067311380651238
0.00067731949436204
0.00067665755226365
0.00067272263576871
0.00066677120966891
0.00065966701759161
0.0006519927075762
0.00064413894543451
0.00063638330068548
0.00062890574022978
0.00062182596221587
0.00061526603446403
0.00060937605573289
0.00060401794304979
0.00059909919918549
0.00059456784723987
0.00059038804122622
0.00058652486642084
0.00058293813487907
0.00057957908390694
0.00057638675107183
0.00057328109670286
0.00057015167819419
0.00056683873472699
0.00056308662856043
0.0005584622189611
0.00055207021664559
0.00054128288693542
0.00051443045333344
0.028486291950041
0.015316956820857
0.0082522094512514
0.0050854134377931
0.003401333779466
0.0022940783400268
0.0015504366667725
0.0010344352305871
0.00069829133945773
0.00051115356415664
0.0004198195385671
0.00041456256544734
0.00037959913679074
0.00034118885155106
0.00029415821615747
0.00024780736285735
0.00020727167920826
0.00017243608253582
0.00014394948217715
0.00012160350035311
0.0001031911446999
8.7896234884201e-05
7.3713359838915e-05
5.9616935970472e-05
4.8706299951132e-05
4.0166821728346e-05
3.3596125931801e-05
2.8220029715915e-05
2.3845842697266e-05
2.0463237734648e-05
1.751272366487e-05
1.5252070229905e-05
1.3216546156111e-05
1.1638428705186e-05
1.0201301623634e-05
9.0668813585856e-06
8.0249060876117e-06
7.193422099538e-06
6.4188968864717e-06
5.7993282361584e-06
5.2127011189467e-06
4.7413164968979e-06
4.2913342422896e-06
3.9244505229068e-06
3.5775099827408e-06
3.2840708673596e-06
3.0169297581322e-06
2.7763335618288e-06
2.5654048518994e-06
2.3701673943779e-06
2.1975431327842e-06
2.0399873599255e-06
1.8979145972087e-06
1.7687622460829e-06
1.651246822698e-06
1.5439312596396e-06
1.4457953101242e-06
1.3558575483406e-06
1.2733227381576e-06
1.1974293205349e-06
1.1275084684381e-06
1.062958998822e-06
1.0032700350051e-06
9.4799426874906e-07
8.9673542317747e-07
8.4911409255423e-07
8.0482844455956e-07
8.2839982834782e-07
8.6135352360781e-05
0.00083589185190492
0.00090829058196815
0.00081201441545534
0.00073709665490308
0.00068219505669692
0.00064136533649126
0.00061057117000581
0.00058693366970091
0.000568243087579
0.00055269465143122
0.00053879324150087
0.00052536674809225
0.00051171326749923
0.00049765555536609
0.00048345347510421
0.00046785770152743
0.0004552184970164
0.00044404290483033
0.0004344638523613
0.00042635438343478
0.00041891335302539
0.00041108126117163
0.00040167093730242
0.00038982369893538
0.00037511037346588
0.00035668530360669
0.00033382578532323
0.00030780647571257
0.00028219634908035
0.00026018072753498
0.0002423850947788
0.00022792108697492
0.00021577962468676
0.00020527283873738
0.00019601993376403
0.00018592397442338
0.00017893835120304
0.00017278330628057
0.00016748096211311
0.00016307939911597
0.00015951039392496
0.00015664570532392
0.00015442779332614
0.00015277058288273
0.00015154493071951
0.00015062946474374
0.0001503031261775
0.0001504287484283
0.00015095799260316
0.00015170858550797
0.00015274514286089
0.00015394337173455
0.00015528056578404
0.00015664288778304
0.00015797491985618
0.00015922643386901
0.00016035245327516
0.00016132891688156
0.00016215678414041
0.00016285274599454
0.00016344000122961
0.00016394529175177
0.00016438933403846
0.00016480874239009
0.00016521479816436
0.00016561822681774
0.00016604402732774
0.00016656999778352
0.00016741778069404
0.00016948815074385
0.00017090800578135
0.021832857679772
0.011830909921837
0.0069633522792988
0.0045420129949787
0.0030351163801198
0.0020508293717109
0.0013754214349533
0.00091510247166441
0.00060885321066266
0.00041244417185541
0.00029168240287337
0.00022345480735413
0.00018318605423462
0.00015436981877429
0.00013402443365643
0.00011856230866923
0.00010628023241746
9.6374883953187e-05
8.734571271515e-05
7.9165481166862e-05
7.1922222600941e-05
6.5468919824183e-05
5.9645207111123e-05
5.4477791745588e-05
4.5487815190238e-05
3.7645007935344e-05
3.1446612254042e-05
2.6512214021432e-05
2.2523813850857e-05
1.9284399097761e-05
1.6624654270815e-05
1.4423988931161e-05
1.2592432049298e-05
1.1050058650089e-05
9.7502417777167e-06
8.6401570607105e-06
7.6940153348321e-06
6.8774214054173e-06
6.1742502108999e-06
5.5614541849728e-06
5.0285247931128e-06
4.5605717358959e-06
4.1491784041326e-06
3.7858452063932e-06
3.4633324200967e-06
3.1772266247105e-06
2.9210917247502e-06
2.6928735917563e-06
2.4872711039787e-06
2.3029188125151e-06
2.1360073300575e-06
1.9851479201694e-06
1.8481256371361e-06
1.7235730322082e-06
1.6100963600756e-06
1.5064314459184e-06
1.4115718678138e-06
1.3245846939034e-06
1.2446752357988e-06
1.1711243776675e-06
1.1033091845725e-06
1.0406676709474e-06
9.8270523264747e-07
9.2898176701892e-07
8.7911045618203e-07
8.3275896256563e-07
7.8962138042681e-07
2.3805738273013e-06
0.00020961772471847
0.00091768415525615
0.00088308869632711
0.00079015150676043
0.00072110556305116
0.00067035287199588
0.00063245143407703
0.00060376443566419
0.00058161070714206
0.00056390271943949
0.00054891659999476
0.00053524248501624
0.00052181500128689
0.00050806822582804
0.00049394416939809
0.00047978024239156
0.0004676594786098
0.00045498793363695
0.00044377408491646
0.00043415986711005
0.00042601670579056
0.00041855892534785
0.00041073693421146
0.00040137623934866
0.00038960770399434
0.00037499326123178
0.00035668201022031
0.00033394154430756
0.00030802442553721
0.0002824811447022
0.00026049449254591
0.00024270842682975
0.00022824375938216
0.00021609282089376
0.00020556895202703
0.00019628460667422
0.0001861369513471
0.0001791045535489
0.00017289920548749
0.00016754289035574
0.00016308334625651
0.00015946193221739
0.00015654632659041
0.00015427921896295
0.00015257692768631
0.00015131953255577
0.00015036269894294
0.00014998273766006
0.00015005688040278
0.00015053335805676
0.00015123664643347
0.00015221844545069
0.00015336387718569
0.00015464628804346
0.00015595321422213
0.00015723149645474
0.00015843007044828
0.0001595051277945
0.00016043300603316
0.00016121489931059
0.00016186709300397
0.00016241257539243
0.00016287735365848
0.00016328021267136
0.00016365884046263
0.00016402313326882
0.0001643866498969
0.00016477907030754
0.00016527527640722
0.00016605588797937
0.00016774924389883
0.00016895514075379
0.015907936954811
0.0079178846837847
0.0047639821121758
0.0032007654284134
0.0021352085603519
0.0014525972506926
0.00099171987600981
0.00068580412353243
0.00048303909954204
0.00034941279759389
0.00026856214849839
0.00021213369799443
0.00017395780166255
0.0001466598572676
0.00012550793522597
0.0001086035772206
9.5140722386441e-05
8.3877357126536e-05
7.3793456058785e-05
6.5203343135048e-05
5.8191213100288e-05
5.2245600084587e-05
4.718372207057e-05
4.3000384514368e-05
3.9463060921143e-05
3.6367756957181e-05
3.0772326978444e-05
2.5939450481998e-05
2.2048950795831e-05
1.8876475368349e-05
1.6278093678127e-05
1.4125027809872e-05
1.2334551635088e-05
1.083007060278e-05
9.5592138616687e-06
8.4776537792406e-06
7.5524156751398e-06
6.7558783790497e-06
6.0676454529327e-06
5.4689636214596e-06
4.9473182575302e-06
4.4889752506933e-06
4.0864623431881e-06
3.729788690591e-06
3.4143970588114e-06
3.1329491079075e-06
2.8823645159284e-06
2.6576372512598e-06
2.4561039038006e-06
2.2745414378003e-06
2.1106340575876e-06
1.9623063777964e-06
1.8275062965143e-06
1.7048840332811e-06
1.5930469292093e-06
1.4909211955172e-06
1.3974425387336e-06
1.3117034357686e-06
1.2329051487661e-06
1.1603533496529e-06
1.0934382901181e-06
1.0316109588969e-06
9.7438247784421e-07
9.2132265559552e-07
8.7205809447786e-07
8.2625304767124e-07
7.8360899299511e-07
2.5253741782515e-06
0.00021820476934295
0.00091957354818172
0.00088192378627868
0.00078930517855932
0.00072050884358055
0.00066988536129614
0.00063206552967479
0.00060343885082431
0.00058133164961302
0.00056365830862653
0.0005487012823709
0.00053505843674956
0.00052167103759372
0.00050797258262863
0.00049389884771744
0.00047977601297672
0.00046767886135871
0.00045502449223273
0.00044379691428322
0.00043418602853085
0.00042604300855055
0.00041860884037864
0.00041084273335909
0.00040159936024848
0.00038998276983699
0.00037553728610087
0.00035740530149261
0.00033483994325068
0.00030905110205482
0.00028356010260095
0.00026155168870439
0.00024371562435487
0.00022919110355327
0.00021697252497288
0.0002063743847147
0.00019699263193165
0.00018670754304523
0.00017955408526141
0.00017322271697225
0.00016773504797014
0.00016313661271525
0.00015939011808996
0.00015635415830497
0.0001539709898543
0.00015216097126308
0.00015082170666376
0.00014977797721351
0.00014927809212145
0.00014923474231817
0.00014959752778764
0.00015019782252498
0.00015106191483756
0.00015209310883193
0.00015326198120928
0.00015445874523616
0.00015562910143192
0.00015672236215127
0.00015769511232509
0.00015852437113541
0.00015921178378781
0.00015977400235769
0.00016023371479925
0.0001606145710796
0.0001609333180984
0.00016122845355098
0.00016150768704979
0.00016179103049233
0.00016211136501633
0.00016254026862724
0.00016322119282885
0.00016440713709486
0.00016536061314789
0.0082782259104741
0.0044173332547866
0.0026984395526117
0.0017518711995869
0.0012091187729036
0.00087076278758921
0.00064709672065499
0.00049707748994691
0.00039124432596694
0.00031743336508675
0.00025891020109572
0.00021184497039841
0.00017474683553907
0.00014579144531729
0.00012335837077608
0.00010607866647141
9.2052744511325e-05
8.0433704421799e-05
7.0480035504269e-05
6.1748240127845e-05
5.4124704324291e-05
4.7909632296846e-05
4.2813884305933e-05
3.8463028200021e-05
3.4809528358065e-05
3.1827661954854e-05
2.9262546611599e-05
2.5375559376911e-05
2.157925770556e-05
1.8487415520956e-05
1.5945078870453e-05
1.3840501910459e-05
1.2084709323307e-05
1.0612488786019e-05
9.3657784503237e-06
8.3067013817521e-06
7.3992244849132e-06
6.6201701992144e-06
5.9461187540499e-06
5.3613665919872e-06
4.8504898160175e-06
4.4034333067213e-06
4.0096983204356e-06
3.6621085500151e-06
3.3537274597632e-06
3.0790240282112e-06
2.833974940146e-06
2.6141716073343e-06
2.4170266879154e-06
2.2391585395208e-06
2.0787389781897e-06
1.9333244831003e-06
1.8013159395197e-06
1.6810505565009e-06
1.5713185845911e-06
1.4710730926834e-06
1.3792850281037e-06
1.2950822132048e-06
1.2176732569186e-06
1.1463808561172e-06
1.0805963802151e-06
1.0197857526416e-06
9.6347729029531e-07
9.1125796237854e-07
8.6276357656824e-07
8.1766351803932e-07
7.7565403023472e-07
2.739761048479e-06
0.00023068061881121
0.00092140109972787
0.00088025285988267
0.00078811754921595
0.000719660476888
0.00066922195558076
0.00063151739344064
0.00060297362039284
0.00058092880483114
0.00056330276133657
0.00054838558120578
0.00053478707042542
0.00052145739171527
0.00050782945474608
0.00049382958960807
0.0004797727728143
0.00046771993871964
0.00045509906187527
0.0004438780872709
0.00043427558649787
0.00042614454369471
0.00041876098889863
0.00041110225487638
0.00040204088576342
0.00039066101416196
0.00037647489827999
0.00035861351381622
0.00033630763805403
0.00031070773093332
0.00028527941207025
0.00026322555793833
0.00024530220471895
0.00023067860713519
0.00021834994115409
0.0002076273148504
0.00019810605535068
0.00018761155204149
0.00018027096381415
0.00017374347390739
0.00016805153000379
0.00016323685953259
0.00015929359683457
0.00015607071447421
0.00015350827696982
0.00015153067961145
0.00015004343870351
0.00014888827823158
0.00014820028999163
0.0001479869294326
0.00014817619403752
0.00014861160681446
0.00014930459260725
0.00015016607039873
0.00015116741456334
0.00015219989985397
0.00015321011440422
0.00015414808337693
0.00015497045195933
0.00015565423628951
0.00015620179319582
0.00015662958326318
0.00015696039830684
0.00015721622277468
0.0001574101660995
0.00015758078687955
0.00015773240112551
0.0001578893899055
0.00015808823124528
0.0001583897119912
0.00015892100204928
0.00015977900186556
0.00016047510431034
0.0032055801113175
0.0022644316810378
0.001594680673125
0.0012090850192586
0.0009259257688677
0.00071647075704828
0.00057000894301353
0.0004653118016603
0.00038714138024994
0.00031518163363705
0.00026141830107815
0.00021706345053839
0.0001806913844449
0.00015106949733613
0.00012654629879769
0.0001069543390651
9.1781131621679e-05
7.9246710251356e-05
6.8662313863798e-05
5.9885453392791e-05
5.2609822849006e-05
4.6320291151978e-05
4.1029973599086e-05
3.6690661477768e-05
3.3016000620208e-05
2.9865007681562e-05
2.7242567060119e-05
2.4773820093054e-05
2.1097565272037e-05
1.8093926163486e-05
1.5618364602116e-05
1.3565725667676e-05
1.184991887745e-05
1.0408293927862e-05
9.1887873923609e-06
8.1505364071574e-06
7.2613001786615e-06
6.4969008240479e-06
5.8360302038728e-06
5.2621821234768e-06
4.7611201000224e-06
4.3223333897273e-06
3.9357764365501e-06
3.594551409782e-06
3.2916456399719e-06
3.0224400598529e-06
2.7820052205672e-06
2.5668063073398e-06
2.3735120310474e-06
2.1995113344847e-06
2.0425003381263e-06
1.9002497281794e-06
1.7712041567411e-06
1.653610702325e-06
1.5462738368623e-06
1.4480992700779e-06
1.3581929890673e-06
1.2757022208136e-06
1.1998580540785e-06
1.1299821044637e-06
1.0654752190526e-06
1.0058213998392e-06
9.5056726642021e-07
8.9931150406297e-07
8.516965379476e-07
8.0740760127973e-07
7.661418331173e-07
3.0367930499316e-06
0.00024716482234834
0.0009233622115064
0.000878107837924
0.00078660361508301
0.00071857148663009
0.00066837257100311
0.00063081553490717
0.0006023737499011
0.00058040368531969
0.00056283377881107
0.0005479654818214
0.00053442360830709
0.00052116881724506
0.0005076323915981
0.00049372985629539
0.00047976336083092
0.00046777480530457
0.00045520208428731
0.00044399957629392
0.00043440910839525
0.00042629920606223
0.00041898528572314
0.00041147119043917
0.00040264840228363
0.00039158084749747
0.00037773818673772
0.00036023665729253
0.00033827915714135
0.00031293702512909
0.0002875982031635
0.00026548790039913
0.00024745071673448
0.00023269780889066
0.00022022457134793
0.00020933396541234
0.00019962583241747
0.00018886437184896
0.00018127334746866
0.00017447906714638
0.00016850885768681
0.00016339962326506
0.00015918207482959
0.00015570357532977
0.00015289573306234
0.00015068574914817
0.00014898890272332
0.00014768174506046
0.0001467518700345
0.00014630467991364
0.00014626337198625
0.00014647548808767
0.00014693758287252
0.00014757113487734
0.00014834658247654
0.00014915735692526
0.00014995197971726
0.00015068173263832
0.00015130346420753
0.00015179436263636
0.00015215645967211
0.0001524055300202
0.00015256491827039
0.00015265438776969
0.00015268292478779
0.00015268679149225
0.00015267101608029
0.00015266303488725
0.00015269505722762
0.00015281841080455
0.00015313344354769
0.00015368044612971
0.0001541587816518
0.0010984694519556
0.00095826532263199
0.00098931303732113
0.0010341080273351
0.0010740756424643
0.0009371883971285
0.00071169416127638
0.000541496616275
0.00041986685746787
0.00033821869952609
0.00027569091577132
0.0002271889521357
0.00018857150989034
0.00015713355648767
0.00013148931011473
0.00011059789804794
9.34901113709e-05
7.9531396734578e-05
6.8240122207478e-05
5.90217577896e-05
5.1462112516475e-05
4.5321959101373e-05
4.0149527457998e-05
3.5761780151644e-05
3.2112857571267e-05
2.8998092177512e-05
2.6305457076209e-05
2.4001537945783e-05
2.0582964401531e-05
1.7681574922288e-05
1.5285240953411e-05
1.3288354082612e-05
1.1618730167425e-05
1.0212171380889e-05
9.0201490772601e-06
8.003783789034e-06
7.1336193314337e-06
6.3838108908882e-06
5.7353479407635e-06
5.1717526587448e-06
4.6799946104956e-06
4.2485398894717e-06
3.8687996391481e-06
3.5332820560557e-06
3.2357091579097e-06
2.9709882199103e-06
2.7345994542796e-06
2.5231503087142e-06
2.33317219915e-06
2.1621951756194e-06
2.0077429638103e-06
1.8679639686343e-06
1.7410795990224e-06
1.6255813188927e-06
1.5202287406943e-06
1.4239035501041e-06
1.3357181664409e-06
1.2548221080849e-06
1.1804849430565e-06
1.1120153431848e-06
1.0488355430326e-06
9.9041921678638e-07
9.362932679654e-07
8.8605299600163e-07
8.3936579020213e-07
7.9593933178691e-07
7.5549099145344e-07
3.4404801464529e-06
0.00026830105502998
0.00092545261570604
0.00087556383701321
0.00078477591664161
0.00071724883259329
0.00066734442621895
0.00062996618434097
0.00060164227603301
0.00057975564587561
0.00056224790292603
0.00054743581068576
0.00053396201213857
0.00052079820722164
0.00050737366613653
0.00049359285603052
0.00047974035168836
0.0004678368975001
0.00045532615734412
0.00044414965525054
0.00043457323795466
0.00042648973687018
0.00041926182292643
0.0004119251674934
0.0004033970195295
0.00039271602536731
0.00037930024643782
0.00036224789882694
0.00034072742500094
0.00031571399121055
0.00029049807709266
0.00026832727601655
0.00025015561205803
0.00023524951574827
0.00022260540082159
0.00021151073375508
0.00020156436512822
0.00019049690923013
0.00018259142150375
0.00017545821862907
0.00016913369930466
0.00016365272312776
0.00015907203916894
0.00015526504901982
0.00015214236483436
0.00014963288067693
0.00014765898672391
0.00014613742396333
0.00014493716151385
0.00014418887512588
0.00014385911117967
0.00014378611358806
0.00014396038064347
0.00014430831556743
0.00014479977580593
0.00014533157722971
0.00014585534788192
0.00014632404643809
0.00014669572755723
0.00014694804485865
0.00014708000624389
0.00014710631735305
0.00014705101071459
0.00014692973211955
0.00014674773057415
0.00014654506287112
0.00014632524096979
0.00014611526937891
0.00014594736222077
0.0001458590490143
0.00014592233433672
0.00014615514741429
0.00014645191646067
1.5051785093459e-05
0.00019815062847918
0.00028253007437501
0.00037914368818127
0.00046497746045829
0.00054028510936592
0.00061148413178946
0.00066155775326014
0.0005097236177191
0.00039565832494631
0.00031381807000724
0.00025437651055951
0.00020835879783121
0.00017201973947594
0.00014287805133368
0.00011919828229542
9.9802999446042e-05
8.4095978071302e-05
7.1423604916444e-05
6.1152262828063e-05
5.2871156538268e-05
4.6151855530594e-05
4.0689655364291e-05
3.6203255834708e-05
3.2290697102366e-05
2.9124876312366e-05
2.6402132896741e-05
2.4056606128716e-05
2.0827256427983e-05
1.7892947998422e-05
1.5470737960745e-05
1.3454492010851e-05
1.1762485819976e-05
1.0335030203847e-05
9.1263109615037e-06
8.0956367685927e-06
7.2113898885538e-06
6.4501182324586e-06
5.791819012717e-06
5.2194766457308e-06
4.719883259904e-06
4.2820512498505e-06
3.8969398807256e-06
3.5565994276401e-06
3.2549117783174e-06
2.9866966220926e-06
2.7474660884972e-06
2.5334392136671e-06
2.3412720665648e-06
2.1684447827449e-06
2.0124816659401e-06
1.8714511770202e-06
1.7434643998815e-06
1.6270766286319e-06
1.5210289080414e-06
1.4241690689704e-06
1.3355287051948e-06
1.2542261748385e-06
1.1795515272677e-06
1.1108263513381e-06
1.0474487787967e-06
9.8888165344524e-07
9.3466361176869e-07
8.8439760584627e-07
8.3772220457025e-07
7.9431732974609e-07
7.5389888243675e-07
9.7264007270988e-07
0.00011737238629175
0.00087839612209244
0.00089672150692837
0.00080279815001267
0.00073056208376579
0.00067719709250358
0.00063730404427553
0.00060713689492293
0.00058395044343554
0.00056558839484429
0.00055030362059256
0.0005366785802553
0.00052360960916199
0.00051040401172141
0.00049684259387482
0.00048310697711875
0.00046789582318241
0.00045545899905361
0.0004443164357165
0.00043475765280009
0.00042670624614726
0.00041957897875989
0.0004124468031829
0.00040426283241706
0.00039403710643446
0.0003811263318073
0.00036460967725561
0.00034361541734756
0.00031900742740486
0.00029395879408201
0.00027173428446749
0.00025341575306979
0.0002383401216916
0.00022550834938158
0.00021418909633296
0.00020394978564624
0.00019366063321656
0.00018517083874549
0.00017740777783806
0.00017041940575422
0.00016425097667092
0.00015896052184605
0.00015452294468483
0.00015080185387778
0.00014772537416566
0.00014521690946564
0.00014320132520425
0.00014159959895729
0.00014027179085088
0.0001394066162863
0.00013879798838257
0.00013844110936146
0.00013826073364726
0.00013822831936191
0.00013824588065936
0.0001382709535941
0.00013826018604097
0.00013817283574083
0.00013798259314198
0.00013768158278958
0.00013728737781697
0.00013682569416326
0.00013632164760351
0.00013576448192673
0.00013519584625478
0.00013462539648445
0.0001340734801154
0.00013357129811462
0.00013313978882503
0.00013279870891521
0.00013252645443437
0.00013257766024217
3.3489243192335e-06
2.2997144040099e-05
4.8889510998714e-05
7.8918448556757e-05
0.00011442069068969
0.00015590971905485
0.00019832033432757
0.00024191593709154
0.00028247109724634
0.00030950459231346
0.00031618119143391
0.0002628427741654
0.00021173244046864
0.00017248946478888
0.00014205849340037
0.00011802718481112
9.8409176618098e-05
8.2542714587013e-05
6.9818157356652e-05
5.9558269398572e-05
5.1252299623892e-05
4.4497155401086e-05
3.8974431961923e-05
3.4439154159621e-05
3.0737293849961e-05
2.7672947961774e-05
2.494870585551e-05
2.2010946868448e-05
1.8902028332391e-05
1.632994276733e-05
1.4190904237673e-05
1.239531554153e-05
1.0883765659918e-05
9.6027443355254e-06
8.5102851673366e-06
7.5717409053847e-06
6.764061745686e-06
6.0655859300621e-06
5.4587570761216e-06
4.9287517320904e-06
4.4646231946872e-06
4.0567459732293e-06
3.6967720991543e-06
3.3778446479828e-06
3.0944325337536e-06
2.8420331418503e-06
2.6164562971715e-06
2.4142191470695e-06
2.2323966483502e-06
2.0686151275124e-06
1.9207157257712e-06
1.7867711008485e-06
1.6651587897711e-06
1.5544965868234e-06
1.4536141211284e-06
1.3614616244428e-06
1.2770977650451e-06
1.1997020125918e-06
1.1285667051849e-06
1.0630763125387e-06
1.0026679443185e-06
9.4684458869225e-07
8.9516609780794e-07
8.4724994299402e-07
8.0275340048415e-07
7.6138498005397e-07
7.2288053357832e-07
6.0842761670437e-06
0.0003685300753475
0.00093311110872091
0.00086581230336824
0.00077740559436655
0.00071182517880239
0.0006631416449339
0.00062650234779065
0.00059862929091889
0.00057703100072897
0.0005597311360164
0.00054511925688969
0.00053190924669037
0.00051911152582174
0.00050615050389736
0.0004928759961675
0.00047949707187629
0.00046796568041715
0.00045571463160623
0.00044466770940386
0.00043515566348508
0.00042717795972034
0.00042028021764785
0.00041362016630202
0.00040624654484384
0.00039711779920267
0.00038543713084026
0.00037024214237252
0.00035056736014637
0.00032701866862077
0.00030247541163587
0.00028020828169852
0.00026159279998584
0.00024615879745836
0.00023292974665851
0.00022112941189554
0.00021028621449984
0.00019961748720965
0.00019018854213066
0.00018135576213203
0.00017320296158644
0.00016580775185973
0.00015923808806317
0.0001535653838368
0.00014872377507923
0.00014459719859901
0.0001410951399922
0.00013812913892202
0.00013561646716961
0.00013349039058705
0.00013170665674623
0.00013012134135132
0.00012883290994154
0.00012772937125604
0.00012678076551173
0.00012589828947872
0.00012504218165943
0.0001241709114763
0.00012325923934746
0.00012232376755963
0.00012130043580108
0.00012022860779274
0.00011914619906618
0.00011806006028429
0.00011696613883414
0.00011590210260202
0.00011487359965529
0.00011390547396853
0.00011299413684153
0.00011211976884441
0.0001113275814623
0.00011056233318652
0.00011040330625508
3.0564939864706e-06
7.7302944345024e-06
1.4898573508467e-05
2.4878737857918e-05
3.8095799349488e-05
5.4456183829564e-05
7.4229185282831e-05
9.6472670916415e-05
0.00012094407369397
0.00014591242021567
0.0001664547889702
0.00017726333283643
0.00017648960130745
0.00016439088867772
0.00014236325811801
0.00011761283889082
9.8393111812646e-05
8.2807366732027e-05
7.0166844818671e-05
5.9821606086685e-05
5.1441468922063e-05
4.4598541461578e-05
3.8997039091623e-05
3.4372254203984e-05
3.053287028879e-05
2.7329270644957e-05
2.3820342759655e-05
2.0509572647988e-05
1.7738336316743e-05
1.5408078930543e-05
1.3443528253135e-05
1.1784845266329e-05
1.0377178637623e-05
9.1790943188845e-06
8.1511223874174e-06
7.2682243218652e-06
6.5071950752204e-06
5.8476518313986e-06
5.2721221003707e-06
4.7679817677968e-06
4.3254838979032e-06
3.9352727974553e-06
3.5899290227206e-06
3.2830284661894e-06
3.0101185886836e-06
2.7664541527189e-06
2.5483454720964e-06
2.3523903256336e-06
2.176017437761e-06
2.0169730199206e-06
1.8731487259517e-06
1.7427748680176e-06
1.6242760196793e-06
1.5164337686643e-06
1.4180585404307e-06
1.3281314319054e-06
1.2457633732294e-06
1.1701722486882e-06
1.1007110144564e-06
1.0367429012305e-06
9.7772175037309e-07
9.2317286357357e-07
8.7267743063415e-07
8.2588358941002e-07
7.8245458296531e-07
7.4207955675886e-07
7.0363037536105e-07
1.015002944879e-05
0.00045841590931714
0.00093580489605989
0.00085693113621139
0.00077062336691181
0.00070676518592241
0.00065922771120735
0.00062330077773076
0.00059584199392236
0.0005744806916541
0.00055733865770666
0.00054288567687372
0.00052989941298837
0.00051742644584816
0.00050487396219586
0.00049204394446634
0.00047908501113124
0.00046790280487405
0.00045589538190233
0.00044498434773232
0.0004355366244093
0.00042763693830696
0.00042098160811816
0.00041484120415494
0.00040838907885657
0.00040055630257845
0.00039036531771521
0.00037680140598792
0.00035879442418333
0.00033666255084561
0.00031291874246807
0.0002907804678281
0.00027193222822826
0.00025617561131123
0.0002425920429133
0.00023035735932827
0.00021894393192566
0.00020795493401275
0.00019749226869032
0.00018740898558928
0.00017782019181976
0.00016885333263225
0.00016062692998389
0.00015323917795652
0.00014677684270678
0.00014118754390319
0.00013632810682661
0.00013208565927015
0.00012835707033164
0.00012504301665616
0.00012207286989865
0.00011937277271307
0.00011689900491245
0.00011461507985251
0.00011248538008543
0.00011047289380301
0.00010851985978647
0.0001066137923996
0.00010472405573941
0.00010287241675402
0.00010107454969431
9.9354174489666e-05
9.7723713426195e-05
9.6201793649778e-05
9.4846812990681e-05
9.362426408912e-05
9.2543689227199e-05
9.1686888766276e-05
9.1007643275376e-05
9.0483429878693e-05
9.0071070045194e-05
8.9588167211462e-05
8.9345621192204e-05
2.7347090574745e-06
4.880503771101e-06
6.8394419299685e-06
1.0917906548696e-05
1.6624688586096e-05