/*--------------------------------*- C++ -*----------------------------------*\
| =========                 |                                                 |
| \\      /  F ield         | OpenFOAM: The Open Source CFD Toolbox           |
|  \\    /   O peration     | Version:  2312                                  |
|   \\  /    A nd           | Website:  www.openfoam.com                      |
|    \\/     M anipulation  |                                                 |
\*---------------------------------------------------------------------------*/
FoamFile
{
    version     2.0;
    format      ascii;
    arch        "LSB;label=32;scalar=64";
    class       volScalarField;
    location    "0.00014";
    object      cSound;
}
// * * * * * * * * * * * * * * * * * * * * * * * * * * * * * * * * * * * * * //

dimensions      [0 1 -1 0 0 0 0];

internalField   nonuniform List<scalar> 
109340
(
555.9758166771
554.91271342838
552.88417804654
550.41860302888
547.6815647832
544.81382432234
541.87035981876
538.87955257999
535.87471557713
532.78725459161
529.48396508427
525.84284417228
521.72401134304
516.96689028997
511.39497398919
504.82218464005
497.05856559528
487.91939328991
477.23498518173
464.86275884227
450.69823194553
434.69033891296
416.85304139288
397.27323367726
376.11053708432
353.59123793054
329.99292557066
305.62258197638
280.78983613221
255.77865993098
230.82054089592
206.07039665897
181.58933038276
157.35047395603
133.29747770593
109.48542688598
556.13442488485
554.77003420918
552.49277678173
549.85867751963
547.03943024851
544.15836813962
541.25190084944
538.31832268665
535.31580766056
532.17593440213
528.79477732387
525.04746959011
520.78763934672
515.84926936099
510.05182649656
503.20567749945
495.12161030856
485.61724402537
474.52777641834
461.71819642278
447.095714476
430.62415595339
412.33499999731
392.33371655662
370.79792465063
347.9689279447
324.13468434097
299.6062352709
274.69008906246
249.65986139172
224.72927007251
200.02681055925
175.57201546051
151.27664180562
126.94864332985
102.64072606786
556.72596191802
555.14867414624
552.64349161679
549.94758785269
547.15237017863
544.31256455651
541.42178782643
538.47998056372
535.46746572973
532.31896485437
528.93361786552
525.18569334692
520.92763964294
515.9926774078
510.19997259664
503.36055184208
495.28444717087
485.78901477563
474.70870819653
461.90784259611
447.29233731554
430.825026244
412.53660436982
392.53183556911
370.98811605385
348.1468068278
324.29643613524
299.74907842237
274.81259371627
249.76154957479
224.80961577559
200.08113774536
175.57254600079
151.1266994363
126.38675026127
100.95905646297
557.54810698682
555.65016275717
553.02113150123
550.25124795409
547.40354857557
544.50564529957
541.56715783843
538.59213867378
535.55714653329
532.39588674231
529.0076990504
525.26558633188
521.02013314524
516.10287107276
510.3309175301
503.51308231811
495.45746212244
485.97935224129
474.91044246948
462.1132085555
447.4898686335
431.00134145857
412.67697248139
392.62090678399
371.01193057933
348.09362478451
324.15826360885
299.52267812505
274.49999728892
249.36961408679
224.3486538369
199.56181876855
174.97927758915
150.35985663437
125.0868576616
97.911700005321
558.84173198096
556.38045855361
553.37096377633
550.41351536433
547.48903306024
544.56304592129
541.61566705289
538.64423357218
535.61890397668
532.47067002959
529.10011717509
525.37932242717
521.15583591932
516.25671884923
510.49292674707
503.66529798607
495.57270560211
486.02039441503
474.82097701889
461.83283296883
446.94386672621
430.11030299843
411.36246783902
390.81153920826
368.65363334082
345.15590613728
320.64072494987
295.45836844046
269.95554244946
244.4421367833
219.15747165474
194.25557931461
169.69030416944
145.16263802767
119.78071020412
90.869492298807
561.2455944585
556.76854071702
553.45484352495
550.43593597667
547.50782357414
544.58784756999
541.64762918119
538.67154887065
535.61222827903
532.37248084266
528.815034301
524.76409192737
520.01080058287
514.31945771477
507.43626236457
499.10173111525
489.06741387918
477.12273071299
463.12963455859
446.91865044256
428.47280751726
407.87969412696
385.34368067594
361.18206614281
335.8044214405
309.67692607462
283.28026664525
257.0662247311
231.42009758321
206.63244152903
182.87403211
160.2364312075
138.57143339938
117.53120618533
96.192831443899
70.959503981642
86.944661305972
68.051865291443
54.114651104942
44.678127430638
38.463454042944
34.286120947202
31.488725098248
29.669942798309
28.592495212097
28.098794417358
28.032763605643
28.397788005837
29.012487427105
29.809374690421
30.724038545452
31.692547240628
32.673161223818
33.63604894285
34.562372279293
35.443077972895
36.272934318626
37.049306762362
37.773722531865
38.448876651379
39.077339794311
39.662653695497
40.209967760857
40.71953278045
41.195681782149
41.643410292584
42.061672474908
42.45694415753
42.827209119187
43.178301637474
43.508548250433
43.822526164883
44.119023294704
44.401716343813
44.669517110374
44.925636684075
45.168908828929
45.402205742058
45.624426761277
45.837965947819
46.042034919393
46.238308513528
46.426650599072
46.607743189705
46.782187241389
46.95001940272
47.111991332201
47.268236341867
47.419189907411
47.565094469991
47.706242228411
47.842875702165
47.975236815317
48.103542092183
48.227997306369
48.348789070196
48.466093483899
48.58007459444
48.69088878842
48.798682428284
48.903593843637
49.0057487378
49.105268451694
49.20209923099
49.517902750755
50.492997437714
50.940980325372
51.314938587887
51.665711901837
51.992689260156
52.294598033162
52.571764405921
52.826110782682
53.060925035027
53.280519731053
53.489863869282
53.694267621761
53.899148553533
54.110503476041
54.335605184544
54.616663424589
54.902233562504
55.234453836448
55.622052896251
56.061401404286
56.528681632585
56.979091113023
57.36308617577
57.65187712403
57.84310109668
57.954437709295
58.011330638528
58.036598934583
58.046166981005
58.049272473856
58.050320582482
58.050888155997
58.051330247625
58.05160238109
58.051581296423
58.050878847716
58.049724898169
58.048193440456
58.046102597553
58.043361411307
58.03997877557
58.035985829965
58.031435758611
58.026417122607
58.021032238779
58.015407019516
58.009732545861
58.004124254298
57.998747022503
57.993565221777
57.988821112362
57.984519218817
57.98075567033
57.977556503787
57.974860000928
57.972689471924
57.97114686285
57.970193109421
57.969807620496
57.969977111859
57.970696942589
57.971976771093
57.9738520585
57.97645868703
57.980073521809
57.985265833294
57.992896750429
58.002930891285
58.010200466904
57.99335911408
57.885433855416
79.515726721816
61.201008353803
48.752284562209
40.846999047262
35.768866965043
32.389297574274
30.20797281904
28.875502379102
28.177854520845
27.962232608531
28.123892558854
28.571665463101
29.271297481894
30.106463799567
31.026616377895
31.989526502839
32.955648980098
33.901113331289
34.809778701182
35.672073545565
36.483651847151
37.24359548501
37.952875344097
38.613854540917
39.229642504627
39.803767012372
40.339476595554
40.840179301106
41.308638904502
41.747856445779
42.160277984908
42.548270557952
42.913936730678
43.259081274857
43.585521076599
43.894652132105
44.187987401948
44.466641154185
44.731847487153
44.984516557384
45.225650608011
45.456016675547
45.676399887377
45.887473745495
46.089848180414
46.284120388451
46.470762350464
46.65030778081
46.823131878916
46.989692484184
47.150304024879
47.305344236317
47.455107472003
47.599898920582
47.739986577228
47.875618116488
48.007026512431
48.134425992939
48.25801560085
48.377980528319
48.494495024988
48.607721868111
48.717813837465
48.824914396336
48.929156364414
49.030665644774
49.129563271766
49.225747971269
49.829547091209
50.627407288895
51.039346900836
51.406760988693
51.751500557533
52.072026198473
52.367436867244
52.638470436657
52.887410346635
53.117832694037
53.334241467432
53.541704691431
53.745555174317
53.951261548214
54.165040402011
54.394623916496
54.616060860956
54.901287422243
55.233068707263
55.620182764022
56.059096539753
56.526126772978
56.976595385503
57.360913976922
57.650175604481
57.841882924347
57.95361792955
58.010783906034
58.036206613877
58.045842919051
58.048965188935
58.050010333351
58.050575082693
58.051022905854
58.051311266809
58.05131291177
58.050652415531
58.049532375219
58.048021869522
58.045958216468
58.043233979074
58.039855996563
58.03585407792
58.031281889193
58.026229685103
58.020801389597
58.015127689774
58.009404110917
58.00375078702
57.998339922458
57.993147257846
57.988408524402
57.984142572668
57.980444313915
57.977335290458
57.974742760273
57.972768340148
57.971453430858
57.97076795962
57.970693190597
57.97121692614
57.972335243512
57.974058608219
57.976421652631
57.979559148537
57.983745677322
57.989549139667
57.997853725202
58.008734119293
58.017237762933
58.002461405073
57.897501691879
75.628051169929
56.194879966965
44.644835581153
37.467624548332
33.271950361929
30.67531415488
29.084786464186
28.206170760152
27.84545944955
27.842702647665
28.194439412535
28.746827272225
29.466979942973
30.305394359726
31.21293020486
32.152930023166
33.095831268278
34.01984657814
34.909195333842
35.754643379621
36.552386833391
37.301120982261
38.001171677603
38.654664247286
39.26452401791
39.833668175734
40.365059449184
40.862068671574
41.327580201239
41.764122066691
42.174356127047
42.560406667233
42.924426217976
43.26816513205
43.593357780506
43.901452310456
44.193846779732
44.47171896751
44.736207828785
44.988281525653
45.228887365524
45.458794595898
45.678799648154
45.889518363922
46.091628145564
46.28562290044
46.472076174684
46.651410014722
46.824091448484
46.990495597227
47.151000975449
47.305941379142
47.455622274768
47.600341147773
47.740363336991
47.875942980026
48.007307390915
48.134670187437
48.258228621588
48.378168168041
48.494662494406
48.60787401854
48.717954450959
48.825045964428
48.92928244784
49.030785749013
49.129675840317
49.225804346909
49.842262737617
50.632063176606
51.04296107138
51.409996088942
51.75430222817
52.074424031633
52.369482271995
52.640206071728
52.88887265637
53.11905429373
53.335245975085
53.542496002687
53.746110110105
53.951523722108
54.16491366773
54.393965369837
54.614932802274
54.89939107511
55.230217143981
55.616286170383
56.054257189743
56.520735585101
56.97131782885
57.356329783738
57.646610126287
57.839364919189
57.951960724265
58.009711267527
58.035456413092
58.045226074113
58.048369427005
58.049393843247
58.049939196251
58.050388348931
58.050703769836
58.05074852575
58.050172725423
58.049123299821
58.047656263688
58.045649193194
58.042960872327
58.039592588593
58.035570779855
58.03095025476
58.025824593467
58.020300991603
58.014521455389
58.008693417043
58.002938365787
57.997458142071
57.992241584294
57.987517922053
57.983333352703
57.979785149504
57.976847864068
57.974555573231
57.973019796786
57.972229321156
57.97216438274
57.972809615294
57.974155872939
57.976200462915
57.978955320256
57.982455389091
57.986833672522
57.992361155033
57.999605256334
58.009494562531
58.022337440096
58.033657468223
58.023577569673
57.925336145752
68.491069222346
48.234674351562
38.439795297934
33.088247594962
30.181294291232
28.650610195716
27.851544386879
27.551027100938
27.582450763876
27.851562153674
28.371959860568
29.003829526509
29.744301469759
30.572434645434
31.453453216059
32.36481665168
33.278710527516
34.174483880374
35.03938397893
35.864734955232
36.6451810892
37.378958104769
38.06724996673
38.711156473264
39.312878550506
39.875357980353
40.401495264779
40.893881891757
41.355422044884
41.78870183982
42.196049496306
42.579670191634
42.941521877092
43.283437658987
43.606975040821
43.913672797647
44.204782477071
44.481553038072
44.745021063626
44.996223226693
45.236003118934
45.465214106194
45.684558432505
45.894720619313
46.096296641509
46.289838633546
46.475869042908
46.654829253808
46.827174665343
46.993270949952
47.153508927139
47.308202182397
47.457673655283
47.602198577676
47.742048442217
47.87747242797
48.008697051785
48.135934705039
48.259381271742
48.379221240714
48.495626439458
48.608758474975
48.718768380937
48.825797734047
48.929978559979
49.03143310628
49.130275375557
49.226288053467
49.861216200621
50.638879041377
51.048251403999
51.414676902826
51.758350581579
52.077890763683
52.372436905863
52.642709891083
52.890980436892
53.120815472726
53.336695321263
53.543639609705
53.746914720416
53.95190864542
54.164741536638
54.393035324278
54.613263645098
54.896552673518
55.225935965108
55.610416881852
56.046949538114
56.512570684503
56.963303817204
57.349350902514
57.641170313415
57.835518033064
57.949429622097
58.008077785839
58.034322808038
58.044298768194
58.047476207019
58.048467434587
58.048979763477
58.049425931842
58.049776003309
58.049888824015
58.049434569295
58.048493485171
58.047095563473
58.045173586927
58.04254292181
58.03919327369
58.035145354007
58.03045610029
58.025222839687
58.019556859924
58.013619635418
58.007636802236
58.001746667699
57.99616445404
57.990918654308
57.986243820131
57.982208259716
57.978884232811
57.976259792895
57.97453506056
57.973720576565
57.973809154818
57.974784869416
57.976637110638
57.979360968113
57.982958279055
57.987446905496
57.992862420767
57.999339971274
58.007148266545
58.016852133913
58.02944368887
58.045560840407
58.06149738757
58.058869424169
57.971855637672
53.630268666842
36.701893467751
30.655456457329
28.258119570855
27.274934490949
26.939585791314
26.983692051263
27.21760661932
27.608642905357
28.113579049481
28.697659624329
29.362177485468
30.103675483168
30.90887759753
31.757650366474
32.628316505753
33.503475692824
34.365483556564
35.200620941713
36.000193774678
36.759462672553
37.476290590668
38.149683009201
38.781448314361
39.373420263033
39.927776118161
40.44697898677
40.933765845719
41.390511142979
41.81971479693
42.22358719235
42.604245440063
42.963533560856
43.303209153545
43.624830496553
43.929815029055
44.219430515698
44.494864240755
44.757158966936
45.007290475018
45.24612346613
45.47447485642
45.693041459251
45.902502406421
46.103432312545
46.29640052973
46.48188770207
46.660369272655
46.832259767761
46.997953687939
47.157812941109
47.312163176651
47.461322287367
47.605563710137
47.745156216123
47.880339494238
48.01134410091
48.138379860389
48.261642256197
48.381313462712
48.497564156232
48.610555189529
48.720436916152
48.827349657172
48.93142400333
49.032781618314
49.13153440034
49.227627868137
49.886017127073
50.647806348538
51.055194188594
51.420785982114
51.763638825688
52.082423028833
52.376295528615
52.645974476189
52.893726285067
53.123110346377
53.33858628336
53.545135121589
53.747971512663
53.952422057101
54.16453471294
54.391850584409
54.611077454441
54.892812927023
55.220274746618
55.602629089765
56.037224971134
56.501667243908
56.95256256949
57.339963940769
57.633828660093
57.830309699737
57.945995244113
58.005863405964
58.032796128816
58.043061933778
58.046292647581
58.047239985663
58.04770349727
58.04813829477
58.048527295479
58.048723616973
58.048423659951
58.047629958644
58.046331586837
58.044520946237
58.041973906403
58.038657832803
58.034584433283
58.029812554616
58.024442411447
58.018592410759
58.012451885235
58.006270523111
58.000211480373
57.994513737634
57.989255762353
57.984679397191
57.980871961135
57.977831084246
57.975834519156
57.974970446929
57.975255810411
57.976687863546
57.979253413859
57.982948253961
57.987775758712
57.993748444648
58.000897530476
58.009262084181
58.018992479927
58.030360086189
58.043925732898
58.060755605727
58.081875457658
58.104591169661
58.112446468137
58.040845249914
26.704006171109
24.533124117785
24.764893448394
25.320756466579
25.834767971297
26.370302873268
26.876789880558
27.410502678502
27.948725010324
28.530174337949
29.148111420751
29.818838270002
30.54027570973
31.308374411592
32.113274366832
32.938670059069
33.769376267019
34.590719568278
35.390931231358
36.161090067224
36.895578280255
37.591536682918
38.248299173235
38.865811006337
39.445883900814
39.990436850444
40.501610948259
40.981494254523
41.432477842364
41.856827386131
42.256606875736
42.633690031581
42.989961514251
43.327011931533
43.646341156526
43.949307900786
44.237178734289
44.511051450555
44.771970583222
45.020871011065
45.258619493942
45.485976898349
45.703661734084
45.912313235701
46.11251814001
46.304815319031
46.489693122739
46.667617669913
46.838992785599
47.004216162884
47.163633361097
47.317584008441
47.466369358272
47.610270566515
47.749546902182
47.884437057199
48.015169512565
48.141951080885
48.26497703736
48.384428521521
48.500476472698
48.613280221291
48.722988242799
48.829739392828
48.933663893789
49.034884767882
49.133512219
49.229769368093
49.91622188362
50.658766961905
51.063745551996
51.428304491252
51.770164381685
52.088020476017
52.381054498152
52.649993150661
52.897103163522
53.125933755261
53.340916625567
53.546983499576
53.749284622331
53.953072160041
54.164307372225
54.390432263555
54.608402814815
54.888213215727
55.213284745029
55.592978024483
56.025130744004
56.488054715807
56.939094581074
57.328146686706
57.624550550879
57.823704454474
57.941630017313
58.003052329038
58.030872442956
58.041520662841
58.044828853577
58.045721564824
58.046116681983
58.046525920115
58.046951873275
58.047242059086
58.047118611736
58.046510384312
58.045351973633
58.043673948302
58.041242412683
58.037982396686
58.033893022799
58.029033243987
58.023504863458
58.017436082455
58.011052611728
58.004638156618
57.998390987082
57.992582770369
57.987352084835
57.982947738201
57.979378644022
57.97693656255
57.975882748801
57.976288985141
57.978193076336
57.981600247502
57.986499959332
57.992898821064
58.000815843999
58.01028609741
58.021368765695
58.034111541474
58.048704544344
58.065434464427
58.084865832723
58.108161991171
58.136732583714
58.169100251863
58.191050019991
58.139007646179
26.00936536371
22.922768898318
24.120498835096
25.118179665498
25.946086812036
26.645338756746
27.248225529562
27.817631408888
28.38118185617
28.954022716934
29.555389789164
30.191181952427
30.86438192024
31.57605739934
32.322003099203
33.092153513942
33.87326936524
34.653305699215
35.419800966299
36.163620935803
36.878274336812
37.559722416172
38.205839936261
38.816493826713
39.391833946384
39.933163907893
40.442586302675
40.921874497432
41.372913178811
41.797724401682
42.198418761741
42.57674807906
42.934375243744
43.272876738349
43.593756921308
43.898299511305
44.187708535665
44.463124285901
44.725565219215
44.975939670656
45.215101856901
45.443830941258
45.662838908932
45.872752994169
46.074166555766
46.267620503553
46.453610073138
46.632590125679
46.804975081157
46.971162084917
47.131502663334
47.28633481973
47.435958324234
47.580662672209
47.720710233997
47.85634122643
47.987780034092
48.115235269085
48.238907500318
48.358980283146
48.475625658192
48.589003679627
48.699264683746
48.806549795559
48.910992927135
49.012716648851
49.111836560489
49.208422561466
49.634688502095
50.549275194749
50.978920283364
51.348479187325
51.694942983366
52.017807638386
52.316009438408
52.58989648526
52.841378719437
53.073711572515
53.29111473601
53.498370853539
53.70052551151
53.902689181374
54.110486615718
54.330768868905
54.60527228231
54.882798575615
55.205024333086
55.581529271716
56.01072560191
56.471777015952
56.922897458693
57.313867202185
57.613286926993
57.815650523298
57.936290738357
57.999616348729
58.028539967433
58.039677128141
58.04309570341
58.043925426313
58.044229715589
58.044593027259
58.045047677701
58.045449948894
58.044630361143
58.04435656593
58.043509606319
58.04204513291
58.039851754804
58.036725500469
58.032644106546
58.0276558861
58.021865070735
58.01541767487
58.008614127906
58.001803593631
57.995256774578
57.989320510953
57.984223546134
57.980086458464
57.977231063241
57.97624425594
57.97728846789
57.980509744707
57.985994766794
57.993767484635
58.003822731571
58.016193565137
58.030948614917
58.048189589541
58.068053024606
58.090612183182
58.11618962647
58.145144937852
58.178078640296
58.216375481157
58.261932531126
58.315334115843
58.365953935535
58.350271694011
34.291102108323
28.756033413876
28.463120027376
28.486998025504
28.659977574924
28.919030893931
29.255241822579
29.663651870548
30.081975531768
30.544557208628
31.049720168663
31.58755357966
32.159704734837
32.766450743554
33.404466519082
34.067222442424
34.745027889782
35.42786936075
36.106638608579
36.771951498048
37.417109104054
38.037706244466
38.630980111413
39.195551078343
39.731237967893
40.238511332245
40.718230129086
41.171453619844
41.599901258877
42.005068066024
42.388463152634
42.751440383695
43.095507937103
43.422020967594
43.732192209268
44.027129443431
44.307955681838
44.575656592289
44.831132116473
45.075201456244
45.308640898648
45.532160224054
45.746395207736
45.951935112554
46.149325301885
46.339075019787
46.521638055659
46.697442198941
46.866883539713
47.030333826681
47.188130807514
47.340583856032
47.487985597013
47.630606846227
47.768700146235
47.902495867682
48.032207194758
48.15803488337
48.280168417423
48.398786976524
48.514056248649
48.626131289074
48.735156642638
48.841267746559
48.944590227552
49.045247745006
49.14334594794
49.241058878491
50.035355688829
50.703102906653
51.098785959599
51.459332491575
51.797231164218
52.111236116053
52.400720916107
52.666534039869
52.910978798058
53.137554152127
53.35055280556
53.554688077185
53.754842809293
53.955975182179
54.163697719179
54.38505333573
54.597805841777
54.869746396886
55.184976374408
55.553558295685
55.975273363828
56.431404726931
56.882311071062
57.277771486733
57.584565838246
57.794943100273
57.922476600833
57.990727480208
58.022584562256
58.035086972641
58.038868404583
58.039563580501
58.039610139054
58.039790656613
58.040222575689
58.040793252643
58.040022729707
58.040276965279
58.040010469747
58.039007608787
58.037220575775
58.034452488967
58.030535063195
58.025473625204
58.019366574959
58.012387578816
58.004976175526
57.997631592176
57.990779644909
57.984874185074
57.979992598181
57.976891305403
57.976470987669
57.979211927023
57.985547634251
57.995821903624
58.010267853389
58.028975542064
58.051964987687
58.079402123774
58.111579588952
58.148830076587
58.191555509245
58.239977943987
58.294938174755
58.357117665661
58.427559722522
58.508368017971
58.601534171545
58.708968861864
58.823961885647
58.870273345005
37.744891559945
32.601139387379
31.922868779395
31.617042100733
31.471271868311
31.424748271739
31.483294358881
31.629660049879
31.85991099298
32.163946220795
32.506400084891
32.901304724804
33.349661354527
33.838467938609
34.360652501063
34.912559326398
35.48652138161
36.073909158777
36.666255754919
37.255974273463
37.835960722592
38.400550550404
38.945925639999
39.469647984166
39.97044135662
40.447939194936
40.902204621187
41.333844064979
41.743773696441
42.132956044947
42.502517999724
42.853653075129
43.187429529697
43.50496328985
43.807219526624
44.095242071764
44.369977887898
44.632287024958
44.882962659784
45.122764014365
45.352417605661
45.572544135935
45.783736168402
45.98653167924
46.18146290075
46.3689845813
46.549534035783
46.723504753201
46.891278491965
47.053209885807
47.209616154731
47.360795017651
47.507020823861
47.648559321238
47.785650301092
47.918517458666
48.047369692981
48.172401499666
48.293798702814
48.411731011223
48.526359158063
48.637834351947
48.746298161483
48.851884576879
48.954717778076
49.054914986585
49.152583794715
49.254495995621
50.130359556538
50.741612057625
51.130219411798
51.487256344472
51.821596494262
52.132091777334
52.418328327912
52.681302649769
52.923367484985
53.147967461999
53.359252230621
53.561727749421
53.760041612028
53.958897480821
54.163612418908
54.380890861009
54.589061891719
54.854176408636
55.16079321473
55.519470750329
55.931578827555
56.381004321583
56.830853934422
57.23135743742
57.547115826902
57.767573332697
57.904013902816
57.978814332693
58.014729057042
58.029256374239
58.033692428301
58.0342968077
58.033989031256
58.033833722519
58.034081379037
58.034682815994
58.033839619907
58.034622044728
58.035032715132
58.03476529228
58.033551418174
58.031325172203
58.027836518984
58.022936461328
58.016681047608
58.00926195467
58.001303614957
57.993535182361
57.986549245878
57.980642959334
57.976672085805
57.97626645554
57.980427982391
57.990203434528
58.006544879607
58.030265434599
58.061968981598
58.101954629709
58.150347338307
58.207691037765
58.274797975506
58.352521494963
58.44198001085
58.5440270789
58.660782272153
58.793752355321
58.945612597987
59.119963118027
59.318238572446
59.539856714163
59.770810003881
59.886467863753
40.269793952592
35.1907835301
34.397457340397
33.999207925434
33.743502427784
33.583719215262
33.494278677456
33.497537657511
33.581244700865
33.725651823888
33.953489484799
34.22402662861
34.538335330178
34.910873926027
35.327084340329
35.776726334675
36.254058517567
36.752339687918
37.262862630554
37.778234467587
38.29220320415
38.799435758956
39.295027071907
39.775838912563
40.239729853469
40.685388319935
41.112268845694
41.520323537677
41.909826408088
42.28129249218
42.635458853959
42.973155034951
43.295163523623
43.602334472702
43.895552378594
44.175619656432
44.443328853311
44.699371278028
44.944479851043
45.179336594407
45.404545419107
45.620684505697
45.828260745078
46.027814662844
46.219806277824
46.404667655553
46.582792180148
46.754560584613
46.920339618889
47.08044371239
47.23517993853
47.384824096428
47.529646063013
47.669893755996
47.805792746727
47.937557556777
48.065387066138
48.189475361671
48.309998528403
48.42712043362
48.540995154403
48.651766652273
48.759573932767
48.86454841176
48.966809001431
49.066467095319
49.163630476071
49.275011680174
50.229936533984
50.786541538447
51.168015982105
51.520908873114
51.850958243629
52.157214930469
52.439538921513
52.699114351414
52.938356120707
53.160635929982
53.369921039187
53.570467545723
53.766640607137
53.962856986736
54.16409948724
54.376690159387
54.579511533117
54.83672051902
55.133284115008
55.480208501088
55.880569922989
56.321242414493
56.76872017913
57.174318997597
57.50029863878
57.732770164233
57.880181833306
57.963320779204
58.00462835548
58.022046462461
58.027594558954
58.028263728339
58.027550213906
58.026898349217
58.026753812988
58.027170539075
58.026032658028
58.027205744016
58.028259343935
58.028835980972
58.028555501451
58.027078541296
58.024292214696
58.019948039125
58.013911523012
58.006345413709
57.998067870469
57.990069772597
57.982970347788
57.977438507432
57.975915392476
57.980314033844
57.992703461851
58.015224251869
58.049895934223
58.098557487747
58.162789763178
58.243495364009
58.341066628516
58.456793884848
58.592323656493
58.749856353376
58.932040890366
59.142029461048
59.384227421311
59.662381221661
59.983094052967
60.352308817469
60.767750417875
61.216035102033
61.641333247541
61.837100423524
42.510410220839
37.104959167223
36.265708332693
35.830901084385
35.540842848225
35.332450198062
35.18837320869
35.111145305486
35.103745096628
35.158403295074
35.270525752212
35.458266899155
35.685985392696
35.952639121744
36.268429318703
36.629479679862
37.021793803725
37.438252271874
37.873511820508
38.32024944835
38.771800241311
39.222717853334
39.668817469488
40.1061155582
40.532070461055
40.944828921071
41.343147975675
41.726368982425
42.094239512289
42.446845265156
42.78450333476
43.107673579592
43.416932034594
43.712889239172
43.996140414748
44.267330693692
44.527143904921
44.776200815369
45.015077374032
45.244355913001
45.464531718124
45.676139130439
45.879669657268
46.075550509045
46.264214434144
46.446031186479
46.621390200614
46.790648887598
46.954119758474
47.112113305938
47.26490067951
47.412761952304
47.555947871946
47.694684927293
47.829190283099
47.959662817093
48.08630429906
48.209292414612
48.328793742539
48.44496686205
48.55795894271
48.6679109369
48.774955611169
48.879215117808
48.980802074554
49.079826861245
49.176349719906
49.320209082853
50.332670608553
50.837420390524
51.211935333346
51.560068770232
51.885159631865
52.186523619528
52.464352009971
52.720044301601
52.956079042487
53.175733448637
53.382759727313
53.581125013665
53.774876353104
53.968124506837
54.165490117357
54.372879673303
54.56969643924
54.818104187049
55.10338668256
55.436890611637
55.823404018692
56.253050006181
56.696298854283
57.106441470122
57.443432660056
57.689629141989
57.850072260408
57.943487686643
57.991746272612
58.01315884635
58.020492597719
58.021542178939
58.020474957236
58.01920931093
58.018463341549
58.018437209505
58.016737651764
58.018007264302
58.019519408642
58.020869836718
58.021630055737
58.021337374556
58.019572756251
58.016142191017
58.010906128644
58.003747222341
57.995567481765
57.987586077507
57.980381381699
57.97646412651
57.978925009279
57.991232223674
58.017446958365
58.06183685469
58.128594284376
58.221491000845
58.343913088945
58.498363763792
58.686163390507
58.910122632389
59.174226141984
59.483276250719
59.842281160492
60.2588280727
60.740645128826
61.298071774451
61.945591276602
62.685279665852
63.493113983441
64.315398021204
64.994412423136
65.287346912638
44.849132804908
38.597618230519
37.752021542785
37.291612596996
36.990418790955
36.764315551136
36.600304481228
36.48277225844
36.422428275676
36.421488917406
36.465582301734
36.569249276301
36.736444952141
36.941438991831
37.1711022693
37.448516424441
37.767664092748
38.115444905143
38.484049631441
38.867461469588
39.26118758802
39.659832036788
40.058359357153
40.453455621374
40.84189373957
41.221453729168
41.590545868817
41.948178995935
42.293677115344
42.626661042556
42.947050528394
43.25498758592
43.550764799573
43.834761918476
44.107407468515
44.369173894731
44.620561009884
44.86203222434
45.094086603906
45.317232010962
45.531906903377
45.738549342783
45.937590343673
46.129382535107
46.314316076485
46.492772624562
46.665070241378
46.831532508829
46.992437054198
47.148060834133
47.298689531986
47.444560120997
47.585907935638
47.722944009594
47.85586568133
47.984882196227
48.110170686685
48.231904164655
48.350239398952
48.465323563505
48.577305888503
48.686316618068
48.792479508021
48.895910304115
48.996721559136
49.095016702642
49.190835103214
49.413051431383
50.433043604587
50.894216784625
51.261851589955
51.604534776765
51.92400952693
52.219899943369
52.492746421557