/*--------------------------------*- C++ -*----------------------------------*\
| =========                 |                                                 |
| \\      /  F ield         | OpenFOAM: The Open Source CFD Toolbox           |
|  \\    /   O peration     | Version:  2312                                  |
|   \\  /    A nd           | Website:  www.openfoam.com                      |
|    \\/     M anipulation  |                                                 |
\*---------------------------------------------------------------------------*/
FoamFile
{
    version     2.0;
    format      ascii;
    arch        "LSB;label=32;scalar=64";
    class       volScalarField;
    location    "0.00014";
    object      dydt;
}
// * * * * * * * * * * * * * * * * * * * * * * * * * * * * * * * * * * * * * //

dimensions      [0 0 -1 0 0 0 0];

internalField   nonuniform List<scalar> 
109340
(
0
0
0
0
0
0
7.017424030753e-08
0.0014257447641663
0.0090680888211496
0.026792757435468
0.058168754449275
0.10655011556488
0.1751982998384
0.26749950653588
0.3871851475125
0.53857841145827
0.72699646990684
0.95918857162951
1.2439280166309
1.5926833725216
2.0206583011703
2.5477424243963
3.2000186737867
4.0118842734477
5.0294455063404
6.3152661778351
7.9560509934263
10.075011676726
12.852970800024
16.566001852274
21.656151951274
28.873230237921
39.575094704059
56.387308325167
84.698467902318
136.1895503241
0
0
0
0
0
0
2.4569148767847e-05
0.0022511685232063
0.011458307439169
0.03159153976406
0.066183092579234
0.11856151852493
0.19201241706357
0.28999314085333
0.4163661904737
0.5757231859438
0.77365936364718
1.0173601528008
1.3162133784803
1.682547674981
2.1326308520332
2.6877429697279
3.3758083024007
4.2337569112511
5.3112223987575
6.675891769476
8.4220718559509
10.684774374279
13.66401986047
17.668771260345
23.201300006696
31.131291133159
43.083855103608
62.337307673882
96.257471507126
161.53350554092
0
0
0
0
0
0
1.1279491802227e-05
0.0019853709042756
0.010774404931376
0.030450629919711
0.064606196991452
0.11661639353854
0.18980951661599
0.28767177856516
0.41406698161884
0.57351896368147
0.77159031967349
1.015401581774
1.3142990530208
1.6805648785315
2.1304704908454
2.6852588281776
3.3728086716724
4.2300116696591
5.3064475197465
6.6697725560393
8.4142344606406
10.674761824382
13.65127677592
17.652906968233
23.183119850836
31.118874427316
43.131722145839
62.727923385023
98.327414451418
172.60158838614
0
0
0
0
0
0
4.4452937852518e-06
0.0018079723946449
0.010379901721342
0.0298958382156
0.06396525296574
0.11594013303235
0.18911393660792
0.28692965349821
0.41321933532772
0.57248899610629
0.77027505640726
1.0136780856432
1.3120821706379
1.6777486389852
2.1271243305795
2.6814937784216
3.3688158299335
4.2261611108509
5.3032445927994
6.6680682970263
8.4153341294919
10.680658462481
13.665085869787
17.679967826221
23.233456404618
31.214950544187
43.364644645172
63.501553925253
101.73538718036
192.4412976611
0
0
0
0
0
0
2.576502509094e-06
0.0017059773417198
0.010054618010344
0.029257604581677
0.062950302183459
0.11450301110434
0.18722919325408
0.28459429627305
0.41045617957718
0.56934966203367
0.76682656204123
1.0099937429392
1.3089145996003
1.6757136205729
2.1278278942048
2.6872523215626
3.3830721389642
4.2541665893787
5.3524769791845
6.7494862449897
8.5447866481549
10.881148581539
13.97041251128
18.14111100267
23.933085781342
32.278492665118
45.072971048462
66.622107790854
109.57899117902
231.69822798778
0
0
0
0
0
0
7.5697952665266e-05
0.0032353840293577
0.014924724922027
0.039550956781847
0.080970291731997
0.14281840834334
0.22878523840143
0.34291713000603
0.48996918766002
0.67581590563729
0.90791775394196
1.1954522691523
1.549148526034
1.9916126882393
2.5451948033737
3.2405825654613
4.1186051255546
5.2334304554093
6.6576877080943
8.490149674377
10.867781393554
13.985498383639
18.130489835852
23.745612798591
31.564386810045
42.800317263588
60.021885613799
89.067202490533
147.98849168441
347.02072704395
231.64384617443
388.20926022882
601.78695545065
853.59738090908
1132.3569326911
1451.1952310024
1815.5754521229
2231.1510864585
2694.1061797596
3190.952904625
3732.1295596264
4206.2302290716
4640.5434053087
5009.102934178
5283.7495219238
5473.1332072218
5581.2465649588
5620.4329099082
5605.7395949425
5545.9375700272
5451.9149929807
5336.9415815541
5207.7553124651
5069.0847268244
4927.1367867735
4785.3764146204
4639.9509386146
4500.4482438956
4368.5138352344
4233.2027197848
4110.6655095116
3985.8400558239
3872.4625382325
3759.2402666953
3654.8384226805
3552.2555813016
3456.747566462
3363.4499206367
3276.4980178305
3191.3504050091
3112.1914954603
3034.3670151381
2962.1115571222
2890.8942793661
2824.6850633774
2759.5316101838
2698.5023129762
2638.9293121431
2582.2524579125
2527.865831511
2475.4867608514
2425.3271753567
2377.0027530083
2330.511054639
2285.7374302654
2242.6062818284
2201.02974992
2160.9313907502
2122.2334344211
2084.8665687999
2048.7657233059
2013.8710043479
1980.1247184498
1947.4706592629
1915.8597728436
1885.2453938164
1855.580261849
1826.6588030116
1884.1725417683
1499.9859663113
1314.0876363522
1225.5460370483
1148.2769990808
1078.184680865
1014.6338476341
956.99003194452
904.53935377318
856.5470967958
812.28235191121
771.01910747686
732.02853243165
694.52205053405
657.56517377062
620.08321914183
576.12553922421
534.78769786802
491.24580162424
446.36342085118
401.65618798998
358.86151062455
319.47777029947
284.83943239039
256.15892611078
234.28622103964
219.05251399469
209.41066077538
203.89198511655
201.04086905998
199.65950743952
198.93303764711
198.42734446031
197.9623358457
197.48367334968
196.97633366379
196.32933898866
195.79756748772
195.2648461828
194.74018278169
194.22910289904
193.73492579504
193.25882137581
192.7990760749
192.35129222382
191.90622486711
191.44908807059
190.9637084072
190.43562927589
189.83326095818
189.2199738118
188.53664399874
187.80690414773
187.01761849689
186.17964298668
185.29690601337
184.37244331338
183.41109067839
182.41536281721
181.38473550113
180.31828830393
179.21476656652
178.07219440681
176.89396505927
175.6860902784
174.47921905538
173.3291610826
172.31455397321
171.34133862665
169.42234086607
163.1077926763
141.36540295671
291.64836860645
497.75041927178
755.80240010867
1037.8610468978
1345.9770013896
1702.4758822787
2099.5898001977
2535.8789285685
3002.2247659095
3488.3810801526
3975.6510409013
4446.557351807
4821.7622046324
5134.2644355021
5371.004189861
5524.2975212707
5605.7384787417
5624.1210594605
5591.0539563213
5518.8996120641
5418.346893751
5297.89885834
5165.0661241919
5025.4683827452
4882.6847394114
4739.5295075996
4598.3959330506
4459.9810474837
4325.8666908333
4196.3607113766
4071.6965815877
3952.2410243185
3837.6683756735
3728.4167894755
3623.8028500242
3524.1823092083
3428.8735382692
3338.1044660423
3251.2632705762
3168.5036027515
3089.2771518186
3013.6792929438
2941.2815183871
2872.0909771614
2805.8037654733
2742.3276697498
2681.5034544438
2623.139865147
2567.1684020565
2513.3838279489
2461.7356630064
2412.0761092455
2364.3241446852
2318.3502238649
2274.0708772959
2231.4013624482
2190.2598858447
2150.5703359136
2112.2600858877
2075.2611574239
2039.509004946
2004.9435710495
1971.5088044102
1939.1536860699
1907.8274904694
1877.4824994608
1848.0778294202
1818.0335041645
1893.1497946836
1422.9000405818
1289.211022417
1205.1388967223
1129.8121326814
1061.4427128267
999.46714498278
943.21833807177
891.98088553394
845.02067676664
801.61097108293
761.0260190497
722.53013531729
685.30573753903
648.37966061315
610.6585322946
576.31191658829
535.02796698691
491.53240603533
446.68562758713
402.00154328968
359.21517074256
319.82531767525
285.16688822664
256.45429253026
234.54093437289
219.26418712423
209.5824807649
204.0311251635
201.15546173316
199.75837505641
199.02251223986
198.51076296781
198.04113367613
197.55779024373
197.04757428485
196.39454953127
195.85627751694
195.3166845127
194.78469257724
194.26611610495
193.76443137206
193.28074009052
192.81319935777
192.35757946818
191.9039711778
191.43752388514
190.94233174245
190.40301565841
189.78898436318
189.15721206866
188.45441651912
187.70073371624
186.88734655377
186.02336330492
185.11195878703
184.15716202884
183.16384501278
182.13428440977
181.06787485859
179.963625589
178.82000830765
177.63485859645
176.4117495228
175.15525240809
173.89593524848
172.68881642344
171.6148257357
170.59798138017
168.70147039204
162.56131734585
141.22734903155
344.00651882854
629.28428482768
936.07021336226
1301.4668378975
1663.4459728419
2048.0797574441
2464.157336822
2899.3965198952
3342.7946190571
3808.9051682544
4207.5195603604
4592.9004667504
4929.2980877377
5199.929323365
5404.2383615184
5539.6534478279
5608.362838727
5617.6915980893
5579.8805387478
5506.6256399537
5405.9803648225
5285.7132855359
5153.5825084365
5014.7687134608
4872.5153261724
4730.0815738411
4589.7083195654
4452.245462635
4318.5680807679
4189.7819553492
4065.6952547245
3946.7259098543
3832.7287578399
3723.75609112
3619.6525666542
3520.2413132917
3425.3452312157
3334.740544464
3248.2442772036
3165.6277787706
3086.6705018748
3011.2204574179
2939.0324350968
2869.9914134428
2803.8487237401
2740.5317450585
2679.7998445318
2621.5870964637
2565.6911713903
2512.0393731778
2460.4750256232
2410.9021067061
2363.2178924738
2317.3185200611
2273.1117907301
2230.5040735869
2189.4190858371
2149.7809096165
2111.5189953505
2074.5651152288
2038.8548355719
2004.3280381541
1970.9291882445
1938.6064325785
1907.3121963185
1876.9961687634
1847.6179788696
1817.3622716528
1889.897315925
1420.3022064248
1288.198930014
1204.3196348793
1129.1188475456
1060.8577391109
998.97369624099
942.80435289022
891.63788426211
844.74281261119
801.39382130832
760.86736416637
722.43020602282
685.26852518392
648.41342888939
610.77597090608
576.48733201923
535.28920599093
491.88346294138
447.10438999488
402.46868105712
359.70868939076
320.32485556687
285.64694439746
256.89260640053
234.91921316494
219.57597011754
209.83244918425
204.2325350032
201.32228725181
199.90648192788
199.16256102319
198.64820531745
198.17719711152
197.69035417313
197.1793575873
196.518432654
195.96993760332
195.4185912734
194.87331289697
194.34057549147
193.82425718072
193.32546369882
192.8423417579
192.3705844215
191.89916115613
191.41270870118
190.89466041991
190.33314070196
189.6927155464
189.02221899311
188.28190490791
187.48320839568
186.6213209217
185.70299285165
184.73170226162
183.7131881671
182.65192202265
181.55001098701
180.40675688075
179.22040402293
177.98896070339
176.71052796423
175.38790671857
174.02387190936
172.64829469926
171.31268343956
170.10325361441
168.98082117689
167.11737182932
161.27401054552
140.75733590818
465.71499096494
923.07825200364
1350.2608330962
1810.9392458604
2259.3334854157
2666.7963547963
3071.6953536686
3458.7185301693
3836.8529311027
4212.7423003238
4501.0110249962
4797.3393371092
5067.2595546497
5288.0476964554
5458.5745899138
5565.7685859781
5615.2227177829
5614.8582736282
5571.1744285726
5492.8794409712
5390.3826326609
5271.4400970232
5139.6395375394
5001.1148884448
4860.1514710705
4718.8272850271
4578.9812742348
4442.4281592752
4309.7929910394
4181.5659443344
4058.2679617538
3939.8925347835
3826.549177049
3718.0426732711
3614.4454518665
3515.406624403
3420.9086861605
3330.6259815581
3244.4554402673
3162.0810828466
3083.4148577908
3008.1652773868
2936.2172322137
2867.3386640298
2801.4067481714
2738.2305812272
2677.6681553754
2619.5838240102
2563.827607652
2510.2949383952
2458.8396911984
2409.3737895354
2361.7770848324
2315.9680388443
2271.842606305
2229.3129253628
2188.2993767475
2148.7268121943
2110.5253278027
2073.6271360534
2037.9691672602
2003.4918220158
1970.1393565849
1937.8592675212
1906.602611462
1876.3244308048
1846.9807838745
1816.4638179821
1884.8003011716
1416.835555628
1286.7592730708
1203.1455213338
1128.1243932837
1060.0159113666
998.26290985388
942.20795532654
891.14391571914
844.34232881123
801.08085327324
760.63864059766
722.28600679709
685.21431914027
648.46108862803
610.94233995295
576.74804773174
535.67896218423
492.40172636259
447.7273683179
403.16566510661
360.44498631944
321.0673708388
286.36231441916
257.54572220132
235.48241026415
220.03933921166
210.20351672718
204.53040468271
201.57030750366
200.12703173889
199.37187224979
198.85424148773
198.38200769028
197.89255053642
197.37635025743
196.70557998747
196.14233605735
195.57373164848
195.00883953977
194.45507993393
193.91694145659
193.39561252426
192.88927338976
192.39293135656
191.89467256304
191.37812282753
190.8255641349
190.22351106542
189.54232497339
188.81827198563
188.01692287136
187.14933818504
186.21133540989
185.20846839466
184.14528984072
183.02823434128
181.86204783193
180.64880604084
179.38699267367
178.07419277901
176.70770627221
175.28509156902
173.80911539277
172.27947604049
170.72474045229
169.19166595872
167.76920395791
166.4670580169
164.58626490851
159.18043621837
140.07653387897
886.04700814504
1720.0927815716
2410.6871934761
2933.7365040723
3335.7308177582
3662.1008512333
3917.9702045663
4161.0506926007
4380.4848839393
4588.472066783
4809.7304038085
5028.2234172275
5226.4509983755
5391.4571556975
5515.0273767369
5594.4702440611
5625.3973118531
5611.1872660437
5559.7828386204
5478.6861763871
5374.3742864426
5253.2634067976
5122.923716217
4985.8383386835
4845.5985550223
4705.205570286
4566.806529543
4431.1757780954
4299.4775700697
4172.1689063542
4049.6628572063
3932.0019152508
3819.3092824453
3711.4552854151
3608.3173525644
3509.7920764858
3415.7022268213
3325.8264574719
3239.9733318863
3157.9491883014
3079.555981325
3004.5834732778
2932.8748216442
2864.2284358107
2798.5052689396
2735.5145368381
2675.1381636256
2617.2091454411
2561.6136581901
2508.210937613
2456.8911862901
2407.5439098666
2360.0597078479
2314.3481517559
2270.3136379682
2227.8742832065
2186.9439366371
2147.4485669757
2109.3173039647
2072.4844980945
2036.8880413717
2002.4688417051
1969.1708499211
1936.9411943353
1905.7308360902
1875.4946197143
1846.1934980997
1815.663502027
1877.6209257476
1412.4335958822
1284.9116175013
1201.6287747239
1126.8348208837
1058.9212784421
997.33776630387
941.43175557253
890.50104828107
843.82131228306
800.67370469451
760.34091120851
722.09799768615
685.14321822543
648.52208248556
611.15637195926
577.09142667038
536.19394737723
493.08659403945
448.55379787468
404.09169162015
361.42506740424
322.05769540512
287.3195573837
258.42240732429
236.24096948505
220.66557911358
210.70595542175
204.93338245633
201.90479064432
200.42296612846
199.65152577436
199.12889109833
198.65487199575
198.1622060098
197.63975301122
196.9570567816
196.37442157797
195.78316863751
195.19250670301
194.61092061735
194.04359402888
193.49200305727
192.95460163431
192.42532987298
191.89109988037
191.33407202124
190.73562523701
190.08072355746
189.34208101128
188.54641734482
187.6648697228
186.70558578844
185.66508937263
184.54839214734
183.36161141658
182.11127550138
180.80291124818
179.43859776063
178.01592793211
176.53134238229
174.98090234672
173.36143189705
171.67527943615
169.91894988259
168.11739573742
166.31171048153
164.59222942526
163.02155620934
161.07260902166
156.19768229033
138.97434746388
4223.9068858631
5008.2583772547
5053.3385149463
4914.3615736219
4845.9691767732
4788.9590189112
4799.6895776726
4826.646582651
4907.3161455357
5004.5066824427
5130.6306522181
5260.2245488188
5386.1444155762
5495.9356994209
5576.4532284514
5622.8099618924
5632.2472628432
5605.474814387
5546.3472323834
5460.6994602857
5354.7191409262
5234.1248584114
5103.1122407887
4967.3117342609
4828.7262233454
4689.7773091213
4552.2836221929
4418.1333672991
4287.6538169888
4161.3971575615
4039.7466891799
3923.0452112455
3811.0669853578
3703.8821001199
3601.3782423695
3503.4198728617
3409.7873794416
3320.362451554
3234.9141418048
3153.2547601717
3075.1724556886
3000.5168099895
2929.0772983218
2860.6920752163
2795.1907545204
2732.4251204924
2672.2460143248
2614.5025300994
2559.0742531721
2505.8278201368
2454.6585544037
2405.4438279394
2358.0864713571
2312.4861065771
2268.5570423351
2226.2155050378
2185.3771733846
2145.9677520567
2107.9165405237
2071.159090083
2035.6327218136
2001.2785698317
1968.0414641147
1935.8694511429
1904.7125681687
1874.5266214916
1845.2701701255
1814.7281598418
1867.6214738558
1407.2005864652
1282.6667447592
1199.7791013624
1125.2552837681
1057.5771245943
996.20089671945
940.47833813336
889.71179810448
843.1818806117
800.17397235211
759.97516313461
721.86668666831
685.05515050105
648.59515085562
611.41595389401
577.51398335272
536.82998640189
493.93504576065
449.58162717776
405.24646792245
362.64942203126
323.29674312452
288.51884641113
259.52286799743
237.19509719327
221.4548220606
211.34025275926
205.4425261742
202.32732605449
200.79599544846
200.0033163086
199.47403850046
198.99765240323
198.50111183692
197.97111671579
197.2754287096
196.66947448583
196.0504817261
195.42815679915
194.81194418475
194.20790981937
193.61819219237
193.04160791308
192.47062846864
191.89085704051
191.28307499936
190.62679726592
189.90466211213
189.09209707107
188.20707585218
187.22369409152
186.1485088434
184.9770981635
183.71669435232
182.37288003395
180.95305908717
179.46368592851
177.90708122269
176.27934989428
174.57546844846
172.79003615185
170.91900677649
168.96382556561
166.91646811345
164.79878272999
162.64354036171
160.53453991207
158.58590088994
156.4753551033
152.1320945492
137.16947212849
17933.876217628
10796.06188718
8408.3073925792
7122.3666459422
6337.2362490843
5873.0896486602
5623.5986063693
5484.3035233146
5417.2810962166
5403.9928775462
5423.4815558316
5467.7504900811
5524.45935013
5581.0941942065
5625.16709234
5647.0379237014
5642.66877662
5609.1558241918
5548.1988970875
5463.6338964415
5360.0047159503
5242.0225513272
5114.327013497
4979.8064138004
4842.9475077038
4705.9754912983
4569.7372175452
4435.9223458935
4305.7786459437
4179.9303341217
4058.2798358403
3941.2143117659
3828.9883815054
3721.4981851185
3618.5491914886
3520.0901093247
3426.0183837209
3336.0841962959
3250.1141819907
3167.9477438014
3089.3901495194
3014.2430893276
2942.3249489775
2873.4859034837
2807.5515922237
2744.3634657635
2683.7708564694
2625.6396122004
2569.8401426411
2516.2392821691
2464.7237776327
2415.1787947853
2367.5091288754
2321.611015533
2277.3922408491
2234.7682875914
2193.6621930801
2154.0003010053
2115.7078390195
2078.7173256712
2042.9658588957
2008.3952104279
1974.9501946842
1942.5783416748
1911.2348395401
1880.871162539
1851.4399300881
1822.7512679427
1904.9368667438
1462.8958405361
1303.5277946446
1217.3392197546
1141.2820521074
1072.230717517
1009.5841296434
952.73647152533
900.99805361274
853.65788100808
810.00380952492
769.32830291287
730.9244651734
694.03615883981
657.76812234516
621.08261277128
578.01325119133
537.58459724409
494.94422129258
450.80760747445
406.62671487909
364.11480397101
324.78322339706
289.96040989658
260.84949220339
238.34904978059
222.4125456361
212.11213722255
206.06291528811
202.84164425184
201.24841400235
200.42836134089
199.8900742015
199.41012103927
198.90714994974
198.36393280894
197.86455976994
197.21552928929
196.54670400054
195.86733582119
195.18798031483
194.51651375893
193.85685492142
193.20764743183
192.55967786202
191.89651391629
191.19545911584
190.43310784246
189.58899014679
188.64020942222
187.59130751744
186.42007557456
185.12799150986
183.71479153532
182.18685549946
180.55052583635
178.81435283959
176.9866466296
175.07032278833
173.05765159869
170.94080077292
168.71359600592
166.37113338392
163.91243995871
161.31942406544
158.60481098163
155.79075946964
152.94274975386
150.23028218769
147.67406846507
144.01100075197
132.92368339032
11143.565828688
12573.346775163
10535.206201881
9124.3290572197
8128.2959672423
7416.4065464313
6890.8235478722
6488.3041013092
6248.7751918369
6067.3725921971
5933.5755847053
5848.4063119275
5792.8058027449
5754.4039302116
5721.2552166801
5682.5359451728
5632.171120448
5566.5860199545
5484.0231946844
5385.8931589197
5275.0289339705
5154.2472958533
5026.6324098571
4895.0948660309
4761.6747776803
4627.9561363285
4495.95533807
4367.0383460235
4241.2085293054
4119.1992076572
4001.325365677
3888.0934561868
3779.2259857492
3674.7780468984
3574.6955032852
3478.9915892955
3387.3619065294
3299.6879900552
3215.8041731586
3135.5890355573
3058.8208799929
2985.3265464818
2914.9467555612
2847.5336899078
2782.9290582994
2720.970975377
2661.5292800515
2604.4723888551
2549.6778794729
2497.0148155859
2446.3742629747
2397.6520983487
2350.7505832588
2305.5754305494
2262.0347626815
2220.0485987775
2179.5407694712
2140.4422675571
2102.6837564296
2066.1986538347
2030.9258542162
1996.8080972903
1963.7928994237
1931.829275301
1900.8670142094
1870.8626375632
1841.768077583
1811.7274814417
1811.8604992249
1387.6940953252
1273.7304815759
1192.2911158764
1118.8170668364
1052.0798420361
991.54894891495
936.58172857437
886.49098055304
840.57380931488
798.13445437291
758.47912394764
720.91494666184
684.67976611272
648.86671923293
612.43934379063
579.22503382985
539.42930900893
497.42195914866
453.83214005513
410.04642462708
367.7579851561
328.49218533476
293.5701988932
264.1874752421
241.26865080569
224.84953423981
214.08622818607
207.65424099635
204.1595645166
202.40184370164
201.5050050889
200.9396993865
200.45083910831
199.93803223124
199.3743144511
198.90409434801
198.19286339472
197.44597491718
196.67391247035
195.88875417354
195.10275240545
194.32143002262
193.54350558844
192.7585714117
191.94733993878
191.08139119816
190.13256545394
189.07421394599
187.88204444522
186.54661005992
185.03986662916
183.36816278848
181.52885938686
179.52697790418
177.3695476891
175.066436774
172.62823238464
170.05928263357
167.35204252187
164.4964595819
161.47564537382
158.27967558757
154.89944935406
151.30406208449
147.50366269317
143.51289721859
139.37569153828
135.26524365307
131.50558733349
128.06230057673
121.99737195485
8603.4013181124
10987.137603294
10273.497767848
9349.7551175086
8576.8387894463
7964.5359462579
7464.859248146
7059.7256937802
6714.1085397842
6443.9021735067
6248.3541146095
6086.2168866037
5953.4337026741
5849.107259397
5763.162387944
5683.8943033657
5603.7940592336
5517.7835612462
5423.0733739551
5318.8857715144
5205.8446870578
5085.8546910911
4960.9154302816
4833.0138574423
4703.9278674535
4575.053225883
4447.683009784
4322.647764969
4200.67352831
4082.4185180257
3968.0283736514
3857.6707232252
3751.4816294583
3649.4161477591
3551.6279628708
3457.8546085664
3367.9912406092
3281.8843972028
3199.4630083399
3120.5359751305
3044.9114665181
2972.4550987706
2903.0220274796
2836.4794227514
2772.6406430111
2711.3906246523
2652.5887654027
2596.125469154
2541.868070361
2489.6969364926
2439.5077952778
2391.200428801
2344.6841474025
2299.8591429593
2256.643963242
2214.9587225011
2174.7309251544
2135.8919498712
2098.3710667633
2062.1075907819
2027.0417670407
1993.1174582229
1960.2819128977
1928.4830451453
1897.6751772124
1867.816590115
1838.8540014403
1810.7981275675
1757.9325984344
1372.6445248533
1266.0446636781
1185.7228045232
1113.14273692
1047.2276538608
987.44342416188
933.14704752132
883.65539327553
838.2777050772
796.33529429726
757.15252989599
720.05810405174
684.3192108477
649.06390033287
613.28657384405
580.68566955277
541.67731776881
500.46486349099
457.57494484721
414.30722572474
372.32389884623
333.16396492221
298.1438244765
268.44898917966
245.02817550792
228.01611854699
216.67257801137
209.75013794125
205.89442122536
203.91003584683
202.89819227033
202.28756953668
201.78332013842
201.25958563827
200.67522276537
200.23391286511
199.45852034508
198.62776030971
197.75114032305
196.84373560385
195.91898303017
194.98671406037
194.04581424319
193.08596684573
192.08569878374
191.01073356502
189.82576759285
188.49872050541
186.99910544385
185.29602687013
183.36976022338
181.2182148914
178.84125710165
176.2474620447
173.44769044639
170.45461388788
167.27716619893
163.90485749509
160.32292048616
156.52532822296
152.48035191887
148.17144661422
143.58427952244
138.70603649389
133.53966898637
128.06242178974
122.32004866616
116.52094379951
111.15755521387
107.09203406891
104.58542862201
7489.87471651
9239.2682364177
9362.6046227686
8879.8508546585
8347.272972049
7882.1523340519
7477.6664553297
7123.9154225166
6816.9082869203
6551.1410474422
6321.7027544901
6146.5736375326
6001.9308029111
5866.583279532
5750.1821572969
5646.5018115502
5547.6675438393
5448.0027345805
5345.1922493707
5237.5432713196
5124.532602641
5006.5655697113
4885.1608842729
4761.6991032998
4637.4604090803
4513.6218762624
4391.109975495
4270.8029802785
4153.3546072276
4039.165087352
3928.5267733538
3821.6463648032
3718.6592612834
3619.5552800666
3524.3011837985
3432.78942569
3344.9668751881
3260.8225086951
3180.105000075
3102.6928201204
3028.4485239956
2957.2402824369
2888.9705268503
2823.4364161854
2760.5341598047
2700.1226193727
2642.1040162344
2586.3465362791
2532.7258997731
2481.1433109781
2431.4894219142
2383.6812683934
2337.6169431754
2293.2085420296
2250.3774560105
2209.0480349681
2169.1532857786
2130.6189409628
2093.3808582314
2057.3779608587
2022.5530886641
1988.8548341745
1956.2299382061
1924.6327305552
1894.0180458243
1864.338109835
1835.5483961734
1812.2522423929
1691.4333063887
1356.9250213334
1257.1167007891
1177.9626407653
1106.4107823304
1041.4649885369
982.56635849086
929.06690115612
880.2854503436
835.5444362427
794.1855480987
755.55427101386
719.00717271462
683.84589974433
649.23815991812
614.21460136012
582.34097123536
544.26236645858
504.00072971638
461.9658838775
419.34904760365
377.76629560912
338.76594813346
303.66656242435
273.64198899295
249.6556106854
231.95570292678
219.92264200715
212.40255017337
208.09247987847
205.80954438277
204.63238517762
203.94840120317
203.4161860971
202.87799888854
202.27293948436
201.8660488052
201.0295173943
200.11599037678
199.13262921915
198.09476955856
197.01739100444
195.91035351991
194.77698030842
193.60622882992
192.37648315932
191.04958259915
189.58309218892
187.93928482842
186.0679876036
183.9318121153
181.50937528983
178.8001419769
175.81076057124
172.55338866678
169.0330097956
165.24129817871
161.16395153971
156.78494267657
152.07835741186
146.99401749427
141.5199329251
135.66027254703
129.389834021
122.72910534062
115.69943628302
108.39433526328
101.04178056791
94.015539821108
87.904881709345
84.055180723332
85.2736622887
7026.3955281463
7911.7883556438
8359.5341622148
8232.8424930944
7902.7353513536
7567.170975462
7254.8381465159
6973.3015675033
6712.7284162874
6485.0694794334
6270.4050266712
6086.1313847287
5942.9062892296
5804.2560344239
5682.9300125956
5567.4129202568
5459.8835863616
5355.2068970701
5249.8666507128
5141.9695164909
5030.8657977606
4916.7870217895
4800.2117158221
4682.0593088829
4563.3491920947
4445.0484028935
4327.9516952542
4212.7674396233
4100.1057280519
3990.4087668809
3883.9363433283
3780.8724227403
3681.3159709818
3585.337097381
3492.9607806123
3404.1116738688
3318.690689201
3236.6421128001
3157.8163572501
3082.1343572953
3009.5086932198
2939.7522085015
2872.7561964098
2808.4053546095
2746.5636495696
2687.1563573535
2630.0288225932
2575.0800242997
2522.204807461
2471.2973814451
2422.2814517511
2375.044537078
2329.5047642336
2285.5797362875
2243.1942563064
2202.2841904556
2162.7701121275
2124.5889569824
2087.6775616225
2051.9772319241
2017.4358834927
1983.9999614295
1951.6207145168
1920.2561932756
1889.8525455022
1860.3761661199
1831.7579150462
1821.9114638106
1612.9436913659
1340.7565697011
1246.8645447196
1169.0657031807
1098.6764179505
1034.8356500204
976.94935436362
924.36080722722
876.3899642023
832.37422913539
791.67717183528
753.6688021471
717.74020932421
683.22895294795
649.34719094557
615.16745399569
584.12458937845
547.10363257256
507.93956275052
466.91578622481
425.09277846898
384.02043439354
345.2516465029
310.11256851302
279.76298313905
255.1735498656
236.71091523178
223.89108793221
215.66989497605
210.80847511336
208.1449586943
206.74119308892
205.9437141347
205.36220527262
204.80057266239
204.17276793659
203.80425566865
202.91276875508
201.92401837751
200.84098950362
199.67689966989
198.44558250515
197.15664855397
195.8121808312
194.40480534152
192.91113580035
191.29383053616
189.50828022096
187.5028173999
185.208357628
182.58244719813
179.605125071
176.29504735004
172.65794313943
168.68075141248
164.32505298765
159.50816246556
154.17403590136
148.34195306632
142.03455807125
135.28425271545
128.11821512357
120.54317205812
112.58175795095
104.35952721162
95.990869118007
87.769460470934
80.212754344403
73.92266103517
69.658615648147
68.91895350198
76.582922975114
6945.5906074516
6946.3809837511
7447.1206657911
7559.4634110658
7401.2225368593
7170.8341955729
6937.6610629083
6717.7035609772
6507.3234562107
6309.5700382039
6140.4430730705
5967.4017744236
5817.5679816568
5679.9118863026
5569.1666851138
5458.2915991937
5349.004558669
5243.6609388994
5139.5681063701
5034.5073409602
4927.5475811097
4818.3305107064
4707.3976396215
4595.2585778012
4482.6256718348
4370.3588476506
4259.157206293
4149.5679933395
4042.0664536883
3937.1073057012
3835.0154118447
3735.9962026264
3640.1639895744
3547.5687051565
3458.2388201237
3372.1606800851
3289.2837357848
3209.5526924699
3132.8720237915
3059.1400865205
2988.2379950608
2920.0432497553
2854.4855707433
2791.4729253207
2730.8510069485
2672.5236183051
2616.3870416487
2562.3373699083
2510.305924244
2460.1821360856
2411.8610429077
2365.2733123909
2320.3247848655
2276.9510806949
2235.0819005915
2194.6377549626
2155.5584689023
2117.7759839622
2081.2360905836
2045.8856277512
2011.6652023778
1978.5272168466
1946.4233093273
1915.3049718547
1885.1356697207
1855.8742232683
1827.3516599899
1851.6713819943
1538.117258316
1324.5864491433
1235.4058071954
1159.0842710459
1089.9974084298
1027.3870600241
970.62637956824
919.04869799012
871.97601473805
828.76378204922
788.79574953522
751.47558409095
716.22848778042
682.42995156981
649.3407605212
616.07986205867
585.95579307618
550.10398268002
512.17246952962
472.31263707835
431.43713182968
391.00162383062
352.55700390568
317.43933840781
286.79342145281
261.59362648769
242.31828480118
228.63109667062
219.61313903206
214.10302992162
210.96978478745
209.26715299231