/*--------------------------------*- C++ -*----------------------------------*\
| =========                 |                                                 |
| \\      /  F ield         | OpenFOAM: The Open Source CFD Toolbox           |
|  \\    /   O peration     | Version:  2312                                  |
|   \\  /    A nd           | Website:  www.openfoam.com                      |
|    \\/     M anipulation  |                                                 |
\*---------------------------------------------------------------------------*/
FoamFile
{
    version     2.0;
    format      ascii;
    arch        "LSB;label=32;scalar=64";
    class       volScalarField;
    location    "0.00014";
    object      k;
}
// * * * * * * * * * * * * * * * * * * * * * * * * * * * * * * * * * * * * * //

dimensions      [0 2 -2 0 0 0 0];

internalField   nonuniform List<scalar> 
109340
(
6.910350426932
6.9066846765451
6.9082990957929
6.9110909548238
6.9113965294408
6.907690820378
6.8994452155626
6.887199328426
6.8717855400748
6.8529103796516
6.8307077845814
6.8053871336767
6.7771578852932
6.7462193497059
6.7127597323662
6.6769607173669
6.6389992065117
6.5990476130027
6.557275207777
6.5138466144784
6.4689198160077
6.4226435874224
6.3751558458365
6.3265817988044
6.2770316149366
6.2265969888617
6.1753457839303
6.1233148937729
6.0705001796433
6.0168398693481
5.9621859922709
5.9062500715732
5.8484837882262
5.7877702360965
5.7215178675541
5.643179232919
6.9057877275195
6.9046245637649
6.9059291054108
6.9060408132917
6.9028163006891
6.895614612218
6.8843105820162
6.8685792045738
6.8486776134448
6.8250163946674
6.7978562337623
6.7674304184258
6.733974142236
6.6977215198166
6.6589040547423
6.6177488040213
6.5744794774398
6.5293169120514
6.4824792806924
6.4341798262428
6.3846231524197
6.3339996118292
6.2824818811865
6.2302224070239
6.1773503606335
6.1239668031464
6.0701399498333
6.015898726176
5.96122092506
5.906015237404
5.8500869832569
5.7930712508673
5.7342803166488
5.6722970587762
5.6038394201215
5.5205990571104
6.9003960890005
6.9005800486471
6.9006749741421
6.8977728997349
6.8904188803067
6.878069194049
6.8605164787814
6.8378799884396
6.8104181942744
6.7785143630385
6.7425552853
6.7029083564448
6.6599387266434
6.6140116325208
6.5654904654258
6.514735126381
6.4620998338171
6.4079390686689
6.352608505142
6.2964471719738
6.2397691483558
6.1828437909065
6.1259016554837
6.0691367881583
6.0126892005819
5.9566533187645
5.9010884512837
5.8459892055656
5.791302218964
5.7368982557673
5.6825314786404
5.6277871401626
5.5718866208228
5.5132277956399
5.4480886603647
5.3665133530165
6.8893068628111
6.8947918536006
6.8931971647069
6.883809496223
6.8664530765184
6.8411775482316
6.8082895030124
6.7682524873785
6.7216922094543
6.6693724889456
6.6121367807766
6.5508563120703
6.4864035275849
6.4196306942034
6.3513771613244
6.2824569952231
6.213662099558
6.1459367991631
6.0799916661754
6.0164386700894
5.9557479962732
5.8981916469265
5.8438682209226
5.7927848633896
5.7448894554438
5.7000813776756
5.6580933058898
5.6188356236523
5.5821516103793
5.5478435465408
5.5155957326121
5.484874091184
5.454612723541
5.4224127696267
5.3820259037146
5.3142759894299
6.8769358117834
6.9039557612013
6.9108961636905
6.8975458146005
6.8632850823571
6.8096045324778
6.7397148688035
6.6577009095555
6.5679936691431
6.4749975327512
6.3827695946849
6.295176247144
6.2155591198996
6.1469134514194
6.0919851980163
6.0533664161338
6.0336076816979
6.0359590426147
6.0607400530949
6.1053318009035
6.1660873192373
6.2399555691086
6.3245528959844
6.4180584711093
6.5190559687848
6.6264097462181
6.7391597371496
6.8564590355745
6.978348037951
7.1040514495471
7.2317702303421
7.3591401104136
7.4828395344421
7.5957874656096
7.6781003237348
7.6565806206997
8.3370703534276
12.369519928484
15.807852001606
18.425238729878
20.231039342516
21.356176748168
21.96394264326
22.203429298416
22.191306467009
22.022611224553
21.752281951907
21.422943621549
21.063575605309
20.693502198692
20.32552546572
19.9686120198
19.62849375174
19.308919966252
19.013496532083
18.745820321712
18.50138549285
18.277288140095
18.072048292231
17.884855101159
17.715147360378
17.562500260304
17.426628860076
17.307428380262
17.205039369258
17.119952210371
17.053250171582
17.007135184898
16.9849657807
16.994521796091
17.044160750741
17.124985352374
5.5392655079386
5.3996970537698
5.2230037830823
5.009509753631
4.7594507424145
4.4733433735229
4.1551413190564
3.8112254403064
3.4515291886971
3.0925912664403
2.7509780712817
2.4620267092238
2.2185833615097
1.9917778826573
1.7841588112221
1.5959698097757
1.4289913782588
1.2827846447412
1.1553071511434
1.0450716736519
0.94984885011642
0.86681665303278
0.79456296864665
0.73180636123896
0.67665149577396
0.62779741415785
0.58587608107688
0.54733620405209
0.5123437103219
0.48292513704461
0.45424510462061
0.43070463694696
0.40718028138364
0.38773809039253
0.36824761463364
0.35188886500307
0.33545431672163
0.32157853013132
0.30754242678305
0.29576633385291
0.28368762160737
0.27357107967758
0.26310924020689
0.25424070340487
0.24519897814537
0.2372326703441
0.22953498476802
0.22223418906833
0.21555453111793
0.20902673864229
0.20302201551567
0.19727704249693
0.1918713739787
0.1867362148755
0.18185781191144
0.1772093072145
0.17278238777949
0.16856507744805
0.16454960009053
0.16072204762772
0.15706706676979
0.15356847710265
0.15021259431198
0.14698833496777
0.14388765789116
0.14090268736934
0.13803084154254
0.14929198440172
1124.4697443716
3684.0674813631
2392.6227018489
1636.6415041787
1185.9084989364
900.56397739841
710.51704999422
578.54268025292
483.50324657347
412.71087960312
358.18815508564
314.74538603214
278.96047147303
248.6086962614
222.28792741914
199.15218889865
176.28538251014
158.59537459642
143.11343468324
129.55963846614
117.41928566599
105.86673864945
94.089854346903
81.669282352485
68.914208098684
56.79710374853
46.27314004383
37.873320352789
31.638359436212
27.250336559349
24.222231484243
22.063441234576
20.426242970646
19.106408099474
17.993690877194
17.031369600335
16.004195097177
15.307699787924
14.70729849251
14.2033060897
13.793493423805
13.473887201654
13.238777182818
13.081144470506
12.992088595712
12.959032727274
12.970185304904
13.048203879298
13.179549221309
13.355942666142
13.568037216071
13.814622597102
14.083679388486
14.366909855704
14.652206936837
14.930810973451
15.19474246832
15.436634004384
15.652083062985
15.840505680487
16.004031117874
16.145860217735
16.269780632648
16.379550359045
16.480300291691
16.575892729988
16.669085730292
16.765563157968
16.882717559592
17.054556130404
17.482697051385
17.269422178137
5.4054720692691
5.2452671752725
5.0348528723469
4.7791133823797
4.4830542278732
4.1527498466521
3.7966891579051
3.4260528081484
3.0531607496217
2.6891206318439
2.3450333027063
2.03003196741
1.7597809705412
1.527950315311
1.3342549274975
1.1765550386829
1.0502106239797
0.94948081534427
0.86568891370754
0.7953819855892
0.73561555272279
0.68393765843925
0.63879711258641
0.59894827728141
0.56330546121058
0.53105946941326
0.50160739905993
0.47465226127724
0.44975370721965
0.42696343700642
0.40605228380924
0.38682648229523
0.36919494542936
0.35283863356969
0.33777931938603
0.32369798479168
0.31067254095166
0.29848133149837
0.28720188076801
0.2766351657605
0.26681712303494
0.25758680429146
0.24893190390221
0.24077689682457
0.2330754117592
0.22582823038228
0.21896065704785
0.21251352863645
0.20639844357122
0.20064564891363
0.19517777763805
0.18999909144958
0.185066868725
0.18037100349305
0.17589168179363
0.17161408759862
0.16753077112293
0.16363316925934
0.15991203376521
0.15635519850012
0.15294967083165
0.14968183274473
0.14653942244869
0.14351236712391
0.14059328689544
0.13777809835757
0.13506297785084
0.68382886857422
3138.0645134334
3302.8352522633
2158.0631818151
1499.647427619
1100.8479729921
844.79113352601
672.27945942014
551.3232020357
463.45853778584
397.45770273384
346.1888977222
304.98864782017
270.78354503372
241.58852679915
216.1629837218
193.76571729795
176.26856384763
158.58784817658
143.10679558889
129.55257928598
117.4122972863
105.86423181146
94.097589635692
81.694136985855
68.956879802286
56.852695708983
46.334459966413
37.933797494422
31.694306233903
27.301336305214
24.269410685893
22.108275969246
20.469259023538
19.147370697671
18.032144865254
17.06619424417
16.032493501187
15.330230416707
14.723898683122
14.213900871041
13.798190635096
13.472954434933
13.232551849046
13.070006525202
12.976615399133
12.940511346017
12.947899251932
13.021190125777
13.148011621846
13.319896414127
13.527341769698
13.76845147067
14.031846756196
14.309283525081
14.588542493632
14.86114165747
15.119017295469
15.354868247938
15.564373325205
15.74701989131
15.904929110416
16.041307954679
16.159868612821
16.264151590536
16.359401094233
16.449478702332
16.537701502119
16.630829849367
16.74590369591
16.911982287518
17.274675415073
17.038975618911
5.2463663607184
5.0681041364214
4.8327785639141
4.5516877501439
4.2366068694145
3.8983775934307
3.5481843034147
3.1953540086115
2.8490029290631
2.5127853834613
2.2068415218689
1.9252614372056
1.6755816451929
1.4594786776352
1.2754009262673
1.1216015240118
0.99508235145901
0.8913910589626
0.80359185058132
0.72908077570133
0.66611100552917
0.61285852214901
0.56747090177936
0.5286028954791
0.49518252773702
0.46606580759307
0.44032584812103
0.41742867016751
0.3969604688188
0.37843267487467
0.3616851650504
0.34642427125403
0.3324862511029
0.31961585797309
0.30763603211617
0.29639486922604
0.28579158536431
0.27581281888123
0.26644335529543
0.25763693835917
0.24936327327811
0.241531724029
0.23414162273767
0.22710401855019
0.2204492809423
0.21410107605922
0.20810114685087
0.20239152525664
0.19699019500193
0.19185434317346
0.18697775918443
0.18233320210218
0.17789238304667
0.1736437728937
0.16957197751333
0.16567318709897
0.16194010870496
0.1583674715002
0.1549472492007
0.15166985737779
0.148524061903
0.14549792006376
0.14258036690109
0.13976280775411
0.13703983594499
0.13440777922958
0.13186344053407
0.7550532226074
3218.790740457
3289.0992900543
2150.0268174251
1495.1065245681
1098.0837067988
842.96212678219
670.99509486675
550.38834736365
462.76273077136
396.93115475288
345.78643165836
304.68213359241
270.55639375184
241.42983256943
216.06343063166
193.71532476765
176.25422901032
158.60116409189
143.13738883021
129.5986341258
117.4735415161
105.9489775075
94.214599425804
81.85197159433
69.1508079092
57.067035702484
46.550854785741
38.137449123114
31.877468758203
27.463609474527
24.414208837076
22.240211059287
20.590867471796
19.259317386811
18.134383665745
17.157172586905
16.106559650582
15.389662138703
14.768581281511
14.243939066264
13.814029413195
13.475322143319
13.222282876752
13.047979314079
12.944003368447
12.899875197868
12.899088782774
12.961531779664
13.078321498906
13.240531409458
13.438518941844
13.669253067942
13.922268612438
14.189431634472
14.458375273901
14.720743873091
14.968276675974
15.193576001238
15.392376022672
15.564330280697
15.711643605727
15.837604578585
15.9458218683
16.039443028137
16.124005170267
16.203377670973
16.281719357182
16.367125110786
16.476413293401
16.638239845276
16.902995849716
16.631478537069
5.163714156903
4.9027243845367
4.5617449846639
4.1960998719084
3.8448588168512
3.5086639761036
3.1866881887813
2.8797775967406
2.5866605387632
2.3058373378307
2.0527864714809
1.8130508277491
1.5942250890087
1.400323668736
1.2306913970431
1.0863067282763
0.96557963966522
0.86443196450669
0.77777443977621
0.70367188961677
0.64001237942418
0.58520231671001
0.53832990568537
0.49800368455727
0.46312169989991
0.43291355569083
0.40662602262436
0.38351607430237
0.3631236369577
0.34506799828525
0.32895482765442
0.31452159988491
0.3015032608283
0.28973736923197
0.27896672401982
0.2690805967514
0.2599074505445
0.2514222347329
0.24352543474021
0.23619224630945
0.22932119844704
0.22287157314351
0.21674839380425
0.21092580591632
0.20535229442668
0.20001689649445
0.19492534417408
0.19005972753662
0.1854310913761
0.18100598731899
0.17679084805016
0.17275194763965
0.1688805598558
0.16515309286395
0.16156430320614
0.15811238607419
0.1547947797322
0.15160971183225
0.14855134189334
0.14561207261504
0.14278164162227
0.14004979972546
0.13740738697513
0.13484760238659
0.13236642242601
0.12996174724995
0.12763028199634
0.87102429221473
3320.757411031
3266.7987476261
2138.1842715371
1488.5281363196
1094.0735128009
840.30893635865
669.13703523218
549.03952347202
461.75972149414
396.17173573615
345.20517639958
304.23882829002
270.22735783764
241.19961872704
215.91890943326
193.64349786444
176.23704763565
158.62846661628
143.1965845516
129.68447728404
117.58675232038
106.10131535815
94.419643572726
82.119085472418
69.471889367774
57.417350960133
46.901832933741
38.466539351628
32.17292364735
27.724115005197
24.64545668719
22.449789180036
20.783234389486
19.435749748353
18.29455797035
17.300107484302
16.223987752891
15.484452807314
14.840287147509
14.29265135263
13.840459790915
13.480655306128
13.207904741682
13.015341438155
12.894771612193
12.836289467992
12.824720672499
12.870071011773
12.971522222096
13.118973732009
13.302400419893
13.517791425812
13.755471325942
14.007292915628
14.260956131389
14.508132454104
14.740414171056
14.950234903608
15.133261123643
15.289294446507
15.420731296679
15.531069277472
15.623823653108
15.701689595236
15.770393885649
15.833867077288
15.896878078965
15.968021959315
16.062407546509
16.206168329133
16.414586016814
16.122446831191
7.0923166169203
5.8858558223821
4.7894092951811
4.0444204440471
3.4912768863772
3.0566577879998
2.7446024258222
2.5171126688513
2.312077556464
2.1032706007245
1.8957476076423
1.6959737784895
1.5115582060293
1.3429469116415
1.1915152987771
1.0586018497691
0.94450743315474
0.8460780173562
0.76107376904674
0.68785393575371
0.62492471498296
0.57082468942333
0.52384485592734
0.48313549272043
0.44775410244021
0.41686098758681
0.38972949405388
0.36589405062024
0.34485929767531
0.3262637443936
0.30975047813386
0.295040143127
0.28186060545439
0.27002423109397
0.25933849276327
0.2496169022424
0.24072288938394
0.23257409328263
0.22509193787934
0.21820360247574
0.21182866043039
0.20590488112203
0.20035424841373
0.19514056281483
0.19020889321075
0.18555152833364
0.18113337348462
0.17694969103739
0.17297676158282
0.16920446092689
0.16560978376132
0.16216550493032
0.15885727354558
0.1556586289918
0.15256334105388
0.14956872777563
0.14668029977485
0.1438986322538
0.14122038541029
0.13863850480145
0.13614392529726
0.1337279470431
0.13138304370162
0.12910358267899
0.1268862470005
0.12473063110212
0.12263453458169
1.0535073125904
3442.4604600642
3237.5888768051
2122.8301840572
1479.954909953
1088.8112738402
836.82644748358
666.70696808371
547.28123154089
460.45366638271
395.18205623345
344.44639744944
303.65899578084
269.79595547092
240.896692831
215.72791065287
193.54817222
176.21400532318
158.66549096761
143.27854327594
129.80338134401
117.74394062575
106.31185103415
94.701929086869
82.484508471112
69.909438109329
57.894103902922
47.379596043116
38.914914374942
32.57576898339
28.079218670637
24.960410694612
22.735168012006
21.045486629291
19.676689346057
18.513140647386
17.495288187607
16.386740356517
15.616846343823
14.941116661845
14.361811035299
13.878853610339
13.489910873939
13.189993287693
12.972267545952
12.828579892702
12.749691766771
12.723243342596
12.746442828022
12.826808416528
12.954201375896
13.117769795858
13.312537661855
13.529545224168
13.760511605839
13.993358491011
14.219788195399
14.431307661299
14.620181920921
14.781945355346
14.916487048296
15.026472109677
15.115732133118
15.187661601623
15.244556037967
15.292361636609
15.335189661378
15.377937336484
15.429079122254
15.50186445663
15.618725625032
15.783467405209
15.488754751702
11.402997231699
7.577125466696
5.7928721427816
4.5723515525503
3.7136339978397
3.1216641668262
2.6719824321881
2.3434776974782
2.0825540798074
1.8979579758265
1.7509602961066
1.5973055988183
1.4395716856313
1.2892306589764
1.1537465252262
1.0336112321987
0.92677213820001
0.83198275128061
0.74903270733241
0.67698038497878
0.61465768957484
0.56085484440721
0.51443394930184
0.47392565425322
0.43856520263325
0.40758291542243
0.38032291932527
0.35613387330035
0.33471236623791
0.31570742945756
0.29879517526142
0.28365273130407
0.27010590555044
0.25792916911314
0.24694841211605
0.23699942352148
0.22796465875881
0.21972022063509
0.2121962284712
0.2053099377358
0.19899149481973
0.19315298951974
0.18773970615557
0.18269361083344
0.17797267518055
0.17354575060534
0.16938666936634
0.16548261255817
0.16180436496368
0.15833869021028
0.15505827838633
0.15194761971916
0.1489812423771
0.14613903370786
0.14340637471183
0.14077467062595
0.13824452425452
0.13581295823082
0.13347696370005
0.13122643650352
0.12905109161959
0.1269409995024
0.12488679752427
0.1228822143474
0.12092578798984
0.11901838101559
0.11715974764909
1.3446817277448
3578.7837739223
3203.1839002923
2104.3468748613
1469.4236037669
1082.2830887523
832.50702942536
663.70584371013
545.11765291959
458.84858237975
393.96467840605
343.51121201588
302.94265454501
269.2612861613
240.51955347141
215.48868661417
193.42707006027
176.18251377838
158.70905661462
143.3790598786
129.9507604489
117.94002588887
106.57495440711
95.054587229643
82.940940100176
70.456391277899
58.491156775401
47.979433320753
39.479383726752
33.084120157866
28.528242648056
25.359082709156
23.096953164637
21.378947967077
19.984412354298
18.793250169923
17.744944159184
16.599195645709
15.791118912209
15.075075747491
14.454950455938
13.932103716384
13.505252513788
13.170025540269
12.919703166644
12.745952157947
12.639916740975
12.592497694207
12.590468907732
12.643331925583
12.745117231216
12.88304641888
13.051707959654
13.242367942153
13.446629307828
13.652675071318
13.85232806534
14.037080526715
14.199074086041
14.33374956061
14.441031354878
14.523898777098
14.586612125513
14.632517230176
14.663497751343
14.685856023173
14.703935061418
14.722453002006
14.749718797291
14.796936469866
14.882549822522
15.006149390875
14.721480662058
6.3613772551725
6.8182676945808
5.1336605238821
4.3983601897901
3.7620151997142
3.2352376686974
2.8244758041523
2.4962189191877
2.1738691058028
1.9100336476191
1.7023303642926
1.5361114899676
1.4082228044036
1.2832995768157
1.1567739953409
1.0392299440254
0.93360596471191
0.84018979863078
0.7579156765118
0.68537703844472
0.62183754188377
0.56656680828043
0.51858557126918
0.47700870987137
0.44062525246601
0.40862737034884
0.38051939766586
0.35565736542865
0.33353725623675
0.3137840781611
0.29618672142775
0.28043115588769
0.26624607086498
0.25345483305113
0.24191941454426
0.23147010027782
0.22196607501031
0.2133192813294
0.20543869190423
0.19823437123677
0.19163536811382
0.18557219566237
0.17998134401997
0.1747967257365
0.16997741167667
0.16548951969994
0.16130554888021
0.15739940617187
0.15374452963914
0.15032410296546
0.14711222166033
0.14409037361166
0.14123061707843
0.13851455964505
0.13592535816394
0.13345068632929
0.13108459728593
0.12882255496478
0.12666181346811
0.12459400436188
0.12260854151027
0.12069383469569
0.11883992581257
0.11703956474209
0.11528760769198
0.11358149415359
0.11192060984721
0.16143817793948
1831.1016229613
3534.0105738428
2299.5474429162
1584.5375054644
1154.3806672723
880.03483216698
696.37954834605
568.40867774329
476.0250339628
407.06799920401
353.86658562262
311.43036509336
276.46725750161
246.82168767063
221.117371245
198.50903777293
176.13964876783
158.75597370465
143.49478189032
130.12302521471
118.17086312584
106.88559454321
95.471638929524
83.481893626672
71.106804874265
59.203606736466
48.698005862466
40.158172835585
33.697495392734
29.071667475551
25.84248545519
23.536543300455
21.785553205935
20.36174448362
19.139243551444
18.052304156401
17.011539690376
16.131654296495
15.340022348672
14.642412353661
14.043117281187
13.543157079228
13.139713707035
12.826766881485
12.595553680029
12.43687627495
12.341797420213
12.301181193383
12.30080240585
12.354212690354
12.443028830948
12.562424325532
12.703036457431
12.856487585538
13.011219892312
13.159455579576
13.292783701864
13.403382715422
13.486903041491
13.54294849951
13.575385522811
13.589373511305
13.589219755895
13.574909056574
13.553586657267
13.530311256807
13.50912421382
13.497765632453
13.504475463005
13.540284818638
13.598954127247
13.339745711024
4.1618449292405
3.4193904657905
3.1644656503979
2.9320089260404
2.7931459802787
2.6350530202338
2.4574672082996
2.2845580718089
2.1125714171435
1.9381697460765
1.7386319026108
1.5049765302424
1.3287100468669
1.1854890967708
1.0721868590065
0.97632074981764
0.88288519375718
0.79727557287398
0.720873147073
0.65392917958978
0.59542757570787
0.54413650747199
0.49899887870348
0.45921454871817
0.42418706816341
0.39338229617228
0.36615200391461
0.34193971526297
0.32048356807017
0.30136189086272
0.28424564898302
0.26878657583015
0.25483297568799
0.24219320063107
0.23070804050599
0.22022038037369
0.21066322053831
0.20192995065962
0.19392938634074
0.18657303270806
0.1798094012494
0.1735792346595
0.16782180597735
0.16248444631
0.15752983256823
0.15293268955252
0.14866200831974
0.14469004386622
0.14098989076432
0.13754073551333
0.13431985766683
0.1313041383475
0.1284725089625
0.12580549025709
0.12328787244578
0.12090733345755
0.11865483318224
0.1165229871799
0.11450445190265
0.11259046882611
0.11076996786625
0.10903176149655
0.10736546450726
0.10576299281975
0.10421860847351
0.10272890495075
0.10129312881026
4.647127645238
4023.7848543172
3077.147791777
2030.8149263646
1425.746404835
1054.8980566369
814.47004830552
651.29045426811
536.23101060412
452.27066292863
388.96512265048
339.6526375907
299.96920088459
267.02479419956
238.92537124012
214.4578893953
192.8797157135
176.00644316441
158.84689626923
143.75903302431
130.52835086737
118.72043060046
107.62926878408
96.474842101405
84.790207360642
72.691856637919
60.953182001842
50.4766042973
41.851208657391
35.238142980037
30.444764379736
27.069300894635
24.656449345195
22.827451609457
21.337170937321
20.045466736147
18.878388998157
17.79238322463
16.794885446728
15.872535372246
15.035912780311
14.295261083706
13.657297252468
13.123605592974
12.690320850309
12.349924085762
12.091060268732
11.902601156038
11.774113938559
11.696923883556
11.663950499592
11.660198253852
11.689857643041
11.739006757374
11.79912035071
11.859277880882
11.912049827018
11.949233275308
11.964623575135
11.958525801251
11.9263920185
11.875324229881
11.812583606309
11.74177519486
11.663866751804
11.58559413021
11.511768494562
11.446651564901
11.393625444935
11.353919397766
11.336941414911
11.323703347609
11.111084381903
3.6616967515021
2.0355120902267
2.0919864302337
2.0228702523626
1.9980757194593
1.9807450285015
1.9646760738601
1.9208532778107
1.8702151820813
1.789736983781
1.6958445966585
1.5716443461378
1.3922969720999
1.2022848427281
1.0610085701859
0.94708692513143
0.85456938835296
0.77938553071861
0.70850658394992
0.64415686763871
0.58684709064225
0.5363903195002
0.49223606676571
0.45350469761723
0.41928893168165
0.38891071796366
0.36184060265572
0.33771181318203
0.31620488415651
0.29697556513872
0.27975208115645
0.26428219200056
0.25031375226531
0.23766224424678
0.22611630396298
0.21559053768705
0.20597478655027
0.19716524128778
0.18905116731074
0.18156499664916
0.17465912153126
0.16826881202869
0.16234056360338
0.15682367736532
0.15169817078312
0.14692707343073
0.14248648127679
0.13834479409312
0.13448119798356
0.13087399136366
0.12749980240325
0.12433886071111
0.12137143453409
0.11858437328906
0.11596112317377
0.11348901718197
0.11115767641188
0.10895837432808
0.10688415656722
0.1049241211938
0.10306767853915
0.10130434182891
0.099624683687329
0.098021953798905
0.09649021251744
0.095024794361797
0.093468750672246
15.360706099416
4169.8123339633
2962.0727557937
1964.434027691
1386.2634561961
1030.1919560022
798.28359556293
640.22001236381
528.34230475809
446.43460428496
384.51525570665
336.19894190776
297.28791320948
264.98893395167
237.45157194261
213.47763856016
192.32561493604
175.78466119924
158.90955185852
144.04312770435
130.99040704747
119.35898456458
108.50030868365
97.658802260955
86.349039227709
74.604289335471
63.092267346765
52.679870224857
43.974974381318
37.193024689885
32.203462579369
28.652338957047
26.10939661962
24.190094449708
22.629060799638
21.267521604261
20.019223913664
18.892658140913
17.761407310488
16.681828597566
15.668920251559
14.740503800068
13.912174162609
13.193869416726
12.588004536376
12.090805162982
11.690985411434
11.373743334833
11.124970925943
10.931678784657
10.783308917686
10.669531650375
10.581559620375
10.509372390191
10.444144944553
10.379068847513
10.30547832501
10.219333541888
10.115376666329
9.9959814376897
9.8666218146355
9.7346790061378
9.6051223855099
9.4824602287858
9.3744932693766
9.280123340419
9.2029175099938
9.1514234904638
9.12749720683
9.1304750435827
9.1571215381996
9.1522661398708
8.9921043647508
3.4045154779277
1.5532239102472
1.475159385016
1.4818646190692
1.488866729722
1.5095225738546
1.5307138421173
1.5480285021163
1.5499235080613
1.5509676300729
1.523072649633
1.4668159657583
1.3933675654677
1.2704711017762
1.1002506966376
0.95959984975267
0.85237787210882
0.76581821311961
0.69425898315386
0.63531576669449
0.58087662626756
0.53189633762924
0.48831369066928
0.44974954968615
0.41569148239045
0.38559202578175
0.35890601314753
0.33512109945901
0.31381630960182
0.29466444939248
0.27741738199462
0.26185274096453
0.24775647898004
0.23496663103199
0.22335032890357
0.21277846564942
0.2031299955043
0.19426399885062
0.18611486194163
0.1786040158827
0.17165650700298
0.16521205011083
0.15920607876521
0.15361942878442
0.14841040992047
0.14355371137605
0.13901460142229
0.13477146684539
0.13080546420389
0.12708853806745
0.1236021012991
0.12032369463462
0.11724223073697
0.11434344326527
0.11161243508327
0.10903681529188
0.10660465887287
0.1043098274909
0.102142906551
0.10009446528172
0.098154415688899
0.096312329706298
0.09456090366093
0.092893571623493
0.091304688761052
0.089790220572223
0.088238942526918
46.1968909526
4154.7893598598
2823.5215692724
1885.9340423598
1339.5600341652
1000.874961214
779.02210546294
627.02165962428
518.92045591682
439.44612631458
379.16674944622
332.02745587577
294.03059602993
262.49324546911
235.61848304015
212.22736727817
191.58153072332
175.43883311079
158.90849925415
144.31336303258
131.47633497174
120.05024629378
109.4520950314
98.965116154672
88.088037141284
76.770297245589
65.555592893391
55.258579903342
46.499033147285
39.548760181569
34.346946143885
30.598832189617
27.905429747798
25.886883452426
24.25709953541
22.834792914316
21.51665052924
20.373000999089
19.11189321333
17.866992195265
16.65459733736
15.499411622958
14.427679970427
13.462327265336
12.618090488523
11.898026574694
11.299224678947
10.804803769166
10.394490399369
10.049322806459
9.7541139388913
9.4956585986878
9.2616288293374
9.0407906672616
8.824534086253
8.6064438896248
8.3808617096753
8.1589472262147
7.9539008534999
7.7686086445477
7.602542572494
7.456916984274
7.3332389429675
7.2359374821561
7.175539598912
7.1545192237437
7.1778407834477
7.2596875116522
7.3962747873503
7.5783185699445
7.7790888449108
7.8707417070566
7.7442343106335
3.5071115011921
1.3607672160528
1.1435241317212
1.1386665886744
1.1578607035823
1.1866140529224
1.218745009923
1.2526140625085
1.2803896370071
1.2975244088143
1.3171984835798
1.3133357647476
1.2753834718208
1.2310049357085
1.1413681161667
1.0151616892242
0.87662645739332
0.77473539474965
0.69466281254579
0.62912858341633
0.57402516078815
0.5278736540211
0.48585964021877
0.44802658418953
0.41414511711917
0.38398028760368
0.3572085240469
0.33342353564351
0.31219803793179
0.29317230202026
0.27604452754766
0.26053912045428
0.24644094778154
0.23359966726353
0.22188649415122
0.21119374747755
0.201430576531
0.1924885082939
0.18427480946181
0.1767110741481
0.16970681560469
0.16321618024625
0.15718780365454
0.15157124112867
0.14633575421826
0.14143613521631
0.1368578583649
0.1325741065781
0.1285559777307
0.12478218631139
0.12122658024918
0.1178810676343
0.11472979385382
0.11175866495405
0.10895458357619
0.10630320929927
0.10379882621719
0.10143001333243
0.099187713158506
0.097063093024814
0.095046581348957
0.093130585573358
0.091307517704494
0.089569826667045
0.087913628763843
0.086335272158805
0.085085129478408
183.33511494873
4062.6257995816
2672.2583754627
1798.8132749171
1287.096405929
967.63737918297
757.01293431735
611.83850648312
508.01775083335
431.31601703913
372.91301763081
327.12552724355
290.1787530083
259.51463214014
233.39836192138
210.67474774409
190.61122386148
174.93073029065
158.80542718346
144.53112964601
131.94879720426
120.75531134283
110.4371313859
100.33185130832
89.930071229668
79.103672460418
68.262296744643
58.146743737664
49.376929700063
42.277994628614
36.862664469549
32.903998955612
30.045250906104
27.919338856096
26.225437577751
24.757754601111
23.391731674665
22.266319073599
20.904430648858
19.514104191025
18.10678426485
16.710453451969
15.358476897158
14.087751415247
12.931401801436
11.911465347098
11.032554356006
10.290959997434
9.6628577036653
9.1210122487686
8.6418031119359
8.2074295086095
7.8035534379044
7.4196794474857
7.0519375498703
6.7039819452843
6.3854695293466
6.1094275715837
5.8854415784084
5.7132708377332
5.5869839759498
5.5077459052685
5.4809272838153
5.5080561897917
5.6051098180307
5.7785007388261
6.0351129697815
6.3688615140576
6.7698656356056
7.2337247238032
7.6896589575711
7.9142634655249
7.8467168735733
4.191306278681
1.2282771517682
0.98079356619332
0.91733375318393
0.93252724553121
0.96119390147809
0.99551050655436
1.0305828384641
1.0656382517789
1.0973551644979
1.1212271054997
1.1455757904909
1.1476600586458
1.1205360299554
1.0896524836314
1.0245032669903
0.92732277339781
0.80604261037219
0.70963791186599
0.63515277950774
0.57502710208643
0.52526384047662
0.48295443756499
0.44656062662352
0.41352191341212
0.38371370758759
0.3569639692876
0.33304710668629
0.31164953877355
0.29245346521734
0.27522672995553
0.25972863304445
0.24566752802193
0.23283871153656
0.22112218444637
0.21041321258122
0.20060019039047