/*--------------------------------*- C++ -*----------------------------------*\
| =========                 |                                                 |
| \\      /  F ield         | OpenFOAM: The Open Source CFD Toolbox           |
|  \\    /   O peration     | Version:  2312                                  |
|   \\  /    A nd           | Website:  www.openfoam.com                      |
|    \\/     M anipulation  |                                                 |
\*---------------------------------------------------------------------------*/
FoamFile
{
    version     2.0;
    format      ascii;
    arch        "LSB;label=32;scalar=64";
    class       volScalarField;
    location    "0.00014";
    object      nut;
}
// * * * * * * * * * * * * * * * * * * * * * * * * * * * * * * * * * * * * * //

dimensions      [0 2 -1 0 0 0 0];

internalField   nonuniform List<scalar> 
109340
(
0.00071888413606781
0.00049300248101425
0.00026605250892404
0.00022233934662428
0.00021537945234558
0.00021978532227801
0.00022797584654214
0.00024230214607099
0.00021118296517475
0.00018784066235757
0.00016936688960759
0.00015429786820103
0.0001417431149555
0.000131110734918
0.00012198597482662
0.00011406742902192
0.00010712993762533
0.00010100154964816
9.5548517006917e-05
9.0665158450657e-05
8.6266809977806e-05
8.228479698004e-05
7.8662782315832e-05
7.535407483864e-05
7.2319621117051e-05
6.9526483492728e-05
6.6946665693641e-05
6.4556193309341e-05
6.2334377194524e-05
6.026320092977e-05
5.8326780950887e-05
5.6510830858078e-05
5.4801971648453e-05
5.318644399625e-05
5.1646586799472e-05
5.0152246321797e-05
0.00071053098598633
0.00034455222929949
0.00025241090578458
0.00023090219513477
0.00022935266163918
0.00023392134000513
0.00020944841346607
0.00018219814815341
0.00016102510818594
0.00014426280487272
0.00013069200799433
0.00011948755792828
0.00011008305969801
0.00010207885931186
9.5185249531164e-05
8.9187152740918e-05
8.3921565372295e-05
7.9262699863316e-05
7.5111931943964e-05
7.1390792740882e-05
6.8035967351047e-05
6.4995732414206e-05
6.2227402081351e-05
5.9695468602309e-05
5.7370192530718e-05
5.5226503473589e-05
5.3243139766443e-05
5.1401952434403e-05
4.9687325442093e-05
4.8085698846167e-05
4.6585146836368e-05
4.517496934707e-05
4.3845257750752e-05
4.2586357065463e-05
4.138797192023e-05
4.0233675672283e-05
0.00041730628978931
0.00029406684951756
0.00025346842040613
0.00023792030964524
0.00019033368980425
0.00015868110052779
0.00013572846284174
0.00011843083917924
0.00010498732543025
9.4283796537533e-05
8.5585842799033e-05
7.8391627480633e-05
7.2349736761308e-05
6.7208337891508e-05
6.278295785476e-05
5.8935722483184e-05
5.5561681709576e-05
5.2579594289376e-05
4.99254066496e-05
4.7547485102807e-05
4.5403576330991e-05
4.3458991456831e-05
4.1685330017624e-05
4.0059366391109e-05
3.8561947300028e-05
3.7177218212441e-05
3.5892017395619e-05
3.4695182066341e-05
3.357727263091e-05
3.2530154303581e-05
3.1546693130049e-05
3.0620601124653e-05
2.9746096378502e-05
2.8918379525278e-05
2.8135748348061e-05
2.7400010421907e-05
0.00023981768253178
0.00024225082961511
0.0001520345872969
0.00011068003846639
8.7066989354858e-05
7.1819278264298e-05
6.1192340363923e-05
5.337961927249e-05
4.7405947372319e-05
4.2699024739186e-05
3.8901045857426e-05
3.5776601155432e-05
3.3164492366689e-05
3.0950780546687e-05
2.9052871957943e-05
2.7409545902821e-05
2.5974363800316e-05
2.4710938366962e-05
2.3586729042742e-05
2.2573871990802e-05
2.1651657445212e-05
2.0805435913256e-05
2.0024631268007e-05
1.9301425319199e-05
1.8629803296565e-05
1.8004918794045e-05
1.7422334035929e-05
1.6878838844569e-05
1.6371560776233e-05
1.5897958338797e-05
1.5455454632489e-05
1.5040273981625e-05
1.4646471297602e-05
1.4269133757284e-05
1.3909898719558e-05
1.3582287274009e-05
0.0001444237706648
4.7212651996616e-05
2.8708785381786e-05
2.0819671410327e-05
1.6472375104325e-05
1.3743362919637e-05
1.1886985371952e-05
1.0553058217407e-05
9.5553828258135e-06
8.7867318247519e-06
8.1814344313604e-06
7.697844520652e-06
7.3083814637843e-06
6.9944684479265e-06
6.7434736149384e-06
6.5465550863337e-06
6.3958951008236e-06
6.2784092580977e-06
6.1726569537878e-06
6.0671399481262e-06
5.9608621609579e-06
5.8572649113049e-06
5.7600086430837e-06
5.6716108823466e-06
5.593472432083e-06
5.5262945732105e-06
5.4702569536575e-06
5.4252329593829e-06
5.3915930040221e-06
5.3690871742252e-06
5.3567494180007e-06
5.3538002285887e-06
5.3594150148469e-06
5.3721078696842e-06
5.3874464693975e-06
5.3972825265073e-06
3.6369822754894e-07
5.4285386746451e-07
6.9846364135975e-07
8.1987663915726e-07
9.0666013659411e-07
9.6388860414511e-07
9.9829167277229e-07
1.0161711370967e-06
1.0225419876497e-06
1.0215655541397e-06
1.0156499179413e-06
1.0066930420995e-06
9.9600037449263e-07
9.8445334047054e-07
9.7264389252085e-07
9.6099366572834e-07
9.4977745998694e-07
9.3917970186607e-07
9.2938914006434e-07
9.206389291954e-07
9.1272821431571e-07
9.055271718904e-07
8.9897010554755e-07
8.9301961238669e-07
8.8764500423136e-07
8.8281491190679e-07
8.7849516675088e-07
8.7464768772817e-07
8.7122700428461e-07
8.681747336395e-07
8.6541221929407e-07
8.6280513713062e-07
8.601378270195e-07
8.5690344405514e-07
8.5115470599431e-07
8.3330495696791e-07
4.5050656788091e-05
2.4918039771682e-05
1.4042783906551e-05
9.2307162889936e-06
6.719643720055e-06
5.0400034630483e-06
3.875240472286e-06
3.0128562408488e-06
2.4284148182547e-06
2.1724120854649e-06
2.2347649455941e-06
2.7986285560727e-06
3.2826489687688e-06
3.803252128503e-06
4.2198533443967e-06
4.5562980227223e-06
4.8480803688084e-06
5.0835415747189e-06
5.297127443339e-06
5.5236473886901e-06
5.7189704852868e-06
5.8830064166679e-06
5.8993133290903e-06
5.6490897989323e-06
5.4195029389135e-06
5.2080040966587e-06
5.0201193377762e-06
4.8417015413627e-06
4.6740677457328e-06
4.5293982143909e-06
4.3838100232042e-06
4.2612851857153e-06
4.1352379693863e-06
4.0287077371968e-06
3.9190649709191e-06
3.8251780295809e-06
3.7286354329259e-06
3.645706138086e-06
3.5598830931737e-06
3.4866769162631e-06
3.4098458998064e-06
3.3445373461029e-06
3.2755770273364e-06
3.2163722029017e-06
3.1549043220958e-06
3.100073699896e-06
3.0462688756313e-06
2.9944496336294e-06
2.9464122899147e-06
2.8986880862528e-06
2.8541628849147e-06
2.8109969178461e-06
2.7698488748307e-06
2.7302680550861e-06
2.6922328781099e-06
2.6555925402468e-06
2.6203210621853e-06
2.586345553985e-06
2.5536244132681e-06
2.5220723019003e-06
2.4916013949631e-06
2.4621197875794e-06
2.4335566685679e-06
2.4058584010058e-06
2.3789895513719e-06
2.3529044586264e-06
2.3275967375077e-06
2.4997186097359e-06
0.00022160436425951
0.00048130932859772
0.00042798047430357
0.00038571038149169
0.00035552025070473
0.0003334822974114
0.00031703436112673
0.00030448813532076
0.0002946392871171
0.00028659213017553
0.00027965711954196
0.00027330939172158
0.00026719619468807
0.00026115849975082
0.00025522234026753
0.00024956197892171
0.00024382723886671
0.00023970623233601
0.00023673016469587
0.00023502721679983
0.000234459781107
0.00023442898479215
0.00023400205577748
0.00023214887370625
0.00022808404038566
0.00022151997999014
0.00021208253882191
0.00019951528830202
0.00018472231989167
0.00016994967862065
0.00015716936961107
0.00014679754974597
0.00013831862973005
0.00013113902726882
0.0001248607632765
0.00011926198075161
0.00011307889782399
0.00010872503170637
0.00010483287609941
0.00010142517650532
9.8538442925104e-05
9.6138298659137e-05
9.4154967272778e-05
9.2560606965851e-05
9.1307041135019e-05
9.0317394906578e-05
8.9516707080947e-05
8.9066662942201e-05
8.8880281526366e-05
8.8906948359139e-05
8.90988815338e-05
8.9441459161767e-05
8.9885556942363e-05
9.0405397200701e-05
9.0942038270491e-05
9.1464541729129e-05
9.1947260890405e-05
9.2366563488761e-05
9.2708920860147e-05
9.2973489490943e-05
9.3168217163134e-05
9.3304293994141e-05
9.3394182410773e-05
9.344986118835e-05
9.3487491106076e-05
9.3519068599534e-05
9.3553745505258e-05
9.3608095452362e-05
9.3728943603452e-05
9.4000317904888e-05
9.492862432432e-05
9.4154182442386e-05
3.48098456596e-05
1.9566713647779e-05
1.219123012943e-05
8.5965642618424e-06
6.34072072662e-06
4.8356661634571e-06
3.7414809704736e-06
2.9351645262733e-06
2.351175712807e-06
1.9554761641908e-06
1.728240545768e-06
1.6796018784622e-06
1.7525561223723e-06
1.8880471556887e-06
2.0959814076718e-06
2.3602668329677e-06
2.6758220994146e-06
3.0422858487712e-06
3.4228265666572e-06
3.8112978473566e-06
4.2097406750404e-06
4.6109057774852e-06
5.0055808428152e-06
5.3987682051942e-06
5.2771580845851e-06
5.0719164714627e-06
4.8849020362806e-06
4.7144909743909e-06
4.5574279429051e-06
4.4131688177795e-06
4.2799318527713e-06
4.1564227150549e-06
4.0421021368875e-06
3.9351053805741e-06
3.8355643215154e-06
3.7416484446732e-06
3.6539818752141e-06
3.5711502355209e-06
3.4936024696285e-06
3.4200532211917e-06
3.3508512716773e-06
3.2850411740557e-06
3.2226518159795e-06
3.1632717884906e-06
3.1066294368809e-06
3.0527973693603e-06
3.0012406852589e-06
2.9523049994245e-06
2.9053428073578e-06
2.8606502455671e-06
2.8176817616273e-06
2.7765404995886e-06
2.7369486248655e-06
2.6988889769918e-06
2.6622604208626e-06
2.6269798096027e-06
2.5930011742371e-06
2.5602582187888e-06
2.5286847403446e-06
2.4982008804979e-06
2.4687296109148e-06
2.4401916150083e-06
2.4125177421243e-06
2.3856515929526e-06
2.3595505399879e-06
2.3341921422642e-06
2.3095281200675e-06
7.2634001864866e-06
0.00037465759428785
0.0004685702891445
0.00041562748201684
0.00037694304369408
0.00034917118446198
0.00032876391567591
0.00031344928500393
0.00030169469150744
0.00029238669011516
0.00028468866952132
0.0002779548099731
0.0002717039779196
0.0002656316381988
0.00025962688795377
0.00025375480876767
0.00024821500837813
0.00024382366763934
0.00023970266998994
0.00023671851383412
0.00023500499164987
0.0002344272938247
0.00023439304257884
0.00023397394032638
0.0002321458689393
0.00022811893670942
0.00022159966269017
0.00021221144549598
0.00019969381665983
0.0001849407995209
0.00017018893503585
0.00015741127722052
0.00014703418170848
0.00013854644556599
0.00013135470190437
0.0001250607822375
0.0001194407235339
0.00011322241636502
0.00010883704788175
0.00010491170351294
0.00010146901442875
9.8545324676375e-05
9.6112109622243e-05
9.4097001808294e-05
9.2472141594264e-05
9.1190859808582e-05
9.0181496209779e-05
8.9355684291321e-05
8.8874061647039e-05
8.8657868332606e-05
8.8655062682491e-05
8.8817148761251e-05
8.9127245450794e-05
8.9538577202454e-05
9.0026192137854e-05
9.0530739927074e-05
9.1022457741505e-05
9.1475529353022e-05
9.1866589951511e-05
9.2182338767593e-05
9.2422044216743e-05
9.2593473747836e-05
9.2707660269507e-05
9.2776699910868e-05
9.281181223155e-05
9.2829355251524e-05
9.28411090492e-05
9.2857700750674e-05
9.2898308202619e-05
9.3008880317672e-05
9.3259113962859e-05
9.4002660131563e-05
9.3167617795783e-05
2.5476700903209e-05
1.3285749781332e-05
8.5808087764117e-06
6.3495861902056e-06
4.7575070907053e-06
3.7078009741494e-06
2.9552940054069e-06
2.4273078805901e-06
2.0625976757913e-06
1.8311348848132e-06
1.7400930784488e-06
1.7200921733403e-06
1.7786236662681e-06
1.8972354819558e-06
2.0561511640841e-06
2.2478456468199e-06
2.4741666550172e-06
2.7190648852949e-06
2.9557720112483e-06
3.1977197373334e-06
3.4601693858516e-06
3.7293732390997e-06
4.0060178820424e-06
4.3046433484764e-06
4.6185862783358e-06
4.9377009224918e-06
4.8127262977235e-06
4.6413632456642e-06
4.4849290501012e-06
4.3410557006672e-06
4.2088784967137e-06
4.0865546894297e-06
3.9738678638765e-06
3.8693904927513e-06
3.7720679105347e-06
3.6813262082829e-06
3.5961013225438e-06
3.5161123310785e-06
3.4408706383737e-06
3.3698430985959e-06
3.3028189381381e-06
3.2391473620971e-06
3.178866246377e-06
3.121307882773e-06
3.0667001711802e-06
3.0144249362413e-06
2.9647637759944e-06
2.9172197622966e-06
2.8719072815199e-06
2.8284989374874e-06
2.7869674661804e-06
2.7471261628297e-06
2.7087715514314e-06
2.6718503934983e-06
2.6362726620136e-06
2.6020238213865e-06
2.5690317408038e-06
2.5372337620689e-06
2.506554659846e-06
2.4769221072867e-06
2.4482618536804e-06
2.4204980355857e-06
2.3935614223382e-06
2.367398639284e-06
2.3419755069854e-06
2.3172627176682e-06
2.2932063813358e-06
7.7079654675829e-06
0.00038181914689062
0.0004678720831946
0.00041502784456387
0.00037653804529402
0.00034887152680902
0.00032851880829915
0.00031323956254725
0.00030151304642
0.00029222859389675
0.00028455015018804
0.00027783411403978
0.00027160273722626
0.00026555376838608
0.00025957562464393
0.00025373020257456
0.00024821265747438
0.00024383303724445
0.00023971864030375
0.00023673137249607
0.00023501284930811
0.0002344329063547
0.00023441392897984
0.00023403539786118
0.00023228329793729
0.00022835718707311
0.00022194866178065
0.00021267473938755
0.00020026527438793
0.00018559073304567
0.00017086732067646
0.00015807415698286
0.00014766433150251
0.00013913847103951
0.0001319040953057
0.00012556241279812
0.00011988511681902
0.0001135811349984
0.00010911976714716
0.00010511548500288
0.0001015908796578
9.8581167806807e-05
9.6070960415542e-05
9.398228783037e-05
9.2286855408839e-05
9.0940354039358e-05
8.9881225054591e-05
8.9002988441607e-05
8.8449754151384e-05
8.8167621053041e-05
8.8100854363984e-05
8.8199861535906e-05
8.8443975619587e-05
8.8790061008442e-05
8.9214421539083e-05
8.9657594501021e-05
9.0090569441787e-05
9.0487225965646e-05
9.0824112886421e-05
9.1088129995353e-05
9.1278821970751e-05
9.1403867924399e-05
9.147426002294e-05
9.1501445710235e-05
9.1495241465184e-05
9.1472533639572e-05
9.1444704690948e-05
9.1424394484003e-05
9.143369581921e-05
9.1517908146265e-05
9.1744364144119e-05
9.2202580021999e-05
9.1270453798923e-05
1.3391440219629e-05
7.6648805986281e-06
5.1836024820203e-06
3.8251840700253e-06
3.0519174133897e-06
2.5673926553574e-06
2.2519426561741e-06
2.0585151401367e-06
1.9457209890256e-06
1.9159669012925e-06
1.8984469420229e-06
1.9103213063173e-06
1.9552505373621e-06
2.0345781934037e-06
2.154167527033e-06
2.3147053740068e-06
2.5006103808241e-06
2.7047929669954e-06
2.9116824833811e-06
3.1067504327932e-06
3.2880659048152e-06
3.4849260634109e-06
3.6944830760263e-06
3.9041626462201e-06
4.124368059198e-06
4.3689122176889e-06
4.6204788467437e-06
4.5794344096115e-06
4.4238543201141e-06
4.280916027151e-06
4.1489350152032e-06
4.0270006735349e-06
3.914107333561e-06
3.8097018440837e-06
3.7123183998213e-06
3.6215214681552e-06
3.5364786128033e-06
3.457191864215e-06
3.3828426492068e-06
3.3129783816684e-06
3.2471406784083e-06
3.1852250483248e-06
3.1265780521208e-06
3.0711732324816e-06
3.0184482689576e-06
2.9681529758012e-06
2.9202221306553e-06
2.8743917790956e-06
2.8306902135283e-06
2.7888019688636e-06
2.7487764642658e-06
2.710323466194e-06
2.6733701483005e-06
2.6377298742674e-06
2.6033789367492e-06
2.5703016097919e-06
2.538437988363e-06
2.5077283264965e-06
2.4780936524544e-06
2.4494626667627e-06
2.4217558312042e-06
2.3949001540732e-06
2.3688320567641e-06
2.343504085638e-06
2.3188857385083e-06
2.2949542165389e-06
2.2716409085226e-06
8.3680299090777e-06
0.00039094672772184
0.00046673377438462
0.00041418814688775
0.00037597058777114
0.00034844753357902
0.00032817217554642
0.00031294285579883
0.00030125474835977
0.00029200198812645
0.00028435016926009
0.0002776589836795
0.00027145538634817
0.00026544009421723
0.00025950047011958
0.00025369390252567
0.00024821009382803
0.0002438511513381
0.00023974944729281
0.00023676281127759
0.00023504059955968
0.00023446285358315
0.00023447247586803
0.00023416232747599
0.00023252892847498
0.00022875919141892
0.00022252128186261
0.00021342191500082
0.00020117675559532
0.00018662071577952
0.00017193644670369
0.00015911527336139
0.00014865119768818
0.00014006381671185
0.00013276142742621
0.00012634286801126
0.00012057914944317
0.00011414653593668
0.00010956830850961
0.00010544171634777
0.00010179022964823
9.864709749054e-05
9.6016278539268e-05
9.3813831416214e-05
9.2009776360734e-05
9.0561917056764e-05
8.9413531167361e-05
8.8468320881541e-05
8.780311794446e-05
8.7420205069374e-05
8.7256167130691e-05
8.7258760956747e-05
8.7404291082442e-05
8.7653170984835e-05
8.7982734333482e-05
8.833439642958e-05
8.8679735601657e-05
8.8992687293711e-05
8.9249654677762e-05
8.9437399114803e-05
8.9555442202221e-05
8.9611452517735e-05
8.9616600597321e-05
8.9581705303077e-05
8.9514923765522e-05
8.943302455037e-05
8.9346547003772e-05
8.9269048710803e-05
8.9224085176776e-05
8.925184598573e-05
8.9411289833769e-05
8.9695257938728e-05
8.8710828166678e-05
5.3667876114004e-06
4.3509720001703e-06
3.6352794547261e-06
3.2755293481273e-06
2.9613348064696e-06
2.6909963188358e-06
2.5025623652679e-06
2.3925819080093e-06
2.3388029755095e-06
2.2494968035642e-06
2.2277828721038e-06
2.231532605293e-06
2.2612541605752e-06
2.317588358868e-06
2.3903998802955e-06
2.4924235756584e-06
2.6344603010697e-06
2.7899341072342e-06
2.9478893687323e-06
3.1138687315336e-06
3.2871863508111e-06
3.4490330108646e-06
3.6140796031884e-06
3.7926096147027e-06
3.9741032000197e-06
4.1563591998392e-06
4.3553076022799e-06
4.5205589674727e-06
4.3682099796556e-06
4.2274806962238e-06
4.0970944290914e-06
3.9762389100309e-06
3.8640094323931e-06
3.7598267135944e-06
3.6628291642973e-06
3.5721659704839e-06
3.4873357043342e-06
3.4080548476874e-06
3.3338307953497e-06
3.2641820025824e-06
3.1986129022973e-06
3.136834226909e-06
3.0783889008219e-06
3.0231115841533e-06
2.9706022986452e-06
2.9208476958651e-06
2.8735534239131e-06
2.8285726779681e-06
2.7856832095962e-06
2.7448959015199e-06
2.7060241590958e-06
2.6688440450957e-06
2.6332605668584e-06
2.5989629778353e-06
2.5658686409632e-06
2.5339648334567e-06
2.5032444717722e-06
2.4736480607504e-06
2.4450979453573e-06
2.4175107918845e-06
2.3908047827542e-06
2.3649107527842e-06
2.3397709111712e-06
2.3153383730941e-06
2.2915813143621e-06
2.2684859396409e-06
2.2460088771187e-06
9.2811044323692e-06
0.00040167661080893
0.00046517865125721
0.00041312553404538
0.00037524851004284
0.00034790496131808
0.00032773020277926
0.00031256475788611
0.00030092364724203
0.00029170874990141
0.00028408907337331
0.00027742893349618
0.00027126102898336
0.00026528945638854
0.0002593999644976
0.00025364435596518
0.00024820547863692
0.00024387555468375
0.00023979187802747
0.00023680847475626
0.00023508281488261
0.0002345098191345
0.00023455857709607
0.00023434078159553
0.00023286535201211
0.00022930400819057
0.00022329404084672
0.00021442831924507
0.00020240359773679
0.00018800788048179
0.00017337821829742
0.0001605213902511
0.00014998606155663
0.00014131815650137
0.00013392639728659
0.00012740429949155
0.00012152515347467
0.00011492838255789
0.00011019370476034
0.00010590106888636
0.00010207709887236
9.8752530842364e-05
9.5953800178349e-05
9.3595870047644e-05
9.1643290861302e-05
9.0055225772533e-05
8.8780726250049e-05
8.774426414601e-05
8.6935499969818e-05
8.6415147982419e-05
8.6120106931341e-05
8.5992613899487e-05
8.600654598562e-05
8.6125663305358e-05
8.6328318363887e-05
8.6557331370051e-05
8.6785178681386e-05
8.6986242961138e-05
8.7137012122132e-05
8.7224102357286e-05
8.7246535975933e-05
8.7211675939464e-05
8.7131007264485e-05
8.7014538476336e-05
8.6868256280945e-05
8.6707748467753e-05
8.6544316379707e-05
8.6392332768583e-05
8.627357270138e-05
8.622292385655e-05
8.6288099362868e-05
8.6430932373465e-05
8.5447406689001e-05
2.4464121806683e-06
2.947666059041e-06
3.6261575785502e-06
4.291730115776e-06
5.0127147329983e-06
4.892837005119e-06
4.1783877607359e-06
3.5862343022115e-06
3.170688394379e-06
2.9393896786173e-06
2.7929172813363e-06
2.712492082053e-06
2.6827357499593e-06
2.6890613785951e-06
2.7242995559063e-06
2.7846853258162e-06
2.8632217704948e-06
2.9573340009571e-06
3.0684550673376e-06
3.1916692444577e-06
3.3252004246453e-06
3.4749021233359e-06
3.6253743369622e-06
3.777704626516e-06
3.9405832357346e-06
4.1053556280251e-06
4.2686855968232e-06
4.4390305033903e-06
4.3138408359175e-06
4.1767860128843e-06
4.0494009464582e-06
3.9305172948017e-06
3.8199640376423e-06
3.7168974475349e-06
3.6206405744217e-06
3.5305127008876e-06
3.4461625345153e-06
3.3670354743409e-06
3.2928675076181e-06
3.2232007848646e-06
3.1576856961711e-06
3.0958303082395e-06
3.0374122864765e-06
2.9821282089132e-06
2.9297463489132e-06
2.8800760936434e-06
2.8329166103721e-06
2.7881614915333e-06
2.7455539417781e-06
2.7050142367113e-06
2.6663441702826e-06
2.6294438487663e-06
2.5941034987644e-06
2.5601808280736e-06
2.5276010239524e-06
2.4963042624e-06
2.466240002572e-06
2.4373551768192e-06
2.4096068106303e-06
2.3828746906975e-06
2.3570858546809e-06
2.3321355701152e-06
2.3079128373271e-06
2.2843428460693e-06
2.2614178190264e-06
2.2391439827939e-06
2.2174972369754e-06
1.0518979601087e-05
0.00041382373945108
0.00046332373294743
0.00041186272809784
0.00037437520255157
0.00034724711695661
0.00032719741037539
0.00031210966080489
0.00030052282823109
0.00029135030332721
0.00028376691038355
0.00027714318436741
0.00027101844851003
0.00026510029771704
0.00025927231319505
0.00025357970086054
0.00024819666006765
0.00024390396922782
0.00023984332893622
0.00023686504655509
0.00023513574707648
0.0002345690214756
0.00023466574095356
0.00023456086159865
0.00023327927920801
0.00022997530914343
0.00022424827026333
0.00021567408227744
0.00020392624799039
0.00018973547688172
0.00017518163062414
0.00016228692154981
0.00015166772704549
0.00014290448700974
0.00013540679255309
0.0001287587116735
0.00012273260239322
0.00011594658407391
0.00011101577881855
0.00010651244743145
0.00010246900807683
9.8915515568506e-05
9.589458607919e-05
9.333684042109e-05
9.1193725629121e-05
8.9425022465744e-05
8.7983941971474e-05
8.6819249596638e-05
8.5850002394229e-05
8.5152090401797e-05
8.469193815654e-05
8.4399288302588e-05
8.4248569537521e-05
8.4205082382062e-05
8.42486530409e-05
8.4323556443906e-05
8.4403860079618e-05
8.4464841305986e-05
8.4483603281998e-05
8.444691776607e-05
8.4351613487742e-05
8.4204753006286e-05
8.4018273649689e-05
8.3800383806043e-05
8.3554834537168e-05
8.329927548962e-05
8.3045336640943e-05
8.2805605979083e-05
8.2600257161358e-05
8.2458786875802e-05
8.2416994553342e-05
8.2426971633948e-05
8.148422260503e-05
9.844850107814e-07
1.9088053828447e-06
2.2150049100907e-06
2.7769357978716e-06
3.3675065723981e-06
4.0306059092677e-06
4.8414069395415e-06
5.6647677998012e-06
4.7927472080159e-06
4.1444978806037e-06
3.7134828025974e-06
3.4495474443719e-06
3.2814356936271e-06
3.1844920149769e-06
3.1395557166119e-06
3.1297573831933e-06
3.1435911742322e-06
3.1804388875351e-06
3.2381583870282e-06
3.3121389470039e-06
3.4045626761802e-06
3.5129782522034e-06
3.6387582266105e-06
3.7778013849596e-06
3.9077557839223e-06
4.0636146860641e-06
4.2200397605564e-06
4.3791364830321e-06
4.2946975360494e-06
4.1590671547278e-06
4.0329788863289e-06
3.9153463104535e-06
3.8052575981853e-06
3.7022499425567e-06
3.6059695020813e-06
3.5156780439901e-06
3.4307781858732e-06
3.3510414207403e-06
3.2761286413716e-06
3.2056176491659e-06
3.1391836196398e-06
3.0764924244066e-06
3.0172621695983e-06
2.9611496465999e-06
2.9079779634244e-06
2.8575724793128e-06
2.8097629332421e-06
2.7643591567358e-06
2.7211615515301e-06
2.6800864078337e-06
2.640966651481e-06
2.6036918646477e-06
2.5680411683778e-06
2.5338953357165e-06
2.5011620747527e-06
2.4697716707075e-06
2.4396686288729e-06
2.4107733605767e-06
2.3830273371706e-06
2.3563414737869e-06
2.3306266258588e-06
2.3057903050479e-06
2.2817632816542e-06
2.258495354277e-06
2.2359361073462e-06
2.2140509268357e-06
2.1928269374871e-06
2.9514766756464e-06
0.00027010690892298
0.00047498896404615
0.00042178760289622
0.0003815023595158
0.00035243821754284
0.00033102325541627
0.00031495448954837
0.00030267346466212
0.00029303229108435
0.00028515779207591
0.00027838376630428
0.00027221579326875
0.00026632344753886
0.0002605454162905
0.00025488218123766
0.00024946933944881
0.00024393377837127
0.00023990112350305
0.00023692987273628
0.00023519650301431
0.0002346365415917
0.00023478792344991
0.00023481337167896
0.00023375785798351
0.00023075768305985
0.0002253662683551
0.00021714052169238
0.00020572637421177
0.00019178807726175
0.0001773368422251
0.00016440780663581
0.00015369658787871
0.00014482734693171
0.00013721224077937
0.00013042290043783
0.00012421367405752
0.00011791239211189
0.00011261671327446
0.0001077222851913
0.00010326789827922
9.9291481002745e-05
9.5836982996545e-05
9.2896178273289e-05
9.0391504907361e-05
8.8281782143663e-05
8.6520794215126e-05
8.5061819314352e-05
8.3855373385766e-05
8.2817844764302e-05
8.2051652167416e-05
8.1450220605929e-05
8.0996164742368e-05
8.0653595168087e-05
8.040498794189e-05
8.0196752593234e-05
8.0006483717032e-05
7.9811210314215e-05
7.9588632725125e-05
7.9323200808917e-05
7.9007088806597e-05
7.8649318383218e-05
7.8263957052159e-05
7.7866021217981e-05
7.744943828866e-05
7.7031787075473e-05
7.662641108043e-05
7.6242826812509e-05
7.5898151055913e-05
7.561479985017e-05
7.5404407590662e-05
7.5208982685864e-05
7.4367269464704e-05
4.9048187162505e-07
1.2603516023843e-06
1.5022946465489e-06
1.7747813092917e-06
2.1381097240139e-06
2.6187543697115e-06
3.1637333735052e-06
3.8103909630875e-06
4.5732850722034e-06
5.267209799624e-06
5.7722483167965e-06
5.2518119826223e-06
4.711065929324e-06
4.3420478383558e-06
4.1004770429055e-06
3.9465298352106e-06
3.8396328358891e-06
3.7744916408077e-06
3.7474530084204e-06
3.7495947383839e-06
3.7759813867159e-06
3.8227752618229e-06
3.8875478545539e-06
3.9696788691845e-06
4.0734727579761e-06
4.1939857447149e-06
4.3024042561214e-06
4.2995434350486e-06
4.1612934034626e-06
4.0328983414192e-06
3.9139624331442e-06
3.8032872383837e-06
3.7003322880698e-06
3.60393287218e-06
3.5132916666783e-06
3.4276585982212e-06
3.3469848873701e-06
3.2708402554918e-06
3.1989123167422e-06
3.1308290540865e-06
3.0664427911566e-06
3.0054710258078e-06
2.9476114668095e-06
2.8926204301119e-06
2.8403481060531e-06
2.7906999065323e-06
2.7434816572415e-06
2.6985218166111e-06
2.6556707465736e-06
2.6148499219469e-06
2.5759461562268e-06
2.5388127063291e-06
2.50330883231e-06
2.4693152157949e-06
2.4367591531699e-06
2.4055758249678e-06
2.3756982464395e-06
2.3470529496762e-06
2.3195665022881e-06
2.2931648587276e-06
2.2677640045468e-06
2.2432868887756e-06
2.2196637404748e-06
2.1968402366384e-06
2.1747723136499e-06
2.1534263790889e-06
2.1328104723614e-06
1.8652971184907e-05
0.00045492962524387
0.00045691053730108
0.00040695884153165
0.0003708288771964
0.00034456600337836
0.00032504918359425
0.00031028671045138
0.00029890788295278
0.00028988392745823
0.00028242704832791
0.00027593916694233
0.00026998507880213
0.0002642828811612
0.0002587059714947
0.00025327113882414
0.00024811769221674
0.00024398574078714
0.00024002497948133
0.00023707429916643
0.00023533055892786
0.00023478126453986
0.00023505293197599
0.00023537787770581
0.00023485394101037
0.0002325861176922
0.00022801393308006
0.00022064983664311
0.00021007387739974
0.00019679556219879
0.00018265408591374
0.00016969490811061
0.00015879610263161
0.0001497011513004
0.00014183637695028
0.00013474592431011
0.00012815996531668
0.00012162007726555
0.00011573539963475
0.00011017507438736
0.00010499923636761
0.00010026714721931
9.6030181939904e-05
9.233845597864e-05
8.9156091963721e-05
8.6414336299077e-05
8.4058279127098e-05
8.2033382962208e-05
8.0288704664296e-05
7.878462981429e-05
7.748926830164e-05
7.6324085815224e-05
7.5339301625221e-05
7.4477394806667e-05
7.3720247406954e-05
7.301910502827e-05
7.2353463149538e-05
7.1700719765144e-05
7.1046942974245e-05
7.0401937069187e-05
6.9727436948401e-05
6.9043612193067e-05
6.8369906759062e-05
6.7712163548914e-05
6.7065984456991e-05
6.6446541605056e-05
6.5865801483654e-05
6.5336037109288e-05
6.4859855809904e-05
6.4436385591887e-05
6.409218720738e-05
6.3755255291479e-05
6.3122797332633e-05
5.6176655534393e-07
9.6216374074902e-07
1.1471483793859e-06
1.3103719955109e-06
1.5472531122378e-06
1.8504500140546e-06
2.238183357806e-06
2.6997838676769e-06
3.2520549340608e-06
3.9009889043826e-06
4.5606292130633e-06
5.0826130838614e-06
5.4060985752413e-06
5.4855262666336e-06
5.2619238669501e-06
4.8812686448855e-06
4.6342610810042e-06
4.4597999888187e-06
4.3419438928638e-06
4.2633128760098e-06
4.2235288211093e-06
4.2132611281457e-06
4.2289951622769e-06
4.2655264013214e-06
4.3205055975497e-06
4.3920535282983e-06
4.3299697598112e-06
4.1993793817927e-06
4.0741251362328e-06
3.954447335963e-06
3.8406924505202e-06
3.7335874848807e-06
3.6327362509281e-06
3.5382180168863e-06
3.4492607948864e-06
3.3660184722514e-06
3.2882622166186e-06
3.2152055940067e-06
3.1459898598749e-06
3.0802710641571e-06
3.0179048711085e-06
2.9585682367169e-06
2.9020322547942e-06
2.8480752516295e-06
2.7967254603053e-06
2.7477698888165e-06
2.7010881221149e-06
2.6564789219656e-06
2.613869989514e-06
2.5731805327698e-06
2.534289207995e-06
2.4970849323753e-06
2.4614403023587e-06
2.4272980884296e-06
2.3945581481128e-06
2.3631509586124e-06
2.3330147184383e-06
2.3040914142327e-06
2.2763371836317e-06
2.2496636218168e-06
2.2239934148788e-06
2.1992572175793e-06
2.175397750149e-06
2.1523806465154e-06
2.1301662907268e-06
2.1087135161247e-06
2.0854769706905e-06
3.1136952381517e-05
0.00047295643041668
0.0004512411553718
0.00040258702872668
0.00036759326293909
0.00034210571985049
0.00032309603134255
0.00030864997892913
0.00029746328881935
0.00028856314148035
0.00028120662279817
0.00027483066476854
0.00026902287730494
0.00026350912279218
0.00025815086060229
0.00025294068110119
0.00024798952017141
0.00024400574167518
0.00024013999306838
0.00023722037835138
0.00023546327574573
0.00023491413554305
0.0002353038617124
0.00023595366690683
0.00023603394783448
0.00023463356923051
0.00023105701787982
0.00022476083846177
0.00021524816832189
0.00020285408654897
0.00018920275949255
0.00017631618507593
0.00016526570924459
0.00015596286870187
0.000147869972162
0.00014050172875904
0.00013355284420862
0.00012680532682292
0.00012026741994849
0.0001139253293469
0.00010785818902777
0.0001021566176155
9.6904760689275e-05
9.2169732038248e-05
8.8007099410101e-05
8.4385237315486e-05
8.1216732051453e-05
7.843272760233e-05
7.5969735568577e-05
7.3770998749746e-05
7.1789719690453e-05
6.998423520834e-05
6.8327043341232e-05
6.6803062260407e-05
6.5392399982639e-05
6.4076500121343e-05
6.2824617892439e-05
6.163245203853e-05
6.048117030647e-05