/*--------------------------------*- C++ -*----------------------------------*\
| =========                 |                                                 |
| \\      /  F ield         | OpenFOAM: The Open Source CFD Toolbox           |
|  \\    /   O peration     | Version:  2312                                  |
|   \\  /    A nd           | Website:  www.openfoam.com                      |
|    \\/     M anipulation  |                                                 |
\*---------------------------------------------------------------------------*/
FoamFile
{
    version     2.0;
    format      ascii;
    arch        "LSB;label=32;scalar=64";
    class       volScalarField;
    location    "0.00014";
    object      omega;
}
// * * * * * * * * * * * * * * * * * * * * * * * * * * * * * * * * * * * * * //

dimensions      [0 0 -1 0 0 0 0];

internalField   nonuniform List<scalar> 
109340
(
9612.606649982
9900.4686757982
10701.401302432
12430.055749192
15314.069420588
19241.236774814
23813.350237765
28424.012911583
32539.487900402
36482.571417931
40330.833260313
44105.516252565
47812.959997534
51454.363015545
55028.946908914
58535.208294067
61971.465247467
65336.102624075
68627.702586973
71845.091607306
74987.353973933
78053.830393242
81044.118427443
83958.058172061
86795.69275919
89557.197143632
92242.768477668
94852.477816204
97386.072547086
99842.6863578
102220.38478844
104515.36425656
106720.31703063
108820.40236615
110782.11014736
112520.96659261
9719.1929187059
10817.632552578
13664.207393643
17963.545121278
22966.10853298
28030.630479686
32868.764523402
37698.402943099
42531.737383069
47309.605554176
52014.32236053
56637.113819732
61171.75667818
65613.208895234
69957.310481832
74200.695959488
78340.763167058
82375.656182679
86304.254369712
90126.18545358
93841.881007978
97452.546137395
100960.05410885
104366.75601845
107675.25936619
110888.18625056
114007.92621285
117036.38560915
119974.67909613
122822.69737408
125578.37380669
128236.3072869
130784.50466061
133195.16975957
135397.77766647
137213.39064513
9961.7273677605
13962.591052086
21389.198386839
28991.946547229
36201.782708007
43345.232489388
50545.893876222
57737.326154472
64868.956003637
71894.796475872
78781.198674791
85505.411379561
92052.010480915
98410.581782243
104574.40505773
110539.66680802
116304.97196962
121871.21554043
127241.99824205
132424.39969979
137429.02327491
142268.4600734
146955.8152207
151503.56420778
155922.86234408
160223.21209528
164412.28104397
168495.70624496
172476.85011893
176356.31857842
180130.81292592
183790.87716967
187314.88494906
190647.88159449
193635.81849566
195858.07707306
11922.901568473
28461.375610375
45339.664396533
62195.582795298
78864.023292834
95255.448308123
111260.48558565
126794.69392294
141790.06183893
156194.96065035
169973.23940879
183104.49009983
195582.77738332
207414.17763342
218614.43407449
229206.89811853
239222.87942554
248713.20983019
257771.71795028
266522.22855437
275071.22774983
283492.817527
291833.99897401
300122.12919983
308370.91320783
316584.67571433
324760.9243527
332892.30825616
340966.36763448
348965.7871981
356870.494189
364679.13402941
372418.21683247
380009.94747552
386920.56730414
391265.17369423
46688.211841463
146231.05183111
240724.08748003
331299.45610857
416654.24924394
495483.13409872
566982.68382716
630878.81942827
687360.59966116
736906.24249068
780152.87517541
817784.28107441
850469.99129697
878824.95963529
903389.78779736
924664.39773349
943356.2600051
961383.49611882
981868.92588868
1006294.8692636
1034428.7709962
1065336.0678745
1098011.0079485
1131611.2131539
1165475.6589829
1199069.2241309
1231964.0181882
1263809.1464287
1294301.7087427
1323139.5242846
1350029.5918343
1374563.823117
1396204.5323441
1413930.5557273
1425183.5943705
1418599.1900732
4713549.5783814
5536095.8578392
6151178.5102847
6580978.251306
6861833.9894041
7031158.7507215
7120951.657048
7156028.9435
7154265.0110215
7129580.5950438
7089840.9762368
7041122.1575566
6987572.9602797
6931996.192811
6876289.2382367
6821823.1571722
6769513.2091279
6719993.1556902
6673890.0880326
6631842.6502889
6593214.3824215
6557603.2506158
6524822.136986
6494784.1597503
6467437.8589315
6442749.9639058
6420706.6261042
6401320.6505574
6384642.9278543
6370780.5551664
6359938.2065127
6352506.6029736
6349074.1118149
6350974.5811641
6359696.3370835
6374283.6146415
113845.77979216
114018.56290394
113267.10350059
112682.94577409
113164.70522772
115189.74488354
119323.06892767
125734.15433454
133801.58805189
144331.84050329
157226.29038428
169250.02808614
178736.42634068
182278.1474652
181179.8634913
177392.4859186
171966.71827114
165722.94283987
159191.38479742
152681.07984706
146376.08341268
140348.34968047
134687.36517665
129544.11901494
124854.89968377
120544.72356514
116705.60830461
113046.25024409
109614.09594237
106620.15441924
103618.79329082
101073.88221534
98465.985367238
96243.787260258
93963.13084018
91992.807205793
89967.046324613
88207.4742042
86391.159129011
84827.571052927
83196.610622047
81796.389565317
80324.546793164
79045.79674439
77719.941117735
76524.848538942
75349.548624609
74215.370521685
73158.305731941
72110.807517927
71131.895305875
70180.454928457
69271.423333675
68394.828312786
67549.064343613
66730.608905096
65939.395852273
65175.002307145
64437.667197869
63726.185608009
63038.601233454
62372.463710884
61725.53787308
61096.00419805
60482.677533484
59884.576635803
59301.871032151
59723.516007064
5074222.0178243
7654261.5371626
5590495.0003672
4243187.5902566
3335698.871121
2700485.1063727
2241135.7793176
1900049.9958511
1641000.5987467
1440063.54728
1280811.8587229
1151608.3807057
1044028.6090103
951945.64411498
870957.95448836
798006.93102025
722992.98195516
661623.9096116
604542.4539247
551253.76639455
500807.79360789
451594.06693379
402089.86213513
351797.02166389
302143.9289753
256397.2051237
218184.58181834
189826.657772
171275.23871921
160343.56040281
154115.47138086
150298.42986314
147675.28430921
145695.81990499
144110.05030738
142806.36203592
141531.22647241
140792.78292846
140292.80736859
140037.28244886
139980.83402118
140151.08847959
140606.25335319
141325.18032571
142290.10637306
143483.24307492
144891.22453059
146499.3011781
148284.28752669
150223.83416188
152280.6682026
154454.35178016
156684.56499098
158916.50609984
161115.88452918
163241.52169995
165254.9768332
167123.61509761
168830.38781776
170376.58548925
171775.65059393
173045.20002851
174205.50416181
175276.34766661
176283.48024648
177246.12721464
178176.57262429
179103.77384507
180122.77649281
181430.83460271
184166.75871817
183416.41051054
138187.6226002
136976.71112187
133968.03854714
130091.46211911
125950.98475803
122019.52571287
118615.81606414
116024.35008571
114328.22416057
113567.03390843
113590.66022625
114176.40677024
114915.20793107
115354.17095699
115705.34941393
116105.06776313
116584.16007587
116912.51764759
116545.12893795
115654.7869241
114362.63438868
112735.54050195
110868.98636743
108830.32494742
106744.09448829
104705.87841919
102685.25250547
100679.4294136
98685.862476403
96747.587648652
94873.539527579
93067.165881399
91337.361829666
89664.341725511
88065.090576446
86512.132173323
85023.010940211
83581.286648061
82207.945312838
80886.216637328
79626.668390265
78412.047412314
77244.430399799
76116.411400571
75025.173260834
73974.195814247
72956.71357626
71982.240546921
71040.994903774
70139.874395532
69268.921812281
68430.153090775
67617.954916523
66831.575893163
66068.548521876
65327.524395619
64608.829640124
63912.760071816
63239.213340377
62587.120083376
61954.80872244
61340.196328895
60741.282805926
60156.465239037
59584.774520726
59026.031260613
58480.767857847
94147.210812708
8375819.8453131
7048750.9105487
5192301.4602959
3978445.6901561
3152745.7647697
2569598.101389
2144779.0490628
1827420.9575282
1585087.6714097
1396113.5278131
1245486.263597
1122503.432432
1019394.9292707
930521.98369443
851857.68408319
780636.58827096
722934.59266785
661602.34336664
604544.16205559
551275.86174424
500847.38585986
451652.62008939
402171.23968777
351908.63985271
302284.7677487
256555.87656951
218341.00351241
189959.80010258
171375.41481387
160417.81035567
154178.34804741
150361.47181803
147742.93876626
145768.44543875
144187.04683144
142884.216867
141601.76063987
140854.89008636
140345.62579861
140081.19573312
140018.72418006
140179.57245852
140626.7106789
141339.93546455
142301.71122821
143494.08570373
144902.91641345
146512.82820279
148300.56112471
150244.05838875
152305.51710301
154480.83693186
156712.86270798
158945.78216937
161144.62894464
163268.95610393
165279.36380802
167143.11760175
168843.33304285
170381.64460398
171771.59973208
173031.0948205
174180.24814793
175237.94869945
176230.90292835
177178.82596184
178097.25384568
179021.88071169
180046.2884696
181344.01635269
183767.94221458
182885.16999822
196070.63734821
191824.08682677
183395.85688941
172992.82100333
162405.2802407
152592.90501138
144194.92048348
137211.21140152
131625.29718138
127056.18179157
123579.21321107
120616.38528429
118324.91445427
116517.95808237
114957.01796619
113510.17887362
111958.50002266
110225.62429885
108078.83187235
105742.99159055
103401.76251357
101141.85559474
98986.175062446
96945.580008808
95026.539733994
93202.85246385
91491.977910589
89936.651813981
88509.865905201
87175.263569299
85933.857518768
84771.720332066
83668.169776173
82601.086287838
81556.334459675
80513.06851296
79472.617629734
78442.550439402
77434.865561049
76453.689629206
75500.134263696
74566.451299897
73655.701306882
72759.249353008
71884.849720233
71025.512523187
70191.4764798
69378.223702045
68592.115166641
67829.031374461
67090.040143414
66372.343785757
65672.715350494
64990.080775573
64322.624877432
63670.895607211
63035.464347472
62417.375122373
61816.824377657
61233.196204115
60665.104788415
60110.736685042
59568.292491032
59036.448460738
58514.632427301
58002.822987991
57501.77638057
97957.525339586
8430144.9172195
7029911.3971421
5180439.9285172
3970665.2309215
3147530.3153644
2565947.8406928
2142114.7744246
1825421.3338317
1583564.1700923
1394942.6998741
1244578.7402797
1121793.309979
1018838.4649789
930094.3911841
851547.9372944
780440.96033922
722848.02339405
661613.81480773
604640.55659789
551453.39715402
501096.63930183
451973.89919869
402565.59600308
352379.92710275
302818.61847887
257118.17879255
218882.8580197
190434.65842829
171762.17925901
160730.61464182
154447.81932143
150613.2918694
147988.31206036
146010.00326924
144425.25642528
143113.44929334
141806.6446581
141034.59474897
140498.62664009
140208.83679955
140128.48214851
140264.25972046
140689.09346638
141385.02451161
142335.08880826
143521.35487732
144928.71541315
146541.18492495
148334.74401037
150288.34288888
152364.39953337
154552.6755461
156799.85410883
159048.63126031
161262.13684816
163399.38757522
165418.6711576
167285.7077089
168983.33540778
170514.1449534
171892.54637148
173137.28008965
174268.52378701
175303.57613451
176271.54872303
177193.17620123
178089.4415443
179005.39800063
180034.85467641
181354.35348529
183324.54304081
182221.93321959
385598.11881429
363264.0604628
324907.94718081
283763.809253
246535.23296647
216533.66565612
193024.93639384
174926.01605378
160899.30030917
149534.321888
140925.89599778
133769.05326122
127900.34219162
123042.77203202
118972.60580006
115571.18108716
112801.72882832
110196.88252842
107298.06543939
104158.30928081
100968.62851813
97888.492468929
95015.831733314
92359.946475022
89913.167926586
87674.430704966
85623.582422553
83747.476216152
82083.091051772
80606.112359297
79286.570276231
78103.190285495
77029.890888046
76052.50518014
75146.227767869
74300.428457343
73493.290643282
72724.408886688
71988.401469785
71293.023708323
70622.501812717
69970.432155405
69324.47877232
68679.227757492
68032.404775185
67387.664357313
66750.177025178
66121.719703923
65507.377137172
64904.568104829
64316.196805541
63738.498298965
63171.409302661
62611.829389779
62059.464692405
61515.109927893
60980.327446182
60456.992183065
59945.81429407
59446.536822498
58957.90144594
58478.345949942
58006.386135635
57541.014420666
57081.908016372
56629.342020576
56184.180130539
104089.52903835
8494143.0009709
6999276.5188963
5162350.220796
3959161.1278532
3139851.5052275
2560573.3787744
2138208.3752132
1822509.1105164
1581358.1423089
1393253.0329313
1243270.3304786
1120769.1708862
1018035.1940973
929476.61565273
851100.11428599
780159.64168885
722723.86933001
661642.67908632
604810.29000668
551753.51631587
501515.48752126
452510.74764898
403223.03160574
353156.42664759
303690.04601241
258030.82958863
219761.09123358
191207.67326125
172397.38639391
161246.2949928
154890.57817357
151023.26472423
148384.03577309
146396.05889411
144800.87604724
143475.11625512
142132.98388565
141322.36791769
140743.98313626
140412.80191649
140302.75743533
140399.68546182
140788.45882634
141456.0707889
142386.24834003
143560.92752858
144963.9887443
146578.7470089
148381.2833864
150350.10318937
152447.73446287
154658.21252485
156930.6754267
159205.01927726
161442.84342009
163601.4401224
165636.2406768
167510.28289786
169205.06715784
170724.34762795
172084.38054976
173305.71762322
174408.64292825
175408.62388896
176337.47673117
177218.56756949
178078.27358467
178965.3760829
179967.23058341
181254.16107141
183003.94462355
181741.58853414
1321519.8980214
1071673.8959009
802675.69941903
594514.46472911
446466.28878384
346684.68050535
279911.16524713
234401.22046537
202886.22326468
180339.90174091
163770.50623086
151113.02831341
141181.45277104
133069.68963415
126349.62669635
120798.85270008
116166.68735784
111970.40804135
108041.3043144
104333.2266042
100796.79454581
97386.001354439
94100.964374418
91027.08492347
88180.514564524
85560.259691165
83150.560559176
80940.001723903
78947.509227225
77176.873849484
75602.474752466
74200.8088052
72945.113200677
71818.264952916
70802.781437672
69878.304733021
69027.736298734
68242.473691539
67517.505145526
66847.866418941
66225.162875524
65640.982668352
65084.125127998
64549.573306434
64030.413393775
63526.601745209
63034.628824807
62557.943946662
62094.914808311
61643.307067927
61200.408431185
60762.450780263
60327.213928207
59892.591898883
59458.749609492
59025.573599455
58596.074585958
58172.63762661
57756.535143487
57347.626023781
56944.810500346
56546.720372287
56152.097230687
55760.136047183
55370.606404084
54984.08825133
54601.090775301
113510.98570944
8570228.8045387
6959882.7634395
5138462.789434
3943932.8081118
3129622.7271813
2553400.450697
2133020.2822374
1818671.4023864
1578470.5345257
1391049.8265245
1241566.2386352
1119434.6527362
1016987.1021025
928668.95065911
850513.34902356
779790.0887721
722557.06625326
661680.00464732
605039.7622949
552160.23089066
502085.33297374
453242.22354319
404120.56511071
354215.46296343
304876.65113655
259272.94648523
220957.73641245
192263.94594798
173268.10397475
161953.55417985
155495.85420091
151581.87218231
148922.73682531
146921.66551715
145310.17180165
143964.3373193
142582.18894069
141721.76512069
141085.60771826
140695.72111622
140541.75110199
140587.5624401
140924.94979723
141551.74289392
142452.36500883
143608.77980275
145003.70441792
146619.53784642
148432.40700273
150420.17291297
152545.30826555
154785.1679113
157090.75210485
159397.4244678
161665.78000408
163850.42251977
165903.33333221
167783.83335464
169470.87967494
170969.3901476
172298.85732396
173482.81177601
174541.65553902
175490.52658158
176366.72508336
177194.647816
178001.18186039
178838.99598848
179788.20206121
181006.71750053
182613.6427293
181266.52817066
4661110.3892494
2570550.8408782
1597523.5541467
1065386.5525567
740842.87569631
537137.07471225
404358.6542522
317131.22917221
259062.61343762
219861.9432809
192245.03288625
172278.81764486
157194.00526621
145317.84792926
135740.01958713
127934.3325463
121286.62883918
115423.3970631
110210.48434528
105549.92531663
101361.38268871
97567.521002241
94092.653247105
90840.837810568
87772.235766353
84911.256933736
82268.065388561
79821.523035976
77590.337467034
75586.211140263
73787.50072224
72166.768399471
70709.017909276
69393.673824443
68205.724108776
67128.897018807
66150.292238283
65256.283252584
64441.168064091
63697.532806484
63018.144922092
62391.33618069
61809.095522344
61262.829105535
60746.786235118
60257.349098647
59792.324541488
59351.875083522
58933.231105593
58535.25207423
58153.887301765
57786.980235554
57430.724120322
57081.528033246
56736.159446394
56393.234088623
56054.773302819
55721.44737972
55393.669668928
55070.640942982
54750.271978136
54431.226524335
54112.441121868
53793.24498459
53473.439084292
53153.518456232
52834.224861938
127833.85639476
8648087.1751568
6913489.7966811
5109340.3974184
3925002.4941609
3116751.8343645
2544357.0243121
2126514.898637
1813897.6533936
1574903.3968378
1388339.0345744
1239471.9819647
1117793.4794125
1015695.9025701
927671.56858154
849786.81606964
779329.86691902
722343.77462638
661719.70393568
605319.61960565
552662.71532345
502794.55124528
454156.42681392
405244.87581516
355543.5372647
306365.02475124
260832.14245852
222462.67522786
193596.38161249
174369.71040735
162849.50965701
156260.79086954
152286.53857066
149603.05596017
147587.96052615
145957.11564416
144582.15513374
143162.43793028
142242.11261012
141533.46497078
141066.55980411
140848.51740711
140834.35849689
141102.11445826
141673.15873449
142532.27795195
143661.63254055
145042.69217613
146656.5935539
148479.40744524
150487.9627109
152644.01724208
154919.04528825
157263.28586757
159606.4604297
161908.19798261
164119.60368012
166188.44373203
168068.99249605
169736.79963449
171200.41642092
172483.12308467
173612.37611631
174611.57772311
175495.50343278
176302.32600286
177059.1300628
177795.36575971
178567.46824017
179446.44871083
180576.22585218
182053.87257846
180666.63939859
6461629.3651068
3572007.7886722
2317674.5570609
1583889.7655326
1117151.5537786
802667.82253717
583399.79254455
440656.88257783
345125.17595272
280051.30735326
235051.83060936
203287.4018923
180231.21352769
162907.3259912
149391.6002183
138446.48451021
129322.35661785
121585.44213333
114925.30807033
109106.30777605
103979.00126051
99454.507729685
95439.893840908
91849.562240282
88576.120777802
85554.559882303
82735.039570295
80098.677521751
77662.571912703
75445.783029591
73441.178289272
71623.589243939
69967.949342499
68459.676408585
67088.591405065
65839.3906898
64698.46285146
63657.608052565
62707.761017046
61839.680502242
61046.243652295
60319.406019069
59650.548710499
59030.02097081
58452.097579345
57912.623703506
57408.953250758
56938.840884095
56499.596487642
56089.27478087
55703.930065846
55340.79342033
54995.464565563
54664.67288235
54344.882139387
54033.612868781
53730.492631081
53436.194820886
53151.640978861
52876.03929563
52607.543460589
52343.803524312
52082.495484112
51821.919633552
51561.226330754
51300.307855123
51039.417627488
54697.426299033
6779173.588201
7440195.1231428
5451908.5604373
4153414.6930978
3275412.85199
2658528.7219785
2211048.171895
1877960.0596234
1624479.7875391
1427518.414421
1271146.6272636
1144056.9312813
1038088.309747
947326.92359261
867527.77370036
795725.19096544
722079.77896257
661755.85752366
605642.42167149
553252.38065631
503633.67242037
455243.15293846
406585.18825775
357129.78526934
308144.90738245
262699.50320685
224269.54436196
195201.86942218
175701.72178505
163934.73071235
157185.26987247
153136.40741998
150424.30637225
148395.97668521
146747.56877199
145332.66400317
144272.70438406
143243.87408802
142403.42489421
141790.552511
141433.25428693
141314.51821387
141445.14824259
141902.34906069
142674.43830633
143744.36096861
145092.09325283
146695.20505016
148528.40521095
150566.28799073
152768.50987488
155099.00210079
157501.18058541
159896.64216888
162241.23136639
164479.86423349
166552.83950125
168408.25450179
170024.69522102
171414.34653619
172606.52478468
173635.14474802
174520.53595821
175274.4675304
175947.97124449
176575.03550056
177185.51080275
177840.50658243
178595.66499897
179568.87735452
180815.55741882
179376.56992173
5627166.8418779
2713044.8831276
2106421.4384757
1652039.5559104
1306362.3203748
1006223.8179765
776761.79316491
599560.01731585
461937.40031292
367968.96645636
301205.3202132
251034.99763867
214991.34794435
188473.55979045
168515.9454632
152983.13333413
140408.34562669
129983.27717936
121235.24263293
113807.90274605
107399.06671237
101817.56671212
96931.226306256
92622.293922101
88797.596135303
85387.675907515
82315.019018023
79529.308269242
77015.37406699
74725.883310184
72623.499545109
70672.173565407
68867.592380713
67202.472748769
65667.203976866
64248.049816857
62941.192633779
61736.414770051
60623.539234187
59592.213271606
58637.781134529
57754.419579822
56934.846355107
56172.059292173
55461.452852385
54800.836591042
54187.352748412
53618.259810081
53090.124574452
52599.858354748
52143.891805402
51718.717974021
51321.07844798
50947.521585086
50595.017683795
50261.28555277
49945.245933515
49646.509762796
49364.591094798
49098.28807013
48845.456424987
48603.574532572
48370.148392067
48143.233657078
47921.618193952
47704.860471812
47492.794190058
249136.0544747
8844851.2276161
6734683.3582639
4990221.9072605
3844755.606991
3061526.8084893
2505682.4917985
2098995.6460612
1793967.4434375
1560178.4717568
1377223.3394546
1230896.8000243
1111058.4415091
1010374.9173095
923540.22545248
846752.18183549
777371.87538007
721380.03883581
661793.18757775
606388.0966
554659.58803666
505663.98827918
457893.75133204
409872.17253264
361033.7854918
312537.38339672
267322.18149336
228763.38847667
199221.38428356
179059.642333
166679.89783767
159517.46104834
155271.12401742
152486.81397012
150435.10978006
148764.92063696
147303.32480591
146294.78639273
145114.50688148
144066.48201063
143200.21078696
142571.73441306
142218.80013739
142125.02747512
142338.2359051
142915.22234249
143841.39663923
145094.60327293
146647.20258957
148467.07931645
150523.43060187
152772.19673591
155162.80866517
157618.38592565
160052.64178749
162413.3557415
164636.89930638
166654.30018621
168404.48123816
169860.74956288
171043.02897761
171997.43542783
172774.6045923
173407.17796409
173916.28328791
174359.62580374
174776.10892535
175196.60009
175665.29099801
176203.5423538
176884.92012651
177612.07755876
176023.32043924
5202852.2670237
2115556.8475716
1823640.6622075
1543737.3961688
1291369.6561059
1070412.6096124
877799.42917009
711484.09352619
575087.20486034
458790.58557953
371844.43580744
309219.74980314
257541.91358557
219174.01982763
191253.08137788
170197.31687694
153865.9323253
140775.78640781
129942.13302193
120818.16759557
113052.12254056
106382.460233
100603.9252205
95546.754196051
91078.689371343
87107.860758041
83566.542661374
80419.457848044
77612.95335393
75099.132674731
72838.969732804
70785.054072198
68905.016762876
67170.039582786
65555.003639678
64049.124942221
62639.404336215
61322.747651132
60092.745282484
58944.4866596
57874.296570223
56875.082325435
55940.302984293
55063.03854703
54241.352230031
53471.389299639
52751.511552029
52078.25778296
51449.076856558
50860.788699807
50309.88649639
49793.604974756
49309.111587143
48854.474798263
48426.939753024
48024.4466687
47645.510134751
47289.084823209
46954.448284633
46639.915486149
46343.517858286
46062.980273136
45796.077375049
45541.179696815
45297.032883061
45062.92278926
44818.884114218
493327.21812986
8816483.0115316
6564278.8130729
4879526.3819209
3771188.419266
3011326.3129667
2470731.6652756
2074259.0509323
1776159.6963952
1547095.0378303
1367376.2441314
1223294.8684635
1105065.5475389
1005615.7872024
919817.0844312
843983.01463718
775539.28409195
720411.98699843
661737.13852518
607212.28380722
556309.28701137
508096.22115185
461107.21640542
413889.74174967
365833.13552956
317960.85095641
273059.29906696
234381.89048142
204298.94815902
183348.65874593
170206.09353553
162505.4384242
157984.35585314
155101.62547695
153033.50956776
151368.3980411
149897.39853382
148989.46766878
147682.61693895
146427.74081232
145273.34820654
144293.18573907
143565.43541981
143147.52929141
143033.96681349
143281.04710755
143947.99096358
145012.72214452
146439.51098001
148183.96076947
150206.86755962
152456.21558358
154866.34724598
157318.72214516
159714.96607138
161979.334512
164035.67058146
165810.91947306
167248.36201206
168341.98894138
169143.48151914
169722.50604434
170134.75984796
170416.62406839
170603.19524473
170721.96778028
170811.67698319
170900.96645375
171049.45496264
171281.61733406
171627.36964888
171566.56169208
169841.72307044
5188385.0658889
1813072.2653252
1555589.4388855
1383812.3652363
1210858.7999509
1046229.5560902
893452.13513591
754647.36953928
631277.67651063
526945.5599135
433429.8593989
356571.30203541
302225.99134603
256514.2215381
217799.81124765
189363.04742939
168135.1495165
151809.63030363
138833.00769437
128151.52072664
119140.69549424
111446.38855966
104820.38935989
99066.944157923
94024.713211921
89578.070433245
85638.159223214
82130.756700645
78997.516272528
76192.908969978
73673.014583698
71399.161695544
69338.921545911
67461.618357778
65741.449194904
64160.521325499
62697.975214059
61337.158134175
60066.60280604
58871.563608064
57743.41329005
56674.272365957
55661.203266243
54706.576687127
53807.242743476
52961.727256698
52166.466097203
51419.08633662
50716.829020462
50055.108424615
49431.098375604
48841.436241777
48284.797803973
47759.299905237
47262.900531313
46793.921552219
46350.595927154
45932.154929072
45537.214681882
45164.351712318
44811.828122657
44477.55433636
44159.888376669
43857.369221008
43568.941944629
43294.13844635
43007.356492395
946097.78168725
8666925.1739737
6360431.4519934
4749246.6347868
3684702.0957871
2952142.4724454
2429365.5180061
2044875.3763453
1754949.529664
1531480.6396863
1355597.3104665
1214171.0826697
1097844.3690455
999851.25088628
915275.61894592
840567.02476604
773226.94458636
719115.93860539
661518.82776641
608036.46032763
558115.31871449
510837.86579083
464784.28944888
418530.87050229
371415.72275934
324304.74841085
279811.82624139
241052.24821132
210399.16567521
188569.25164428
174531.98488709
166165.66760514
161271.79440912
158248.0361715
156163.20682338
154531.56440621
153098.30990604
152355.36427376
150996.81836099
149595.43468063
148183.32699362
146831.56333766
145638.82695676
144712.09374263
144140.53366369
143945.59822566
144158.84576025
144867.48201437
146029.98955463
147578.82905145
149457.8621432
151600.9315245
153911.36962242
156197.14457657
158343.85566973
160232.34384621
161776.38281623
162962.69747752
163814.19528022
164344.19451459
164594.43416421
164643.25602675
164525.42638499
164219.29268387
163868.38057971
163564.55386596
163437.68725702
163644.08697222
164233.88389866
165092.99769717
165973.63423354
165623.64207
163790.23717037
5831899.1309788
1658200.7919983
1367723.1845317
1234635.9293352
1114698.5896785
992025.03144398
872422.32313471
759365.46376106
654417.32241613
558599.45281622
476148.87871992
400452.20689863
334761.69375021
288788.18658628
249625.34523324
213804.63957465
185957.42106011
165009.68811594
148881.77794927
136097.15521991
125667.62382533
116942.08354637
109502.1457573
103072.56418675
97466.484957385
92547.755753792
88208.74812186
84358.545180105
80921.375559544
77837.465295706
75061.141132615
72553.900868776
70280.472730869
68210.989586318
66323.456056025
64600.022291976
63021.68734826
61569.216158936
60225.634154108
58973.573024407
57802.047843038
56702.360300957
55664.049020205
54681.211264937
53748.375387725
52860.133449607
52016.726064377
51217.937789894
50461.614376689
49745.464677729
49065.849568579
48422.075028924
47811.942234972
47233.494147579
46685.020965692
46164.435656945
45670.997843735
45202.688898173
44757.965261476
44335.436209284
43933.515040058
43550.813615421
43185.797139202
42836.951836958
42503.709388609
42185.89475901
41884.456544231
2005342.3965586
8463160.0967785
6139832.9643372
4604342.3944707
3587328.5022772
2885036.1516958
2382195.6824109
2011187.5601988
1730501.3200127
1513384.8998885
1341871.3502011
1203481.9377815
1089339.2077311
993023.84998363
909859.17398747
836446.43658271
770371.97235706
717422.46319049
661057.29980951
608768.37270108
559978.23712549
513782.11649853
468810.87316596
423671.81157107
377651.98153039
331441.34041625
287462.9639282
248683.60678948
217469.10528146
194708.29862126
179669.56160546
170507.02814862
165129.39472881
161895.3708816
159771.82601307
158187.19247972
156832.84642995
156303.04655454
154980.01624163
153545.81778857
151992.61866345
150347.86265548
148708.5683999
147190.59904242
145940.66428501
145095.2756259
144727.75372821
144784.56719954
145440.52359958
146573.09531851
148105.44794636
149938.79702445
151869.76706096
153653.24069196
155128.58591803
156177.83818505
156751.46465775
156942.94367684
156926.85059544
156641.26550626
156110.88180793
155459.04062945
154821.97597375
154451.79232491
154491.36214548
155079.62042864
156324.84123756
158203.68449055
160435.58312835
162934.92394724
165057.00135098
164844.15300618
163403.57018292
7387235.3097611
1542815.2694377
1255867.4133201
1114269.2978124
1022475.9623045
929257.63673248
836015.22656987
744229.65466665
655828.52528878
573257.88683292
497304.89550263
430393.18577171
367506.48759943
312227.56065462
272527.11221216
239148.12587125
207761.58072522
181533.61810661
161338.75880885
145667.81596063
133235.79703273
123142.00116373
114730.62353408
107558.2229238
101348.59433266
95924.553780227
91158.275520468
86943.944801848
83193.19876849
79835.357482272
76815.311636106
74086.626656662
71609.676402402
69353.191747083
67292.929121674
65409.857724165
63686.630994112
62105.883182036
60650.038643348
59302.898964532
58052.500025768
56887.167193948
55795.195191891
54768.987346564
53803.061756889
52891.325490836
52030.248550103
51214.054959651
50436.355927485
49693.85910038
48983.144929786
48302.798841543
47653.840039015
47035.023835768
46445.620788756
45885.690682533
45352.950316164
44845.798177281
44362.138329613
43900.462503469
43460.078218711
43039.12764801
42636.118177846
42249.78932974
41879.482719868
41525.133830629
41384.205469356
3804565.838044
8121112.9136362
5892439.6863215
4444060.9001729
3479694.8364252
2810677.1605007
2329722.6560484
1973514.7241386
1702979.917255