/*--------------------------------*- C++ -*----------------------------------*\
| =========                 |                                                 |
| \\      /  F ield         | OpenFOAM: The Open Source CFD Toolbox           |
|  \\    /   O peration     | Version:  2312                                  |
|   \\  /    A nd           | Website:  www.openfoam.com                      |
|    \\/     M anipulation  |                                                 |
\*---------------------------------------------------------------------------*/
FoamFile
{
    version     2.0;
    format      ascii;
    arch        "LSB;label=32;scalar=64";
    class       volScalarField;
    location    "0.00014";
    object      p;
}
// * * * * * * * * * * * * * * * * * * * * * * * * * * * * * * * * * * * * * //

dimensions      [1 -1 -2 0 0 0 0];

internalField   nonuniform List<scalar> 
109340
(
389511.66920179
387952.1154253
385003.17340151
381465.40656588
377596.26894968
373606.05273834
369576.63377982
365558.13184502
361637.64940169
357806.01057432
354008.9159221
350242.74480829
346511.06277567
342816.31305488
339160.21538549
335544.29094491
331967.97038929
328428.88990433
324922.28662306
321441.50864037
317976.5706534
314516.60053529
311049.22609085
307559.66881276
304028.18278816
300429.12355744
296728.24332566
292879.42534594
288819.33020428
284458.98885172
279670.327771
274263.31892267
267950.85965894
260307.81599384
250745.99187297
238536.62098985
389745.20571935
387743.57150667
384438.20816661
380668.97269062
376697.2036924
372702.98599939
368738.48672494
364814.47410511
360927.18876551
357080.00326911
353267.33355649
349490.12078576
345750.82002589
342050.96357934
338391.55369004
334772.18843939
331192.90532912
327650.79406968
324140.29243536
320653.64619198
317180.65136776
313710.19541892
310229.54222766
306723.08626753
303169.9484606
299542.63360588
295804.39990845
291905.43043066
287776.76065455
283320.72976837
278394.93461979
272783.81643024
266148.92589593
257967.49549359
247385.75490956
233491.42000072
390618.09509708
388297.47734073
384655.63155031
380795.27989198
376855.10307465
372915.12402994
368968.0867861
365026.18034059
361114.30198775
357240.16417524
353402.81435727
349602.83393326
345842.05999826
342122.00796287
338444.22071944
334809.78081914
331218.41197156
327667.30211147
324150.41538343
320659.62221835
317183.93532616
313712.05107297
310231.08862814
306725.23739327
303173.48016838
299548.06849064
295812.13209168
291915.74422342
287789.78254438
283335.94719065
278410.20830967
272790.80202736
266111.07382926
257760.02743424
246644.00998342
231018.72510082
391836.40109423
389033.00577887
385201.24412816
381227.13762967
377206.63494147
373181.0277049
369164.76654129
365172.08646743
361219.40792552
357312.43960349
353450.75360719
349633.8213058
345861.80700825
342135.01349832
338453.67351411
334817.74601993
331226.48162329
327676.67187208
324161.36366095
320672.66147695
317198.12208811
313726.99195717
310246.73352539
306741.52953317
303190.91193961
299567.02680268
295833.09060938
291939.19917019
287816.06322413
283364.48124186
278438.47011835
272810.65238376
266077.46492175
257514.98721796
245631.11619429
227079.1035239
393765.57032331
390108.06314176
385707.80060434
381458.26662842
377326.42044435
373260.14422877
369230.41059327
365239.16100369
361290.05235038
357383.52464352
353521.21928086
349703.59874153
345931.01133757
342203.89907625
338522.74128519
334887.9712831
331299.83862251
327756.34927832
324243.79696316
320760.99308378
317290.22228702
313822.26990066
310345.15327211
306842.54162397
303295.08614308
299674.65964012
295944.5937153
292054.96528745
287936.15734256
283487.8471308
278558.43699359
272927.90165856
266144.93613282
257376.64385269
244629.95832202
221616.02529513
397390.38629473
390680.06019854
385827.78687915
381488.59907063
377351.54478424
373293.90453112
369274.57315267
365286.17579256
361335.00327628
357422.60191198
353551.7122588
349723.21430127
345937.66323824
342195.56691257
338497.48665664
334844.12425772
331236.46145555
327680.78852701
324192.36492814
320704.18136339
317225.82091139
313750.84146128
310267.38747618
306759.79964344
303207.54667053
299582.86224579
295848.80061186
291955.41964381
287833.15091477
283381.21002964
278437.88052517
272809.89341316
266002.01970171
257134.506258
243917.68906826
216055.27369267
223830.88398037
209147.8933492
196873.34987728
186962.53571705
178047.62562049
168526.47691915
158005.95169672
146314.8027446
133614.69806301
120241.74939214
106104.27940538
93006.46620275
80539.591910053
69062.957845616
58981.880668835
50218.220862939
42749.7003524
36451.862244878
31159.600408282
26758.079913731
23109.997675973
20057.928102363
17501.687916358
15359.900378077
13544.110783289
11995.824147506
10712.601666972
9583.8594743564
8592.6439159632
7783.7652113336
7027.0408113779
6417.9806119414
5835.9976519403
5362.6525734391
4909.8790208045
4535.6820011261
4177.0867176563
3878.4970623112
3589.1128749545
3348.8048009083
3112.3901692952
2916.3221603275
2721.9748017824
2559.3231724464
2399.6289199077
2261.6009003216
2131.1548670552
2011.5114253105
1903.0547887814
1800.2980645117
1707.0413664957
1619.7617645894
1539.2235199721
1464.3222181226
1394.6573383049
1329.6541993418
1268.9451995969
1212.1463525397
1158.9624106356
1109.0926671137
1062.2713495875
1018.2510829209
976.82143182458
937.79233023844
900.98786147901
866.22669492216
833.36842380538
801.88108100503
953.04831647579
4418.4470643503
5490.8614393503
5527.0865521961
5518.0694375604
5513.8611238484
5516.4349669138
5526.159953196
5543.0952760049
5566.4606824473
5594.467784291
5624.4158037302
5652.7779063029
5676.3560952835
5693.356113104
5703.6580365062
5708.293064975
5708.9944174974
5707.5110004006
5704.2987970634
5700.6165839713
5695.8970194272
5689.441620198
5679.5830702186
5667.1097970418
5652.2483479618
5635.5139595281
5617.6573136043
5599.547410774
5581.7784845328
5565.4217148918
5551.3114306032
5540.1560537482
5532.2768912119
5527.5832457597
5526.2124447793
5528.0469564496
5533.1545659999
5540.8679709848
5550.8426023067
5562.736822951
5576.1446313514
5590.5437925832
5605.4064034529
5620.3765647275
5635.2952219969
5650.2227723457
5665.3256416381
5680.8163798163
5697.9940897952
5712.9359211285
5728.9605940843
5744.4809198144
5760.2695733805
5775.8347658187
5791.0933956849
5805.854754229
5820.0271558972
5833.6236820431
5846.7698731151
5859.6011038387
5872.2761709114
5884.9965492071
5897.775942182
5910.9475435119
5924.2267741947
5937.5339060441
5950.8915073823
5964.0939736428
5978.6238553473
5989.8702791034
6066.8616147164
216281.57777812
200779.2635134
189133.19464919
179980.4073188
171095.0235299
161035.04199922
150076.51132449
138236.92670118
125735.87143159
112800.15629253
99784.977090523
87023.031621087
75597.883565277
65088.383384279
55706.178285679
47574.059977496
40600.388299678
34702.645390408
29756.881546121
25622.429284247
22169.104772998
19283.984169483
16863.613615199
14823.165935618
13098.132623095
11631.808966624
10377.081160627
9302.612093247
8372.7830198935
7567.3910513106
6865.4069999625
6250.7085092626
5711.2701047098
5233.4319687146
4811.3653662761
4434.288195023
4098.9245427067
3797.2703156426
3527.2330305113
3282.8874542409
3062.7737018445
2862.7593802976
2681.1989102025
2515.7091517826
2364.4058692901
2226.1816866233
2098.9322756491
1982.4026575897
1874.6147446279
1775.4769129017
1683.4737032461
1598.3193306987
1519.1783904905
1445.635187101
1377.1736489759
1313.3006489632
1253.6337175901
1197.8027102982
1145.4961289742
1096.4255424096
1050.3407992185
1007.0084789071
966.21726889859
927.77125100323
891.49305858199
857.2283445949
824.83842076343
793.82496654381
1389.5734549391
5006.7908587504
5518.3502826764
5523.136745375
5514.8366457083
5512.7338811321
5517.3494668546
5529.1750175975
5548.008771915
5572.8221923508
5601.547639196
5631.2853481752
5658.4573679185
5680.1781189027
5695.0860707795
5703.4594445663
5705.8371831177
5705.9966959384
5704.0578174148
5700.4714714635
5696.4315023578
5691.4456986487
5684.8713345591
5675.0706721349
5662.7805070787
5648.2249446795
5631.8895229718
5614.4845636522
5596.8246815916
5579.5005893974
5563.5160463233
5549.7150984914
5538.8199086016
5531.1540071181
5526.650431281
5525.3438391971
5527.3224601141
5532.5582207373
5540.3867019181
5550.4690753181
5562.4589034806
5575.9459353227
5590.4132916655
5605.3410225275
5620.3671200995
5635.3476965944
5650.3249696174
5665.4356339009
5680.9150451405
5698.0293188481
5713.1452135455
5729.2496445033
5744.9574866099
5760.8407935339
5776.4842492943
5791.8101249235
5806.6219876316
5820.840423286
5834.4803688325
5847.668387024
5860.5364395991
5873.2459189888
5885.9957146447
5898.7774004693
5911.9521312895
5925.1959003416
5938.4352105898
5951.6972592501
5964.7468614921
5978.5753386019
5988.7002210229
6063.590794464
209758.27886896
191482.01569257
180909.84025685
170430.14512403
161232.62124459
151441.64029678
140733.07570148
129450.51295443
117823.86369936
105657.62683484
94373.269763317
83149.248776724
72543.173353044
62828.640390932
54075.782970353
46369.368856157
39721.844963457
34074.059993927
29303.915922846
25284.142817909
21913.501234345
19090.915623447
16714.896988338
14707.382980341
13008.193338132
11560.876699372
10320.674786562
9255.479785488
8336.6139889824
7536.5904705334
6840.3962963144
6229.5840217278
5693.1608963927
5218.6857481239
4798.2288369705
4423.6460143197
4089.3233177724
3789.4865144033
3520.126694233
3277.0035467767
3057.5529774766
2858.1469540688
2677.2992076358
2512.0375900952
2361.5056601268
2223.2543537737
2096.696265714
1980.0874728018
1872.7601732265
1773.5920151312
1681.8641266294
1596.8818851669
1517.8926611015
1444.4575533634
1376.0455208827
1312.263479698
1252.6800795465
1196.9309529539
1144.6923183336
1095.6830193842
1049.6538336789
1006.3732237104
965.62737882547
927.22161098436
890.98260577144
856.74958596854
824.38829517234
793.54029260043
1420.0530685462
5025.4294615318
5519.8096500159
5523.850102303
5515.6027789637
5513.5067463161
5518.1055585291
5529.8876648683
5548.6547479364
5573.3765210888
5601.9960955596
5631.6165456674
5658.6750328996
5680.2889677193
5695.0928291408
5703.3289242962
5705.6234677644
5705.6852741603
5703.4564492064
5699.8282887225
5695.6666439374
5690.5347575517
5683.7926435616
5673.9621688914
5661.6211351256
5647.0367116913
5630.6981842629
5613.3208956401
5595.6727205286
5578.4588340862
5562.5571814829
5548.8471110559
5538.0236355986
5530.4195885751
5526.0237801612
5524.6127467834
5526.6653769928
5531.9965482381
5539.9229903586
5550.110409185
5562.2003125724
5575.7711408161
5590.3110318657
5605.3093757119
5620.405629831
5635.4741533243
5650.5364863094
5665.7281028675
5681.0447732291
5698.0541162215
5713.4315919207
5729.4660278425
5745.2223441162
5761.0897405467
5776.748092367
5792.0464334834
5806.820576866
5820.9977187117
5834.6048607364
5847.767396829
5860.6366739125
5873.3665911998
5886.1131108666
5898.882451342
5912.0355593229
5925.186407625
5938.3646653874
5951.5310576098
5964.4141973929
5976.9368856203
5988.3448293841
6063.7870651464
197522.88236034
176227.48253451
166006.45062093
155705.84920931
145810.95611128
136489.93921607
126729.97670003
116908.12404011
106895.91306415
96659.557517091
87410.756874133
77852.429197945
68543.170496478
59837.770894398
51836.129644474
44743.011384227
38547.338116489
33204.277782338
28657.848012016
24817.002966083
21569.699516103
18820.20955225
16507.751835029
14550.359929094
12882.890461627
11460.160900232
10242.009304569
9191.7156159333
8283.2446139982
7494.0995325347
6804.5219453927
6200.1262102171
5667.688988372
5197.691733099
4779.8980013334
4408.5004156373
4076.0125503441
3778.333343462
3510.2272991824
3268.8319244814
3050.0982680094
2851.9589914253
2671.6247255809
2507.3006554181
2357.1024408245
2219.473189773
2093.2770304478
1977.0289744532
1870.0396751256
1771.0731296939
1679.6410706076
1594.8162792546
1516.0850587083
1442.8013006521
1374.5252063817
1310.8583629361
1251.3784702724
1195.732047673
1143.5900621631
1094.6726684464
1048.7219148089
1005.5077154009
964.82066653877
926.47211285976
890.28918421475
856.10758885622
823.78638801161
793.01404130768
1467.2532703307
5048.9520015772
5521.6593113162
5524.8686275529
5516.6744313633
5514.5982004626
5519.1700688458
5530.8888557193
5549.5566404485
5574.1503204955
5602.6121980936
5632.0605040739
5658.9540348127
5680.4191773198
5695.0781981172
5703.1595925653
5705.3564102871
5705.3014558289
5702.8617832137
5699.1307961483
5694.8141508163
5689.5398203125
5682.7033687057
5672.821897212
5660.4355904381
5645.8201576908
5629.465332548
5612.0691381769
5594.403467115
5577.2088378378
5561.3569966714
5547.7163727453
5536.9596960165
5529.4059914395
5525.0546877274
5523.6974316964
5525.7770514042
5531.2268572008
5539.2790238281
5549.6015071054
5561.8183821065
5575.4910278188
5590.1142121729
5605.1973594343
5620.3960098314
5635.5737006047
5650.7412167213
5666.0372555064
5681.4721946082
5698.29627464
5713.7989101822
5729.9192856189
5745.7771253184
5761.7222737348
5777.4154298082
5792.7292807015
5807.4969726455
5821.6537711013
5835.2333408382
5848.3891854874
5861.2671801097
5874.0147954952
5886.7692094906
5899.5077752682
5912.6094495694
5925.6034178581
5938.6201975159
5951.6651081171
5964.4622688035
5977.0688355343
5989.7519150393
6064.1843633294
171063.15107951
151330.2648878
139997.74330517
131104.79281504
123313.849184
115993.42554003
109192.66589919
102094.69861131
94919.002611558
87549.555571719
79711.818918647
71700.870448878
63801.203917822
56240.648906593
49197.345955389
42779.534223009
37090.379856178
32137.996544246
27869.393074785
24218.847734333
21117.264675124
18489.987192115
16247.753519331
14343.882147653
12722.729749275
11334.82331083
10139.498889835
9109.1754117017
8216.0471831452
7438.7190026013
6758.583114754
6161.9236596631
5635.5920523011
5170.1414404399
4756.935399689
4388.6766860451
4059.1606008046
3763.7289058301
3497.8325756275
3257.9403833061
3040.7185585108
2843.7838835854
2664.4376746946
2501.0228480927
2351.4761740006
2214.6014234485
2088.8129564498
1973.1275716517
1866.4499784533
1767.9014640546
1676.7400860809
1592.1672801775
1513.6815073002
1440.6269743918
1372.571289563
1309.0487627103
1249.7059875293
1194.1886239372
1142.1733950383
1093.370183163
1047.5179379602
1004.390021765
963.78222642276
925.50813308978
889.39378316012
855.28039441384
823.01248392439
792.56722066682
1531.5578749551
5078.2683083206
5523.867221173
5526.1792338469
5518.0440920881
5515.9860338899
5520.5185054485
5532.1530490936
5550.692371041
5575.1134016598
5603.3643842302
5632.5855648219
5659.2626861786
5680.529943589
5695.0038552146
5702.9121032457
5705.0031811238
5704.8112225407
5702.1580715759
5698.2669687707
5693.7671927688
5688.305000937
5681.3318617202
5671.33252664
5658.8451589075
5644.1489711378
5627.7420579934
5610.3288312743
5592.6797996864
5575.5510545609
5559.7961390203
5546.2670857635
5535.6082511618
5528.1238205999
5523.8245389826
5522.5237875359
5524.6426214541
5530.2520051002
5538.4568641534
5548.9407940165
5561.3111253209
5575.1122810128
5589.8428566817
5605.0319596772
5620.3513307467
5635.6633834794
5650.9719784221
5666.386062206
5681.911607528
5698.6084611035
5714.2584987823
5730.4109394138
5746.3642766531
5762.3531696796
5778.0779006157
5793.3969745279
5808.1551912973
5822.2840764756
5835.8294091853
5848.9655780876
5861.8340629638
5874.5850609532
5887.3284458372
5900.0263662265
5913.0623560388
5925.9221948001
5938.7989270834
5951.6614173038
5964.2980113645
5976.7462431303
5989.7882463357
6062.4340593659
103572.61956475
99972.490871888
98722.316708052
98597.817484851
97044.825777179
94959.991074169
91657.980164284
87821.46797156
82968.434003916
77571.14066597
71521.966913105
65183.969133067
58707.035316732
52307.280922641
46211.481928232
40556.323583817
35437.74856587
30900.262392304
26941.780288172
23522.867255505
20588.427983634
18077.946681076
15938.260911411
14101.432693216
12528.903209383
11179.555012434
10017.776363461
9009.2376422739
8133.84640945
7370.995522866
6703.1654103635
6114.8780411484
5596.4285668548
5137.1217074631
4728.81162541
4364.4779590318
4038.7310844113
3746.0582899377
3482.5923545097
3244.6624799593
3029.3445370187
2833.7129478936
2655.6825414551
2493.2566904599
2344.6911448411
2208.5271416713
2083.3842300744
1968.2947213195
1862.0887658403
1764.0039857559
1673.1527100674
1588.9359567899
1510.7202778593
1437.9486551836
1370.1360951553
1306.8214504141
1247.6676148836
1192.3118691073
1140.4420928226
1091.7671869248
1046.0364385276
1003.0223296596
962.51545877958
924.32726902727
888.29032904757
854.25424192727
822.07226894912
792.32699297928
1615.637642139
5112.1957076204
5526.5971403024
5527.816293095
5519.7127993002
5517.654488053
5522.1279846391
5533.6509504426
5552.0279882344
5576.2300972784
5604.2154046019
5633.153695204
5659.558103855
5680.5759578485
5694.83599181
5702.5521181045
5704.5437243015
5704.1929717297
5701.2856783543
5697.1637374606
5692.4207815974
5686.7223044996
5679.5806615601
5669.4614228826
5656.8668749213
5642.0891826139
5625.6325414583
5608.2016877919
5590.5681870048
5573.5012923225
5557.8480218137
5544.4374601057
5533.8872393664
5526.4907662605
5522.2569596142
5521.0130728402
5523.2150216395
5529.0011249379
5537.3820531349
5548.0532965462
5560.6075300085
5574.5686429164
5589.4351422453
5604.758221401
5620.2295760422
5635.7126011616
5651.1833651796
5666.7553809632
5682.4422897448
5699.0685583823
5714.8571699281
5731.1074774528
5747.1781086565
5763.2417504918
5779.0192455565
5794.3710377113
5809.1399489318
5823.2549221913
5836.7630927445
5849.8707655787
5862.6999998932
5875.4014465168
5888.0513149351
5900.6148214803
5913.5022627293
5926.0902344795
5938.6818993666
5951.3695711638
5963.8303899633
5976.0927447944
5989.4128829757
6059.9834079715
10107.064684454
46061.48793368
60028.35041815
68528.119536283
73742.161703175
76085.104322628
76069.711571686
74605.336186593
72068.409060431
68639.566252607
64526.429030824
59840.737812211
54778.829674412
49539.878859296
44336.307539562
39355.523618566
34718.005964868
30513.041704267
26771.930547609
23489.843785319
20638.033675132
18176.030418626
16054.969003049
14236.45301598
12667.179179055
11309.556120827
10139.46340841
9125.6310874543
8242.3614284019
7468.9969101491
6792.7731415112
6198.2281187081
5672.4528100012
5206.125677896
4792.0834685609
4422.680001319
4091.70777933
3794.6901000245
3527.3895134337
3285.885241486
3067.1648422119
2868.6148540688
2687.9827858015
2523.0795711361
2372.2583588448
2234.0515393793
2107.1224160928
1990.3126586659
1882.537341413
1783.0201916685
1690.8897801324
1605.5040024264
1526.1679714638
1452.3783128049
1383.6618166789
1319.5453222828
1259.6285555323
1203.539940393
1150.9976458703
1101.7130255651
1055.423974092
1011.8900713976
970.89986430846
932.26797998219
895.81934912575
861.3920046152
828.83350710039
797.60124760682
1070.5637042827
4714.1532412945
5508.6538349945
5531.8563204101
5523.2260369149
5519.4575163329
5522.2249856403
5531.8444209762
5548.3842525945
5571.0269729472
5597.9947838036
5626.6673813815
5653.6860336766
5675.9389234634
5691.6769340104
5700.7113470796
5703.9192529671
5703.3659656918
5700.1676802898
5695.7687837075
5690.7492555352
5684.7887416202
5677.4307393077
5667.1781671611
5654.4470157051
5639.5634099626
5623.0411738469
5605.5911025067
5587.9874051935
5571.0068344519
5555.481809282
5542.2123420888
5531.7938783945
5524.528719869
5520.4689702827
5519.4023232479
5520.8592474094
5526.9875401554
5535.6750657068
5546.6693350323
5559.5358194065
5573.7665255562
5588.8653404031
5604.4112463176
5620.1171539853
5635.8396547529
5651.5751796623
5667.3926598266
5683.2614000228
5699.7432711907
5715.7168567989
5732.1203287151
5748.3607638028
5764.5461796127
5780.4176029037
5795.8225324634
5810.6162915678
5824.7164869113
5838.1583420539
5851.2028620777
5863.9535042248
5876.4853128422
5888.7756443835
5900.8266943598
5913.1696824962
5925.2671895202
5937.3843376531
5949.8363751309
5962.1663364132
5974.4337320483
5988.066726426
6054.7843697635
7947.8299826857
14679.052010887
25088.216797299
33696.375752993
40454.151704881
45376.646975964
48644.015416562
50587.464451768
50758.373493686
50033.592307974
48512.318977748
46227.538453659
43385.328800483
40141.237298865
36676.775520906
33174.894200627
29770.309762422
26563.111334723
23622.566067343
20976.204740319
18624.251430648
16553.976752733
14741.730675809
13158.926088686
11780.040282702
10580.510652814
9532.8829356329
8613.0169317857
7808.7561853591
7102.3856733226
6480.2729112679
5928.415893402
5439.3135566787
5004.4524553484
4616.412284421
4268.217590723
3955.8936312373
3674.867574036
3421.1947653605
3191.2697537617
2982.6193751327
2792.8955778688
2619.869561447
2461.6366318249
2316.6348675284
2183.6001435477
2061.2196587117
1948.3960461874
1844.1802642709
1747.8110987531
1658.5396108991
1575.6717680756
1498.6266607836
1426.8966427903
1360.0391151617
1297.6267015102
1239.2615745335
1184.5940954801
1133.3260032709
1085.198955571
1039.9656999446
997.40243567573
957.30430750682
919.48962213019
883.78793805687
850.05730057431
818.14983765827
790.53036684633
2027.6857096385
5235.5002875677
5538.4705761303
5534.9427496793
5526.3730798948
5524.0621840019
5528.1816462968
5539.1735933703
5556.8167165627
5580.0658307804
5606.9014407267
5634.6277533543
5659.881224666
5679.9322848547
5693.3992737722
5700.3810502552
5702.017058488
5700.9317843337
5697.0776606192
5692.0181261898
5686.3357829953
5679.7499286525
5671.8407355108
5661.2816457847
5648.2339561545
5633.1026711281
5616.4303362235
5598.9469084198
5581.4303253303
5564.6672043626
5549.4437750672
5536.4979947145
5526.3844568041
5519.3946502695
5515.5847523299
5514.7678951501
5516.3175656153
5523.0099297869
5532.2153336422
5543.7320262598
5557.1141915079
5571.8288367719
5587.3718937479
5603.3464262254
5619.501276843
5635.6985658469
5651.9305783364
5668.2244093773
5684.4953179537
5701.0909330661
5717.4505577459
5734.1770094625
5750.7285318167
5767.150716086
5783.2263966522
5798.7652495974
5813.6495748906
5827.8035172531
5841.1690991942
5853.852027769
5866.0792205607
5878.0772433721
5889.7210429559
5901.1874484402
5913.1755685528
5925.0129837158
5937.0437484561
5949.2311628576
5960.9637254456
5972.5132960228
5986.2282955406
6046.92778868
7689.5857794503
8437.6531663134
12980.705141926
18445.245496949
23496.24301987
27793.092982479
31256.297487669
33854.792853585
35668.502488227
36550.2622758
36482.128190147
35804.218031263
34555.28291794
32794.738860903
30666.674630217
28324.674029523
25900.158102924
23501.831382757
21209.675320599
19074.639989314
17124.374127775
15366.871232219
13797.933530982
12405.433731798
11173.834968054
10087.637139206
9129.7125500356
8284.7697366162
7538.7566038827
6877.6116309716
6290.9675855439
5770.0206999998
5305.8587988545
4891.6530406802
4519.5226374376
4185.3785502225
3884.7213232742
3613.4899598055
3367.7320534325
3144.5938445219
2941.9148926644
2757.1801766531
2588.3937621868
2433.6722420508
2291.8966599606
2161.5627204222
2041.5486499171
1930.7217032996
1828.2763632733
1733.4775758703
1645.5649747772
1563.9035185296
1487.9009808987
1417.1311744501
1351.1214026992
1289.4543027463
1231.7556254547
1177.6880048151
1126.985381681
1079.3633401555
1034.5783850737
992.41662594312
952.68327160782
915.21583720988
879.84501313961
846.40669745355
814.74621356036
790.47976596875
2434.3009734096
5324.264034582
5547.9772759409
5540.9548865593
5531.7513186019
5529.0801451168
5532.8192193437
5543.2752638349
5560.1969520417
5582.5360248454
5608.3033641168
5634.9240545635
5659.1983422797
5678.4352477887
5691.2256273542
5697.5828347542
5698.9835020533
5697.2521966844
5692.6539577677
5686.8239446227
5680.361990169
5673.0263828395
5664.4514962743
5653.5260787514
5640.0981056898
5624.6765241648
5607.8277768877
5590.3148693633
5572.9248361747
5556.4406752706
5541.5855677119
5529.0345545149
5519.3022268541
5512.6732941897
5509.2159035064
5508.8064156648
5510.5552564915
5517.9176396654
5527.7278602701
5539.8430662442
5553.8140058926
5569.0994664345
5585.1891529495
5601.6992688479
5618.4058106575
5635.1936217358
5652.0353743681
5668.9955439708
5685.8183025619
5702.7508510989
5719.6546623781
5736.8519755508
5753.8721320331
5770.684154573
5787.0575746802
5802.7455545972
5817.4325869545
5831.1054075111
5844.0449147747
5856.4268727868
5868.2676130719
5879.7049398771
5890.7758303021
5901.7227272381
5912.5512047061
5923.2567033235
5935.1287170617
5946.8342275441
5958.5280383493
5970.5121617822
5985.8114732143
6038.1148157492
7008.2460361732
6995.9154237113
8442.758940806
11608.07891079
15087.311266365
18365.162768623
21273.187450114
23722.163983705
25670.603487057
27026.480085674
27794.247527787
27862.07020918
27424.408243429
26618.23592666
25421.036736807
23937.143436755
22283.364717842
20555.875968238
18827.579750059
17156.207800606
15581.340042822
14125.419181532
12796.315866101
11594.638203413
10515.065569096
9549.1448917795
8687.5878714368
7919.683056765
7235.0512439996
6624.2954245081
6079.0066170922
5591.402027548
5154.0770249469
4761.2171868115
4408.0709145277
4089.9147095303
3802.6141856796
3541.7381104229
3305.0492300683
3090.0138417048
2894.0544876659
2715.1100491101
2550.9875998142
2400.6545180516
2262.5353960771
2135.4367115601
2018.0982419256
1909.6325719092
1809.3526067771
1716.390868021
1630.1181923775
1549.8431451312
1475.1211608892
1405.4951291841
1340.4942514595
1279.721825137
1222.7935006008
1169.4463619876
1119.3933124619
1072.3684097404
1028.1323825459
986.45747601308
947.17299471671
910.11513496188
875.11464708704
842.01998310729
810.69662763687
791.14097323729
2937.0913401896
5402.2701819295
5555.6023892688
5546.7661233022
5537.2663244281
5534.2404689301
5537.5210948646
5547.2949121268
5563.3049519861
5584.5155472111
5608.9819196078
5634.315296411
5657.4325757556
5675.6998200344
5687.7034066442
5693.3883898168
5694.543208818
5692.110271625
5686.7209368058
5680.047450769
5672.7213352535
5664.5425683781
5655.2161606885
5643.858520982
5630.0002355642
5614.2524515452
5597.205011195
5579.6583108732
5562.4237874858
5546.267390416
5531.849627503
5519.7753199374
5510.5198113255
5504.3617257207
5501.3606518949
5501.4952323801
5503.5501890363
5511.6623578691
5522.1895915573
5535.0241316071
5549.7001037741
5565.6694831074
5582.433459657
5599.6200325186
5617.0184335868
5634.5276055879
5652.1137690887
5669.7615808798
5687.2068784342
5704.6471977611
5722.2301536335
5740.008491484
5757.6037983998
5774.8124296143
5791.2081432257
5806.6025049673
5821.1027354398
5834.8313126959
5847.6669963123
5859.7665463487
5871.1343310032
5882.0643343488
5892.1298415993
5902.724548498
5913.6099885312
5925.2908318676
5936.855999488
5947.8794085985
5958.8156294186
5970.1569112789
5983.8600205673
6029.7601149672
6365.0326028071
6365.6233455351
6594.2919162948
8177.9396321442
10491.493632082
12893.162523588
15181.445648293
17248.26821161
18992.225007376
20363.756938836
21392.890230421
21942.056141893
21936.796205076
21678.785307049
21051.27719714
20176.037058643
19089.699073211
17876.951022595
16601.893013038
15320.918409155
14075.197522596
12890.774032955
11783.971721703
10763.188384466
9830.5080738647
8983.6747913316
8218.4230267179
7528.8850057072
6908.1167978581
6349.4156345159
5846.6849553916
5393.988628963
4985.9916421941
4617.8405192748
4284.8298250803
3983.0569578427
3709.4876110305
3460.9731575264
3234.7683786185
3028.5553921026
2839.7112101065
2666.8386004909
2508.4353339378
2362.8665514914
2228.9756205348
2105.2691737108
1991.026826692
1885.4079944403
1787.5259768938
1696.7193813038
1612.2081457403
1533.5986190492
1460.3803212664
1392.0636031008
1328.2268680089
1268.4345253144
1212.4439999183
1159.9364920931
1110.633381079
1064.2888921691
1020.6594400486
979.55370234164
940.79526077316
904.19767124028
869.61804984058
836.90664969954
805.86230405037
810.31152678363
3553.3676518815
5469.231827032
5563.1988712737
5552.1343537806
5542.5700820166
5539.2238973283
5541.9779946551
5550.9362694386
5565.8570831686
5585.7267856918
5608.6965096106
5632.5684826157
5654.3462980083
5671.5059221829
5682.6361203615
5687.6209437022
5688.5067456834
5685.3661250616
5679.1947176204
5671.6366435897
5663.3967948299
5654.3309208743
5644.1568607728
5632.2477879927
5617.9707211636
5601.8719267952
5584.6044171615
5567.0081642193
5549.9373427661
5534.1419888813
5520.2274498869
5508.7218108673
5500.058063343
5494.4952782838
5492.0807011892
5492.883915809
5495.4336154031
5504.3691882188
5515.706432508
5529.3744781273
5544.8882877213
5561.6752630506
5579.2418531841
5597.2421856364
5615.4926431511
5633.8689567677
5652.2987899482
5670.6570668578
5688.8343620573
5707.0539792786
5725.4595544854
5743.8702039929
5761.8158953674
5779.082813347
5795.5235314427
5810.9903883862
5825.7083253519
5839.6417387844
5852.3292037773
5863.9496761739
5874.9910814996
5885.4136676747
5895.9162340305
5906.8582390679
5917.0290184687
5927.2338877623
5937.7629670253
5948.539164931
5959.1823607012
5970.1506722919
5982.1494358923
6020.5652274854
5843.6655872661
5822.3172273512
5783.8045894366
6371.3581115373
7806.8960505119
9542.7720820197
11300.418546071
12972.259413505
14455.98719984
15722.363396078
16659.912966475
17409.908255691
17760.996366136
17815.573626122
17502.715942898
17009.487486356
16333.563910902
15504.015694977
14584.271385657
13620.37688691
12648.324500103
11699.113896161
10791.312025326
9936.6255453273
9141.53506631
8408.1135967158
7735.6347765803
7122.3851678167
6564.9761830028
6058.9014908589
5599.6637215636
5183.0572840171
4805.0611501325
4461.94763134
4150.1895013649
3866.6301334784
3608.425658401
3372.685743999
3157.08439326
2959.9521069361
2779.354056303
2613.6522054012
2461.3497625743
2320.7897115385
2191.1094952375
2071.454946114
1960.7741575431
1858.279635732
1763.0181765081
1674.4041553389
1592.0607596161
1515.3296769458
1443.7873096372
1376.9225060273
1314.3083196703
1255.7212220772
1200.7829472559
1149.2271534152
1100.7685123991
1055.1543703142
1012.228470818
971.76697197182
933.58499133224
897.51759424507
863.40538141645
831.10684240972
800.53286303693
864.94008246621
4155.2862330071
5518.5089563748
5569.9713408631
5557.1004775055
5547.4900978731