/*--------------------------------*- C++ -*----------------------------------*\
| =========                 |                                                 |
| \\      /  F ield         | OpenFOAM: The Open Source CFD Toolbox           |
|  \\    /   O peration     | Version:  2312                                  |
|   \\  /    A nd           | Website:  www.openfoam.com                      |
|    \\/     M anipulation  |                                                 |
\*---------------------------------------------------------------------------*/
FoamFile
{
    version     2.0;
    format      ascii;
    arch        "LSB;label=32;scalar=64";
    class       volScalarField;
    location    "0.00014";
    object      pTsat;
}
// * * * * * * * * * * * * * * * * * * * * * * * * * * * * * * * * * * * * * //

dimensions      [1 -1 -2 0 0 0 0];

internalField   nonuniform List<scalar> 
109340
(
389511.66876206
387952.1158889
385003.17353093
381465.40660191
377596.26895596
373606.05273091
369576.63375913
365558.1318568
361637.6494338
357806.01059765
354008.91593779
350242.74482836
346511.06278339
342816.31306586
339160.21539284
335544.29095221
331967.97038688
328428.88990732
324922.28662164
321441.50863167
317976.57064907
314516.60053271
311049.22609234
307559.66881426
304028.18278763
300429.12355566
296728.24332313
292879.42534509
288819.33020104
284458.98884893
279670.32776955
274263.31892153
267950.85965774
260307.81599289
250745.99187239
238536.62098875
389745.20579872
387743.57170621
384438.20822106
380668.97270163
376697.2036955
372702.98600776
368738.48674865
364814.47412657
360927.18878779
357080.00327898
353267.33357131
349490.12078792
345750.82003409
342050.9635799
338391.55369391
334772.18843989
331192.90532842
327650.79407019
324140.29242965
320653.64619247
317180.65137108
313710.19541713
310229.54222724
306723.08626375
303169.94845973
299542.6336041
295804.39990829
291905.43042841
287776.76065471
283320.7297636
278394.93461581
272783.81642822
266148.92589265
257967.495492
247385.75490774
233491.42000041
390618.09510018
388297.47742865
384655.63158288
380795.27991826
376855.10309933
372915.12405087
368968.08680058
365026.18035083
361114.30199503
357240.16418133
353402.81436177
349602.83393581
345842.06000335
342122.00796568
338444.2207183
334809.78081966
331218.41197533
327667.3021134
324150.41538353
320659.62221391
317183.9353311
313712.05107741
310231.08862727
306725.2373923
303173.48016833
299548.06849177
295812.13209059
291915.74422237
287789.78254484
283335.94719031
278410.2083094
272790.80202571
266111.07382728
257760.02743345
246644.0099828
231018.7250996
391836.40098543
389033.00582765
385201.24417724
381227.13764975
377206.63495316
373181.02771408
369164.76654434
365172.08647437
361219.4079309
357312.43960809
353450.75360947
349633.82131145
345861.80700813
342135.01350001
338453.67351043
334817.74602269
331226.4816284
327676.67186697
324161.36366666
320672.66147522
317198.12208524
313726.99195502
310246.73352373
306741.52952847
303190.91193781
299567.02680257
295833.09060599
291939.19917102
287816.06322281
283364.48124037
278438.47011572
272810.65238325
266077.46492023
257514.98721749
245631.11619428
227079.10352292
393765.57023503
390108.0631778
385707.8006172
381458.26663026
377326.42044742
373260.14422202
369230.41059456
365239.1610051
361290.05234882
357383.52464436
353521.21928198
349703.59874086
345931.01133683
342203.89907369
338522.74128367
334887.97128412
331299.83862314
327756.34927462
324243.79696444
320760.99308403
317290.22229049
313822.2698984
310345.15327189
306842.54162402
303295.08614679
299674.65964115
295944.59371566
292054.96528773
287936.15734393
283487.84713205
278558.43699335
272927.90165871
266144.93613406
257376.643853
244629.95832116
221616.02529427
397390.38621772
390680.06020604
385827.78687868
381488.59907008
377351.54478411
373293.90452978
369274.57315006
365286.17579376
361335.00327801
357422.60191271
353551.71225515
349723.21430022
345937.66324345
342195.56691197
338497.48665786
334844.12426262
331236.46145509
327680.78852243
324192.36493333
320704.18136253
317225.8209096
313750.84146095
310267.38747486
306759.79964257
303207.54667087
299582.86224277
295848.80060916
291955.41964146
287833.15091415
283381.21002862
278437.88051253
272809.8934152
266002.01970072
257134.50625649
243917.68906607
216055.27369003
223830.88397839
209147.8932374
196873.34992272
186962.53471029
178047.62404832
168526.47718261
158005.95180653
146314.80262561
133614.69814637
120241.75084011
106104.27327163
93006.467271539
80539.591030486
69062.958297847
58981.879872705
50218.221259036
42749.700505843
36451.861876675
31159.600433131
26758.079947761
23109.997705013
20057.928535284
17501.689026234
15359.900541686
13544.106377778
11995.824392092
10712.59453405
9583.8484900042
8592.6564057911
7783.7629384364
7027.0415916244
6418.0044645085
5835.9959125759
5362.6517160984
4909.8732891506
4535.6816566717
4177.0817216996
3878.5024197336
3589.1090541186
3348.8131873352
3112.3898346325
2916.317643529
2721.9757047718
2559.320239625
2399.6347551331
2261.5984570805
2131.1605315421
2011.5094331783
1903.0568702366
1800.2980975351
1707.041104203
1619.761867378
1539.2234782159
1464.3222222186
1394.6573198475
1329.6541937742
1268.9451878988
1212.146348609
1158.9624080746
1109.0926688332
1062.2713522086
1018.2510868562
976.82143517649
937.79233292425
900.98786232851
866.22669339556
833.36842073742
801.88110777293
953.0468999178
4418.4434836209
5490.860942476
5527.0863591097
5518.06930114
5513.8610164449
5516.4348706139
5526.1598747512
5543.0952171457
5566.4606484873
5594.4677805453
5624.4158372615
5652.7779702716
5676.3561735505
5693.3561879731
5703.6580978484
5708.2926150123
5708.9944803029
5707.5110746087
5704.2988818725
5700.6166863888
5695.8971334004
5689.4417273683
5679.5831629132
5667.1098651951
5652.2483898845
5635.5139786446
5617.65731474
5599.5473998458
5581.7784624606
5565.4216910272
5551.3114076568
5540.156032442
5532.2768745546
5527.5832339283
5526.212436076
5528.0469525056
5533.1545626842
5540.8679695287
5550.8426032638
5562.7368264476
5576.144637334
5590.5438006786
5605.4064129707
5620.3765742332
5635.2952303562
5650.2227789302
5665.3256473718
5680.8163888126
5697.994094984
5712.9359254867
5728.9605969567
5744.4809226574
5760.2695756812
5775.834767604
5791.0933971149
5805.8547550713
5820.0271556588
5833.6236807939
5846.7698702211
5859.6010992194
5872.2761646894
5884.9965417192
5897.7759340006
5910.9475354556
5924.2267673271
5937.5339002376
5950.8915023496
5964.0939684769
5978.6238520637
5989.8702899369
6066.8616407773
216281.57777849
200779.26354657
189133.19285838
179980.28129976
171095.02288037
161035.05237608
150076.51124701
138236.92674056
125735.87157455
112800.15392749
99784.976819252
87023.030591529
75597.884311961
65088.383305959
55706.178222955
47574.060141897
40600.388207021
34702.645424774
29756.881494263
25622.429170063
22169.104759058
19283.984107549
16863.613486155
14823.165903945
13098.132968494
11631.809646387
10377.079856593
9302.6138353659
8372.7820478866
7567.3912007394
6865.4081559391
6250.7078512466
5711.2714605117
5233.4314935867
4811.3662813889
4434.2877743896
4098.9253204584
3797.2698180186
3527.233838725
3282.8871598466
3062.7745341818
2862.7596753715
2681.1991263256
2515.7094125281
2364.4054975465
2226.1817806448
2098.9318267971
1982.4027521127
1874.6144739211
1775.4769567051
1683.4737062383
1598.319288339
1519.1784111277
1445.6351663937
1377.173646079
1313.3006375444
1253.6337131293
1197.8027061478
1145.4961298733
1096.4255446779
1050.3408036641
1007.0084833548
966.21727288688
927.77125308647
891.4930590909
857.22834500787
824.83842146753
793.82497059441
1389.5726204055
5006.7883488171
5518.35005258
5523.136662364
5514.8365808751
5512.7338132474
5517.3494025689
5529.1749516413
5548.0087106673
5572.8221484004
5601.5476203656
5631.2853677504
5658.4574216119
5680.1781924362
5695.0861506885
5703.459521345
5705.8368237396
5705.9967386274
5704.057867994
5700.4715341899
5696.4315823512
5691.4457904439
5684.8714225517
5675.070746635
5662.7805618855
5648.2249775205
5631.8895370549
5614.4845643475
5596.8246734627
5579.5005731412
5563.5160288488
5549.7150823294
5538.8198955893
5531.1539977052
5526.6504255683
5525.3438363925
5527.3224613153
5532.5582222748
5540.3867050326
5550.4690805197
5562.4589108796
5575.945944778
5590.4133028113
5605.3410347977
5620.3671322686
5635.3477071334
5650.3249780863
5665.4356612185
5680.9150488408
5698.0293191825
5713.1452119228
5729.2496431631
5744.9574852401
5760.8407924587
5776.4842484137
5791.8101239046
5806.6219863546
5820.840421456
5834.4803661001
5847.6683831035
5860.5364343802
5873.245912532
5885.99570718
5898.7773926006
5911.952123455
5925.1958935073
5938.435205104
5951.6972548606
5964.7468576883
5978.5753335029
5988.7002140035
6063.5908471014
209758.27886943
191482.01569139
180909.84186255
170430.1324869
161232.62835048
151441.63007164
140733.07566255
129450.51294574
117823.86353895
105657.62696148
94373.269339471
83149.248778269
72543.173489752
62828.640228578
54075.783098006
46369.36895387
39721.844904444
34074.060020249
29303.915958245
25284.142723483
21913.501257555
19090.915596363
16714.896918207
14707.382963528
13008.193405889
11560.876760987
10320.674521555
9255.4799811264
8336.6139649806
7536.5903874652
6840.3966023286
6229.5836883811
5693.1612139436
5218.6854201011
4798.2291403523
4423.6457264686
4089.3235766904
3789.4862765303
3520.126881998
3277.0033545402
3057.5530857071
2858.1468114581
2677.2992789229
2512.0375599965
2361.5056669838
2223.2544384652
2096.6961975334
1980.0875717141
1872.7600704814
1773.5920827379
1681.8640705737
1596.8819140361
1517.8926460405
1444.4575447614
1376.0455196226
1312.2634699958
1252.6800774101
1196.9309501722
1144.6923206273
1095.6830224762
1049.6538390297
1006.3732287684
965.62738348647
927.22161398337
890.98260687118
856.74958559151
824.38829100408
793.54040849135
1420.0525709781
5025.4269684124
5519.8094417244
5523.8500296703
5515.6027178185
5513.506679261
5518.1054954927
5529.8876006221
5548.6546911416
5573.3764858215
5601.9960882112
5631.6165764495
5658.6750950358
5680.2890460432
5695.0929098873
5703.3289993878
5705.6231072204
5705.6853195928
5703.4565062292
5699.8283594002
5695.6667318424
5690.5348572695
5683.7927393995
5673.9622528521
5661.6211983647
5647.0367525338
5630.6982058999
5613.3209022126
5595.6727173683
5578.4588224037
5562.5571674599
5548.8470975798
5538.0236240645
5530.4195798558
5526.0237746797
5524.6127432487
5526.6653764658
5531.9965474035
5539.9229904286
5550.1104106538
5562.2003155514
5575.7711451239
5590.3110372277
5605.3093815979
5620.4056353877
5635.4741572837
5650.5364916673
5665.7281265522
5681.044780803
5698.0541231126
5713.4315960201
5729.4660311136
5745.2223467338
5761.0897426492
5776.7480939172
5792.0464344189
5806.8205771152
5820.9977181742
5834.6048591959
5847.7673942233
5860.636670274
5873.3665866054
5886.1131056359
5898.8824461505
5912.0355540004
5925.1864032376
5938.364661832
5951.5310546173
5964.4141953177
5976.9368845471
5988.3448340749
6063.7871031331
197522.88235839
176227.48241505
166006.45041502
155705.824488
145810.95383913
136489.93988642
126729.97687901
116908.12400789
106895.91305799
96659.557606848
87410.757038178
77852.429256569
68543.170392773
59837.770994672
51836.129686654
44743.011295394
38547.338168179
33204.277755846
28657.847971613
24817.002847028
21569.699600793
18820.209538528
16507.751779711
14550.359936644
12882.890443759
11460.160966128
10242.009312111
9191.7155122788
8283.2448767659
7494.099320077
6804.5221117587
6200.126097065
5667.6890628764
5197.6917071299
4779.8980240255
4408.5004104649
4076.0125842288
3778.333324655
3510.2273494424
3268.8318565188
3050.0983432152
2851.9588921089
2671.6248156161
2507.3005426256
2357.1025209259
2219.4731033441
2093.2770763212
1977.0289438504
1870.0396782093
1771.073144468
1679.6410432411
1594.81629921
1516.0850328174
1442.8013116841
1374.5251963472
1310.858359805
1251.3784676637
1195.7320470034
1143.5900652024
1094.6726725629
1048.7219207948
1005.5077211268
964.82067196879
926.47211679834
890.28918658885
856.10758867653
823.78639134837
793.01404886013
1467.2530456235
5048.9496023048
5521.6591097905
5524.8685607436
5516.6743708124
5514.5981345773
5519.1700080169
5530.8887941178
5549.556586173
5574.1502879126
5602.6121932514
5632.0605369806
5658.9540987613
5680.4192578287
5695.0782799361
5703.159668755
5705.3560472514
5705.3014989731
5702.8618373822
5699.1308641441
5694.8142364189
5689.5399175413
5682.7034628149
5672.8219793255
5660.4356525843
5645.8201978339
5629.4653537372
5612.0691448304
5594.4034640458
5577.2088263467
5561.356982928
5547.7163598783
5536.95968517
5529.4059834136
5525.0546828515
5523.6974288862
5525.7770516683
5531.2268572277
5539.2790249634
5549.6015098163
5561.818386496
5575.4910337362
5590.1142192779
5605.1973671331
5620.3960173644
5635.5737073142
5650.7412225279
5666.0372406175
5681.4722007748
5698.2962800728
5713.798913282
5729.9192878285
5745.7771270156
5761.7222749916
5777.41543072
5792.7292810289
5807.4969722292
5821.6537698485
5835.2333386036
5848.3891821637
5861.2671758215
5874.014790341
5886.7692037672
5899.5077694136
5912.6094441209
5925.6034132503
5938.6201939528
5951.6651057225
5964.4622666229
5977.0688339857
5989.7519178003
6064.184405017
171063.15108435
151330.264799
139997.7430773
131104.78088202
123313.84359491
115993.42466934
109192.66587885
102094.69837597
94919.002651665
87549.555499434
79711.8189954
71700.870487915
63801.203877848
56240.648945517
49197.345913806
42779.534268432
37090.379918216
32137.996480536
27869.393057065
24218.847728366
21117.264671574
18489.987094323
16247.753447382
14343.882177148
12722.729713983
11334.823305683
10139.498957272
9109.1753799226
8216.0472159666
7438.7190543498
6758.5830365394
6161.9237753492
5635.5919501572
5170.1415636729
4756.9353000738
4388.6768045376
4059.1605224158
3763.7290028188
3497.8324937768
3257.9404446896
3040.7184944059
2843.78391452
2664.4376453457
2501.0228475699
2351.4761886793
2214.601394289
2088.8129923732
1973.1275246559
1866.4500138557
1767.9014304689
1676.7401020976
1592.167270591
1513.6815055001
1440.6269770983
1372.5712797059
1309.0487639951
1249.705983064
1194.1886255954
1142.1733977774
1093.3701882004
1047.5179441247
1004.390028213
963.78223267022
925.50813825053
889.39378741572
855.28039628707
823.01248293171
792.56710675152
1531.5581801349
5078.2661533192
5523.867034694
5526.1791666413
5518.0440319922
5515.9859705522
5520.518447246
5532.1529907132
5550.6923200696
5575.1133722644
5603.3643824268
5632.5856004258
5659.2627531136
5680.5300299052
5695.00393931
5702.9121811384
5705.0028168328
5704.8112650106
5702.1581247193
5698.2670360601
5693.7672778229
5688.3050975228
5681.3319559404
5671.3326088828
5658.8452214356
5644.149011774
5627.7420796875
5610.3288383867
5592.6797967978
5575.5510434243
5559.7961254761
5546.2670732503
5535.6082407983
5528.1238128816
5523.8245341416
5522.5237845009
5524.6426210635
5530.2520038805
5538.456864191
5548.9407956781
5561.3111287762
5575.1122861179
5589.8428630658
5605.0319668908
5620.3513381014
5635.6633906621
5650.9719850014
5666.3860695354
5681.9116145103
5698.6084670224
5714.2585032379
5730.410943223
5746.3642798867
5762.3531722256
5778.0779025173
5793.3969755675
5808.1551914151
5822.2840755829
5835.8294072163
5848.965575117
5861.8340591927
5874.5850564229
5887.3284406285
5900.0263613931
5913.0623513457
5925.9221912916
5938.7989234323
5951.6614138541
5964.2980079832
5976.7462401261
5989.7882466364
6062.4340993363
103572.61959189
99972.490806188
98722.317159115
98597.816738317
97044.828130365
94959.987917444
91657.979369498
87821.467809515
82968.433973865
77571.14062832
71521.966930667
65183.969181277
58707.035295463
52307.280909024
46211.481934613
40556.323643193
35437.748559357
30900.262366212
26941.780314846
23522.867221897
20588.427920911
18077.946660777
15938.260950513
14101.432655443
12528.903199655
11179.555037903
10017.776407226
9009.2376685475
8133.84638728
7370.9955842535
6703.1653801084
6114.8780881266
5596.4285585653
5137.1217328712
4728.8116314011
4364.4779864168
4038.731094527
3746.058312862
3482.5923352822
3244.6624990256
3029.3444973539
2833.7129746398
2655.682493951
2493.2567217455
2344.6911120014
2208.5271657514
2083.3842147645
1968.2947242656
1862.0887732918
1764.0039708168
1673.1527278481
1588.9359401124
1510.7202899016
1437.9486455253
1370.1360955246
1306.8214472027
1247.6676113739
1192.3118709746
1140.4420948412
1091.7671923832
1046.0364445581
1003.0223367081
962.51546570763
924.32727554746
888.29033515375
854.25424620213
822.07227297246
792.32690765971
1615.6380514368
5112.1937327486
5526.5969622409
5527.8162255736
5519.7127398407
5517.654426699
5522.1279295123
5533.6508953095
5552.0279407287
5576.2300694112
5604.2154061846
5633.1537342771
5659.5581733636
5680.5760441619
5694.8360774802
5702.5521983904
5704.5433620381
5704.1930135019
5701.285730569
5697.1638037507
5692.4208657996
5686.7224012597
5679.5807572821
5669.4615062088
5656.8669381858
5642.0892241564
5625.6325640443
5608.2016956485
5590.5681845667
5573.501282006
5557.848008706
5544.4374480576
5533.8872295536
5526.49075896
5522.2569542555
5521.0130695665
5523.2150200538
5529.0011228923
5537.3820528433
5548.0532983333
5560.6075339807
5574.5686487785
5589.435149472
5604.7582295043
5620.229584481
5635.7126097231
5651.1833733312
5666.7553892157
5682.442297377
5699.0685650021
5714.8571753724
5731.1074822197
5747.1781131955
5763.2417546408
5779.0192490008
5794.3710403772
5809.1399506039
5823.2549226498
5836.7630920945
5849.8707638602
5862.6999972685
5875.4014423858
5888.0513104675
5900.6148161273
5913.5022571097
5926.0902280608
5938.6818927299
5951.3695649457
5963.8303837206
5976.0927385607
5989.4128798455
6059.9834435404
10107.064668828
46061.487954216
60028.350588114
68528.119567367
73742.158889331
76085.105370767
76069.711275126
74605.336117603
72068.408995175
68639.566196631
64526.429001453
59840.737854297
54778.829683245
49539.878825284
44336.307557838
39355.523661523
34718.005958139
30513.041691245
26771.930571753
23489.843753378
20638.033627783
18176.030404865
16054.968979137
14236.452984242
12667.179135636
11309.556125083
10139.463420666
9125.6310964386
8242.3614278709
7468.9969287945
6792.7731495217
6198.2281137385
5672.4528397923
5206.1256650198
4792.0835037132
4422.680003123
4091.7078205998
3794.6900939554
3527.3895285755
3285.88523532
3067.1648373248
2868.6148487215
2687.9827619909
2523.0795819372
2372.2583357049
2234.0515584658
2107.1223986991
1990.3126738729
1882.5373364885
1783.0201948218
1690.8897874268
1605.5039953604
1526.1679826749
1452.3783046105
1383.6618201683
1319.5453160388
1259.6285531222
1203.5399403864
1150.9976465696
1101.7130305793
1055.423979926
1011.8900791291
970.89987211132
932.26798723977
895.81935493049
861.39200863408
828.83351162943
797.60129924376
1070.5606531126
4714.1501855345
5508.6535534514
5531.8562357124
5523.2259772173
5519.4574749472
5522.2249314834
5531.8443687652
5548.3842066821
5571.0269422445
5597.9947817613
5626.6674165866
5653.6860994932
5675.9390095174
5691.6770220088
5700.7114307636
5703.9188893881
5703.3660065011
5700.1677314355
5695.7688487578
5690.749338655
5684.7888372377
5677.4308353445
5667.1782510068
5654.4470797834
5639.5634524615
5623.0411973799
5605.5911111921
5587.9874032593
5571.0068250394
5555.481796638
5542.212330595
5531.7938690589
5524.5287129448
5520.4689654762
5519.4023173755
5520.8592506425
5526.9875406037
5535.6750679065
5546.6693390834
5559.5358251867
5573.7665327251
5588.865348461
5604.411254773
5620.1171624646
5635.8396630894
5651.575187663
5667.3926678656
5683.2614066954
5699.7432766159
5715.7168611319
5732.1203322676
5748.3607671178
5764.5461823594
5780.4176051114
5795.8225340058
5810.6162922661
5824.7164864779
5838.15834092
5851.2028594995
5863.953500951
5876.4853091681
5888.7756401935
5900.8266907559
5913.1696789928
5925.2671864752
5937.3843349835
5949.836372878
5962.1663341378
5974.4337298177
5988.066728663
6054.7844115154
7947.82996942
14679.052003433
25088.216747839
33696.375644775
40454.151793939
45376.646924455
48644.015397869
50587.464458053
50758.37342036
50033.592193821
48512.318986375
46227.538560338
43385.32885988
40141.237293127
36676.775436148
33174.894160241
29770.309729039
26563.111384988
23622.566061162
20976.204718721
18624.251425306
16553.976731279
14741.73063849
13158.926099004
11780.04028701
10580.510624646
9532.8829123057
8613.0169450593
7808.7561810251
7102.385650797
6480.2728856961
5928.4158846571
5439.3135388274
5004.4524614776
4616.4122783959
4268.2176045337
3955.893628293
3674.8675942597
3421.1947641997
3191.2697628918
2982.6193650297
2792.8955718168
2619.8695541075
2461.6366206268
2316.6348666197
2183.6001342286
2061.2196687292
1948.3960452733
1844.1802750034
1747.8111025189
1658.5396163027
1575.671777055
1498.6266607518
1426.8966479144
1360.0391106088
1297.6267001487
1239.2615714465
1184.5940935877
1133.326004953
1085.1989580467
1039.9657062955
997.40244290248
957.30431552132
919.48962949821
883.78794392638
850.05730754955
818.14984495743
790.5302759363
2027.6887538963
5235.4991451308
5538.4704156322
5534.9426822052
5526.3730297944
5524.0621322422
5528.1816028307
5539.1735498634
5556.8166814108
5580.0658150181
5606.9014527493
5634.6278006796
5659.8812987286
5679.9323737766
5693.3993648456
5700.3811347487
5702.0166992438
5700.9318231266
5697.077708184
5692.0181876882
5686.3358626862
5679.750022122
5671.8408309713
5661.2817303807
5648.2340218784
5633.1027157533
5616.4303618685
5598.9469190158
5581.430325117
5564.6672014868
5549.4437638376
5536.4979841952
5526.3844483903
5519.3946438456
5515.5847482571
5514.7678891001
5516.3175703265
5523.0099296881
5532.2153344556
5543.7320283307
5557.1141948842
5571.8288413381
5587.3718992277
5603.346432271
5619.5012831497
5635.6985724202
5651.9305847021
5668.2244162225
5684.4953243691
5701.0909388036
5717.4505629899
5734.17701403
5750.7285356656
5767.1507191165
5783.2263985899
5798.7652502504
5813.6495742824
5827.8035156175
5841.1690958956
5853.8520239129
5866.0792156784
5878.0772375261
5889.7210368333
5901.1874411287
5913.1755618813
5925.0129774999
5937.0437419263
5949.231156114
5960.9637187167
5972.513289335
5986.2282988942
6046.9278267771
7689.5857969437
8437.6531857357
12980.705157848
18445.245560188
23496.242946358
27793.093035684
31256.297428756
33854.792767338
35668.502450724
36550.261711311
36482.123234908
35804.219853242
34555.280793552
32794.738556797
30666.674385679
28324.673948073
25900.158233202
23501.831402407
21209.675314581
19074.639983009
17124.374091887
15366.871191947
13797.933518579
12405.433729389
11173.834974434
10087.637160867
9129.712592153
8284.7697888539
7538.7566206846
6877.6116204005
6290.9675901725
5770.0207086034
5305.8587898587
4891.6530250368
4519.5226352643
4185.3785484365
3884.7213208559
3613.4899515573
3367.7320537806
3144.5938372247
2941.914888806
2757.1801730481
2588.3937553341
2433.6722343411
2291.8966486012
2161.5627202171
2041.5486495256
1930.7217115213
1828.2763697898
1733.4775839901
1645.5649846264
1563.9035240362
1487.9009877209
1417.1311746884
1351.1214033227
1289.4543015353
1231.7556233268
1177.6880048736
1126.9853812993
1079.3633431199
1034.5783895669
992.41663254052
952.68327922946
915.21584451981
879.84501891322
846.40669699603
814.74624103674
790.47964827877
2434.3007585465
5324.2632747048
5547.9772064039
5540.9548406772
5531.7512804993
5529.0801169085
5532.8191826295
5543.2752277444
5560.1969235333
5582.5360160331
5608.3033811611
5634.9241071344
5659.198417943
5678.4353380517
5691.2257196112
5697.582916779
5698.9831482824
5697.252231274
5692.6539995996
5686.8240007642
5680.3620645993
5673.0264723138
5664.4515896967
5653.5261625347
5640.0981724554
5624.6765707811
5607.8278046236
5590.3148819524
5572.9248376929
5556.4406712787
5541.5855583204
5529.0345449165
5519.3022191734
5512.6732882114
5509.2158996563
5508.8064100292
5510.5552624499
5517.917640315
5527.7278620956
5539.8430694635
5553.8140105178
5569.0994721289
5585.1891593864
5601.6992756906
5618.4058176451
5635.1936286971
5652.0353816913
5668.9955505721
5685.8183086411
5702.7508564518
5719.6546670147
5736.851979286
5753.8721351067
5770.6841564715
5787.0575750997
5802.7455534056
5817.4325842887
5831.1054031389
5844.0449086188
5856.4268648567
5868.2676029981
5879.7049282564
5890.7758175134
5901.7227133412
5912.5511898806
5923.2566881025
5935.128699528
5946.8342081927
5958.5280175649
5970.5121403261
5985.8114792992
6038.1148526412
7008.2460301187
6995.9153966598
8442.7589824943
11608.078920368
15087.31125911
18365.162814999
21273.18743461
23722.164168226
25670.60318417
27026.479127267
27794.244974177
27862.067552122
27424.408313344
26618.235381414
25421.035380435
23937.143524393
22283.366155275
20555.875978916
18827.579781908
17156.207834787
15581.34002641
14125.419142396
12796.315850373
11594.638190322
10515.065554031
9549.14487431
8687.5878541686
7919.6830468226
7235.0512583661
6624.2954551908
6079.0066510764
5591.4020443177
5154.0770620531
4761.217211511
4408.0709467823
4089.9147180566
3802.6141869041
3541.7381268491
3305.0492244974
3090.0138318182
2894.0544784284
2715.1100373804
2550.9875879686
2400.6545037157
2262.5353864996
2135.4367055761
2018.0982414696
1909.6325735845
1809.3526128118
1716.3908777953
1630.1181998528
1549.8431511208
1475.1211624714
1405.4951301637
1340.4942518059
1279.7218252512
1222.7935016701
1169.4463620331
1119.393313787
1072.3684113577
1028.132385458
986.45748066021
947.17300061366
910.11514204683
875.11465285067
842.01998682295
810.69662774319
791.14108499763
2937.0898177179
5402.2695234184
5555.6023375401
5546.766089719
5537.2662949936
5534.2404471646
5537.5210631769
5547.294880846
5563.3049280232
5584.5155393313
5608.9819302408
5634.3153450567
5657.4326500023
5675.6999082699
5687.7034968032
5693.3884702895
5694.5428626621
5692.1103004413
5686.7209723177
5680.0474996865
5672.7214023887
5664.5426512622
5655.2162497924
5643.8586033964
5630.0003028261
5614.2524996212
5597.2050407719
5579.6583254558
5562.4237916827
5546.2673993647
5531.8496303004
5519.7753099862
5510.5198042494
5504.3617200404
5501.3606483098
5501.4952269881
5503.5501962208
5511.6623584265
5522.1895932979
5535.0241347527
5549.7001082574
5565.6694886923
5582.4334658982
5599.6200389939
5617.0184402424
5634.527612555
5652.1137759014
5669.7615874423
5687.2068843488
5704.6472031603
5722.2301581708
5740.0084950953
5757.6038006958
5774.8124301566
5791.2081415445
5806.6025005008
5821.1027284451
5834.8313022627
5847.6669824611
5859.7665292694
5871.1343108275
5882.0643105624
5892.1298160708
5902.7245179523
5913.6099545314
5925.2907928757
5936.8559528795
5947.8793572255
5958.8155761548
5970.1568634243
5983.8600285284
6029.7601406779
6365.032613682
6365.6233562837
6594.2919067914
8177.939620567
10491.493671288
12893.162464838
15181.44565637
17248.268155856
18992.225054749
20363.756363548
21392.889465458
21942.048793498
21936.793210137
21678.781904235
21051.277001547
20176.036409775
19089.698858618
17876.95095055
16601.893070126
15320.91837257
14075.197471652
12890.774014843
11783.971737825
10763.188405032
9830.5080822637
8983.6747684549
8218.4229776164
7528.884969966
6908.1167941423
6349.4156442066
5846.6849614123
5393.9886336907
4985.9916574996
4617.8405409469
4284.829829131
3983.0569625826
3709.4876199073
3460.9731679155
3234.768379794
3028.5553868972
2839.7112007788
2666.8385927509
2508.4353239801
2362.8665431491
2228.9756139338
2105.2691748101
1991.0268216185
1885.4079949594
1787.5259813961
1696.7193886961
1612.2081509608
1533.5986214098
1460.3803203097
1392.063601377
1328.2268674632
1268.4345271589
1212.4440020814
1159.9364945615
1110.633382696
1064.2888929743
1020.659440618
979.55370406267
940.79526446414
904.19767636228
869.61805575309
836.90665040852
805.86231532988
810.31096199046
3553.3665367164
5469.2313837583
5563.1988117864
5552.1343226705
5542.5700568928
5539.2238793133
5541.9779650114
5550.9362408508
5565.8570613032
5585.7267801063
5608.6965260173
5632.5685282576
5654.3463676421
5671.5060054607
5682.6362052662
5687.6210148726
5688.5064100339
5685.3661466402
5679.1947446067
5671.6366830289
5663.3968524476
5654.3309955197
5644.1569440005
5632.2478679008
5617.9707877855
5601.8719756074
5584.6044481672
5567.008180488
5549.9373481517
5534.1419870877
5520.2274411637
5508.7218036236
5500.0580568452
5494.4952741756
5492.0806985213
5492.8839115736
5495.4336240192
5504.369188494
5515.7064339488
5529.3744809287
5544.8882918479
5561.6752681536
5579.2418585683
5597.2421917213
5615.4926493237
5633.8689633837
5652.2987962323
5670.6570731269
5688.8343678951
5707.0539844091
5725.4595587238
5743.8702066406
5761.8158959487
5779.0828105286
5795.5235252143
5810.9903771029
5825.7083088612
5839.6417174837
5852.3291767109
5863.9496433825
5874.9910424747
5885.4136221532
5895.9161801582
5906.8581770747
5917.0289470601
5927.2337991819
5937.7628611664
5948.5390405885
5959.1822375992
5970.1505860469
5982.1494453119
6020.5652235574
5843.665478182
5822.3172160264
5783.8045898116
6371.3581398541
7806.896013566
9542.772060286
11300.418533858
12972.259413716
14455.987323085
15722.362926939
16659.913022929
17409.916989505
17761.003758852
17815.57147782
17502.710598031
17009.486158081
16333.563685305
15504.016005062
14584.271794533
13620.376912566
12648.324538237
11699.113869467
10791.311982784
9936.6254967698
9141.5350500179
8408.1136118846
7735.6347837787
7122.3851530983
6564.9761595166
6058.9014704009
5599.6637111217
5183.0572949333
4805.0611684338
4461.9476396285
4150.1895004906
3866.6301378705
3608.4256712171
3372.6857580283
3157.0843972626
2959.9521082683
2779.3540578339
2613.6522061297
2461.3497642504
2320.7897056699
2191.1094876332
2071.4549311483
1960.7741482468
1858.2796343589
1763.0181789701
1674.4041640584
1592.0607607487
1515.3296752119
1443.7873105548
1376.9225051828
1314.3083200382
1255.7212243347
1200.7829504409
1149.2271569286
1100.7685134965
1055.154370286
1012.2284699237
971.76697111095
933.58499128276
897.51759548523
863.40538318004
831.10684398425
800.53286507078
864.93909417593
4155.2851260324
5518.5086780523
5569.9713071281
5557.1004519642
5547.4900763366
5543.8134407673