/*--------------------------------*- C++ -*----------------------------------*\
| =========                 |                                                 |
| \\      /  F ield         | OpenFOAM: The Open Source CFD Toolbox           |
|  \\    /   O peration     | Version:  2312                                  |
|   \\  /    A nd           | Website:  www.openfoam.com                      |
|    \\/     M anipulation  |                                                 |
\*---------------------------------------------------------------------------*/
FoamFile
{
    version     2.0;
    format      ascii;
    arch        "LSB;label=32;scalar=64";
    class       volScalarField;
    location    "0.00014";
    object      rho;
}
// * * * * * * * * * * * * * * * * * * * * * * * * * * * * * * * * * * * * * //

dimensions      [1 -3 0 0 0 0 0];

internalField   nonuniform List<scalar> 
109340
(
662.48309518313
662.47804251388
662.46843476026
662.45681478379
662.4439855328
662.43061842618
662.41697322673
662.40318103348
662.38938895122
662.37526551702
662.36017137629
662.34349603333
662.32450839116
662.30232021073
662.27587200041
662.24391005776
662.20493987529
662.15716960772
662.09842562326
662.0260411664
661.93669450604
661.82621631838
661.6893183898
661.5192264864
661.30715598056
661.04157879745
660.70713784217
660.2830009474
659.74025261428
659.03756659962
658.11364048085
656.87311531584
655.15861614914
652.69201118996
648.94441150504
642.83225065514
662.48385085199
662.47736621163
662.46658697328
662.45418511497
662.44098640439
662.42757382956
662.41411573549
662.40060099051
662.38683002325
662.37247247984
662.35701960468
662.33984036046
662.32016186987
662.29705165941
662.26940161942
662.23589594398
662.19497622894
662.14476553919
662.08297939221
662.0068043202
661.91273061326
661.79634086684
661.65201845502
661.47254857357
661.24854923644
660.96766534637
660.61337202508
660.16313833243
659.58548555686
658.83504440315
657.84376013781
656.50414208142
654.63472669374
651.90418200949
647.64393327768
640.40686948306
662.48667005613
662.47916520966
662.46729972536
662.45460337976
662.44151441552
662.4282905437
662.414901228
662.4013449428
662.38752560081
662.37312791766
662.3576576635
662.34048046968
662.32081897001
662.29773841671
662.27013087736
662.23668562801
662.19584352782
662.14572996988
662.08406140089
662.00802645636
661.91411469975
661.79790875874
661.65379205551
661.47454778174
661.25079172549
660.97016396412
660.61613329735
660.16616231412
659.58876860581
658.83857383486
657.84748327877
656.50774037617
654.63589396118
651.88974624614
647.54692230121
639.86096524484
662.49059505794
662.48155031312
662.469085861
662.45603155283
662.44268927157
662.4291890394
662.41557452025
662.40186230895
662.38793852845
662.37348320806
662.35800317032
662.34085871271
662.3212649224
662.2982809114
662.27079158536
662.23747874513
662.19677717541
662.14680514991
662.08526696677
662.00934004477
661.91548624572
661.79925699297
661.65498954172
661.47539837089
661.25100661073
660.96931739589
660.61360616281
660.16105906129
659.57979472807
658.82383878342
657.82415090419
656.47132263346
654.57712164823
651.78131394299
647.27414044593
638.75086230307
662.49678697585
662.48502950585
662.47074405092
662.45679837434
662.44309319024
662.42946048538
662.41580357098
662.40210675636
662.38822653404
662.37383118395
662.35843413972
662.3413924114
662.32190804799
662.29901987396
662.27158259861
662.23823444262
662.19735087857
662.14696949881
662.08463887987
662.00740574535
661.91147575995
661.79208019841
661.64311085429
661.45665200144
661.22236685629
660.92654528423
660.55076580876
660.06981706297
659.448386086
658.63547896543
657.55436478027
656.08395206835
654.0136537166
650.93260775962
645.85663528223
635.32813958312
662.50833677111
662.48683744087
662.47106317971
662.45679213991
662.44303809424
662.42940440654
662.41575450237
662.40201275105
662.38795329944
662.37310911832
662.35680610527
662.33815252991
662.31603369393
662.28909057749
662.2556830795
662.21383488846
662.16115534941
662.09476310052
662.01121569102
661.90559231017
661.77196406995
661.60267497528
661.38778538995
661.11430593149
660.76512978154
660.31749919126
659.7407770045
658.99305418497
658.01575695371
656.72456949311
654.99275615689
652.62317564882
649.27061851961
644.26187159789
635.93948682141
617.33756535699
632.31690681005
614.69348965728
587.6476844298
550.92295118555
506.17769614097
455.17395756225
400.08786695916
343.34038733984
287.55027160528
235.29306778785
187.85806960706
148.13078791933
115.63805525513
89.709754523548
69.708165480584
54.387864307975
42.753358228592
33.92046255819
27.175005402568
22.015073534242
18.043656574607
14.940693891142
12.495222950701
10.553324829638
8.9872341667734
7.7126363750708
6.6921592492601
5.8284219433218
5.1018951667551
4.5177884287999
3.9949865350831
3.5791150581023
3.1961701537168
2.8887758740861
2.6030373081442
2.3702362133356
2.1522690718361
1.9730624553793
1.8031542839587
1.6632448199065
1.5287592518571
1.4176120875702
1.310136996096
1.2201402021395
1.133989070918
1.059349842253
0.99036660751668
0.92715383060152
0.87067536307152
0.81767246899986
0.76994193425757
0.72571704547443
0.68520496881233
0.64783475217872
0.61333723770717
0.58138864504702
0.55176263577135
0.52423681678244
0.49863351213314
0.47477993262197
0.45252360935073
0.43172513633673
0.41226491710519
0.39403577535711
0.37693962486607
0.36087912331264
0.34577657865092
0.3313972286329
0.38868925257117
1.7367045156918
2.1222714106723
2.1052442259307
2.0732905581602
2.0456713436209
2.0230155457061
2.0052382801205
1.9920417099888
1.9827590713649
1.9763297413856
1.9713674517038
1.9662208140405
1.9593971724481
1.9498901017785
1.9372079346987
1.9188082910861
1.8990682393861
1.8757343747427
1.8485682979901
1.8184542690885
1.7869520501349
1.7567420815034
1.7302299427324
1.7091230423143
1.6933477615951
1.6818230114992
1.6731839622148
1.6663198966856
1.6604700804903
1.655416327519
1.6511522942629
1.6477975797351
1.6454265582686
1.6440140524802
1.6436079731614
1.6441969805942
1.6457880647745
1.6481787040298
1.6512760872221
1.6549825579683
1.6591764082366
1.6637009239706
1.6683965002534
1.6731522627008
1.6779152228824
1.6826966989744
1.6875352062106
1.6924873659009
1.6979325081412
1.7026991856757
1.7077667683591
1.7126598055185
1.7176029238796
1.7224476056936
1.727171256004
1.7317148893999
1.7360444479383
1.740166126416
1.74411859639
1.7479432436884
1.7516880089015
1.7554123875433
1.7591181529857
1.7628963230782
1.7666429973862
1.7703004139345
1.7738212912981
1.7771458291573
1.7810342219369
1.7854272507678
1.8151929384548
627.2035186021
604.64471115407
571.17716916788
528.35221978519
478.67057699313
424.10482511368
367.61416913751
311.7721239111
258.95691200176
210.9175462659
168.77427485028
133.04033237337
104.52505481038
81.761645730384
63.943518924114
50.23258635006
39.718722857985
31.678443529059
25.518592523152
20.771265626853
17.084715355585
14.198711975544
11.915742588952
10.090782449751
8.6197530077573
7.4222424254557
6.4375197691187
5.6235494080285
4.9422240401407
4.3697418138321
3.8843236773615
3.4702922976916
3.1153134452113
2.8080754841237
2.5420588858183
2.3091879192738
2.1056500550447
1.9258307645927
1.7672996443735
1.626133581692
1.5006682239024
1.388284695753
1.2875029016328
1.1968120480785
1.1148202232149
1.0407585670767
0.97329620230281
0.91212561620027
0.85610376142648
0.80503289005313
0.758072917881
0.71497158211904
0.6752504013368
0.63862319863787
0.60478543197719
0.57344615555376
0.54437763250147
0.51736371056954
0.49222237829554
0.46878711120552
0.44691373766312
0.42646965416883
0.40733596311984
0.38940379206515
0.37257539134905
0.35676539191385
0.34189729375728
0.32774926280184
0.55948971805866
1.9584774990569
2.124712292209
2.0962095943544
2.0651923994926
2.0390101172939
2.0177156638113
2.0012434497033
1.9891835080187
1.9807699785319
1.9748412503564
1.9699471471234
1.9644307875536
1.9569166605032
1.9465409626294
1.9329218495641
1.9180233890689
1.8981345953628
1.8746910882337
1.8474495997498
1.817265840498
1.7857139601127
1.7554815366429
1.7289828775862
1.707914739535
1.6922103838973
1.6807858781387
1.67226779955
1.6655298743999
1.6598091518968
1.65486558449
1.6506940072899
1.647417038663
1.6451092411265
1.6437524099494
1.6433642520295
1.6439938762708
1.6456212767264
1.6480450428321
1.6511729966691
1.6549070357309
1.6591242836184
1.6636696607003
1.6683859105748
1.673160308794
1.6779443656109
1.6827435507965
1.6875873430561
1.6925388377454
1.6979669127368
1.7027866344503
1.7078779134091
1.7128246906344
1.7177922670239
1.7226548968569
1.7273924265777
1.7319394468262
1.7362692447388
1.7403877504867
1.7443339288409
1.7481480749964
1.7518788263493
1.7555848237837
1.7592612577587
1.7630075276518
1.7667081349063
1.770307213795
1.7737575531446
1.7769838715121
1.7805861942664
1.7845159495516
1.8134534852513
624.41118319206
595.96822269207
555.19033746126
504.09049359759
448.80833266224
391.76789047172
335.5740006892
282.53693902004
234.18968054437
190.81760746074
154.33780821239
123.32692847925
97.804738588386
77.301866499284
61.040225936892
48.314521550255
38.453642041844
30.847867147663
24.965883815562
20.390574529832
16.817445945727
14.009217768573
11.778210420342
9.9893031461161
8.5444029347672
7.3653199590789
6.3939502145124
5.588759620169
4.9162270642879
4.348364275627
3.867558033556
3.4564656058713
3.1039149035634
2.7989093570429
2.5342100899426
2.3028806095569
2.1001673506079
1.9214060971066
1.7634036708379
1.6229139956735
1.497907220224
1.3858517920972
1.285508678057
1.1949452219651
1.1133774163339
1.0393196264796
0.97220651906958
0.91101729744713
0.8552167328575
0.80415144188618
0.75732285112124
0.71431235658524
0.67466248565433
0.63809107823721
0.60428005457171
0.5729852127352
0.54395689702784
0.51698169964413
0.49187243265049
0.46846581923787
0.44661819376575
0.42619781012643
0.40708480474103
0.38917090264857
0.37236004376352
0.35656425444287
0.34170888860399
0.32763148570222
0.57148537706252
1.965438383447
2.1249753021388
2.0962165752647
2.0652558298633
2.0391083272844
2.0178345952621
2.0013692469348
1.9893047241627
1.9808752737995
1.9749241590353
1.9700038030767
1.9644646934949
1.9569346633199
1.9465511002206
1.9329231156832
1.9180291875337
1.8981606294027
1.8746856974694
1.8474991396157
1.8173345252495
1.7857677820968
1.7554726087798
1.7289204891393
1.7077752813845
1.6920006244538
1.6805253522297
1.6719820188265
1.6652291720298
1.6595338924233
1.654613924223
1.6504706126311
1.6472160212613
1.6449264678042
1.6436001023947
1.6431784529985
1.6438253675342
1.6454772417816
1.6479277477936
1.651083785826
1.6548456568099
1.6590874078567
1.6636555922899
1.6683956599929
1.6731952757398
1.6780112551667
1.6828421359495
1.6877163310253
1.6926253061231
1.6980258982023
1.702925908566
1.7079956156604
1.7129520491925
1.7179059929024
1.7227626272951
1.7274739183363
1.7319833595861
1.7362693103528
1.7403406908009
1.7442358401197
1.7480005631529
1.7516810328234
1.7553229023177
1.7589256877945
1.7625888111223
1.7661787726812
1.7696703262953
1.7729937418393
1.7760488206128
1.779086895546
1.7831077934723
1.8117650033215
618.17293545129
576.30816271997
520.57223948928
457.98224907431
396.18330219078
339.1623074226
287.35044133171
241.47380860368
201.07935496543
165.67789783501
136.38000037453
110.89494344871
89.373117628278
71.65683769394
57.264988216834
45.828149444949
36.812108579009
29.737473378646
24.205948184291
19.875506036245
16.460954470805
13.747675708609
11.588599007354
9.8517994674958
8.4399671413851
7.2850311696011
6.3332268705254
5.5412010262021
4.8779311722041
4.3185645786914
3.8431753575428
3.4369239252869
3.0874767946243
2.7856466282083
2.5228934039258
2.2937036113571
2.0922587750655
1.9148971499341
1.7577293283977
1.6182913238834
1.4937731579486
1.3824554992219
1.2824560629656
1.1924134409074
1.1110765988896
1.0373537855612
0.97046529492634
0.90946984608642
0.85386449059124
0.80291080280808
0.75624138792488
0.71331882826595
0.67379963759533
0.63730958890268
0.60356892753363
0.57233479795152
0.54335975267376
0.5164364009521
0.49137499390781
0.46801319487081
0.44620368684822
0.42581556206752
0.40673094342924
0.38884419985407
0.37205954962649
0.35628750993788
0.34145098106019
0.32740829630662
0.59005453787926
1.9741474048409
2.125249069999
2.0962215744437
2.0653341353458
2.0392406171098
2.0179961789164
2.001540918502
1.9894689033285
1.98101801155
1.975032801083
1.9700734760916
1.9645010892278
1.9569498544743
1.9465566194304
1.9329300183417
1.9180551688183
1.8982277460541
1.8747796124782
1.8476620396811
1.817535454738
1.7859707781815
1.7556293357177
1.7289929512374
1.7077390468079
1.6918601360529
1.6803030903739
1.671702236764
1.6649155492319
1.6592143479527
1.6543073754072
1.650186633789
1.6469537024943
1.644679161903
1.6433640270309
1.6429545667032
1.6436027477123
1.6452838826723
1.6477679546121
1.6509593942758
1.6547558698471
1.6590270031427
1.6636215804017
1.6683909242975
1.6732273738535
1.6780842534089
1.6829558643837
1.6878705021534
1.6928229911299
1.6981745057501
1.7031139532668
1.7082067484247
1.7131847761233
1.7181487205024
1.7229970852509
1.7276790593385
1.7321433489395
1.7363704192743
1.7403708820048
1.7441910742685
1.7478747364055
1.7514657853427
1.7550038141729
1.7584797149641
1.7619978492398
1.7654001815287
1.7686913849708
1.7718112420705
1.7746379899097
1.77741542207
1.7813539690784
1.8089686311608
597.29960330672
520.44271532485
438.6679749148
369.12655474348
312.67166722911
266.24740721116
227.77012207822
194.48103566312
165.52971017242
140.11206169702
117.34460428132
97.27101994517
79.907594928367
65.183921889322
52.939385290728
42.911781244455
34.838685582039
28.404510289318
23.292024614597
19.231849349313
16.004515432185
13.429935539933
11.352813520853
9.674252026166
8.3077864030162
7.1853770503675
6.2550269012167
5.480255512174
4.8297975915562
4.2800719975688
3.8120594836593
3.4116972810047
3.0667420156226
2.7682907584773
2.5086585132989
2.281679010924
2.0821914115163
1.906336859654
1.7505479910131
1.6120980373455
1.488495539917
1.3779282338518
1.2785186007471
1.1890234011864
1.1080737678869
1.0347815745211
0.96814125710162
0.90745630182332
0.85203944960175
0.80130963233936
0.7547974304249
0.71201236996166
0.67262768202188
0.63625794521437
0.60263169568181
0.57147568204054
0.54257304692246
0.51571693825507
0.49071983130119
0.46741553335688
0.44565546647187
0.42531051124464
0.40626510425337
0.38841472214152
0.37166324356233
0.35592356488468
0.34111256174199
0.32720176766918
0.61533099326757
1.9849629021958
2.1255233095287
2.096220773821
2.0654249635428
2.0393989831433
2.0181917818033
2.0017497382628
1.9896686425069
1.9811878526897
1.9751562708721
1.9701451166698
1.9645287974751
1.9569483764498
1.9465436490753
1.9329280293138
1.9180882075625
1.8983214809902
1.8749311222781
1.8478982152075
1.8178309641424
1.7862714406218
1.7558667424377
1.7291039268688
1.7076929424412
1.691662584699
1.6799863361987
1.6713099711474
1.6644888756409
1.6587908979693
1.6539098749606
1.6498248457336
1.6466236769427
1.6443702456947
1.6430683725321
1.6426709639022
1.6433223550436
1.6450427562055
1.6475666988006
1.6507998871992
1.6546373591357
1.6589449918466
1.6635731344784
1.6683788875592
1.6732593422298
1.6781671934638
1.6830928718291
1.6880546120844
1.6930444077629
1.69836500795
1.7033497125753
1.7084465849895
1.7134398333153
1.7184000884435
1.7232204604967
1.7278524956899
1.7322479489707
1.7363858295289
1.7402801302487
1.743982936609
1.7475359735997
1.7509831964145
1.7543550968346
1.7576378545584
1.7609360584395
1.7640791581909
1.7670901712168
1.769893820428
1.772364107363
1.7746763245486
1.7780723143227
1.8041364743827
449.01241930698
325.09290616317
272.82681841635
240.95364698845
214.27031900936
191.54292912904
170.32745805039
150.99309525438
132.42135491816
115.06426158763
98.710733357099
83.756540565273
70.290750416068
58.434351528994
48.265363458802
39.716479472147
32.652068665495
26.892936550033
22.239244257814
18.492442348708
15.476394025006
13.042657268046
11.074588184836
9.4665371716132
8.1492651369246
7.0634786665478
6.1624257945128
5.4069323054421
4.7713778947903
4.2332970394382
3.7746913938103
3.380816087718
3.0415805312012
2.7474993720373
2.4913125148266
2.2670319873931
2.0700178741498
1.8959741493651
1.7417484737389
1.604539664467
1.4820962094913
1.3723427678644
1.2737155940294
1.1848189602982
1.1044332653609
1.0315657758111
0.96529485631191
0.90495114709066
0.84980028771947
0.79932848496101
0.75299472623213
0.71040267069183
0.67116812147129
0.63494787878403
0.60145120127524
0.57040466532588
0.54160103111785
0.51482940266164
0.48990770061486
0.46666966682758
0.4449712937419
0.42468338051984
0.4056883164413
0.38788091861736
0.37116794135992
0.355465902144
0.34069534887603
0.32707350896173
0.64834607997176
1.9974214590697
2.125863522729
2.0962286351458
2.0655288382662
2.0395775527597
2.0184132392404
2.001985533487
1.9898922448985
1.9813724655534
1.9752815649271
1.9702053307552
1.9645325488698
1.9569139815032
1.946499684893
1.9329039900259
1.9181193324525
1.8984315525513
1.8751169186941
1.8481802432109
1.818184420758
1.7866341419102
1.7561547079786
1.7292449321304
1.7076442484283
1.6914299189544
1.6796078775322
1.6708365009031
1.6639692097049
1.6582679542947
1.6534128885664
1.6493662187505
1.6462011341376
1.6439752216037
1.6426907371891
1.6423050579308
1.642971366149
1.6447340343429
1.6473025457227
1.6505839935128
1.6544697276085
1.658821904915
1.6634915794919
1.6683424437087
1.6732775095607
1.6782492595265
1.6832375823019
1.6882604379703
1.6933099012851
1.6986163983665
1.7036413708628
1.7087576428777
1.7137721195063
1.7187192635954
1.7234992299779
1.7280649911965
1.7323664210422
1.736381154703
1.740123366394
1.7436538636279
1.7470074191371
1.750226652453
1.7533301957777
1.7563046057692
1.7592598575264
1.7619923606353
1.7645577779343
1.7669117849546
1.7688721745861
1.7705369942898
1.7731471443471
1.7973039851655
15.288993629769
103.80871290478
127.55279694057
136.53312219378
138.0776498145
134.04563381251
126.30298003291
116.78461835816
106.35311951682
95.465925920785
84.507747702434
73.7419947838
63.496231061412
54.017953141085
45.509002647567
38.085470462719
31.748085359846
26.441626449372
22.056859636122
18.463073249445
15.529499938869
13.137529418754
11.182291871698
9.583154833679
8.2632326086853
7.1672335134471
6.2563706738414
5.4934587615617
4.8495280052748
4.3021542609838
3.83605702407
3.4363481809549
3.0911139450602
2.7915540976451
2.5308894185975
2.3027243594282
2.1019689871548
1.9248102550202
1.7678849238152
1.628228268246
1.5035382946872
1.391861621959
1.2915481852853
1.2010874503742
1.1193040793043
1.0451866669797
0.97782845737429
0.91646523416415
0.86039443649627
0.80909503073839
0.7620247021066
0.71876826034027
0.67890829399099
0.64212464156004
0.6081288776722
0.5766399881692
0.54742215762457
0.52025885465815
0.49498026768596
0.47141993656243
0.44942796179155
0.42886885635175
0.4096233913085
0.3915870832659
0.37466285633618
0.35876199786984
0.34380227343414
0.32954352609913
0.43454049190371
1.8492974827515
2.1260029189806
2.1043074167356
2.0728801393111
2.0457692464315
2.0234800593225
2.0059141060195
1.9927855200939
1.9834226981859
1.9767806282545
1.9715188370784
1.9660663450279
1.9589826927675
1.9493027669592
1.9365383148888
1.9181264773579
1.8985279268431
1.875307784099
1.8484869041462
1.8185839503114
1.787055196948
1.7564876925792
1.7294084866962
1.7075795240377
1.6911418083794
1.6791415200467
1.6702545409016
1.6633329457917
1.6576296119275
1.6528065262559
1.6488054111449
1.6456845956242
1.6435003074225
1.642266078877
1.6419270725827
1.6424112679817
1.6442572455493
1.6468995646304
1.6502651177004
1.6542303231727
1.6586553198504
1.6633939725549
1.6683188497031
1.6733392583217
1.6784047008337
1.6834970768965
1.6886168868915
1.6937387515818
1.699010512929
1.704083700965
1.7092305001487
1.7142539001394
1.7191511323265
1.7238339869824
1.7282469474578
1.7323405289836
1.7360876801773
1.7394986830447
1.7426486051739
1.7455636104008
1.7482594724013
1.750720722573
1.7529435112443
1.7550657789741
1.7569060192568
1.7585062259259
1.7598755832288
1.7607636742412
1.7611531753573
1.7621094106067
1.7827420887677
6.8278248937092
18.246610013491
32.543223834394
44.466575156606
53.514883993422
59.535829954357
62.685542182258
63.488482254697
61.765469089515
58.760634793708
54.776090420716
50.048016361613
44.943637848674
39.725372130057
34.644382756524
29.906572804788
25.629839878702
21.868564769336
18.630829589484
15.883921576098
13.573239479125
11.640013577433
10.025453819836
8.6755515201206
7.5457224127231
6.5982458995425
5.7987823476204
5.1193684138164
4.5423445730996
4.0491828289249
3.6257129154754
3.2591057465875
2.9412941438856
2.6645180360356
2.4223110380976
2.2090125627289
2.0209418374983
1.8544426865139
1.7064416594953
1.5742640634488
1.4559617431215
1.3497870305941
1.254158595571
1.1677455043155
1.0894554156493
1.0183943639508
0.95369921068623
0.89464504055288
0.84061497391668
0.79110283836974
0.74563501705073
0.70378218581751
0.66518311506849
0.62952538065231
0.59653582819174
0.56596079456886
0.53756733873042
0.51115250375271
0.486542078307
0.46358476922326
0.44213945315322
0.42207913327352
0.40328905636453
0.38566752931442
0.36912066613942
0.35356908502213
0.33893332792898
0.32618268701091
0.81007836271957
2.0422185565129
2.1275183613064
2.096400066864
2.0658604058155
2.0401272233348
2.0191081369569
2.002721875852
1.9905589641803
1.9818610377676
1.9755051921072
1.9701430114172
1.9642266471837
1.9564698916148
1.9460406810583
1.9325386351378
1.9180042599293
1.8986132702727
1.8756470226459
1.84912518712
1.8194720995273
1.7880237099599
1.7572601307414
1.7297837685334
1.7074010718623
1.6904103708101
1.6779624042454
1.6687812758759
1.6617176964109
1.6560013776287
1.6512474956027
1.6473503268107
1.6443347722926
1.6422427126275
1.6410843006221
1.6408105502141
1.6413202496022
1.6433049066735
1.6460689454026
1.6495640496703
1.6536598252301
1.6582087414645
1.6630707107695
1.668127989397
1.6733010092221
1.6785394575208
1.6838161810743
1.689110165238
1.6943710012049
1.6996761263653
1.7048529836017
1.7100359583055
1.7150086577446
1.7197551015918
1.7241829502045
1.7282129017723
1.7317945918272
1.7348986691111
1.73750581496
1.7396372105019
1.7413430724063
1.7426703097007
1.7435577436008
1.7440457454721
1.7442910535771
1.7440553648938
1.743379046984
1.7421275297622
1.7400071516769
1.7369914869687
1.734168172761
1.7490243107095
5.4408614343757
8.0342815043339
12.987485778666
18.986011534998
24.621568804523
29.428615834826
33.164926304479
35.733479153606
37.190046326538
37.40394926515
36.498231425078
34.876427398099
32.646389198408
29.968110968113
27.05536504376
24.094726910321
21.231672678973
18.567507894709
16.160237627023
14.031718512957
12.179736796295
10.585278245658
9.2213485432118
8.0581505617824
7.0669668906792
6.222435553559
5.5012722714915
4.8839533671237
4.3539008717754
3.8963925300719
3.5002876325249
3.1564401442475
2.8565736371041
2.5942704174129
2.3631505217245
2.1592942669036
1.9789160945694
1.8187489703414
1.6758229683912
1.5479098218708
1.4332737404225
1.3301274618336
1.2370396540316
1.1527183226931
1.0763010482141
1.0067997836709
0.9434514314777
0.88552944055229
0.83248878931677
0.78384433526747
0.7391219380651
0.69792374049158
0.6598884517814
0.6247414730147
0.59220049925421
0.56201718506627
0.53397149773755
0.50786711266322
0.48354480059161
0.46084351551259
0.43962438935995
0.41976574997753
0.40115764099184
0.38370703184321
0.36732089344389
0.35191104239604
0.33739540848215
0.32598014615463
0.96925465532599
2.0738465825463
2.1285613056088
2.0964025187144
2.0659264608984
2.0403462748346
2.0194423645302
2.003077596253
1.990831985676
1.9819542959689
1.9753460562755
1.9697186697542
1.9635995340409
1.9557319971558
1.9452935812708
1.9318758427031
1.9175893328927
1.8984566114612
1.8758267855689
1.8497008531909
1.8203967868714
1.789097730999
1.7581468563919
1.7302132719058
1.7071567868826
1.689476077291
1.6764548344851
1.6668872025831
1.6596291253664
1.6538804658087
1.6491990058766
1.6454244511451
1.6425423810707
1.6405768462907
1.6395340492797
1.6393805978107
1.6399543145418
1.642109531993
1.6450160182016
1.6486480714892
1.6528868853234
1.6575752072514
1.6625759051865
1.6677840908901
1.6731308269787
1.6785716677384
1.684063054889
1.6895816403292
1.6950159263931
1.7004227443979
1.7057095201641
1.7108746919497
1.7157160279329
1.7201599099714
1.7240782246696
1.7273461961592
1.7298321591876
1.73151512192
1.7324710154921
1.7327209231431
1.7322235562183
1.7309723501449
1.7289168841784
1.7260847623121
1.7223606383686
1.7176665179098
1.7122339910589
1.7054848460151
1.6974087853707
1.6881572496344
1.6794019915564
1.6875487393694
4.3492963218206
5.696993122717
7.2123484991388
10.195488786674
13.520451514495
16.694928791267
19.525779984477
21.846689057293
23.585875128538
24.659752369087
25.034712326623
24.686800485774
23.82816602384
22.593705357399
21.020986707891
19.246960529963
17.399454911087
15.575014026392
13.840892925161
12.240848411867
10.797283487093
9.5158243128094
8.3902513728605
7.4088051128134
6.5566340549655
5.8182254591962
5.179025157059
4.6251128485366
4.1441713785821
3.7256598693456
3.3606043333761
3.0412267583863
2.7606789352741
2.5135343043242
2.2953821897553
2.1021969937102
1.9305649434324
1.7771811124326
1.6400462189883
1.5171681164737
1.4066661995085
1.3070245766133
1.2167585753137
1.1350110519901
1.0607265456188
0.99308185429799
0.93126669255256
0.87467966790645
0.82284025918098
0.77521079421626
0.73138327092023
0.69094074449738
0.65359171197749
0.61905217673853
0.58704319493342
0.55732850597172
0.52968587544119
0.50395283851916
0.47996286412751
0.45756380447914
0.43661992206081
0.41700452763403
0.39861870114969
0.38136950962672
0.36516450924195
0.34992133368473
0.33556679494499
0.3259762689989
1.1652854223234
2.1006360438474
2.1283421649498
2.0958602977298
2.065643105433
2.0402807757904
2.0195199810347
2.0031698995946
1.9908097161307
1.9817031494275
1.9747842554305
1.9688516494393
1.9624928558343
1.9544909380564
1.9440430020391
1.9307410777339
1.9167557832589
1.8979413706048
1.8757338944755
1.8501056359536
1.8212633827762
1.79021150252
1.7591214372924
1.7306987135175
1.7068715763001
1.6883728465867
1.6746507066127
1.6645923292235
1.6570721737501
1.6512564940112
1.6466420194634
1.6430056123444
1.6402884649812
1.638491361265
1.6376070115282
1.6376269507515
1.6383091777976
1.6406667944845
1.6437515390737
1.6475508897232
1.6519473493806
1.6567972950229
1.6619593445288
1.6673379245047
1.6728791227335
1.6785445644505
1.6842773537048
1.6900154280083
1.6956432133348
1.701180799279
1.7065270626367
1.7115818365738
1.7161060284612
1.7199080462646
1.7227370061677
1.7244267678654
1.724916308762
1.7241921557509
1.7222021388973
1.7189275133705
1.7142879178793
1.7082616936362
1.7005972775109
1.6915515366986
1.6808444599998
1.6684618569365
1.6538482329572
1.6366607634487
1.6172761272856
1.5966557823132
1.5782651983983
1.5803130793527
3.5404074426606
4.6553939349934
5.051422646976
6.430694605741
8.4099647773862
10.489989489616
12.490603873926
14.292278657184
15.779423974729
16.894718980019
17.656114369235
17.923815651516
17.686020729795
17.207208966763
16.399478903015
15.385598463208
14.225277880628
13.002774955874
11.777635749078
10.598129214942
9.4952279352314
8.4845795076385
7.5723219638727
6.758173530687
6.0370207607153
5.4012034191559
4.8423546034289
4.3518106224553
3.9210204660609
3.5423012722977
3.2089743818202
2.9150284160996
2.6552764745043
2.4252133090733
2.2207732350913
2.0386087886154
1.8760532081471
1.7305825346597
1.6000474635681
1.4826474710956
1.3765522791445
1.2806228196335
1.1937425413922
1.11479908567
1.0429610108436
0.9772871595504
0.91723478468737
0.86223668130847
0.81173176214775
0.76528510035158
0.72242872957057
0.68288510519231
0.64633796802217
0.61249309409258
0.58109695425391
0.55189942145957
0.52474218767433
0.49944069542668
0.4758337140673
0.45377936998315
0.43314131728468
0.41380941971725
0.39568319109434
0.37866099635629
0.36266229829146
0.34760585036266
0.33339256487863
0.33324089230863
1.4047848544197
2.1225162281981
2.1275946190141
2.0946996579855
2.0648927940234
2.0398200636525
2.0192283049187
2.002886294541
1.9903809123835
1.9809965660528
1.9737216716597
1.9674448390668
1.9608077899716
1.9526521369896
1.9421986005493
1.9290439768844
1.9154020381725
1.8969703685174
1.8752760526722
1.8502471436607
1.8219902973443
1.7913157762481
1.7601663679343
1.7312429029431
1.7065938043944
1.6871642517814
1.6726134640093
1.6619480598028
1.6540795436449
1.648144225195
1.6435782411085
1.6400895331912
1.637568592224
1.6359836671155
1.6353084710026
1.6355534258616
1.6364156515093
1.6390147204756
1.6423164081989
1.6463216858758
1.650909877825
1.6559369592943
1.6612806879304
1.6668503989742
1.672600610206
1.6785019342946
1.6844814952346
1.6904313802538
1.6962850161899
1.7019616549781
1.707318922539
1.7120934753261
1.715899323502
1.7184157364693
1.7193486861746
1.7184357433079
1.7155560800675
1.7105743252974
1.7033139988024
1.6937154281765
1.6817571147179
1.667239058098
1.6501881567413
1.6304200523983
1.607358891077
1.5809121226412
1.5507088031986
1.5169943078344
1.4811991868543
1.4461432573437
1.4188682545461
1.4151795055284
2.9175414044411
3.9308102128525
4.082646277393
4.6127598711486
5.7542058054672
7.1350821414648
8.5430681427127
9.8901525945911
11.077548394199
12.066323738433
12.768517987712
13.279192840429
13.426821755667
13.314729919481
12.912506901326
12.352866561524
11.650017432834
10.844410286643
9.9938161928138
9.1383740126367
8.3065012415925
7.5206204509618
6.7923391904177
6.1267411067725
5.5248666556114
4.9844716748918
4.5015673925426
4.0717444160891
3.6899374705054
3.3508206623553
3.0494592583372
2.7814450402762
2.5428001809705
2.3300029595086
2.1398984681219
1.969745815227
1.8171516019204
1.6798651434601
1.5560546994988
1.4443252245819
1.3432451438885
1.251607416286
1.1683404244471
1.0923577444297
1.0229964225312
0.95963273411153
0.90158698253831
0.84832998761807
0.79928291443798
0.75405665457615
0.7123712574819
0.67383711799698
0.63818234401182
0.60510744906574
0.57436119897788
0.5457888710423
0.51917569246592