/*--------------------------------*- C++ -*----------------------------------*\
| =========                 |                                                 |
| \\      /  F ield         | OpenFOAM: The Open Source CFD Toolbox           |
|  \\    /   O peration     | Version:  2312                                  |
|   \\  /    A nd           | Website:  www.openfoam.com                      |
|    \\/     M anipulation  |                                                 |
\*---------------------------------------------------------------------------*/
FoamFile
{
    version     2.0;
    format      ascii;
    arch        "LSB;label=32;scalar=64";
    class       volScalarField;
    location    "0.00014";
    object      rhoHat;
}
// * * * * * * * * * * * * * * * * * * * * * * * * * * * * * * * * * * * * * //

dimensions      [1 -3 0 0 0 0 0];

internalField   nonuniform List<scalar> 
109340
(
661.22298455481
661.21816367993
661.208941087
661.19768946519
661.18514286847
661.17193164926
661.15829790347
661.14433376065
661.13003702867
661.11477384306
661.09744695838
661.07684432116
661.05148771281
661.01958792877
660.97901528776
660.92725202582
660.86130563905
660.7775949942
660.6717837853
660.53855666627
660.37130140964
660.16171708893
659.89927656918
659.57050050734
659.15792623244
658.6386602896
657.98224375175
657.14742024284
656.07702849609
654.6895514707
652.86438775545
650.41454320843
647.03265952486
642.17841973707
634.83236057086
622.93273849776
661.22370379678
661.21751684545
661.207158986
661.19512832886
661.18219102985
661.16890275445
661.15542335287
661.14169372369
661.12732626895
661.11164672683
661.09365364965
661.07207825107
661.04536236506
661.01163127831
660.96866039976
660.91381419787
660.84397027484
660.75537919123
660.6434857738
660.50268529876
660.32599096319
660.10460771991
659.82735508955
659.47987940214
659.04353416964
658.49379056024
657.79788442569
656.9112136393
655.77158171261
654.28955236307
652.3313433535
649.68637468222
646.00068527057
640.63165625237
632.29357349139
618.24371905811
661.2263831793
661.2192365353
661.20784668201
661.19553604148
661.18271122455
661.16961648216
661.15621537459
661.14246331894
661.12808260601
661.11241441045
661.09447061046
661.07297695029
661.04636835745
661.01276560618
660.96994260818
660.91526894647
660.84562180153
660.75725604592
660.64561995712
660.50511426876
660.32875334182
660.10774277283
659.83090257369
659.48387562517
659.04801127225
658.49877164925
657.80338007966
656.91722145293
655.77809186637
654.29653841031
652.33870379063
649.69350037518
646.00313265609
640.60392484629
632.10620480462
617.19591869808
661.23010306152
661.22151254823
661.20956828326
661.19692715637
661.18386789074
661.17051061736
661.15689371415
661.14300195415
661.12855084334
661.1128789877
661.09499857706
661.07362842681
661.04719401729
661.01380792758
660.97123416096
660.91683112469
660.8474654127
660.7593789527
660.64799877421
660.5077023073
660.33145335547
660.11039312955
659.83324806029
659.48552364282
659.04838229421
658.49701339892
657.79825510518
656.90694334627
655.76008518502
654.26705580269
652.29214923282
649.6210727036
645.88681992878
640.39092109373
631.57557328597
615.0639753477
661.23594666649
661.22482451463
661.21116423654
661.19767334647
661.18426525572
661.17078060499
661.15712444382
661.14325870901
661.12888300549
661.1133303132
661.09561901608
661.07445794038
661.0482457631
661.01505387618
660.97258486363
660.91810811544
660.84836790298
660.75944030749
660.6464633872
660.50353004688
660.32310923124
660.09569658348
659.80912644609
659.44764793481
658.99070527006
658.41107377364
657.67222064574
656.72423255867
655.49734352626
653.8910679794
651.75468849454
648.85124404802
644.7708410595
638.71856521261
628.80618421998
608.48922445757
661.24676642798
661.22654342471
661.2114734195
661.19766957074
661.1842127509
661.17072533567
661.15707338872
661.14313034275
661.12842168988
661.1120053613
661.09252001204
661.06817439206
661.03673156503
660.99546536209
660.94108663865
660.86963290267
660.77631188857
660.65533237901
660.49975226782
660.29995420298
660.04405055615
659.71676598504
659.29829851477
658.76279993566
658.07627599345
657.1935837369
656.05408235716
654.57504613564
652.6412495274
650.08753559467
646.66698944414
641.99796404517
635.41782009701
625.64726023185
609.57872976137
574.42902627414
602.70719577317
569.53146522811
520.41860376389
457.26055840234
385.82978793773
311.81314587415
240.73369557545
177.13119627245
124.11323660895
82.999995723419
52.829942065406
32.798472699083
19.9551773203
11.988188665162
7.2253958597974
4.3903946530623
2.70808175807
1.7017287087902
1.0903686929278
0.71445655623586
0.47920396009935
0.32807977198061
0.22915226740689
0.16325509537362
0.11826509682287
0.086982597880562
0.065396857916486
0.049591794514144
0.037933620218649
0.029731432836432
0.023225467910025
0.018623905124133
0.014844922770974
0.012111457874004
0.0098323936842855
0.00814159294015
0.0067125455279413
0.0056346183898026
0.0047052085463957
0.0039996145863541
0.0033777150949319
0.0029025105697011
0.002477551621453
0.002148098328139
0.0018537573156103
0.0016177099966976
0.0014123758112391
0.0012380086028724
0.0010910173460944
0.0009619328260726
0.00085255394598538
0.00075710276386565
0.000674678419187
0.00060286257899023
0.00054016841890991
0.00048518487968341
0.00043684466839022
0.00039421128634831
0.00035652695644872
0.00032312679006752
0.0002934492839553
0.00026701198166496
0.00024340949883012
0.00022229398340273
0.00020336421586387
0.00018635103479131
0.00017103278731789
0.00015706063899984
0.00021616080544751
0.0043059408140549
0.0064186835279356
0.0063091792753958
0.0061128411043088
0.005945284410926
0.0058090287336627
0.0057025190654167
0.0056232456713889
0.0055668470815509
0.0055269768471353
0.0054956484526161
0.0054635136558179
0.0054222018634995
0.0053661531496616
0.0052927735950212
0.0051879563221153
0.0050769378666145
0.0049474161921059
0.0047988291096708
0.0046367705929051
0.004470254787684
0.0043134520371169
0.0041782652259319
0.0040723006163152
0.0039942229357992
0.003937996041055
0.0038964869457618
0.003863991452872
0.0038366304930952
0.0038131774474512
0.0037934778828201
0.003778015764663
0.0037670974336717
0.0037605881681952
0.0037586962336693
0.0037613569599602
0.0037686192634567
0.0037795577129196
0.0037937670042361
0.003810822738765
0.0038301840635162
0.0038511398980563
0.0038729580353651
0.003895126902739
0.0039173989286054
0.0039398232369219
0.0039625792742723
0.0039859348971087
0.0040116807439949
0.0040342927576691
0.0040583838586989
0.0040817027270625
0.0041053163999065
0.004128512911467
0.0041511857124754
0.0041730465627456
0.0041939239039888
0.0042138392930371
0.0042329727575927
0.0042515185371979
0.0042697043994617
0.0042878181555994
0.004305867212286
0.0043242969026176
0.0043426043243227
0.0043604934864727
0.004377725281848
0.0043939921755374
0.0044130571695347
0.0044346745862363
0.0045837250979912
592.99663868409
551.04015607095
491.60175616756
420.47963985159
344.94164655378
270.60210892232
203.15059925471
145.97955996769
100.59767342475
66.650781692294
42.615707143525
26.439536914761
16.292809822118
9.9518079597428
6.0760961705049
3.7430605371969
2.3360631603168
1.483468435753
0.96105530867247
0.63573625031021
0.42945120853591
0.29619538759691
0.20832306182963
0.14920732714171
0.10874450576143
0.080537396458295
0.06051850640114
0.04613444065266
0.035599553662481
0.027802831493244
0.021950771005355
0.017505291649464
0.014096510917713
0.011444087035141
0.0093719606099851
0.0077279656073572
0.0064215296293524
0.0053680242915104
0.004517952946709
0.003822647358446
0.0032537859859674
0.0027830546367642
0.002392492705966
0.0020661767751737
0.0017919574070504
0.0015609782533117
0.001364567378037
0.0011978744476764
0.0010547953583181
0.0009323054258098
0.00082637315414147
0.00073478567619401
0.00065515210483302
0.00058578763416095
0.00052516226443888
0.00047197791675324
0.00042519244128092
0.00038391023973805
0.00034738939891787
0.00031499593384748
0.00028619631703014
0.00026053089347028
0.00023760625443697
0.00021708266075265
0.00019866818470032
0.00018211394152773
0.00016720499037093
0.00015361293198857
0.00044811103541442
0.0054722698271723
0.0064315600449651
0.0062534700866297
0.0060636458719485
0.0059052258104999
0.0057773461562709
0.0056786464865541
0.0056060445812669
0.0055546893716842
0.0055177254336733
0.005486847382723
0.0054527032407568
0.0054076037732826
0.0053468125490006
0.0052683754034624
0.0051837200421851
0.0050719586379
0.004941934096556
0.004793049883941
0.0046307458529447
0.0044641002736685
0.0043073018275008
0.0041722794675461
0.0040665747318753
0.0039888827242409
0.003933158455568
0.0038922343425696
0.0038603385430205
0.0038335848040478
0.0038106474171307
0.0037913787053758
0.0037762771849501
0.003765650838047
0.003759397577116
0.0037575872503766
0.0037604326406329
0.0037678596564483
0.0037789484733166
0.0037932965959022
0.0038104776859325
0.0038299456884259
0.003850997276766
0.0038729111280347
0.0038951667632259
0.0039175372251612
0.0039400449709308
0.0039628263652478
0.0039861793513458
0.0040118457963711
0.0040347073968376
0.0040589108331699
0.0040824870374152
0.0041062179920099
0.0041295012340865
0.0041522408335615
0.0041741165005678
0.0041949921078728
0.0042148889819533
0.0042339879065647
0.0042524776637443
0.0042705893864343
0.0042886066693937
0.0043065045396133
0.004324769196612
0.0043428402820156
0.0043604309493881
0.0043773015450186
0.004393067003222
0.0044106953825889
0.0044299856924699
0.0045747608960114
587.73760450717
535.33167045989
464.42509008979
382.68881410907
303.16108458797
230.82652490741
169.20790233647
119.82657317094
82.231316433921
54.523104742962
35.618454171243
22.708165418685
14.258791387392
8.8922343228673
5.5349253981462
3.4616528946566
2.18907281996
1.4063990786118
0.91971112727618
0.61255463266206
0.4160668428432
0.28831110994965
0.20352344331848
0.14621013065792
0.10684417548036
0.079301292314858
0.059699929622646
0.045563566516048
0.035223873413861
0.027531328946006
0.021760287859669
0.017366173371778
0.013992759064595
0.011369587399438
0.0093137607388578
0.0076858838477611
0.0063878942596327
0.0053434610159109
0.0044979077647558
0.0038076081156835
0.0032417175815302
0.0027733732963773
0.0023850056927797
0.0020597584080868
0.0017872708001145
0.0015566591894185
0.0013614975874003
0.0011949565353121
0.0010526167229562
0.00093025794431045
0.00082474065760663
0.00073342426773726
0.0006540124981389
0.00058480970642549
0.00052428383733871
0.00047121841975617
0.00042453460687442
0.00038334280158514
0.00034689503425528
0.00031456381707273
0.00028581749898748
0.00026019850365427
0.00023731302205643
0.0002168227924117
0.00019843835450906
0.00018190849690397
0.00016702075448305
0.00015350189439406
0.00046751272822831
0.0055111077443
0.0064330792449065
0.006253453320602
0.0060639691372932
0.0059057536423937
0.0057779934522824
0.0056793333725231
0.0056067066883332
0.0055552639676577
0.0055181771645589
0.0054871556601739
0.0054528885971232
0.0054077057091138
0.0053468779677894
0.0052684011040636
0.0051837795562717
0.0050721382097159
0.00494195952498
0.0047933748490023
0.0046311784946074
0.004464458865592
0.0043073454517968
0.0041720561651832
0.0040659742835236
0.0039879425653089
0.0039319746955109
0.0038909293865379
0.0038589634311978
0.003832327715835
0.003809500955793
0.0037903646241806
0.003775368078818
0.0037648268648722
0.0037587137489832
0.0037567493381645
0.003759672133216
0.0037672091764915
0.0037784187868648
0.0037928939405312
0.0038102012201813
0.0038297807121221
0.0038509369962911
0.0038729614424733
0.0038953348108084
0.003917854739107
0.0039405118532274
0.0039634373854618
0.0039865916859418
0.0040121305419565
0.0040353691598527
0.0040594692894711
0.0040830903930202
0.0041067536673456
0.004130005858175
0.0041526139310006
0.0041743001218728
0.0041949531037848
0.004214608257969
0.0042334434333631
0.0042516744111774
0.0042695208642729
0.0042872029320986
0.0043047163645547
0.0043225467867332
0.0043400435315077
0.0043570710115455
0.0043732782765438
0.0043881554120782
0.0044029411182465
0.0044226218173198
0.0045658236078878
576.0663988079
500.56299375049
408.22491038658
315.77487265364
236.11315521674
172.88452875667
123.97710554077
87.45670108538
60.57319834862
41.069912037834
27.790892870443
18.348099770432
11.899045299779
7.6368425253063
4.8692333643831
3.1133267106495
2.0054968036302
1.3066087009409
0.86436973477333
0.58188111911964
0.39854565331354
0.27760578092123
0.19699816694152
0.14219707296594
0.10423861253863
0.077575188751225
0.058566612950472
0.044788997868326
0.034674820954715
0.027153966840523
0.021485847155283
0.017169504286906
0.013844563059718
0.011261561058031
0.0092306000685483
0.0076244315110716
0.0063397893252124
0.0053071332575383
0.0044689530751991
0.0037858441089575
0.00322380431456
0.0027597465082232
0.0023736532370784
0.0020510245513994
0.0017798570526828
0.0015507771665624
0.0013565969507254
0.001190901926854
0.0010492712248833
0.00092738759451383
0.00082237828134468
0.00073138121928318
0.00065233724530422
0.00058337363746219
0.00052304825476635
0.00047014655748323
0.00042360110962625
0.0003825328065904
0.00034619234004279
0.00031395504571274
0.00028528619617441
0.0002597311085169
0.00023689987745051
0.00021645825111682
0.00019811761720961
0.00018162577449637
0.00016676828631024
0.0001532918196176
0.00049835869291548
0.0055598701632622
0.006434632433296
0.0062533980193766
0.0060643579652924
0.0059064608149262
0.0057788701414028
0.0056802687476571
0.0056076016885531
0.0055560415096167
0.0055187676866175
0.0054875333028954
0.0054530865560818
0.0054077931979206
0.0053469219941706
0.0052684652186437
0.0051839572906553
0.0050725537995449
0.0049425333489246
0.0047943220580622
0.0046323252412952
0.004465607279746
0.0043082454735217
0.0041725228673235
0.004065897779546
0.0039873538288027
0.0039309881431686
0.0038896654759393
0.0038575377858343
0.0038308736927488
0.0038081084433583
0.0037890787606802
0.0037741845009576
0.0037637141322873
0.0037576529670915
0.003755743475218
0.0037586693784297
0.0037663375159198
0.0037776983835727
0.003792333321788
0.0038097971514242
0.0038295098769929
0.0038507868508957
0.0038729466888108
0.0038954916925433
0.0039182036318477
0.0039410527571591
0.0039641695556905
0.0039875301609671
0.004012838606285
0.0040362632609556
0.0040604716139836
0.0040841936036684
0.004107901299643
0.0041311090366791
0.0041535670868678
0.0041750228732309
0.0041953747145522
0.0042146658415991
0.0042331128932536
0.0042509220267661
0.0042683016613585
0.0042854420432699
0.0043022957839756
0.0043193727593838
0.0043358981003636
0.0043518841299837
0.0043670261627233
0.0043807080023297
0.0043941277286572
0.0044133079774566
0.0045510474858441
537.82432010663
408.09898971922
289.69567111952
204.94256471525
146.90763192973
106.41980017439
77.804486483666
56.663868651332
41.002867198996
29.342220167435
20.55474877393
14.10461585253
9.5048240691492
6.3152796318954
4.1590468184894
2.7283650589885
1.7955040047702
1.1916857793162
0.8000947605209
0.54466651608639
0.37667028097122
0.26487359733263
0.18903345431429
0.1370990922927
0.10098713285051
0.075459575172507
0.057123799151015
0.043805504864761
0.033991636218253
0.026670061648749
0.021138282038959
0.016917318400728
0.013658674045691
0.011121100773062
0.0091264184586812
0.0075443724173709
0.0062787503678328
0.0052595911063844
0.0044324168361025
0.0037567931515681
0.0032010137039387
0.0027416152055499
0.0023590701750926
0.0020393236163818
0.0017702265734738
0.0015430642836929
0.0013500874504836
0.0011856190831242
0.0010447733444893
0.00092368491085537
0.00081922793638656
0.00072869882392423
0.00065006180736749
0.00058144496198964
0.00052142047427672
0.00046873209717191
0.00042237219234276
0.00038146485606683
0.0003452674568008
0.00031315167891416
0.00028458390096719
0.00025911387130817
0.00023635625715945
0.00021597924323252
0.00019769479482679
0.00018125402790387
0.00016643717111559
0.00015310166730093
0.00054193420893345
0.0056207076362464
0.0064361566429056
0.0062532831681441
0.0060647989035947
0.0059073009682815
0.0057799269811856
0.0056814031639596
0.005608687986302
0.0055569641280044
0.0055194359818842
0.0054879185793366
0.0054532347923828
0.0054077897231719
0.005346868017573
0.0052684879993032
0.0051841838347251
0.0050731290540007
0.0049434360095253
0.0047956833508944
0.0046339946207596
0.0044672891336694
0.0043095864483456
0.0041732157026255
0.0040658076957196
0.0039865219700705
0.0039295784660174
0.0038878917173659
0.0038555982882396
0.0038289477876252
0.0038063041654932
0.0037874423401842
0.0037726975382646
0.0037623264114501
0.0037563264199008
0.0037544713861928
0.0037574080490623
0.0037652521714355
0.0037767923784133
0.0037916155020696
0.0038092645183316
0.0038291425030688
0.0038505727058249
0.0038729006326119
0.0038956505602217
0.0039186010990857
0.0039417052367243
0.0039650449972799
0.0039885826548476
0.0040137462880623
0.0040373834521552
0.00406160873279
0.0040853989720968
0.0041090837766691
0.0041321468068956
0.0041543497069016
0.0041754534822622
0.0041953487398849
0.004214094530369
0.0042319350603697
0.0042490668715001
0.0042656982557343
0.004281974601589
0.0042978242806977
0.0043137572466614
0.0043289338946368
0.0043434584211168
0.0043569500164709
0.0043687702699573
0.0043797763301294
0.0043961333300995
0.0045257272885746
303.77046287406
158.99096572204
111.85790130735
87.169232511304
68.870403892341
54.986143639961
43.440914841162
34.106056325743
26.205617774769
19.764649028488
14.528855569601
10.447172224312
7.3482149184889
5.0712485922567
3.4547674550577
2.3358449051168
1.5764302781308
1.0677878188857
0.72914654811549
0.5034403841811
0.35213175052012
0.24976229566719
0.17984717951242
0.13125359620132
0.097155968521465
0.072911739100134
0.0554388486663
0.04263684895425
0.033171450888325
0.026088244669942
0.02072438398877
0.016611429320844
0.013434630915042
0.010954144783372
0.0090001638569879
0.0074475248363535
0.0062052648591489
0.0052023910057497
0.0043877996652737
0.00372153742625
0.0031734497615032
0.0027193590084313
0.0023413211802199
0.0020248728835153
0.0017585804437334
0.0015334493026891
0.0013421395036587
0.0011790550588464
0.0010392739134316
0.00091910649758742
0.00081530689223563
0.00072539768795543
0.00064723402175859
0.00057904639147954
0.00051937286121784
0.000466971791655
0.00042085566468208
0.00038014919182028
0.00034412235579889
0.00031215026829706
0.00028370839470276
0.00025834821459575
0.00023568380791006
0.000215384420786
0.00019716683086463
0.00018078694300444
0.00016602916856728
0.00015298125440893
0.00060163454310103
0.0056911792008127
0.0064380570236682
0.0062531961658405
0.0060652952358486
0.0059082401249619
0.0057811173290863
0.0056826790671389
0.0056098997191896
0.0055579626434137
0.0055201093373058
0.0054882366994646
0.00545324863482
0.0054076052914427
0.0053466464892298
0.0052683972177445
0.005184411245468
0.005073809455526
0.0049445447593202
0.0047973157930516
0.0046359994623197
0.0044693251507997
0.0043112202416955
0.0041740931443808
0.0040657384151452
0.0039855504064787
0.0039278992551159
0.0038857540197217
0.003853238190876
0.0038265706545206
0.0038040490832749
0.0037853681602065
0.0037707934382116
0.0037605513211949
0.0037546315987356
0.0037528287220461
0.003755829893209
0.0037638626015386
0.0037756024716022
0.003790642642082
0.0038085090690685
0.0038285885447329
0.0038502079066298
0.0038727434472672
0.0038957470751961
0.003918996557529
0.0039423961372356
0.0039660244425879
0.0039898442072532
0.0040149415807986
0.0040387673952931
0.0040630813882994
0.0040869676561068
0.004110579712767
0.0041334332592242
0.0041552956972295
0.0041759173766207
0.0041951814275729
0.0042131468746438
0.0042300997421429
0.0042462025824606
0.004261656203336
0.0042765470503607
0.0042908041013523
0.0043049616548589
0.0043180161026273
0.004330230214677
0.0043413747001886
0.0043505356167968
0.0043581861270414
0.0043704699300189
0.0044900202787967
0.34848119465373
16.148255559383
24.375529822616
27.917090492615
28.538091880834
26.879176571054
23.847428591408
20.372973361406
16.881830675063
13.589932770604
10.638426679705
8.0916744808671
5.9922853467163
4.3313813698263
3.0702150263752
2.1473149998401
1.4900605934688
1.0321285968517
0.71719665936475
0.50183956266675
0.35456357525621
0.25342412934499
0.18337747137707
0.1345201806428
0.099903198966972
0.075078089423434
0.057148938827251
0.044017827497566
0.034271211428326
0.026947241070244
0.021406336376359
0.017163774353836
0.013877439527619
0.01130962407339
0.0092894679179492
0.0076847771674555
0.0063990149235407
0.005362442993593
0.0045209523274685
0.0038326449294235
0.0032662666672867
0.0027975517858281
0.0024075720081491
0.0020810640335032
0.0018064247812459
0.0015743573123728
0.0013773427237671
0.0012093538146277
0.0010654403081327
0.00094178107913001
0.00083504787234345
0.00074264140576841
0.00066230046666449
0.0005922555986555
0.00053100947699203
0.00047727228044803
0.00042998203890121
0.0003882372991223
0.00035130992057197
0.00031855918055534
0.00028943928075048
0.00026348291358957
0.00024029360501748
0.00021953393263996
0.00020090988369997
0.00018416651514658
0.00016908127428283
0.00015530459028879
0.00027017788768685
0.0048807330638705
0.0064405262927116
0.0063029559381564
0.0061099059131537
0.0059454222934958
0.0058113406253111
0.0057060767353865
0.0056272200796343
0.0055704008416009
0.0055293710802828
0.0054964063003005
0.0054626114413543
0.0054199140428353
0.0053629884573823
0.0052892650701586
0.0051845193397246
0.0050744334899258
0.0049457039668341
0.0047991075593794
0.0046382779195866
0.0044716965168075
0.0043131187857521
0.0041751197898339
0.0040656265296799
0.003984344060098
0.0039258287800998
0.0038831262366863
0.0038503488567661
0.0038236695084117
0.00380129822526
0.0037828321027016
0.0037684657438768
0.0037584177057304
0.0037527286729893
0.0037511369256786
0.003753319866497
0.0037617250537818
0.0037737945765848
0.0037892135852937
0.0038074380177944
0.0038278465982
0.0038497798915464
0.0038726560120617
0.0038960562753394
0.0039197447088128
0.0039436333201959
0.0039677198054542
0.0039918829584229
0.0040168148453974
0.0040408630259197
0.0040653146208549
0.0040892286867547
0.0041125766221624
0.0041349280943745
0.004156006471334
0.004175562423818
0.0041934547147784
0.0042097215117929
0.0042247178746382
0.0042385625748993
0.0042513244781863
0.0042629208070757
0.0042733250794129
0.0042832026204531
0.0042916561670092
0.0042988814925595
0.0043049076093462
0.0043084916082399
0.0043095405686246
0.0043133104338746
0.0044143511514558
0.068776522855766
0.49493718971178
1.575857301784
2.9435554780226
4.2642236915393
5.2777301806761
5.8497503480151
5.9983095082026
5.6742729783629
5.1323783067921
4.456613300588
3.7172965612463
2.9948880073269
2.3373953088715
1.7757441034127
1.3217176463883
0.96954798493498
0.70498572562582
0.51105092939515
0.37100438826599
0.2705851292741
0.19876081795337
0.14727697790035
0.11016424932953
0.083250493144332
0.063591660282653
0.049067334992437
0.038207179691548
0.030052725179655
0.023860885546259
0.019115346393778
0.015433002857667
0.012560391097709
0.010300278650653
0.0085068758184303
0.0070699508096248
0.0059135658183158
0.0049762231765866
0.0042111247830969
0.0035819625560418
0.0030621472647749
0.002630416188883
0.0022697326282384
0.0019667511886672
0.001711045996545
0.0014944165967365
0.0013099803192471
0.0011522659155907
0.0010168559990674
0.00090022533613798
0.00079939747823699
0.00071189565728325
0.0006357070257953
0.00056916685318897
0.00051089260556136
0.00045970162380615
0.00041459109844921
0.00037472231934621
0.00033939631640761
0.00030802491493331
0.00028009820161368
0.00025518024941329
0.00023289633007245
0.00021292632106096
0.00019499171176235
0.00017885733456752
0.00016431146021645
0.00015214361311844
0.0009388757109785
0.0059482751071074
0.0064474323966031
0.0062536724516922
0.0060667720006538
0.0059110286387041
0.0057847760394174
0.0056866021440867
0.0056134578565137
0.0055605497638569
0.0055212463110783
0.0054878146888115
0.0054515147661707
0.0054051602826395
0.0053441953102562
0.0052665592181518
0.0051840241325087
0.0050751511530291
0.0049478626293957
0.0048029089699597
0.0046434005234206
0.0044771997315842
0.0043175685956276
0.0041775267197386
0.0040652722597421
0.0039812819342104
0.0039205982316803
0.00387647905288
0.0038430187531591
0.0038162734539609
0.0037942277991678
0.0037762522449474
0.0037623814438037
0.0037527647375235
0.0037474255138139
0.003746128804039
0.0037484253381714
0.0037574503636182
0.0037700611956346
0.0037860595559687
0.0038048697187423
0.0038258350484455
0.0038483260808402
0.0038718071476438
0.0038959123810394
0.0039204072655854
0.0039451597047229
0.0039700661059718
0.0039948831951526
0.0040199667227492
0.00404449673575
0.0040690989322039
0.0040927287621768
0.0041152923325734
0.0041363314549498
0.0041554496054148
0.004172386822392
0.0041869878148306
0.0041991467612146
0.0042089527194584
0.0042166345647565
0.0042224106535644
0.004225974090071
0.0042275107985916
0.0042277684690812
0.0042255774345967
0.0042211239081293
0.0042137363042436
0.0042019890444354
0.0041857766336084
0.0041704476997322
0.0042411990588425
0.043437436751836
0.095450075279977
0.24971884000167
0.5340487443484
0.89858510667952
1.2841102461563
1.6310895095558
1.8934487138388
2.0505470959289
2.0734831530812
1.9734228735281
1.8007898255448
1.5767113170754
1.3275845565937
1.0810815048797
0.85659268885766
0.66443243927598
0.5076053440327
0.38409643762952
0.28925956861753
0.2177033699509
0.16425697332193
0.1245224139747
0.094990771610181
0.072986536191194
0.056529871225516
0.04414476405272
0.034762203298048
0.027602494569489
0.022088084422127
0.017811274113843
0.01447275683533
0.0118448243092
0.0097625229698197
0.0080950479771262
0.0067542428193428
0.0056693670134917
0.0047858837361905
0.004060866489237
0.0034626513938225
0.0029671457065354
0.0025541017626713
0.0022079926978771
0.0019162957719017
0.0016698451986161
0.0014604722920184
0.0012818908867692
0.001128829304077
0.00099722980051808
0.00088372952167748
0.00078544924780788
0.00070005652611704
0.00062559564759412
0.00056052310627874
0.00050347085496272
0.00045329819984807
0.00040904647775786
0.00036990638523604
0.00033521527371649
0.00030438211042638
0.0002769113693406
0.00025238253360699
0.0002304339654306
0.0002107607967704
0.00019308936146306
0.00017717898994979
0.00016281973700122
0.00015195323717287
0.0013433112449942
0.006132978745236
0.0064531444657887
0.0062531831426744
0.0060667341937961
0.0059119411971027
0.0057864028948842
0.0056883918518034
0.0056148165591161
0.0055609325191543
0.0055202509388397
0.0054853768815031
0.005447990817177
0.0054010794317016
0.0053401403473536
0.0052630644846912
0.0051819733776375
0.005074620333994
0.0049492531129578
0.0048064896464026
0.0046488464115249
0.004483393367726
0.0043227507110328
0.0041803568036431
0.0040647447682931
0.0039773788556032
0.0039139227349878
0.0038679459426751
0.0038335525792978
0.0038066489196413
0.0037849433990969
0.0037675457153759
0.0037543024220981
0.0037452761810526
0.0037404708211419
0.0037397209528258
0.003742308491083
0.0037520965211582
0.0037653396893198
0.0037819449011436
0.0038013928213028
0.0038229807484358
0.0038460940002574
0.0038702588813779
0.0038951607757982
0.0039205938295586
0.0039463478547972
0.003972306427384
0.0039979363559222
0.0040234929722018
0.0040485228265013
0.0040729933124792
0.004095919858029
0.0041169218458104
0.0041353574916936
0.0041506008338206
0.0041619925636642
0.0041694062217164
0.0041731988856863
0.0041734594192988
0.0041699775938067
0.0041627135581253
0.004151418077089
0.0041362261247448
0.0041165794660138
0.004092116616107
0.0040639466026633
0.0040293315133852
0.0039883072783464
0.0039417404841371
0.003897766985836
0.0039341062126055
0.027636128819394
0.04780749433271
0.076720036832786
0.15342926598739
0.269975892365
0.41180806668287
0.56347368245956
0.70548267183345
0.82228654389928
0.89876414164198
0.92607759119806
0.90018234510482
0.83815216793906
0.75309058064769
0.65144382063489
0.54570732546265
0.44558534423646
0.35671643430481
0.28143773171135
0.21991525461291
0.17093688358144
0.13263982141976
0.10301708379723
0.080249320436826
0.062791703806604
0.04940010210217
0.039107589725332
0.031163066163841
0.024998484486526
0.020188315949173
0.016413319041197
0.013431963675229
0.011060250438997
0.0091623194477592
0.0076358796516773
0.0064005849517113
0.005394795845872
0.0045689000662559
0.0038887677607347
0.0033260342190256
0.0028576479722688
0.0024658637878976
0.0021359566582095
0.0018576873510034
0.0016217145862758
0.0014208194357909
0.0012488892984971
0.0011012516366513
0.00097417609437933
0.00086430893556388
0.00076903745526868
0.00068607514800512
0.0006136777013831
0.00055032973542213
0.00049471354764485
0.00044574372530326
0.00040248728766723
0.00036420966080908
0.00033025277741383
0.0003000525823233
0.00027312849972472
0.00024906362540572
0.0002275180421063
0.00020819339869077
0.00019082246928065
0.00017517543890072
0.00016105449850962
0.00015194748578279
0.0019407658706516
0.0062914332123372
0.0064511101081628
0.0062493404602164
0.0060645570386675
0.0059111370145675
0.0057865007203501
0.0056886372846063
0.0056144691993505
0.0055593478685769
0.0055169765032239
0.005480446418477
0.0054417862016976
0.0053942055448002
0.0053333139899017
0.0052569990769222
0.0051776762549443
0.0050722050716192
0.004949259965805
0.0048092678203127
0.0046541146249011
0.0044899344174401
0.004328529020095
0.0041836188633786
0.0040641667423194
0.0039728023795786
0.0039059621705597
0.0038576325349757
0.0038219860958508
0.0037947591334746
0.0037733662547352
0.0037566172980106
0.0037441464021957
0.0037359039981437
0.0037318296551134
0.003731870088745
0.0037349534719355
0.0037456490342329
0.0037596858757754
0.0037770326023294
0.0037971778137096
0.0038194850262465
0.0038433186333269
0.0038682498329334
0.0038940370724287
0.0039205047907824
0.0039473811700201
0.003974363451444
0.0040008968518361
0.0040270552393171
0.0040523225878377
0.0040761890494869
0.004097473164393
0.0041152100493136
0.0041281499624477
0.0041354450596522
0.0041367665802232
0.0041320355217391
0.0041210079100422