/*--------------------------------*- C++ -*----------------------------------*\
| =========                 |                                                 |
| \\      /  F ield         | OpenFOAM: The Open Source CFD Toolbox           |
|  \\    /   O peration     | Version:  2312                                  |
|   \\  /    A nd           | Website:  www.openfoam.com                      |
|    \\/     M anipulation  |                                                 |
\*---------------------------------------------------------------------------*/
FoamFile
{
    version     2.0;
    format      ascii;
    arch        "LSB;label=32;scalar=64";
    class       volScalarField;
    location    "0.00014";
    object      T;
}
// * * * * * * * * * * * * * * * * * * * * * * * * * * * * * * * * * * * * * //

dimensions      [0 0 0 1 0 0 0];

internalField   nonuniform List<scalar> 
109340
(
372.99990998386
372.99864719567
372.99643159786
372.99360865187
372.99058781227
372.98756421606
372.98461004812
372.98176149769
372.97897975386
372.97618620808
372.97338739478
372.97058634214
372.96777995632
372.96496058013
372.96211774005
372.95923804155
372.95630439773
372.95329550161
372.95018443563
372.94693749688
372.94351266091
372.93985865179
372.93591194693
372.9315919947
372.92679571822
372.9213892613
372.91519650458
372.90798213929
372.89942526914
372.88907695574
372.87628825152
372.86008136724
372.83890721611
372.81017086005
372.76922043517
372.70729592687
372.99970815145
372.99803185756
372.99547580588
372.99259633729
372.98964153537
372.98670792172
372.98381620977
372.98095617882
372.97812240548
372.97530317511
372.97249072615
372.96968037959
372.96686563469
372.96403760753
372.9611847016
372.95829262305
372.95534380992
372.95231562969
372.94917949556
372.94589983863
372.94243271181
372.93872420123
372.93470731663
372.93029672358
372.92538276339
372.91982245173
372.91342700881
372.90594300148
372.89702279143
372.88617640684
372.87268855389
372.85546605637
372.83273979763
372.8014576851
372.75586278406
372.6844984181
372.99974774352
372.9977654231
372.99511201114
372.9922815509
372.98938244761
372.98646815508
372.98355101143
372.98064828298
372.97777336206
372.97492338043
372.97208968596
372.96926491716
372.96644102794
372.96360842983
372.96075551746
372.95786809424
372.95492864713
372.95191479597
372.94879810035
372.94554339551
372.9421067181
372.9384346847
372.93446083234
372.93009996636
372.92524237819
372.91974485672
372.91341856509
372.90600999828
372.89717141249
372.88641252353
372.87301721193
372.8558880409
372.833228923
372.80187215499
372.75559102761
372.68071642234
372.99970872878
372.99740778429
372.99462238354
372.99169918131
372.98873561505
372.98575866373
372.98278471041
372.9798290237
372.97690353302
372.97401240653
372.97115187369
372.96831544698
372.96549467468
372.96268011456
372.95986205108
372.9570268053
372.95415768361
372.9512330107
372.94822495981
372.94509983976
372.94181412436
372.93831456523
372.93453371715
372.93038509903
372.92575698494
372.92050380383
372.91443376794
372.90728971388
372.89871920611
372.88822516547
372.87508097495
372.85817173112
372.83564303662
372.80413664694
372.75664758795
372.67535965434
372.99949509047
372.9964389033
372.99302136569
372.98967733871
372.98641140932
372.98322095207
372.98011749562
372.97712912475
372.97427556239
372.971551645
372.96896054425
372.96650180698
372.96416803301
372.9619504078
372.95983916534
372.9578220338
372.95588352474
372.95400346026
372.95215160813
372.95029749374
372.94836294008
372.94627129366
372.94393724293
372.9412576887
372.93810562293
372.93431635923
372.9296750412
372.92389518956
372.91658390743
372.90718762132
372.8948948146
372.87847395364
372.855836037
372.82312827929
372.77176870913
372.67532424552
373.0033606372
373.01757986605
373.03289151058
373.04808763
373.06273650486
373.07660085004
373.08955356317
373.10154041716
373.11255083903
373.12259391162
373.13169271467
373.13987391933
373.14716353097
373.15358537188
373.15915823314
373.16389516425
373.16780321143
373.1708865512
373.17319553384
373.17484710491
373.17583195809
373.17609816749
373.17556832289
373.17411834277
373.17162564845
373.16787113074
373.16256716789
373.15531878712
373.14557135297
373.13252873491
373.11500360458
373.09119054795
373.05796287005
373.00947721491
372.9321913611
372.77601334811
372.60902270126
372.45419225353
372.21721813306
371.8784340259
371.42701466166
370.8523598462
370.14083900272
369.27922544951
368.25535269982
367.06414762184
365.70416323561
364.1913982044
362.57296823755
360.86913628663
359.12498016347
357.37286485841
355.64258917216
353.95633532781
352.32781466041
350.7666639918
349.27824783602
347.86303464928
346.51999450017
345.24695207658
344.039768698
342.89396017631
341.80903965758
340.77802908744
339.79294807836
338.86279302829
337.96828872663
337.12152665812
336.30609794016
335.53054915033
334.7834026438
334.06991687871
333.38144728756
332.72264771709
332.0847207781
331.47429979985
330.88042477146
330.31250315333
329.75781523913
329.22709261901
328.70801074308
328.20960753222
327.7234643916
327.25303753278
326.79626498777
326.35123967714
325.91928269734
325.49868840965
325.08954893137
324.69090420222
324.30241766623
323.92349311251
323.55375682875
323.19277224017
322.84019751751
322.49566277268
322.15883589038
321.82939356782
321.50704979755
321.19152069339
320.88256053913
320.57988964218
320.28326888932
319.99039838745
320.68954107156
321.58686372663
320.71405681462
319.82202705935
318.96172051581
318.14032480712
317.36036829941
316.62208199537
315.92323642612
315.25914455778
314.62273658254
314.00460166976
313.39286344516
312.77305384831
312.12698293824
311.43190726766
310.56107523522
309.68333189687
308.6884870023
307.57460685994
306.36020631409
305.08061206817
303.78294138013
302.52771599055
301.39169271715
300.45313543755
299.75346310596
299.28454828702
299.00111417098
298.84391617941
298.75912458241
298.70856435524
298.67188072453
298.64064024142
298.61211507058
298.58573946348
298.55597861973
298.53540979552
298.51759344569
298.50263982278
298.49047807885
298.48084026436
298.47322123246
298.46696267374
298.46145157739
298.45603908271
298.45002483956
298.44273710368
298.43364639219
298.42249591999
298.40829964191
298.3915383333
298.37169737811
298.34889132667
298.32311794908
298.29447849043
298.26289738595
298.22848444342
298.19136535456
298.15162412014
298.10933064826
298.06455805785
298.0173823963
297.9679581533
297.91690577548
297.86550267679
297.81658552086
297.77436115467
297.73356842656
297.64232273716
297.30301921608
296.09204743639
372.56573008653
372.37271418493
372.07857557414
371.6708130951
371.14387438061
370.48757179349
369.69431995187
368.7559067746
367.6673997125
366.42899186102
365.04478839324
363.53193330181
361.92093353956
360.24302512148
358.5283360893
356.80799240987
355.10952573367
353.45345247086
351.85441720134
350.32121681904
348.85834654813
347.46723428245
346.1467159076
344.89423743103
343.70687935778
342.58028732426
341.5105133304
340.49423175586
339.52703877113
338.60589126615
337.72740945175
336.8883594401
336.08633251341
335.31810708416
334.58205660916
333.8752490385
333.19647464942
332.54320482194
331.91447662812
331.30810197474
330.72330554738
330.15827077546
329.61220527711
329.0837680581
328.57207305874
328.07623244766
327.59521060193
327.12853034386
326.67507376176
326.2345520311
325.8059105172
325.38887103484
324.98269201818
324.58699374484
324.2012348123
323.82495892652
323.45773623993
323.09916796241
322.74888121357
322.4065294284
322.07178870168
321.74435158072
321.42392644633
321.11024429191
320.80303070586
320.50204077944
320.2070777027
319.90576743175
321.47408843072
321.37827221408
320.48311714743
319.59820808364
318.74786896261
317.93726829657
317.16831072509
316.4406519798
315.75146375393
315.0954701839
314.46502569932
313.85014364838
313.23835608935
312.61445400713
311.95921096798
311.24881732695
310.56267999545
309.68585384999
308.69205794068
307.57928948272
306.3659323126
305.08723284201
303.79023904226
302.53536402428
301.39920578834
300.45999545118
299.75931827992
299.28930947755
299.00493174031
298.84708035538
298.7619468179
298.7112722349
298.67457956247
298.64334750341
298.61480102769
298.58835615787
298.55845444689
298.53770295916
298.51967252645
298.50447170459
298.4920414057
298.48211738172
298.47419728708
298.46762487032
298.46178854585
298.45602194445
298.44960149548
298.44183587993
298.43217217202
298.42036741885
298.40541583843
298.38774096758
298.36686214697
298.34289634503
298.31583404792
298.28574283907
298.25257634169
298.21646760726
298.17752906472
298.1358384246
298.09145527012
298.04443790937
297.99484593449
297.94281654532
297.88891984587
297.83438630539
297.7820216703
297.73617147075
297.69250206598
297.60116584454
297.26898755507
296.07750215842
372.54622100925
372.31164725583
371.95299585747
371.4620380894
370.8499466987
370.11157105733
369.24759718103
368.25646090633
367.13792247231
365.89157251592
364.52608068444
363.05342898755
361.48974245621
359.86199443177
358.19767889434
356.52472959338
354.8684815709
353.24954945569
351.68218786978
350.17511082628
348.73361405853
347.36015200162
346.05403612797
344.81333960443
343.63540249251
342.51682580845
341.45414427078
340.44353728147
339.48172755469
338.56477282044
337.69006974992
336.85432318126
336.05500952479
335.28950221312
334.55547936686
333.85087799457
333.17368758428
332.52222540775
331.89476453351
331.28986255025
330.70616158602
330.14225408907
329.59719949303
329.06960507894
328.55889596857
328.06366672413
327.58357750109
327.11737206229
326.66470986447
326.22459085306
325.79662257507
325.38005440661
324.97436352985
324.57906674407
324.19367012112
323.81776407793
323.45088896283
323.09265159572
322.74267012795
322.4006062596
322.06613643243
321.73895497297
321.41876713444
321.10529885156
320.79830540336
320.4975102579
320.20272918739
319.90011510822
321.4960095993
321.36935513606
320.47395853017
319.58990640699
318.74054739737
317.93082987097
317.1626557436
316.43571081898
315.74719630449
315.09185658839
314.46206618079
313.84787008461
313.23685413042
312.61388535442
311.95983445177
311.25099103086
310.56610054789
309.69132483754
308.6998498984
307.58953490672
306.37847637455
305.10176289316
303.80628766073
302.55222005586
301.41581068123
300.47519402126
299.77231929927
299.29990127804
299.01343279817
298.854122583
298.76821294857
298.71726942517
298.68054499299
298.64932539005
298.62073224711
298.59414340029
298.56393475299
298.54278207326
298.52427999733
298.50853412226
298.49551029755
298.48495308241
298.47636657215
298.46910396593
298.46255045677
298.45600223608
298.44868579729
298.43987226468
298.42892827559
298.41568262337
298.39903771146
298.37935958438
298.35619706539
298.32967029769
298.29975537994
298.26643239877
298.22977072708
298.1898941276
298.1469118191
298.10088888185
298.05185817214
297.9998376501
297.94484607843
297.88698626825
297.82672241601
297.76517753134
297.70508501862
297.65102779234
297.60060375139
297.50841206246
297.19111078113
296.04269966362
372.5069926945
372.17724266985
371.67985667264
371.03979195506
370.28624471545
369.43266902715
368.48754498519
367.45300043695
366.3257147523
365.10275624352
363.79075657518
362.38754807389
360.90181011581
359.35111767701
357.75903854289
356.15125852654
354.55134700639
352.98030118647
351.45325024822
349.98032012854
348.56746478223
347.21681004091
345.92992223156
344.70537499095
343.54058471593
342.43285504136
341.37924687701
340.37649937968
339.4212165769
338.51030119392
337.64048669263
336.80921676299
336.01362531811
335.25158292959
334.52047746338
333.81862112782
333.14375644864
332.49448611081
331.86889871784
331.26585666255
330.68361917572
330.12128388215
329.57740251201
329.05115516751
328.54137653189
328.04727352611
327.56801329675
327.10270779788
326.65080371413
326.21140359392
325.78412740034
325.36816713806
324.96312131968
324.56835402686
324.18346893594
323.80802441977
323.4415897831
323.08377081636
322.73418904229
322.39250436293
322.05838664897
321.73153230535
321.41165166056
321.09847604131
320.79175053787
320.49123058141
320.19668599745
319.89219192213
321.52841475188
321.35620658472
320.46072272925
319.57798997002
318.73001217839
317.92153988079
317.15448462354
316.42856790771
315.74102458443
315.08662575061
314.45777439966
313.84456354166
313.23465666086
312.61303024589
311.96069289514
311.25408252356
310.57122245841
309.69955308995
308.71161533424
307.60500793443
306.39744915596
305.12377156319
303.83062569609
302.5778217965
301.4410741831
300.49836538493
299.79218164192
299.31611013157
299.0264544071
298.86490144816
298.77777965062
298.72640399085
298.68962026002
298.65841615724
298.6297577151
298.60298065122
298.5723216798
298.55057055026
298.53135712376
298.51478637686
298.50085894082
298.48933324596
298.47972594514
298.47141309942
298.46376197881
298.45601212871
298.44732337166
298.43690771946
298.42406098553
298.40856028261
298.38931709549
298.36658576089
298.33994482333
298.30950051971
298.27513740784
298.23687806904
298.19483379147
298.14914195254
298.09990745818
298.04717128409
297.99091302546
297.93109132326
297.86765892025
297.80066926239
297.73042175201
297.65786686091
297.58559249552
297.51840794262
297.45656651932
297.36140727176
297.06537873117
295.99119517236
372.4019828827
371.79652542509
370.99502912277
370.12130458914
369.21933008806
368.28960925092
367.32540314362
366.31310612213
365.23748699346
364.09245503934
362.86585397292
361.55675084078
360.16880726579
358.71412682963
357.21253282673
355.6860532931
354.15701605023
352.64601918698
351.16914466309
349.73782740638
348.35952066148
347.03863287264
345.77543469038
344.57052247768
343.4225324814
342.32901058642
341.28701763039
340.2940504505
339.34724722506
338.44352589719
337.579974153
336.75407326544
335.96325239152
335.20521647087
334.47790312435
333.77919234699
333.10730838439
332.46055767819
331.83741693219
331.23639034305
330.65615183535
330.09551764505
329.55325232274
329.02844354147
328.51997250488
328.02714039915
327.54892073957
327.084717338
326.63368253385
326.1952348233
325.76871917264
325.35352752926
324.94918030369
324.55508997359
324.17084110392
323.79595009384
323.43004739325
323.07273088958
322.72363322031
322.38240088242
322.04870546395
321.72224736217
321.40274368081
321.08992493441
320.78353160113
320.48332765413
320.18908868769
319.8852264082
321.56877601084
321.33889069334
320.4435647609
319.56256759462
318.71631648002
317.9094213519
317.14380968922
316.41923306629
315.73295647521
315.07978094789
314.4521473295
313.84021316814
313.23174370907
312.6118568445
311.96174211437
311.25803118683
310.57796133532
309.71042985595
308.72722024565
307.62556233108
306.42269589267
305.15309955217
303.86310092824
302.61204022022
301.47490863799
300.52947121008
299.81891128912
299.33797041138
299.04403600989
298.87944651534
298.79065168796
298.73865891778
298.70177581385
298.67058863373
298.64185021931
298.6148416367
298.58364699568
298.56111427863
298.54095503129
298.52328589705
298.50814770333
298.49531857784
298.48433547942
298.47460898316
298.46546970618
298.45609524773
298.4455590708
298.43298887201
298.4175898572
298.39904609649
298.37629606404
298.34945038966
298.31811689936
298.28231618389
298.24188407842
298.19691450629
298.14752150904
298.09386453884
298.03604642304
297.97406544538
297.90781480415
297.83716482862
297.76197048679
297.68221735889
297.59800011206
297.50999906005
297.42055007891
297.33452914208
297.2552094217
297.15295316677
296.88123340228
295.90588452609
371.79369292261
370.24923030735
369.19601126702
368.32256641223
367.48197119161
366.64660608448
365.78635866443
364.88925373353
363.93194702127
362.90156318175
361.78930185626
360.5945063134
359.3197091558
357.9736931054
356.57301918768
355.13844765998
353.69055379594
352.24899337608
350.83091924269
349.44888349475
348.11165083807
346.82449551778
345.59046424939
344.40938844397
343.28108365733
342.20425075563
341.1767642482
340.19571551752
339.2590802935
338.3641463821
337.508308356
336.68883550141
335.90377381281
335.15076446208
334.42780948619
333.73295473067
333.06459417503
332.42091478696
331.80052887903
331.20196774014
330.62403580885
330.06537236969
329.5250031298
329.00183252385
328.49496371396
328.00348611991
327.52658254491
327.06356820312
326.61363377296
326.17622033678
325.75060340761
325.33631667993
324.93276033007
324.53945819215
324.15591977156
323.78170027881
323.41642577461
323.05969239178
322.71114232711
322.37042368158
322.03722151232
321.71123180585
321.39216660048
321.07975446265
320.77374028056
320.47390901898
320.18003848734
319.87748591536
321.61402429923
321.31732681424
320.42271033612
319.54375688376
318.69950776748
317.89449157144
317.13063869611
316.40771165504
315.72299528284
315.07132066626
314.44517615588
313.83480124448
313.22808661263
312.61032455519
311.96292863582
311.26276426989
310.58622568758
309.72383714669
308.74652315714
307.65105003067
306.45406869675
305.18960497747
303.90358675866
302.65478077193
301.51727104577
300.56852811862
299.85257608866
299.36557844269
299.06627461257
298.89783318185
298.80686858558
298.75404199206
298.71700319902
298.68583405938
298.65700532062
298.62970833226
298.5979800111
298.57449396551
298.55316540255
298.53413955163
298.51748874417
298.50301947175
298.49030351774
298.47879325726
298.46776691
298.45633508746
298.44346482077
298.42818475619
298.40958017247
298.38720820326
298.36001621811
298.32798378281
298.29070065296
298.24800461052
298.19985147293
298.14629301478
298.0874623676
298.02354247583
297.9546272805
297.88064211161
297.80134721703
297.7164934963
297.62580475262
297.52917286545
297.42640706961
297.31784582288
297.20544035749
297.09383704864
296.98916238431
296.87294732678
296.62426332402
295.76817370771
362.98143215638
366.59010010178
366.33240134648
365.91550983327
365.42876789031
364.85589837533
364.20243084359
363.47558577229
362.67964354439
361.80939719906
360.85378869031
359.80849896776
358.67745394549
357.46620640103
356.18740120021
354.85974473761
353.50328873333
352.13720880301
350.77945696148
349.44490613117
348.14413685369
346.88475105582
345.67094959588
344.50549080944
343.38853452658
342.3189224985
341.29639002615
340.31878574754
339.38400965851
338.48937197857
337.6331947648
336.8130252568
336.02654648928
335.27169197229
334.54679186786
333.84988027026
333.17916139195
332.5331789135
331.91046976151
331.30957036567
330.72923103351
330.16827687036
329.62565732943
329.10024809014
328.59118731462
328.09758236143
327.61865392667
327.15360948662
326.70173134875
326.26242190593
325.8350064352
325.41896666737
325.01368773911
324.61873620158
324.233627453
323.85791229444
323.49116462464
323.13298941392
322.78305510614
322.44100801893
322.10652198202
321.77928152532
321.45900309417
321.14542526767
320.83832185189
320.53742935369
320.24247322035
319.95120108446
321.04601038242
321.50460438168
320.62181220174
319.73785951266
318.88657157694
318.07366373457
317.30154186004
316.57052666185
315.87852369003
315.22099218005
314.59104313942
313.97956614882
313.37518421769
312.76412413035
312.12912250944
311.44845895627
310.59590826462
309.73963779018
308.76936603976
307.68130557
306.49140340938
305.23312279592
303.95194647668
302.70593830574
301.56811670145
300.61556193817
299.89326308277
299.39905685984
299.09329600028
298.92016242456
298.82648968177
298.77257407734
298.73530231349
298.70414990614
298.67523138015
298.6475022124
298.62476713116
298.59954564291
298.57610549195
298.5546343187
298.53520508753
298.51769965333
298.50178700489
298.48694257738
298.47238226148
298.45710281851
298.43990114437
298.41959400185
298.39503866872
298.36556714347
298.33011075698
298.28844428005
298.23986090717
298.18425190714
298.12152564832
298.05170021106
297.97492498881
297.89141515059
297.80122772309
297.70407127827
297.59944482491
297.48687020579
297.36579606755
297.2358965092
297.09636302901
296.94693743503
296.7887572145
296.62553647924
296.46663422821
296.31358347109
296.09053530994
295.44305298711
353.84348757755
359.05702265097
359.88716436867
360.280529722
360.44456426508
360.4215858284
360.21528597124
359.85595337273
359.36549220975
358.76126187006
358.04950362092
357.24038519376
356.33786972276
355.34533275486
354.27382774725
353.13987571671
351.96170185559
350.75751208564
349.5445614921
348.33817431105
347.15030939961
345.98968319021
344.86232466839
343.77187231285
342.72048671725
341.70892366547
340.73706762209
339.80347637304
338.90772979836
338.04809169414
337.22288592805
336.43005398491
335.66811070252
334.93553508448
334.23059552877
333.5515270489
332.89712106498
332.26602568629
331.6568570192
331.06828064955
330.49925590052
329.94876531204
329.4157426129
328.89923642913
328.39838587384
327.91246499173
327.44065075427
326.98223963079
326.53655667349
326.10303346625
325.6810836024
325.2701284156
324.86967785692
324.47925430144
324.09843811232
323.72679237695
323.36390531698
323.00939927817
322.66292594194
322.32416882125
321.99280877928
321.66855449676
321.35113028883
321.04027739901
320.7357235639
320.43726380521
320.14461597274
319.84972246189
321.73714576821
321.23220279489
320.33998376431
319.46764129924
318.63059234794
317.83287252791
317.07614631
316.36001131249
315.6817084944
315.03614752087
314.41601569219
313.81191233683
313.21225683811
312.6030571267
311.96661030747
311.28072856589
310.61902330214
309.7777923987
308.82493763597
307.75532702541
306.58315962257
305.34045322126
304.07162207693
302.83299369872
301.6950320941
300.73368403712
299.99613692868
299.48424632065
299.16233968322
298.97718179207
298.8762955864
298.81924321609
298.78115763124
298.75000497157
298.72098742745
298.69261161911
298.67148831479
298.64387103696
298.61718540534
298.59175460313
298.56769471558
298.54506901739
298.52363931482
298.50291604205
298.48209297775
298.46002114131
298.43517284663
298.40604024544
298.37105880257
298.32920721933
298.27928467724
298.22023008633
298.15146094428
298.07260668636
297.98339802247
297.88369771238
297.77360138495
297.65330686685
297.52269503468
297.38111378749
297.22782153751
297.06160708979
296.88116251349
296.6854838048
296.47259633264
296.24134968989
295.99186257001
295.72550935682
295.4518101097
295.19264790938
294.95078594792
294.58056120228
349.44971862726
354.04394499796
355.07861569085
355.72871889924
356.15398354218
356.41977924221
356.51872430722
356.47088675508
356.26975033922
355.93059334262
355.46954494787
354.89720134537
354.21514318922
353.43563116749
352.57074760191
351.63117673729
350.63222401705
349.59074064128
348.52306283267
347.4439119872
346.36615219313
345.30075949564
344.25558968421
343.23598518813
342.24546810573
341.28641538377
340.35988796741
339.46596317439
338.60449627626
337.77451757886
336.97483967539
336.20477446282
335.46293927554
334.74813555641
334.05865828183
333.39347910112
332.75152122782
332.13149382652
331.5321587836
330.95239228256
330.39140603511
329.84810719934
329.32159841515
328.81092489454
328.31548552017
327.83444111134
327.36709823411
326.91273621872
326.47078860575
326.04071394448
325.62191912293
325.21389192746
324.81612646566
324.42822844838
324.04974874717
323.68026963126
323.31940572423
322.96679203751
322.62211518857
322.28503310291
321.95523800935
321.63244638786
321.31639396339
321.00684239307
320.70354802602
320.40626781239
320.11466560399
319.84114624618
321.80165512326
321.15891504988
320.26764577808
319.40022088021
318.56909277864
317.77768143658
317.02725987836
316.3171689468
315.64454060153
315.00432827999
314.38940649268
313.79070951485
313.19714178715
312.59530769627
311.96826783016
311.29467401467
310.64614603314
309.82345498469
308.89223161239
307.84576605368
306.69607446783
305.47330644758
304.22049239248
302.9919417207
301.85503551724
300.8840153259
300.12845543127
299.59494472203
299.2527022516
299.05182762634
298.94101419695
298.87916247326
298.83952975586
298.80821452526
298.77921615622
298.7504191927
298.73104344336
298.70111517299
298.67105107899
298.64119195308
298.61182136542
298.58301691339
298.5547512744
298.52657784855
298.49772559471
298.46694981362
298.43236230238
298.39207093181
298.34398588681
298.28663317214
298.21795013399
298.13673472818
298.04189342963
297.93284354629
297.80921770501
297.67074227533
297.51717299398
297.34840712253
297.1635571633
296.96118734689
296.7400065166
296.49715697321
296.23025360614
295.93703778837
295.61453602873
295.26052762884
294.87191073902
294.44673344895
293.99728826801
293.56076142085
293.2155670151
293.05287646109
346.74478165328
350.43009508085
351.45699563602
352.15217917688
352.66575225327
353.04953270207
353.30151081929
353.41793107199
353.4118463647
353.26977222554
352.99569648021
352.60970837452
352.12380168046
351.53079083043
350.84314663429
350.07486705445
349.23917063246
348.34929746959
347.42069639569
346.4673685457
345.50191293475
344.53484163313
343.57549746812
342.63086160407
341.70572252738
340.80344947855
339.92633049652
339.07567955215
338.25201879552
337.45525271849
336.68510967442
335.94101446087
335.22195134819
334.52703481408
333.85567308003
333.20668290382
332.57917970732
331.97186741735
331.38398011048
330.81479454718
330.26324920362
329.72854220192
329.20966888196
328.7061141103
328.2171104397
327.74195708945
327.27993308146
326.8304385836
326.39303656058
325.96709474977
325.55211985388
325.14757428607
324.75307039199
324.36820096551
323.9925224831
323.62564352453
323.26717637368
322.91682679274
322.57426676531
322.23917641035
321.91125406008
321.59021276735
321.2758180044
320.96786402391
320.66610536308
320.37027351864
320.08012620504
319.85111309848
321.81711638542
321.06857385803
320.18029845192
319.31903105465
318.49501854975
317.71115154721
316.9682585722
316.26536152486
315.59944791678
314.96551830541
314.35667639368
313.76427506758
313.17776738937
312.58445507032
311.96828556627
311.30890002819
310.67588355619
309.87488765979
308.96918477867
307.95033224854
306.8277912976
305.62940140306
304.39643475844
303.18104230623
302.04715184524
301.06650754051
300.29110674619
299.73271199894
299.36622130615
299.14583043291
299.02200991552
298.95317259387
298.91083112121
298.87893497817
298.84996849443
298.82097439392
298.80377109549
298.77186570089
298.73869427932
298.70451355793
298.66960154258
298.6341320905
298.5980500581
298.56114301955
298.52263857952
298.48128989578
298.43495315272
298.3812093682
298.31761215943
298.24147973135
298.1503144235
298.04231794393
297.91618385095
297.77107540632
297.60616023764
297.42042449275
297.21237214295
296.98013088807
296.72132035428
296.43281740499
296.10933648881
295.74754963731
295.34373756755
294.89352469343
294.39273134521
293.83743375609
293.22639707792
292.57058078793
291.89971478116
291.2733542425
290.84665862887
290.98906594115
345.17334986575
347.55917815588
348.59898612765
349.26381544291
349.79551847433
350.21953326027
350.5383128675
350.75784367259
350.84824732439
350.83841993909
350.71194696102
350.46808838043
350.11677659574
349.68031946211
349.14562119872
348.52408147017
347.83051687752
347.07813592548
346.27737720607
345.44166312144
344.58357286955
343.71368869827
342.84063785489
341.97212349209
341.1141038637
340.27093653246
339.44579795348
338.64089757483
337.85753301881
337.09644279176
336.35790092397
335.6417688285
334.94771821105
334.27537369616
333.62400606869
332.99276635612
332.38113470325
331.78844449289
331.21371731822
330.65641370749
330.11545349457
329.59025099651
329.0803271282
328.58486570014
328.10329092391
327.6347980434
327.1789220976
326.73521358404
326.30304171694
325.88194036468
325.47134634736
325.07092124326
324.68026598009
324.29892811269
323.92652313603
323.56264048635
323.2070208128
322.85932773322
322.5192379905
322.18646104544
321.86070648008
321.54172558082
321.22929307094
320.92317477755
320.62310278296
320.32890858885
320.04000025866
319.96047690665
321.78110177054
320.96301325439
320.07836341167
319.22427844732
318.40854264871
317.63339517573
316.89915718403
316.20449139505
315.54622255362
314.91941021694
314.31743424859
313.732116548
313.15352846153
312.56974472276
311.96569770465
311.32214830904
310.70667659171
309.93011752648
309.0534212056
308.06634499104
306.97549981381
305.8059531776
304.59684723746
303.39803945199
302.26983854008
301.28071117252
300.48474371237
299.89907165662
299.50489170996
299.26122675151
299.12097109387
299.04251954216
298.99578152269
298.96249591164
298.93334759857
298.90428257167
298.88968504129
298.85631341246
298.82063290016
298.78272918458
298.74274220414
298.70075931852
298.65674572008
298.61042024042
298.56119643401
298.50773799524
298.44785096444
298.37880036447
298.29752854004
298.199970561
298.08306298913
297.94431702267
297.78271916278
297.59670657605
297.38362420212
297.1392073285
296.85665766061
296.52981280404
296.15599476371
295.73266361236
295.25749391697
294.72648225748
294.13413953853
293.47407472689
292.74507335991
291.94728180924
291.09717369208
290.24218590218
289.45795332394
288.8609925634
288.68004149767
289.52257510108
344.40544887553
345.14923580613
346.24644965244
346.86834105382
347.38056672964
347.81028030773
348.15589139572
348.42337699546
348.58173936392
348.64277551614
348.61491228262
348.48584665253
348.24601939764
347.91573471134
347.50428551514
347.01298941957
346.44205600594
345.80598161347
345.11950815632
344.39211676452
343.63371686381
342.85512749914
342.06565608398
341.27241383434
340.48160653533
339.69838525256
338.92645304438
338.16879721318
337.42742710263
336.70366795206
335.99833267211
335.3118762243
334.64439762916
333.99577156769
333.36573109035
332.75392101926
332.15988491243
331.58289103141
331.02229603563
330.47783594347
329.94877333703
329.43445364375
328.93444215012
328.44787897664
327.97428763992
327.51339324281
327.06453497826
326.62724952295
326.20094400237
325.7851521216
325.37965021598
324.98393711219
324.59762334569
324.22029761418
323.85155376853
323.49119188597
323.13883192235
322.79416789812
322.45690071776
322.12674017171
321.80348940698
321.48686718908
321.17661955696
320.87249299884
320.57429468041
320.28180169555
319.9939340903
320.28601466649
321.69193428804
320.84125126783
319.962098508
319.1163275869
318.30998944565
317.54463878528
316.82004982268