/*--------------------------------*- C++ -*----------------------------------*\
| =========                 |                                                 |
| \\      /  F ield         | OpenFOAM: The Open Source CFD Toolbox           |
|  \\    /   O peration     | Version:  2312                                  |
|   \\  /    A nd           | Website:  www.openfoam.com                      |
|    \\/     M anipulation  |                                                 |
\*---------------------------------------------------------------------------*/
FoamFile
{
    version     2.0;
    format      ascii;
    arch        "LSB;label=32;scalar=64";
    class       volScalarField;
    location    "0.00014";
    object      TpSat;
}
// * * * * * * * * * * * * * * * * * * * * * * * * * * * * * * * * * * * * * //

dimensions      [0 0 0 1 0 0 0];

internalField   nonuniform List<scalar> 
109340
(
372.99990998386
372.99864719567
372.99643159786
372.99360865187
372.99058781227
372.98756421606
372.98461004812
372.98176149769
372.97897975386
372.97618620808
372.97338739478
372.97058634214
372.96777995632
372.96496058013
372.96211774005
372.95923804155
372.95630439773
372.95329550161
372.95018443563
372.94693749688
372.94351266091
372.93985865179
372.93591194693
372.9315919947
372.92679571822
372.9213892613
372.91519650458
372.90798213929
372.89942526914
372.88907695574
372.87628825152
372.86008136724
372.83890721611
372.81017086005
372.76922043517
372.70729592687
372.99970815145
372.99803185756
372.99547580588
372.99259633729
372.98964153537
372.98670792172
372.98381620977
372.98095617882
372.97812240548
372.97530317511
372.97249072615
372.96968037959
372.96686563469
372.96403760753
372.9611847016
372.95829262305
372.95534380992
372.95231562969
372.94917949556
372.94589983863
372.94243271181
372.93872420123
372.93470731663
372.93029672358
372.92538276339
372.91982245173
372.91342700881
372.90594300148
372.89702279143
372.88617640684
372.87268855389
372.85546605637
372.83273979763
372.8014576851
372.75586278406
372.6844984181
372.99974774352
372.9977654231
372.99511201114
372.9922815509
372.98938244761
372.98646815508
372.98355101143
372.98064828298
372.97777336206
372.97492338043
372.97208968596
372.96926491716
372.96644102794
372.96360842983
372.96075551746
372.95786809424
372.95492864713
372.95191479597
372.94879810035
372.94554339551
372.9421067181
372.9384346847
372.93446083234
372.93009996636
372.92524237819
372.91974485672
372.91341856509
372.90600999828
372.89717141249
372.88641252353
372.87301721193
372.8558880409
372.833228923
372.80187215499
372.75559102761
372.68071642234
372.99970872878
372.99740778429
372.99462238354
372.99169918131
372.98873561505
372.98575866373
372.98278471041
372.9798290237
372.97690353302
372.97401240653
372.97115187369
372.96831544698
372.96549467468
372.96268011456
372.95986205108
372.9570268053
372.95415768361
372.9512330107
372.94822495981
372.94509983976
372.94181412436
372.93831456523
372.93453371715
372.93038509903
372.92575698494
372.92050380383
372.91443376794
372.90728971388
372.89871920611
372.88822516547
372.87508097495
372.85817173112
372.83564303662
372.80413664694
372.75664758795
372.67535965434
372.99949509047
372.9964389033
372.99302136569
372.98967733871
372.98641140932
372.98322095207
372.98011749562
372.97712912475
372.97427556239
372.971551645
372.96896054425
372.96650180698
372.96416803301
372.9619504078
372.95983916534
372.9578220338
372.95588352474
372.95400346026
372.95215160813
372.95029749374
372.94836294008
372.94627129366
372.94393724293
372.9412576887
372.93810562293
372.93431635923
372.9296750412
372.92389518956
372.91658390743
372.90718762132
372.8948948146
372.87847395364
372.855836037
372.82312827929
372.77176870913
372.67532424552
373.0033606372
373.01757986605
373.03289151058
373.04808763
373.06273650486
373.07660085004
373.08955356317
373.10154041716
373.11255083903
373.12259391162
373.13169271467
373.13987391933
373.14716353097
373.15358537188
373.15915823314
373.16389516425
373.16780321143
373.1708865512
373.17319553384
373.17484710491
373.17583195809
373.17609816749
373.17556832289
373.17411834277
373.17162564845
373.16787113074
373.16256716789
373.15531878712
373.14557135297
373.13252873491
373.11500360458
373.09119054795
373.05796287005
373.00947721491
372.9321913611
372.77601334811
372.60902270126
372.45419225353
372.21721813306
371.87843411549
371.42701433763
370.85235940153
370.14083909121
369.27922556524
368.25535299034
367.06414786168
365.70419390873
364.19140904003
362.57295922844
360.86914008261
359.12497697212
357.37286677626
355.64259049091
353.95633209514
352.32781472438
350.76666426273
349.27824797928
347.86304073338
346.52001022865
345.2469371716
344.03966823107
342.89401180651
341.80934845984
340.77762117213
339.79328015524
338.86255146548
337.96826270107
337.12150889903
336.30577639175
335.53073496475
334.78294517595
334.07017167214
333.38097773915
332.72281000333
332.0843317115
331.47430746086
330.88023480778
330.31238484828
329.75790461844
329.22685991646
328.70846473671
328.20929644768
327.72421612633
327.25275450335
326.79640334118
326.35120690138
325.91924452669
325.49870408241
325.08954139308
324.69090466988
324.30241366994
323.9234916181
323.5537539676
323.19277114558
322.84019683688
322.49566325497
322.15883668417
321.82939479768
321.50705090188
321.1915216433
320.88256087428
320.57988905515
320.28326748787
319.99040134102
320.68841493244
321.58682570245
320.71405754277
319.8220293002
318.96172293373
318.14032713239
317.36037035066
316.62208385232
315.92323812106
315.25914613666
314.62273811386
314.00460320913
313.39286501959
312.77305549808
312.1269846933
311.43190914624
310.56107590359
309.6833322528
308.68848724205
307.57460705001
306.36020648529
305.08061215798
303.78294134649
302.52771579079
301.39169242934
300.45313516351
299.75346288757
299.28454810512
299.00111400907
298.84391600377
298.75912440651
298.70856417859
298.67188057459
298.64064013593
298.61211502361
298.58573947379
298.55597868328
298.53540990412
298.517593614
298.50264005498
298.49047837117
298.48084061376
298.47322163103
298.46696310135
298.46145201057
298.4560395025
298.45002524069
298.44273749476
298.43364674737
298.42249626188
298.40829993145
298.39153859683
298.37169762706
298.34889155543
298.32311816352
298.29447868366
298.26289755211
298.2284845762
298.19136544676
298.15162416922
298.10933064826
298.06455801957
298.01738232853
297.96795806944
297.91690569114
297.86550260222
297.81658546731
297.77436111235
297.73356839486
297.64232273716
297.30301934351
296.09204929619
372.56573008653
372.37271418493
372.07857579915
371.6708161631
371.14387356533
370.4875710471
369.69432005226
368.75590681545
367.66739974515
366.42899211259
365.0447910886
363.53192920991
361.92093630732
360.24302510311
358.52833522908
356.80799354471
355.10952521662
353.45345243495
351.85441704304
350.32121523008
348.85834646501
347.46723388426
346.14671563394
344.89423927077
343.70688024667
342.58028094988
341.51052094854
340.49424536665
339.52701711773
338.60591734356
337.72738507571
336.8883820378
336.08631127155
335.31812583022
334.58204169852
333.87526613361
333.19646231613
332.54322420387
331.91446313526
331.30812830624
330.72328427468
330.15830369525
329.61217296455
329.08379189231
328.57203722373
328.07624304566
327.59518972089
327.1285368936
326.67507431499
326.23455441957
325.80591082644
325.38886319728
324.98269568636
324.58698946638
324.20123404689
323.82495615521
323.457735089
323.09916685803
322.74888146761
322.40653009595
322.07179006716
321.74435300752
321.42392778202
321.11024502406
320.80303090802
320.50204105263
320.2070787961
319.90575284659
321.47294324023
321.37825878482
320.48311787338
319.5982098132
318.7478708853
317.93727027326
317.16831260457
316.44065384555
315.75146561282
315.09547204202
314.46502754724
313.85014547034
313.23835784787
312.6144557026
311.95921262161
311.24881897277
310.56268040692
309.68585392742
308.69205785754
307.57928933903
306.36593215165
305.08723261353
303.79023871892
302.53536358928
301.3992053098
300.45999504184
299.75931797679
299.28930925176
299.00493156341
298.84708017335
298.76194665527
298.71127207554
298.67457942429
298.64334740922
298.61480098581
298.58835615787
298.5584544941
298.53770304301
298.51967266121
298.50447189594
298.49204165158
298.48211767999
298.47419763087
298.46762524181
298.46178892291
298.45602231089
298.44960184668
298.44183620846
298.43217248443
298.42036771782
298.40541609182
298.38774119854
298.36686236298
298.3428965443
298.31583423422
298.28574300574
298.25257648209
298.21646771651
298.17752913759
298.13583845684
298.09145526009
298.04443786183
297.99484586105
297.94281645791
297.88891976038
297.83438623179
297.78202161907
297.73617143374
297.69250204094
297.60116585339
297.26898770503
296.07750405743
372.54622100925
372.31164725583
371.95299579745
371.46203472369
370.84994946909
370.11157193232
369.24759741915
368.25646066255
367.13792260801
365.89157298436
364.52608017441
363.05342960037
361.48974268627
359.86199350879
358.19768023654
356.52472999029
354.86848081065
353.2495501269
351.68218794438
350.1751091998
348.73361431725
347.36015146121
346.05403439802
344.8133397412
343.63540434215
342.51682582631
341.45413780594
340.44354668064
339.48172350425
338.56477059891
337.69007922848
336.85430944717
336.05502536442
335.28948533749
334.55549755399
333.85086029195
333.17370605655
332.52220822479
331.89478070971
331.28984567887
330.70617279634
330.14224220999
329.59720489278
329.06960345249
328.55889312426
328.06367680497
327.58356554624
327.11738609739
326.66469314065
326.22460273447
325.79661268036
325.38005924485
324.97436067853
324.57906492907
324.19366964957
323.81776178857
323.45088835433
323.09265086867
322.7426707544
322.40060717548
322.06613807429
321.73895660096
321.41876869841
321.10529991674
320.79830577924
320.49751015112
320.20272867855
319.90010743687
321.49492579493
321.36934242045
320.47395929785
319.58990809925
318.740549274
317.93083181567
317.16265760078
316.43571266462
315.74719814361
315.09185842541
314.46206800756
313.84787188255
313.23685586077
312.61388701572
311.95983606866
311.25099262945
310.56610087006
309.69132483754
308.69984972964
307.58953469535
306.37847614345
305.10176260448
303.80628728878
302.55221958106
301.41581017599
300.47519359425
299.77231898541
299.29990104678
299.01343261924
298.8541223976
298.76821278804
298.7172692706
298.68054486081
298.64932530109
298.62073220803
298.59414340029
298.56393479813
298.54278215462
298.52428012849
298.50853431
298.49551054066
298.48495337754
298.47636691104
298.4691043317
298.46255082823
298.45600260072
298.44868614892
298.43987260375
298.4289285871
298.41568291181
298.39903796547
298.37935981868
298.35619727972
298.32967049592
298.29975556329
298.26643256029
298.22977085981
298.18989422699
298.14691188178
298.100888905
298.0518581575
297.99983760361
297.94484600932
297.88698618429
297.82672233883
297.76517745946
297.70508496938
297.65102775738
297.60060372343
297.50841206246
297.19111091501
296.04270154361
372.5069926945
372.17724266985
371.67985665153
371.03977599019
370.28624313191
369.43267003981
368.48754526639
367.45300031762
366.32571468307
365.10275646232
363.79075665119
362.38754831069
360.90180971588
359.35111810994
357.7590389937
356.15125790037
354.55134772175
352.98030117919
351.45324910783
349.98031926839
348.56746590235
347.21680933208
345.92992151163
344.70537499095
343.54058460173
342.43285683476
341.37924633836
340.37649724721
339.42122508101
338.51029321267
337.64049401018
336.80921076424
336.01363017942
335.25158056894
334.52048005519
333.81861971318
333.14375994623
332.49448377423
331.86890340292
331.26584981989
330.68362627771
330.1212734343
329.57741205814
329.05114277447
328.54138604702
328.04726370687
327.56801876296
327.10270414324
326.65080306287
326.21140628554
325.7841223719
325.36817076644
324.96311639344
324.56835602648
324.18346675423
323.80802359927
323.44158909169
323.08377064626
322.73418988069
322.3925055856
322.05838848895
321.73153415456
321.4116534892
321.09847743524
320.79175143268
320.49123043416
320.19668587137
319.8921930897
321.52741342507
321.35619482069
320.46072355488
319.57799161251
318.73001399902
317.92154178483
317.15448645084
316.42856972278
315.74102639043
315.08662755202
314.4577761891
313.84456529846
313.23465834522
312.61303185723
311.96069445302
311.25408406244
310.57122272185
309.69955303861
308.71161511451
307.60500768441
306.3974488901
305.12377124998
303.83062531089
302.57782131775
301.44107368017
300.49836496305
299.79218133404
299.31610990603
299.02645423238
298.86490126755
298.77777949416
298.72640384545
298.68962013527
298.65841607423
298.62975767971
298.60298065122
298.57232172432
298.55057063138
298.53135725493
298.51478656573
298.50085918665
298.48933354334
298.47972628411
298.47141346418
298.46376235014
298.45601249485
298.44732372683
298.43690806088
298.42406130157
298.40856057141
298.38931735378
298.36658600134
298.33994504165
298.30950072058
298.27513759011
298.23687822604
298.19483391725
298.14914204317
298.09990751186
298.04717130066
297.99091300827
297.93109127911
297.8676588577
297.80066918944
297.73042168463
297.65786679422
297.58559244879
297.51840790408
297.45656648864
297.36140726384
297.06537884295
295.99119700208
372.4019828827
371.79652541668
370.99502915967
370.12130400887
369.2193342793
368.28960958124
367.32540416097
366.31310610911
365.2374869033
364.09245487453
362.86585407666
361.55675088045
360.16880714203
358.71412713354
357.2125325584
355.68605355253
354.15701679142
352.64601856811
351.16914421149
349.73782749187
348.35951994411
347.03863106255
345.77543388227
344.57052282445
343.42253164632
342.32901077149
341.28701962949
340.29404922886
339.34724884031
338.4435274701
337.57997127692
336.75407851135
335.96324774883
335.20522321223
334.47789731703
333.77920009136
333.10730328934
332.46056505388
331.83741076356
331.23639523881
330.65614628617
330.09552009795
329.55324959717
329.02844266495
328.51997470137
328.02713599756
327.54892578482
327.0847104307
326.6336879894
326.19522951559
325.76872171079
325.35352587373
324.94917973993
324.55509053224
324.17083895326
323.7959502552
323.43004630172
323.0727312889
322.72363400139
322.38240236725
322.04870736534
321.72224944518
321.40274578901
321.08992675391
320.78353317339
320.48332831848
320.18908876885
319.885173399
321.56786866962
321.33888022871
320.44356561504
319.56256915877
318.7163182337
317.90942320974
317.1438114786
316.41923484015
315.73295823527
315.07978269912
314.45214906621
313.8402148677
313.23174533214
312.61185839062
311.96174359697
311.25803265198
310.57796154311
309.71042974798
308.72721997365
307.62556203603
306.4226955903
305.15309921537
303.8631005358
302.61203974276
301.47490814402
300.52947079926
299.81891099202
299.33797019494
299.04403584159
298.87944634419
298.79065153675
298.73865877789
298.70177569751
298.67058855722
298.64185018609
298.6148416449
298.58364703943
298.56111436104
298.54095516413
298.52328608846
298.50814795305
298.49531887918
298.48433582053
298.47460934786
298.46547007839
298.45609561598
298.44555943024
298.43298921607
298.41759017573
298.39904638865
298.37629632733
298.34945063386
298.31811712169
298.28231638796
298.24188426126
298.19691466127
298.14752163075
298.09386462428
298.03604647111
297.97406545803
297.90781478616
297.83716478802
297.76197043075
297.68221729548
297.5980000546
297.5099990019
297.42055003874
297.33452910644
297.25520939168
297.15295314949
296.88123348551
295.90588627515
371.79369291296
370.24923024287
369.19601100901
368.32256495273
367.48197134436
366.64660965782
365.78635859938
364.88925332579
363.93194698881
362.90156290665
361.78930186472
360.5945065113
359.31970914731
357.97369305079
356.57301918768
355.13844811613
353.69055388271
352.24899297588
350.83091940093
349.44888306293
348.11164976732
346.82449508586
345.59046515213
344.40938741832
343.2810834398
342.20425152041
341.17676547907
340.19571646483
339.25907961701
338.36414904996
337.50830695298
336.68883812433
335.90377325022
335.15076626456
334.42780970919
333.73295718825
333.06459488828
332.42091695018
331.80052704774
331.2019696712
330.62403176015
330.06537504649
329.52499781255
329.00183602317
328.4949597897
328.00348901057
327.52658076327
327.06356830643
326.61363515399
326.17621767847
325.75060657062
325.33631359814
324.93276262285
324.53945625369
324.1559197375
323.78169948895
323.41642488855
323.05969284517
322.71114292536
322.3704252779
322.03722338535
321.71123408426
321.39216893887
321.07975676457
320.77374251656
320.47391078752
320.18003973604
319.87742630201
321.61316297293
321.31731784942
320.42271111584
319.54375833877
318.69950944646
317.89449338162
317.13064043943
316.40771337742
315.72299698563
315.07132235335
314.44517782618
313.83480287304
313.22808815766
312.61032600681
311.96293002868
311.26276564655
310.58622581891
309.72383696791
308.74652282074
307.65104967925
306.45406835064
305.18960460984
303.90358635336
302.65478029773
301.5172705644
300.56852772242
299.85257580557
299.36557823816
299.06627445286
298.89783302213
298.80686844517
298.75404185832
298.71700309131
298.68583398915
298.65700529354
298.62970834338
298.59798005444
298.5744940457
298.55316553101
298.53413973772
298.51748898828
298.50301976614
298.49030384966
298.478793611
298.46776727262
298.45633544873
298.44346517263
298.42818509242
298.40958048443
298.38720849026
298.36001647863
298.32798402427
298.29070087229
298.2480048106
298.19985165082
298.14629316369
298.08746248368
298.02354255607
297.95462732275
297.88064212192
297.80134720039
297.71649345901
297.62580469886
297.52917281185
297.42640702271
297.31784578196
297.20544032969
297.09383702444
296.98916236271
296.87294730875
296.62426337625
295.76817534363
362.98143214506
366.59010000552
366.33240146498
365.91551162722
365.42876712245
364.85590067376
364.20243113351
363.47558564081
362.67964311699
361.80939701768
360.85378844565
359.80849922215
358.67745408307
357.46620619936
356.18740113336
354.85974506999
353.50328886969
352.13720854064
350.7794571851
349.44490570211
348.14413604662
346.88475089944
345.67094908204
344.50549041211
343.3885337087
342.31892316368
341.29639028346
340.31878607449
339.38400968682
338.48937281269
337.63319474058
336.81302511788
336.02654790559
335.27169145765
334.54679402965
333.8498808316
333.17916438207
332.53317882284
331.91047094169
331.30957003898
330.72923029179
330.16827644445
329.62565448259
329.10024933925
328.59118439728
328.09758481121
327.61865157994
327.15361159634
326.70173081175
326.26242224175
325.83500783363
325.41896533337
325.01368995871
324.61873456124
324.23362811422
323.85791084508
323.49116397464
323.13298938434
322.78305532443
322.44100946739
322.10652378534
321.77928399477
321.45900570419
321.14542777966
320.83832393424
320.53743082321
320.24247486501
319.95121598209
321.04485917564
321.50457989295
320.62181227407
319.73786075838
318.88657313764
318.07366545561
317.30154355173
316.57052832954
315.878525329
315.22099379604
314.59104473974
313.97956771047
313.37518569368
312.76412549657
312.12912381257
311.44846022864
310.59590831816
309.73963752189
308.76936562413
307.68130515057
306.49140301118
305.23312239869
303.95194605387
302.70593783667
301.56811623547
300.6155615598
299.89326281695
299.39905667
299.09329585159
298.92016227991
298.82648954493
298.77257395597
298.73530221484
298.70414984285
298.67523135809
298.64750223029
298.62476716704
298.5995457118
298.5761056048
298.55463448538
298.53520530952
298.51769992256
298.50178730807
298.48694290067
298.47238259288
298.45710314992
298.43990147243
298.41959431236
298.39503895826
298.36556741274
298.33011100486
298.28844451043
298.23986111597
298.18425209839
298.12152581698
298.05170035245
297.97492509989
297.89141522721
297.801227761
297.7040712914
297.59944481693
297.48687018375
297.36579603984
297.23589648099
297.0963630063
296.94693742074
296.7887572145
296.62553647924
296.46663422146
296.31358345805
296.09053529756
295.44305437358
353.84348752011
359.05702166562
359.88716370592
360.28052836991
360.44456528884
360.42158524935
360.21528579964
359.85595327965
359.3654917032
358.76126121145
358.04950223151
357.24038566443
356.33787026638
355.34533283902
354.2738268066
353.13987533853
351.96170248387
350.75751275372
349.54456124228
348.33817408406
347.15030917534
345.9896827641
344.86232381546
343.77187269309
342.72048731385
341.70892271616
340.73706681002
339.80347677967
338.90772948881
338.04809044783
337.22288458132
336.43005332825
335.66810963524
334.93553531467
334.23059520602
333.55152815089
332.89712089189
332.26602732453
331.65685704103
331.06828148179
330.49925491775
329.9487645083
329.41574173208
328.89923488152
328.39838569279
327.91246366965
327.44065222055
326.98223960074
326.53655846897
326.10303429367
325.68108463217
325.27013024874
324.86967791037
324.47925538454
324.09843710677
323.7267919789
323.36390453124
323.00939875624
322.66292639626
322.32416958064
321.9928107395
321.66855684132
321.35113299011
321.04027996209
320.73572562872
320.4372656793
320.14461889421
319.84967027112
321.73662927079
321.23219629825
320.33998427657
319.46764244424
318.63059383645
317.83287419236
317.07614786261
316.36001281352
315.68170994998
315.03614894605
314.41601708587
313.81191366998
313.2122580567
312.60305825166
311.96661135847
311.28072958585
310.61902314181
309.77779191071
308.8249370243
307.75532643348
306.58315909015
305.34045273731
304.07162161071
302.83299323251
301.69503166172
300.73368370056
299.99613670487
299.48424616817
299.16233956461
298.97718168865
298.87629547304
298.81924311649
298.78115755216
298.75000492365
298.72098741332
298.69261164353
298.67148835441
298.64387111188
298.61718552539
298.5917547759
298.56769494215
298.54506928911
298.52363961738
298.50291636172
298.48209330447
298.4600214673
298.43517317327
298.40604055915
298.37105909769
298.32920749901
298.27928493795
298.22023033077
298.15146116955
298.07260689322
297.98339820967
297.88369787505
297.7736015208
297.65330697594
297.52269512068
297.38111384265
297.22782157597
297.06160711996
296.88116253756
296.68548383106
296.47259635816
296.24134972628
295.99186262171
295.72550941251
295.4518101599
295.19264794998
294.95078589654
294.58056203329
349.4497185619
354.04394576342
355.07861354574
355.72871997597
356.15398258548
356.41977994633
356.51872355955
356.47088604463
356.26974988852
355.93058766802
355.46951720797
354.89719946175
354.21516117348
353.43562534863
352.57074722088
351.63117569895
350.63222537868
349.59074103299
348.52306244291
347.44391186884
346.36615171466
345.30075851002
344.25558933164
343.23598510898
342.24546826009
341.28641628483
340.35988976913
339.46596533497
338.60449706922
337.77451726947
336.97483998263
336.20477455506
335.46293862416
334.74813448457
334.05865799453
333.39347890177
332.75152087566
332.13149306257
331.53215868172
330.9523915813
330.39140546177
329.84810676675
329.3215974899
328.81092379162
328.31548392096
327.8344410291
327.36709823411
326.91273757337
326.4707898183
326.0407154602
325.62192108269
325.21389310403
324.81612792464
324.42822854416
324.04974886133
323.68026933885
323.31940516389
322.96679203751
322.6221151063
322.285033977
321.9552394218
321.63244853653
321.31639655006
321.0068449557
320.70355011136
320.40626923347
320.11466311916
319.84105639643
321.80137084185
321.1589115548
320.26764678802
319.4002220654
318.56909417819
317.77768293531
317.02726124924
316.31717023987
315.64454183209
315.00432947585
314.38940764528
313.79071057647
313.19714275729
312.59530855405
311.96826859978
311.29467473532
310.64614562417
309.8234542334
308.89223075265
307.84576524333
306.69607375612
305.47330583647
304.22049185776
302.99194124454
301.85503511319
300.88401503527
300.12845525791
299.59494461825
299.25270217462
299.05182755837
298.94101410687
298.87916239985
298.83952969841
298.80821449216
298.77921615622
298.75041922088
298.73104348532
298.70111525309
298.67105120481
298.64119212999
298.61182159187
298.58301718126
298.5547515699
298.52657815842
298.49772591022
298.46695013183
298.43236261521
298.39207124348
298.34398618652
298.2866334586
298.2179504054
298.13673498917
298.04189367794
297.93284378562
297.80921793013
297.67074247777
297.51717316897
297.34840727669
297.16355729942
296.96118746507
296.7400066233
296.49715707423
296.23025370324
295.93703789237
295.61453614205
295.26052776668
294.87191092219
294.44673367168
293.99728851824
293.56076167403
293.21556704069
293.05287635103
346.74478174342
350.43009354519
351.45699670668
352.15217928057
352.6657521084
353.04953370689
353.3015104794
353.41793391541
353.41184199059
353.26976126955
352.99566296961
352.60965052586
352.12380914969
351.53081840737
350.8431612794
350.07486545987
349.23917472735
348.3492979156
347.42069695726
346.4673692554
345.50191253661
344.534840549
343.57549686659
342.63086124988
341.70572204182
340.80344880658
339.92632972424
339.07567905964
338.25201943653
337.45525426042
336.68511156846
335.94101554953
335.22195334981
334.52703674416
333.85567514593
333.20668370919
332.57917975855
331.97186837091
331.3839794371
330.81479353098
330.2632481512
329.72854072232
329.20966725211
328.70611217975
328.21710900299
327.74195616925
327.2799329794
326.83043887975
326.39303765361
325.96709661925
325.55212136377
325.1475755703
324.75307075682
324.36820116808
323.99252257245
323.62564354562
323.26717664785
322.91682682723
322.57426714424
322.23917691157
321.91125498197
321.590214302
321.27582003852
320.96786652007
320.6661074502
320.37027483862
320.08012631941
319.85096763837
321.81696133549
321.06857176573
320.18029945678
319.31903221085
318.49501980698
317.71115283515
316.96825970539
316.26536256029
315.59944887962
314.96551923108
314.35667727599
313.76427587427
313.17776808177
312.58445564018
311.96828603413
311.30890043406
310.67588286414
309.87488661342
308.96918363664
307.95033117608
306.82779036169
305.62940062394
304.39643412089
303.18104179237
302.04715145639
301.06650729396
300.29110662897
299.73271195426
299.36622128277
299.14583040838
299.02200988487
298.9531725522
298.91083108825
298.87893496246
298.84996850141
298.82097443022
298.80377113666
298.77186578113
298.73869440583
298.70451373413
298.66960176514
298.63413234928
298.59805034088
298.56114331451
298.52263887915
298.48129019914
298.43495345921
298.38120967297
298.31761245807
298.24148001987
298.15031470563
298.04231822569
297.91618413294
297.77107568512
297.60616050487
297.42042474513
297.21237237263
296.98013110565
296.7213205617
296.43281760885
296.10933669851
295.74754985713
295.34373779447
294.89352495783
294.3927316549
293.83743413839
293.22639756648
292.57058136495
291.89971543825
291.27335485473
290.84665880482
290.98906442101
345.17335008944
347.55917873125
348.59898598906
349.26381530509
349.79552023218
350.21953158586
350.53831293341
350.75784030653
350.84824778651
350.83841256579
350.71193529005
350.46797396818
350.11672962725
349.68028443612
349.1456161537
348.52408076583
347.8305191814
347.07813693023
346.27737852597
345.44166231653
344.58357158175
343.7136882128
342.84063836682
341.97212410171
341.11410412522
340.27093568528
339.44579585644
338.64089594931
337.85753285064
337.09644329593
336.35790129327
335.64176913625
334.94771923164
334.27537527436
333.62400649578
332.99276694471
332.38113590567
331.78844552246
331.21371750437
330.65641315329
330.11545246233
329.59024994102
329.08032579947
328.58486447612
328.10328990348
327.63479771815
327.17892118823
326.73521341518
326.30304250611
325.88194179794
325.4713474626
325.07092174234
324.68026578859
324.29892770649
323.92652298863
323.56264094791
323.20702140491
322.85932842189
322.51923848593
322.18646129921
321.86070668958
321.54172615807
321.22929430997
320.9231766179
320.62310493635
320.32890941207
320.04000517883
319.9600827598
321.78102832353
320.96301204909
320.07836411759
319.22427943564
318.40854367996
317.63339618616
316.89915802694
316.20449213222
315.54622321855
314.91941085363
314.31743484173
313.73211707477
313.1535288736
312.56974500652
311.96569787215
311.32214839914
310.70667561033
309.93011616917
309.0534197604
308.06634362401
306.97549861265
305.80595218972
304.59684645442
303.39803886259
302.26983814488
301.28071096111
300.48474365343
299.89907168013
299.50489175294
299.26122678853
299.12097111836
299.04251954216
298.99578152269
298.96249591164
298.93334761202
298.90428261532
298.88968507966
298.8563134869
298.82063301924
298.78272935299
298.74274241684
298.7007595641
298.65674598641
298.61042051115
298.56119671218
298.5077382777
298.44785125779
298.37880065716
298.29752883216
298.19997085977
298.08306329501
297.94431733987
297.78271948656
297.59670690104
297.38362451637
297.13920764193
296.85665797722
296.52981312995
296.15599510234
295.73266395841
295.25749428654
294.72648264867
294.13413998766
293.47407525359
292.74507399726
291.9472826395
291.09717477113
290.24218719846
289.45795469292
288.86099362958
288.68004182291
289.52257193377
344.40544932666
345.14923494182
346.2464497595
346.86834227932
347.38056468554
347.8102795337
348.15589139572
348.42337879389
348.58173818769
348.64276251808
348.61491333336
348.48600236664
348.24616971218
347.91564800779
347.50426091615
347.01296180076
346.44203765953
345.80598506068
345.11950685723
344.39211803601
343.63371797381
342.85512672992
342.06565472611
341.27241214621
340.48160593266
339.69838595433
338.92645338529
338.16879653411
337.4274258931
336.7036668122
335.99833201873
335.31187694214
334.64439892014
333.99577219308
333.36573109035
332.75392129533
332.15988578962
331.58289224373
331.02229648144
330.47783617429
329.94877357727
329.43445373685
328.93444237257
328.44787828428
327.97428657926
327.5133912667
327.06453341456
326.62724914371
326.20094429243
325.78515377983
325.37965043969
324.98393671526
324.59762342249
324.22029731792
323.85155386326
323.49119245504
323.13883277161
322.79416889665
322.45690104192
322.12674015409
321.80348912955
321.48686691049
321.17661954734
320.87249343126
320.57429522299
320.28180225308
319.9939363964
320.28538086351
321.69189831497
320.84125099354
319.96209915247
319.11632836402
318.30999019934
317.54463947499