/*--------------------------------*- C++ -*----------------------------------*\
| =========                 |                                                 |
| \\      /  F ield         | OpenFOAM: The Open Source CFD Toolbox           |
|  \\    /   O peration     | Version:  2312                                  |
|   \\  /    A nd           | Website:  www.openfoam.com                      |
|    \\/     M anipulation  |                                                 |
\*---------------------------------------------------------------------------*/
FoamFile
{
    version     2.0;
    format      ascii;
    arch        "LSB;label=32;scalar=64";
    class       volScalarField;
    location    "0.00014";
    object      Y.Liq;
}
// * * * * * * * * * * * * * * * * * * * * * * * * * * * * * * * * * * * * * //

dimensions      [0 0 0 0 0 0 0];

internalField   nonuniform List<scalar> 
109340
(
0.99999
0.99999
0.99999
0.99999
0.99998999999996
0.99998999999894
0.99998999996952
0.99998999940316
0.99998999593834
0.99998998495075
0.99998995978803
0.99998991189675
0.99998983091548
0.99998970467105
0.99998951906042
0.99998925780507
0.99998890201999
0.99998842956451
0.99998781410872
0.99998702384639
0.99998601975259
0.99998475334465
0.99998316376933
0.99998117394092
0.99997868520555
0.9999755698888
0.99997166056566
0.99996673409715
0.99996048694652
0.99995249524977
0.99994214690918
0.99992851907387
0.99991014225275
0.99988451835247
0.99984708009689
0.99978881260595
0.99999
0.99999
0.99999
0.99999
0.99998999999994
0.99998999999828
0.99998999995073
0.99998999912032
0.99998999463217
0.99998998134202
0.99998995208993
0.99998989784578
0.99998980777892
0.99998966922997
0.99998946756636
0.9999891858881
0.99998880456594
0.99998830052685
0.99998764622908
0.99998680826799
0.99998574552388
0.9999844067632
0.99998272752647
0.99998062596595
0.99997799706393
0.99997470450012
0.99997056886662
0.99996534997813
0.9999587192225
0.99995021429939
0.99993916102503
0.99992452934259
0.99990464699617
0.99987658943325
0.99983475219654
0.99976742574185
0.99999
0.99999
0.99999
0.99999
0.99998999999997
0.99998999999925
0.99998999997482
0.99998999932575
0.99998999528875
0.99998998271869
0.99998995442025
0.99998990132137
0.99998981255015
0.99998967541076
0.99998947524216
0.99998919513286
0.9999888154543
0.99998831315236
0.99998766071387
0.99998682477081
0.99998576422581
0.99998442784061
0.99998275114473
0.99998065225273
0.99997802609704
0.99997473627982
0.99997060328083
0.99996538679026
0.99995875810079
0.9999502548297
0.99993920263421
0.99992457034193
0.99990467520141
0.99987652816743
0.99983418760051
0.9997641372764
0.99999
0.99999
0.99999
0.99999
0.99998999999999
0.99998999999985
0.99998999999282
0.9999899995271
0.99998999598706
0.99998998423791
0.9999899570487
0.99998990530386
0.99998981808928
0.99998968266724
0.99998948432889
0.99998920610471
0.99998882829614
0.99998832776257
0.99998767686952
0.99998684207863
0.9999857820127
0.99998444499793
0.99998276595374
0.99998066213397
0.99997802728241
0.99997472333679
0.9999705684456
0.9999653190314
0.99995864179072
0.9999500677627
0.99993891268609
0.99992412961361
0.99990399963629
0.99987541126662
0.99983187503937
0.99975661131694
0.99999
0.99999
0.99999
0.99999
0.99999
0.99999
0.99998999999922
0.9999899996583
0.99998999656268
0.99998998566698
0.99998995971937
0.99998990948813
0.99998982384328
0.9999896897349
0.99998949200356
0.99998921304022
0.99998883227413
0.9999883254028
0.99998766310339
0.99998680977449
0.999985721066
0.99998434118937
0.99998259950385
0.99998040558734
0.99997764272411
0.99997415843336
0.99996975097027
0.99996414913757
0.99995698088355
0.99994772192746
0.99993560633721
0.9999194639712
0.99989736609276
0.99986576977343
0.99981693683302
0.99972733400476
0.99999
0.99999
0.99999
0.99999
0.99999
0.99999
0.99998999999175
0.99998999919226
0.9999899937892
0.99998997666443
0.99998993778944
0.99998986439452
0.9999897409705
0.99998954910053
0.99998926708888
0.99998886935047
0.99998832550736
0.99998759926094
0.99998664739063
0.99998541348221
0.99998382546223
0.99998179230683
0.99997919731777
0.99997588972436
0.99997167337667
0.99996629083789
0.99995940060676
0.99995054314038
0.9999390880412
0.99992414733705
0.99990442287385
0.99987793971024
0.99984142128862
0.99978880785169
0.99970647727913
0.99954751785217
0.99969285110344
0.9995343006147
0.99928348342557
0.99891873866093
0.99842938218302
0.99780545126442
0.99703309529249
0.99609900497036
0.99499129243844
0.99370619898426
0.99224570502633
0.99062374851561
0.98889711815535
0.98708903709095
0.98524740569354
0.98340828917621
0.98160334259385
0.97985518762838
0.97817769534168
0.97657933356672
0.97506410833541
0.97363199671407
0.97228050688941
0.97100605942036
0.96980412062559
0.96866978077833
0.96759856291521
0.96658626186875
0.9656270044543
0.96471860352877
0.96385530770218
0.96303497145191
0.96225378267549
0.96150883445656
0.96079779934159
0.96011770941434
0.95946694713793
0.95884291732548
0.95824426342021
0.95766895056204
0.95711565994603
0.95658294185582
0.95606938447533
0.95557408717944
0.95509557484703
0.95463332432066
0.95418591836923
0.95375299112076
0.95333336332714
0.95292660283341
0.95253185753507
0.95214860500936
0.95177621799728
0.95141417115285
0.95106195616361
0.95071910106919
0.95038516726152
0.95005974517473
0.94974245595398
0.9494329454445
0.94913087991357
0.9488359446632
0.94854784128106
0.94826628675013
0.94799101530605
0.94772177598323
0.94745833050879
0.94720044689157
0.9466458207322
0.94489129188614
0.94381797240882
0.94282791882328
0.94188165383524
0.94098675914745
0.9401485218381
0.9393680015519
0.9386418990057
0.93796291401668
0.93732045204753
0.93670145298667
0.93609109027314
0.93547335198083
0.93482969183585
0.93413705047127
0.9332635114024
0.93236855230974
0.93132204386525
0.93009673571169
0.92869998565412
0.92719534110727
0.92570767054762
0.92438439321879
0.92332827491375
0.92257399995222
0.92209153500806
0.92181419738205
0.92167033496158
0.92160198309947
0.92157022328885
0.92155317517556
0.92154126648219
0.92153134042201
0.92152279592187
0.92151582875842
0.92151003103082
0.92150809077136
0.92150807038999
0.92151047098795
0.92151549897603
0.92152303313141
0.92153282162452
0.92154451197575
0.92155767871988
0.92157186253665
0.92158654095637
0.92160102912075
0.92161488832405
0.92162768833059
0.92163901091614
0.92164854142772
0.92165602891732
0.92166129293504
0.92166422995147
0.92166502852397
0.92166359259352
0.92165966743759
0.92165339225205
0.92164485231339
0.92163410986031
0.92162120589862
0.92160614600306
0.9215888738092
0.92156920326336
0.92154669722191
0.92152054698664
0.92148951721932
0.92145229963592
0.9214093589746
0.92136629028929
0.92134481235696
0.99965074978625
0.99945064612044
0.99913646754276
0.99869516423341
0.9981225575562
0.9974105293734
0.99655047646308
0.99553470117284
0.99435954457798
0.99302709711274
0.99154335878071
0.98992903846528
0.98821636475091
0.98644205468322
0.98463878522892
0.98283960180709
0.98107412313692
0.97936297656989
0.97772047019791
0.97615478670038
0.97466936680068
0.97326442757632
0.97193787110496
0.97068617549976
0.96950530084815
0.96839024386276
0.96733641707405
0.96633939317081
0.96539491874359
0.96449894354011
0.96364786729453
0.96283818799422
0.9620668995171
0.96133107414951
0.96062819554698
0.95995586343008
0.95931196009819
0.95869451217906
0.95810175430553
0.9575320337236
0.9569838841125
0.95645590771963
0.95594688823667
0.95545564519356
0.95498115888381
0.95452243485939
0.95407860051185
0.95364881611084
0.95323232702737
0.95282841870446
0.95243644003683
0.95205577738899
0.95168586323914
0.95132616842838
0.9509761925059
0.95063547543252
0.95030358444644
0.94998011847624
0.94966470424812
0.94935699256163
0.9490566536388
0.94876337682516
0.9484768685456
0.94819685227586
0.94792306773236
0.94765526946475
0.94739322566159
0.94713514248919
0.9461303229712
0.94459657192281
0.94356044438683
0.94258137561981
0.94164793181373
0.940767511965
0.93994435147622
0.93917842414797
0.93846539320186
0.93779706604322
0.93716216781812
0.9365471738719
0.93593697676154
0.93531520134577
0.93466245595664
0.93395419563145
0.93326518134398
0.93237125673165
0.93132608224814
0.93010228229577
0.92870694525142
0.92720325181428
0.92571570380788
0.92439177042598
0.923334455356
0.92257878491076
0.92209503680706
0.92181671615775
0.92167222224359
0.92160354467368
0.92157167462131
0.92155462512617
0.92154273900459
0.92153281375668
0.92152423219198
0.92151718943185
0.92151125023189
0.92150917822613
0.92150905215407
0.92151132088032
0.92151623839244
0.92152368976054
0.92153342786795
0.92154509999193
0.92155827604313
0.92157248872244
0.92158719529845
0.9216016917604
0.92161552197491
0.92162823729687
0.92163940235427
0.92164868351581
0.92165581302406
0.92166060122956
0.92166295984148
0.92166309880867
0.92166071654055
0.92165572957077
0.92164824917114
0.92163835383586
0.92162609973648
0.92161152200091
0.92159461928254
0.92157533121087
0.92155346302833
0.92152856850518
0.92149983453481
0.92146599943754
0.92142569701829
0.92137930770706
0.92133238535568
0.92130774973607
0.9996332169505
0.99938928762423
0.99900186390648
0.99847082650054
0.99780583224336
0.99700434981564
0.99606796096717
0.99499593944192
0.99378940941559
0.99244988022631
0.99098685251449
0.98941620281891
0.98775655240034
0.98603757510829
0.98428956238904
0.98254242016811
0.9808231105821
0.97915214045882
0.97754372591391
0.97600630650342
0.97454404805255
0.97315812628937
0.97184721952439
0.97060835026
0.96943781331278
0.96833149643009
0.96728534551357
0.96629481011179
0.96535588392454
0.9644647242563
0.96361775906147
0.96281172202218
0.96204353951885
0.96131049640626
0.96060999799136
0.9599397953157
0.9592977304262
0.95868194077166
0.95809061838822
0.95752219104386
0.956975148428
0.95644816732958
0.95593999584178
0.95544951821412
0.9549756858411
0.95451755061746
0.95407422761641
0.95364489577014
0.95322880686689
0.95282524545935
0.95243357515665
0.95205317625081
0.9516834949888
0.95132400052306
0.95097420339905
0.95063364312018
0.95030189066678
0.94997854712347
0.94966324050682
0.94935562250797
0.94905536445455
0.94876215664437
0.94847570692595
0.94819574061355
0.94792200007185
0.94765424288029
0.94739224176347
0.94713406938026
0.94610834875373
0.94458594174964
0.94355087653865
0.94257265477984
0.94164028089124
0.94076087125633
0.93993860739335
0.93917348340661
0.93846117840603
0.93779350896862
0.93715922324659
0.93654484811909
0.93593535238955
0.93531445825042
0.93466289457644
0.93395625734791
0.93326867577624
0.93237713077961
0.93133490891857
0.93011441819822
0.92872219203349
0.92722062139721
0.92573339328065
0.92440806002066
0.92334813674056
0.9225894001956
0.92210281724161
0.92182231404089
0.92167641005472
0.92160699934408
0.92157487547143
0.92155781848526
0.92154598203437
0.92153606103522
0.9215274012033
0.92152019704385
0.92151395219081
0.92151158919002
0.92151122743887
0.92151320591664
0.92151787620785
0.92152514007761
0.92153476161554
0.92154638810306
0.92155957966852
0.92157385147406
0.9215886155635
0.92160312564266
0.92161688512945
0.92162940343549
0.92164020566164
0.92164891511736
0.92165522686092
0.92165893362327
0.92166007707279
0.92165854903966
0.9216540532672
0.92164664690781
0.92163641282471
0.92162341656129
0.92160769977883
0.92158928263714
0.92156814564265
0.9215442187983
0.92151728345837
0.92148686986884
0.92145215286065
0.92141180697881
0.92136433482467
0.9213099161866
0.92125412427722
0.92122240061314
0.9995946695426
0.99924788720169
0.99870849604895
0.99801414217974
0.99719622980328
0.99627061752451
0.99524754939935
0.99413039867042
0.99291705871235
0.99160497385299
0.99020094138706
0.98870643243831
0.98713182051233
0.98549691331414
0.98382791657094
0.98215106434692
0.98049234795136
0.97887312037257
0.9773080370273
0.97580677800004
0.97437468281246
0.97301353428647
0.97172296491654
0.97050099094228
0.96934447621662
0.96824980082054
0.96721315190318
0.96623090201079
0.96529907205932
0.964414029071
0.96357235576186
0.96277092266595
0.9620067873559
0.96127729011169
0.9605799558086
0.95991253735522
0.95927298517282
0.95865942894224
0.95807014276277
0.95750353934397
0.95695815727166
0.95643266753676
0.95592584687113
0.95543659056051
0.95496386162456
0.95450673294826
0.95406431550884
0.95363581466488
0.95322047192897
0.9528175963608
0.95242654131431
0.95204670365805
0.95167752556496
0.95131848492831
0.95096909893614
0.95062891130164
0.95029749889004
0.9499744652448
0.94965944088517
0.94935207888423
0.94905205241398
0.94875905349967
0.94847279214862
0.94819299587171
0.94791940910563
0.94765179332275
0.94738992592197
0.94713168701141
0.94607565184216
0.94457012682554
0.94353688151319
0.94256005137712
0.94162923014304
0.94075127118034
0.93993030706099
0.93916635087118
0.93845509695618
0.93778837470672
0.93715496823344
0.93654148042629
0.93593299077777
0.93531336098391
0.93466349123399
0.93395917451048
0.9332738622987
0.93238593605905
0.93134819384467
0.93013272182235
0.92874523754061
0.92724694722607
0.92576027642233
0.92443287410547
0.92336902613003
0.92260564151447
0.92211473858895
0.92183089251996
0.9216828144531
0.92161226348649
0.92157973483197
0.9215626604226
0.92155090343506
0.92154099873719
0.9215322312519
0.92152479682373
0.92151810565056
0.92151529890775
0.92151457064061
0.92151610979592
0.92152039399144
0.92152735904753
0.92153678838888
0.92154833085546
0.92156153274183
0.92157588249767
0.92159072105431
0.921605237359
0.92161887152064
0.92163106230531
0.92164126958971
0.92164905000396
0.92165404982985
0.92165612334818
0.92165525000745
0.92165088287573
0.92164301034501
0.9216316821467
0.9216169693431
0.92159891927193
0.9215775468131
0.92155284274085
0.92152475162856
0.92149318550117
0.92145787600664
0.92141830660877
0.921373625224
0.92132239358576
0.92126291381877
0.92119504493749
0.92112449322705
0.92108141208571
0.99946717516896
0.99882233349767
0.99796063835259
0.99701953982659
0.99604514937452
0.99504036407139
0.99399809833691
0.99290644810959
0.99174978829535
0.99052240875757
0.9892136968456
0.987823381488
0.98635611252655
0.98482566257018
0.98325409170111
0.98166540147187
0.98008256713535
0.97852720328067
0.9770155677127
0.97555874595007
0.97416343027639
0.97283281835363
0.9715675276883
0.9703664243651
0.96922727369998
0.96814716674172
0.96712277370981
0.96615068968264
0.96522763740391
0.96435010611134
0.96351491204375
0.9627190635203
0.96195980801347
0.96123456891235
0.9605409995082
0.95987690776364
0.95924033045621
0.95862942543976
0.95804253191408
0.95747808045068
0.95693465723513
0.95641093953497
0.95590574152229
0.95541795974086
0.95494658931873
0.95449070064341
0.95404942906429
0.9536219813243
0.95320761111574
0.95280563474019
0.95241540644885
0.95203633399281
0.95166785759169
0.95130946397404
0.9509606723263
0.95062103428086
0.95029013101107
0.94996756932526
0.94965298194064
0.94934602339461
0.94904636875314
0.94875371193725
0.9484677653125
0.94818825863262
0.94791493818538
0.94764756807203
0.94738592993674
0.94712762698054
0.9460326688668
0.94454929852081
0.9435185352007
0.94254362165655
0.94161480292509
0.94073872133896
0.93991946262285
0.93915704352474
0.93844716593427
0.93778167558661
0.93714940762971
0.93653706741176
0.93592987976473
0.9353118866435
0.93466420826239
0.93396289062519
0.93328066125288
0.93239754497653
0.93136577404274
0.93015701244039
0.92877590221947
0.92728208328924
0.92579626694785
0.92446618878978
0.92339714516889
0.92262755559033
0.92213085060849
0.92184248770897
0.92169144937993
0.92161932887655
0.92158622647934
0.92156911837192
0.92155747556437
0.92154761183785
0.92153872197923
0.92153100439414
0.92152375654523
0.92152035466257
0.92151911739243
0.92152007578267
0.92152382429308
0.92153036359024
0.92153950721064
0.92155090920305
0.92156409945478
0.92157853072313
0.92159344511308
0.92160794215989
0.92162137040173
0.92163306720963
0.92164239594948
0.92164883012826
0.92165198356211
0.92165188294649
0.92164771001116
0.92163923899694
0.92162644148683
0.92160935963548
0.92158805608293
0.92156254945966
0.92153280740812
0.9214987666152
0.92146030546136
0.92141730493749
0.92136939834542
0.92131598393734
0.9212561536552
0.92118827750134
0.92111039678712
0.9210219815062
0.92092903197203
0.92086950129379
0.99859883704896
0.99703618772783
0.99596112054603
0.99504740665004
0.99415833473057
0.99326645563092
0.99234464742197
0.99138065606774
0.99035385256622
0.98925231922367
0.98806915696207
0.98680392397314
0.98546012215359
0.98404776447686
0.98258519874385
0.9810950741463
0.97959902573129
0.97811790843035
0.97666856588826
0.975263635504
0.97391144320895
0.97261661300376
0.97138112795764
0.97020491160439
0.96908655367685
0.96802386610351
0.96701417932695
0.9660545284859
0.96514201511901
0.96427349435446
0.96344604152111
0.96265688912638
0.96190343367668
0.96118326757141
0.96049415110818
0.95983400664998
0.95920091977057
0.95859312798906
0.95800901002567
0.95744705514661
0.95690587666568
0.95638419364819
0.95588084308719
0.95539474712686
0.9549249215334
0.95447044677245
0.95403048062712
0.9536042336018
0.95319097856883
0.95279003339975
0.95240076396307
0.95202258083932
0.95165493049047
0.95129730502109
0.95094922727171
0.95061025586355
0.95027997558063
0.94995799776413
0.94964395691922
0.94933750919299
0.94903833118648
0.94874611866496
0.9484605862711
0.9481814659088
0.94790850530492
0.9476414691831
0.94738014335997
0.94712172761428
0.94598000020494
0.94452353738038
0.94349598246741
0.9425234290528
0.94159701212933
0.94072322346268
0.93990608154536
0.93914557536971
0.93843739981078
0.93777342085324
0.93714254237188
0.93653160063863
0.93592600077689
0.93531000415118
0.93466499791082
0.93396733640419
0.93328898109471
0.93241182685145
0.93138748376805
0.93018710782928
0.92881401723649
0.92732590347414
0.92584131651459
0.9245080283084
0.92343256972262
0.92265524186045
0.92215124950403
0.92185717267105
0.92170235436603
0.92162820191691
0.92159433114264
0.92157716255013
0.92156567331554
0.9215558908844
0.92154688245811
0.92153883891247
0.92153097775433
0.92152683343029
0.92152492027598
0.9215251739637
0.92152822284189
0.92153418881798
0.92154292885398
0.92155410919596
0.92156724297156
0.9215817387981
0.92159671017667
0.92161113853457
0.92162424604496
0.92163523257074
0.92164332928128
0.92164793982691
0.92164888987099
0.92164535442273
0.9216365919196
0.92162240892299
0.92160272360929
0.92157756055906
0.92154697071923
0.92151092357389
0.92146930483555
0.9214219546958
0.92136863423181
0.92130917139651
0.92124301134787
0.92116940553097
0.9210873324592
0.92099483368444
0.9208896399132
0.92077084076678
0.92064508677212
0.92056300022222
0.9875674646555
0.99286004638232
0.99274093166367
0.99237748158352
0.99190109007245
0.99131193919861
0.99062936796796
0.98986446918274
0.98902003546213
0.98809435198632
0.98707952962891
0.98597393298004
0.98478347220569
0.98351498577691
0.98218207047035
0.98080468861117
0.97940430187582
0.97800097232518
0.97661397295522
0.97525768364334
0.97394254300506
0.97267551897295
0.97146052475742
0.97029914133171
0.96919134090559
0.96813591517671
0.96713095300232
0.96617413839413
0.96526299275885
0.96439473660278
0.96356671818824
0.9627763919193
0.96202130153797
0.96129917877201
0.96060787421262
0.95994541075316
0.95930992232881
0.95869968102403
0.9581130889685
0.95754867765871
0.95700507895834
0.95648102698911
0.95597535738239
0.95548700574247
0.95501499122097
0.95455839736119
0.95411638109598
0.95368815279102
0.95327298642073
0.95287019831058
0.95247915394057
0.95209926010008
0.95172996310946
0.95137075036361
0.95102114239897
0.95068069552241
0.95034899315301
0.95002564556414
0.94971028392172
0.94940256080732
0.9491021495024
0.94880874296148
0.94852205368593
0.94824181170594
0.94796776216522
0.94769966314354
0.94743728077955
0.94718012319895
0.94646039835304
0.94477197709102
0.94371862903155
0.94273790066002
0.94180206277045
0.9409173366921
0.94008845319201
0.93931638759594
0.93859785054463
0.93792560364071
0.9372892746932
0.93667628836825
0.93607255342892
0.93546295410938
0.9348300731667
0.93415215755149
0.93329871462507
0.93242863383576
0.93141313430575
0.93022279616157
0.9288593842764
0.92737824346172
0.92589538455948
0.92455843786926
0.92347540737191
0.92268883538059
0.92217606488061
0.92187504756084
0.92171558788013
0.92163889901089
0.92160403225643
0.92158676089495
0.9215754676701
0.92156582459593
0.9215567275367
0.92154827891501
0.92154462560665
0.92153914018319
0.9215358466009
0.92153489872995
0.9215365904767
0.92154141213878
0.92154930484734
0.92155997175414
0.92157290446352
0.92158743286877
0.92160242413552
0.92161662333804
0.92162899312246
0.92163845279913
0.92164402698135
0.92164538974765
0.92164144100807
0.92163056191609
0.92161226549253
0.92158614310019
0.9215519804681
0.92150975336837
0.92145948104251
0.92140099961274
0.92133398011045
0.921258004397
0.9211725297733
0.92107724336421
0.92097105294383
0.92085283360655
0.92072121749134
0.92057336987723
0.92040649997219
0.92021934707659
0.92002070734358
0.91989304609543
0.97725061665472
0.9847728027082
0.98576044836119
0.98627943082032
0.9865167153428
0.98653719101459
0.98635541755429
0.98599369768873
0.9854929179983
0.98486847376278
0.98412662489846
0.98327973587044
0.98233670279841
0.98130416256867
0.980194893174
0.97902628891449
0.97781778808978
0.97658838487945
0.97535528193978
0.97413485873728
0.97293900718661
0.97177610037008
0.97065172106397
0.96956912037104
0.96852980607765
0.96753411217557
0.96658134161514
0.96567035059463
0.96479949003566
0.96396678622614
0.96317027404525
0.9624079919692
0.96167797534087
0.96097829259746
0.96030715733405
0.95966286100938
0.95904379468891
0.95844844138057
0.95787538294568
0.95732329536618
0.95679096799494
0.95627726183514
0.95578112239003
0.95530156832944
0.95483769087021
0.95438864770485
0.95395365279121
0.95353196874509
0.95312290508153
0.95272582043964
0.95234011637695
0.95196523498496
0.95160065317625
0.95124588139607
0.95090046456
0.95056397738264
0.95023602286455
0.94991622632719
0.94960423362608
0.94929970984586
0.94900233971731
0.94871182803404
0.94842789800374
0.94815028946815
0.94787875536528
0.94761305972938
0.9473529868036
0.94709274392386
0.94576768221104
0.9444187405219
0.94340403026775
0.94244034120015
0.9415233104816
0.94065893957126
0.93985071240134
0.93909826209884
0.93839714538845
0.93773932051407
0.9371140287227
0.93650868651977
0.93590944952005
0.93530145570201
0.93466715761273
0.93398414666196
0.93332190365429
0.93246912162109
0.93147536460892
0.93030993474626
0.92897090009274
0.92750778243477
0.92603035959682
0.92468517474498
0.92358385096872
0.92277442660931
0.92223961667465
0.92192090570768
0.92174937989523
0.92166589016113
0.921628181864
0.92161048108528
0.92159969866442
0.92159057392686
0.92158153279154
0.92157247692784
0.92156912204297
0.92156161251706
0.92155592509838
0.9215527179176
0.92155212284639
0.92155465709985
0.92156068269295
0.9215700306117
0.92158220504294
0.92159642294246
0.92161108810114
0.92162445000099
0.92163493553776
0.92164106617854
0.92164227880828
0.92163627680695
0.92162041951424
0.92159329837737
0.9215536362148
0.92150043017707
0.92143303805446
0.92135123042904
0.92125488019082
0.92114332520316
0.92101553215624
0.92087022106256
0.92070585795079
0.92052148454661
0.92031419789892
0.92008163049174
0.91982079233467
0.91952603527131
0.91919414109493
0.91882554472322
0.91843961181224
0.91821175448766
0.97197271576814
0.97952428813491
0.98071466605721
0.98145818548627
0.98196531147147
0.982297297494
0.98244166243868
0.98241730730986
0.98223123894218
0.9818846549409
0.98141918665827
0.98083602860918
0.98013319372641
0.97932886286938
0.97843908972164
0.9774760286342
0.97645659261769
0.97539853573523
0.9743185960827
0.97323140866789
0.97215035790868
0.9710862264409
0.97004664803934
0.96903683824044
0.9680600358789
0.96711799417506
0.9662115266378
0.96534047925383
0.9645041011595
0.96370133124421
0.96293087177882
0.9621913038809
0.96148120302426
0.96079907224142
0.96014343918832
0.95951288473792
0.95890603335695
0.95832157841294
0.95775826797853
0.95721492076145
0.95669043597294
0.95618379445414
0.95569403584038
0.9552202572872
0.95476161950464
0.9543173410188
0.95388668443563
0.95346896417005
0.95306353255016
0.95266977940074
0.95228713844028
0.95191508220076
0.95155311610142
0.95120077351874
0.95085761499367
0.95052322872096
0.95019722868806
0.9498792529229
0.94956895967337
0.94926602586771
0.94897014655586
0.94868103461794
0.94839842032257
0.94812204955459
0.94785168169157
0.94758708573531
0.94732803131943
0.94706241371439
0.94559718839055
0.94432657240972
0.94332171743768
0.94236566573222
0.94145697016463
0.94060113334536
0.93980104163356
0.93905589507851
0.9383610725985
0.93770863060418
0.93708815757579
0.93648761974226
0.935893840157
0.93529270613039
0.93466757405715
0.93399709132905
0.93334901282367
0.93251737931923
0.93155039001004
0.93041603600203
0.92910809708837
0.92766896795717
0.92620051159448
0.92484678612865
0.92372366969275
0.92288594344115
0.92232314786697
0.92198143191773
0.92179375075652
0.92170072861521
0.92165868789657
0.92164001033442
0.92162981458838
0.92162158732523
0.92161307936007
0.9216038609299
0.92160117783155
0.92159167539826
0.9215833047541
0.92157697851648
0.92157347142784
0.92157294831662
0.92157604849763
0.92158303473133
0.92159353765635
0.92160670191605
0.92162033324254
0.92163195807306
0.92163940081548
0.92164148225321
0.92163532373289
0.9216161949582
0.92158104016587
0.92152683315658
0.92145083347285
0.92135068350809
0.92122457719359
0.92107157426946
0.92089099890524
0.92068085041333
0.92043838365537
0.92016027924844
0.91984254434312
0.91948188637377
0.91907120614253
0.91860516706364
0.91807486147781
0.9174687005573
0.91678501442974
0.91603491206285
0.91528025419892
0.91490661295666
0.96774301707086
0.97572560565151
0.97698011743403
0.97775419273915
0.97833748393463
0.97877052775602
0.9790794910585
0.97923001708035
0.97923649534458
0.97911778340499
0.97884218260777
0.97845653682018
0.9779699834964
0.97736799674118
0.97666706022268
0.97588605570502
0.97503867561943
0.97413923294995
0.9732043549764
0.97224855497061
0.97128422215689
0.97032185160277
0.96937093193486
0.96843802268293
0.9675278522856
0.96664367288637
0.96578740995831
0.96495998735615
0.96416168512832
0.96339229439468
0.96265117016061
0.96193740707168
0.96125005327548
0.96058804657797
0.95995026473322
0.95933557604918
0.95874285441453
0.95817101625863
0.95761902983083
0.95708588291296
0.95657060766968
0.95607229851173
0.95559010537644
0.95512320728063
0.95467083441787
0.95423226992534
0.95380683522141
0.95339388861455
0.9529928263522
0.95260308755612
0.95222414015187
0.95185548616599
0.9514966599756
0.9511472216999
0.95080675686752
0.95047487332137
0.95015120078684
0.94983539010254
0.94952711308727
0.94922606068856
0.94893194066118
0.94864447752558
0.94836341124423
0.94808849658319
0.94781950231158
0.94755620512739
0.94729838966562
0.94701995388351
0.94541404523323
0.94421647095781
0.94322233316729
0.94227550464057
0.94137690350385
0.94053138270992
0.93974109111766
0.93900468539753
0.93831732281611
0.93767119509886
0.93705633401817
0.93646137400236
0.9358739273812
0.93528073196757
0.93466617251639
0.93401009823422
0.93337856546142
0.93257143958298
0.93163569376517
0.93053814043659
0.92926795686261
0.92785938846472
0.92640464032502
0.9250434726929
0.92389617214412
0.92302533791474
0.92242876497292
0.92205849598033
0.9218500906813
0.92174422674523
0.92169582198078
0.92167518176712
0.92166541496856
0.92165841919001
0.92165101938134
0.9216422921151
0.92164100161302
0.92162997542817
0.92161909650408
0.92160939579047
0.92160194857722
0.92159768712794
0.92159687187276
0.92160009839227
0.9216075159172
0.92161834855376
0.92162980866423
0.92163856814081
0.92164228415613
0.92163844524326
0.92161976453721
0.92158055490477
0.92151478519019
0.92141633220301
0.92127934299362
0.92109836417185
0.92086846359101
0.92058637818505
0.92025000216479
0.91985447896623
0.91939322611905
0.91885847995721
0.91824082422094
0.9175290469212
0.91670792846063
0.91576364756598
0.91467424797349
0.91342232180999
0.91201924019794
0.91051864355369
0.9091326699973
0.90859961698316
0.96380246653148
0.97270465963049
0.97403418511693
0.97480499395509
0.97539465545454
0.97586256685003
0.97622410229488
0.97647122353544
0.97659251623032
0.97659790441662
0.97649398714727
0.97624558564144
0.9758974773486
0.9754693337983
0.97493652627405
0.97431029784079
0.97361201942041
0.97285634377537
0.97205424833272
0.97121999657157
0.97036653051447
0.96950445306844
0.96864215415811
0.96778759578685
0.96694622817874
0.96612220018142
0.9653185695529
0.9645373055741
0.9637795580511
0.96304583984899
0.96233620891265
0.96165038004852
0.96098781026266
0.9603478485639
0.95972977032867
0.95913272547646
0.95855581812645
0.95799818241907
0.95745896447102
0.9569373269447
0.95643246109725
0.9559435779457
0.9554699381623
0.95501083709227
0.95456558741625
0.95413354243991
0.95371408330155
0.95330662410784
0.95291061688383
0.95252553407963
0.95215088683672
0.95178620757276
0.9514310563682
0.95108502172441
0.9507477124412
0.95041875805915
0.9500978061278
0.94978452753079
0.94947861153625
0.94917976276428
0.9488877020971
0.9486021661671
0.94832290698064
0.94804969093936
0.94778229635404
0.94752051684402
0.9472641759644
0.94694196222702
0.94522186850785
0.94408971000771
0.94310654598246
0.94217033101636
0.94128343930111
0.94044984777762
0.9396708242436
0.93894440453865
0.93826551063165
0.93762651641841
0.93701798201541
0.93642931086401
0.93584900153507
0.93526470819314
0.93466193439687
0.93402184345474
0.93340888303504
0.93262906068523
0.93172838080154
0.93067276584219
0.92944678091821
0.92807583211662
0.9266409033672
0.92527503322226
0.92410260500426
0.92319478725961
0.92255899694207
0.92215449408294
0.92192034177146
0.92179770705561
0.9217402360464
0.92171610086073
0.92170618876464
0.92170053875035
0.92169476716491
0.92168727323618
0.92168822436714
0.92167661432463
0.9216638946027
0.9216511795182
0.92163963707928
0.92163050934126
0.92162489356552
0.92162322127884
0.92162570648271
0.92163230962557
0.92164000039034
0.92164474046722
0.92164414654319
0.92163033824694
0.92159410316902
0.921525303071
0.92141250269087
0.9212434876665