/*--------------------------------*- C++ -*----------------------------------*\
| =========                 |                                                 |
| \\      /  F ield         | OpenFOAM: The Open Source CFD Toolbox           |
|  \\    /   O peration     | Version:  2312                                  |
|   \\  /    A nd           | Website:  www.openfoam.com                      |
|    \\/     M anipulation  |                                                 |
\*---------------------------------------------------------------------------*/
FoamFile
{
    version     2.0;
    format      ascii;
    arch        "LSB;label=32;scalar=64";
    class       volScalarField;
    location    "0.00014";
    object      Ybar.Liq;
}
// * * * * * * * * * * * * * * * * * * * * * * * * * * * * * * * * * * * * * //

dimensions      [0 0 0 0 0 0 0];

internalField   nonuniform List<scalar> 
109340
(
0.99909186299319
0.99908822235759
0.99908125735372
0.99907276007991
0.99906328460088
0.99905330690117
0.99904300977671
0.99903246252798
0.99902166235679
0.99901012812152
0.99899702743248
0.99898144016027
0.99896224409774
0.99893808103914
0.99890733435386
0.99886809276534
0.99881808446103
0.99875459040863
0.99867431757669
0.99857322839696
0.99844629855924
0.99828721797248
0.99808798017749
0.99783832700305
0.99752495878329
0.99713042353453
0.99663147565378
0.99599658542768
0.9951819938424
0.9941251669646
0.99273335151085
0.99086227383086
0.98827382493566
0.98454709515279
0.97888136348705
0.96963545356916
0.99909240660872
0.99908773440296
0.99907991210567
0.99907082632285
0.99906105556798
0.99905101952256
0.99904083890322
0.99903046869625
0.99901961461941
0.9990077646618
0.99899415856577
0.99897783309374
0.99895760537898
0.99893205232666
0.99889948526619
0.99885790352302
0.99880493660033
0.99873773756787
0.99865284700212
0.99854600723329
0.99841190884825
0.99824386539115
0.99803337232164
0.99776950422995
0.99743805688873
0.99702032687511
0.99649130145411
0.99581688087075
0.99494942908481
0.99382029753887
0.99232652271901
0.99030549062093
0.98748268845317
0.98335679176837
0.97691605078411
0.96596887178313
0.99909443079999
0.99908903392528
0.9990804320851
0.99907113472102
0.99906144888518
0.99905155903924
0.99904143761999
0.99903105061602
0.99902018680208
0.99900834581997
0.99899477746507
0.99897851435144
0.99895836837775
0.99893291302543
0.99890045848264
0.9988590079398
0.99880619059038
0.99873916278398
0.99865446773629
0.99854785194459
0.99841400692132
0.99824624674214
0.99803606729802
0.99777254064202
0.99744145949217
0.99702411371601
0.99649548125767
0.99582145275764
0.99495438690656
0.99382562304945
0.99233214131475
0.99031094120097
0.98748457235861
0.98333547735505
0.97677101894439
0.96514837893225
0.99909724116048
0.99909075384893
0.99908173332317
0.99907218639684
0.99906232351857
0.99905223540836
0.99904195103227
0.99903145863613
0.99902054194571
0.99900869866081
0.99899517879076
0.99897900969441
0.99895899611531
0.99893370532636
0.99890144000917
0.99886019488809
0.9988075911311
0.99874077527366
0.99865627442548
0.998549817396
0.99841605734637
0.99824825944251
0.99803784844958
0.99777379192848
0.99744174024262
0.99702277530106
0.99649158083344
0.99581362719333
0.99494066716143
0.99380313682377
0.99229658520683
0.99025551895803
0.98739533380048
0.98317143023651
0.97635981960177
0.96347638913455
0.99910165615049
0.99909325713716
0.99908294093881
0.99907275252055
0.99906262646225
0.99905244237015
0.99904212849105
0.99903165586039
0.99902079628296
0.99900904326484
0.99899565147858
0.99897964067312
0.99895979523435
0.99893465116111
0.99890246450226
0.99886116239137
0.99880827310396
0.99874081721005
0.99865510246929
0.99854664136441
0.99840971108529
0.99823708584024
0.99801951147991
0.9977449985963
0.9973978871541
0.99695741528042
0.99639568698888
0.99567452886732
0.99474048004325
0.99351635369354
0.99188603307417
0.98966626499011
0.98653864634694
0.98188207814649
0.97420955779863
0.95829896194863
0.99910982569426
0.99909453091606
0.9990831276917
0.99907268105969
0.99906249714711
0.99905229093861
0.99904196138606
0.99903141253209
0.99902028396714
0.9990078603246
0.9989931079398
0.99897466687614
0.9989508389406
0.99891955458775
0.99887831683569
0.99882411727009
0.99875331692484
0.99866151713899
0.99854344305425
0.99839178637871
0.99819750718958
0.99794898225683
0.99763113180187
0.997224251467
0.99670239335007
0.9960310432898
0.99516374214261
0.99403694539036
0.99256185470909
0.99061067274715
0.98799137792693
0.98440519006818
0.97932953086975
0.97174547426839
0.95914620441616
0.93100850423973
0.95371871279957
0.92702535831671
0.88604297043987
0.83038816013365
0.76258978390009
0.68533809363585
0.60194709451133
0.51610055097743
0.43177229027793
0.35286187481146
0.28131125200233
0.22147229573378
0.17260065979474
0.13365800493377
0.10366793663251
0.080734779653873
0.063349299802258
0.050172989819741
0.040127339182949
0.032455430457611
0.026559710902425
0.02196011108863
0.01834028360183
0.015470105549219
0.013158911459843
0.011278579611853
0.0097741061837336
0.0085070082524196
0.0074365086042459
0.0065805327976671
0.0058135515019008
0.0052036766107286
0.0046439570055923
0.0041930471387581
0.0037766000616176
0.0034353639376271
0.003118278427592
0.002856029358466
0.00260906346758
0.0024047739597947
0.0022092842084851
0.0020474177316552
0.001891100731791
0.0017604277629242
0.0016349675768762
0.0015269620633392
0.0014264336506674
0.0013351806753958
0.0012531376473985
0.0011764214879105
0.0011072911477902
0.0010432567515777
0.0009846401233448
0.00093058475810048
0.00088070654782324
0.0008345305135833
0.00079172813295415
0.00075197424010631
0.00071501035295107
0.00068058454890064
0.0006484750365273
0.00061847884415323
0.00059042197306406
0.00056414839538321
0.00053951551668097
0.00051638201040967
0.00049463486074967
0.0004739361162728
0.00055583633091395
0.0024785005929343
0.0030243481257881
0.0029968702897267
0.002948394664933
0.0029063274469422
0.0028715541775901
0.0028439292934882
0.0028230042624309
0.0028077988390415
0.0027967705375896
0.0027879146890416
0.0027788488525275
0.0027674122150824
0.0027521275199345
0.0027322361800634
0.002703785402622
0.002673420669854
0.0026376214910879
0.0025960069118555
0.0025498849284483
0.0025016571489208
0.0024554237006489
0.0024149175110378
0.0023827411442422
0.0023588285424263
0.0023415574911873
0.0023288357034592
0.0023189247181847
0.0023106149503706
0.0023035024789146
0.0022975235805739
0.0022928218158112
0.0022894941328462
0.0022875047541516
0.0022869207307516
0.0022877229548017
0.0022899280953807
0.0022932490049617
0.0022975587649155
0.0023027239033944
0.0023085755976293
0.0023148946887777
0.0023214575477157
0.0023281087503992
0.0023347732236792
0.0023414648142647
0.0023482356045156
0.0023551634889675
0.0023627739074903
0.0023694381060842
0.0023765145808026
0.0023833421185307
0.0023902332178932
0.00239698047641
0.0024035544529828
0.0024098731688205
0.0024158888357218
0.0024216100437084
0.002427090561526
0.0024323876288932
0.0024375674806471
0.0024427128199753
0.0024478258592652
0.0024530328291141
0.0024581901631343
0.0024632134339183
0.0024680343365854
0.0024725657389071
0.0024778666927954
0.0024838717151048
0.0025252447731208
0.94598469153285
0.91181397508715
0.86109925285097
0.7962019979302
0.72094033926721
0.63831856690257
0.55283309022131
0.46839261734428
0.38859935631109
0.31609688172576
0.25256808891157
0.19877764338564
0.15590622937735
0.12173827696653
0.095036864586527
0.074524147294027
0.058821543922506
0.046833342257127
0.037664015046941
0.030608622526574
0.025138095793436
0.020861819818773
0.017483819997141
0.014787121532807
0.012616201370836
0.010851119142563
0.0094012165265675
0.0082040685146576
0.0072032283415449
0.0063628013200622
0.0056511598010611
0.005044467974763
0.0045249417835073
0.0040755112324301
0.0036867898761746
0.0033466798346377
0.0030496889921618
0.0027874311760762
0.0025564297939462
0.002350803705978
0.0021682271398767
0.0020047105821935
0.0018582360847433
0.0017264263085588
0.0016073876293367
0.001499861654194
0.001402005099284
0.0013132887388058
0.0012320947880342
0.0011581035284692
0.0010901024511825
0.0010277157952084
0.0009702410526142
0.00091726929279634
0.00086834812828944
0.00082305791706731
0.00078106423024266
0.00074205338020802
0.0007057594621357
0.0006719404172746
0.00064038600550484
0.00061090339432588
0.0005833194986452
0.00055747606571565
0.00053323091863867
0.00051045987715408
0.00048905171136831
0.00046868936781027
0.00080007823047792
0.002793644587302
0.0030269682398884
0.0029832209222883
0.0029361432282611
0.0028961831496345
0.0028634026329062
0.0028376847045209
0.0028184190391278
0.002804483901251
0.0027941936218027
0.0027854527228719
0.002775870481757
0.0027634514888561
0.0027469184939477
0.0027256655197428
0.0027026836857437
0.0026721132276816
0.0026361654474666
0.0025944509713929
0.0025482373293099
0.0024999450875831
0.0024536831938166
0.002413196689112
0.0023810733575299
0.0023572572408426
0.0023401232382171
0.0023275676773379
0.0023178306924795
0.0023096995768871
0.0023027399703845
0.0022968896037036
0.0022922960160338
0.0022890563170709
0.0022871443879483
0.0022865850111332
0.0022874433467566
0.0022896986449233
0.0022930653820058
0.0022974173692452
0.0023026205675866
0.0023085045753745
0.0023148525813034
0.0023214442273127
0.0023281214156955
0.0023348152290485
0.0023415315354666
0.0023483096648928
0.0023552365240608
0.0023628232256799
0.0023695603825375
0.0023766690688376
0.0023835708324012
0.0023904947992162
0.0023972657455268
0.0024038574155094
0.0024101783709817
0.0024161913745922
0.0024219049468389
0.0024273730886141
0.0024326514908038
0.0024378073690485
0.002442922236771
0.0024479891352775
0.0024531459606263
0.0024582329072343
0.002463168245519
0.0024678835697493
0.0024722699200415
0.0024771633414145
0.0024825127163152
0.0025227236327856
0.94177234504893
0.89869595784082
0.83690303922645
0.7594951157431
0.67576309768799
0.58942220431455
0.50441775454289
0.4242514154845
0.35123878600348
0.28581295093862
0.23083918397376
0.18417020632682
0.14581627670244
0.11505162529994
0.090689878390172
0.071657200723815
0.056933620758487
0.045595674811537
0.036841642616971
0.030043101452604
0.024741678949505
0.020581170861587
0.017280435104317
0.014637265059025
0.012505046274497
0.0107671989088
0.0093371736105462
0.0081529638585604
0.0071649754896447
0.0063315458717646
0.005626499121565
0.0050243144528931
0.0045082044698453
0.0040621807195867
0.0036752898978814
0.0033375276002054
0.0030416690565397
0.0027810282821557
0.0025507375770118
0.0023461628316351
0.0021641925674855
0.0020012126273616
0.0018553195986793
0.0017237372494113
0.0016052797396621
0.0014977814331296
0.0014004240207663
0.0013116855643185
0.0012308194573155
0.0011568292370182
0.0010890235503017
0.0010267618909597
0.00096939564703134
0.00091650228445585
0.00086762069399838
0.00082239464331084
0.00078045909933721
0.00074150417609919
0.00070525656884076
0.00067147889120187
0.00063996161913856
0.00061051318202044
0.00058295909493908
0.00055714196795762
0.00053292209796306
0.00051017159571702
0.00048878195431408
0.00046851968225814
0.00081720552713032
0.002803524883027
0.0030273104144868
0.0029832031623199
0.0029362095992581
0.0028963023906515
0.0028635543133427
0.0028378488800638
0.0028185791605808
0.002804623647882
0.0027943036222466
0.0027855275236573
0.0027759152601769
0.0027634764397602
0.0027469359399718
0.002725675166483
0.0027027042445837
0.0026721689226237
0.0026361846864745
0.0025945558014268
0.0025483772276302
0.0025000688463668
0.0024537189930935
0.0024131532997893
0.002380915130901
0.0023569929226884
0.0023397808748823
0.0023271844818882
0.0023174230610575
0.0023093251522914
0.0023023975181335
0.0022965863620708
0.0022920240820643
0.0022888098733043
0.0022869402719757
0.0022863337584719
0.0022872153596947
0.0022895039643024
0.0022929073564229
0.0022972977640362
0.0023025390652845
0.0023084566595311
0.0023148361297159
0.0023214609227689
0.0023281732791909
0.0023349115712175
0.0023416720715491
0.0023484925339142
0.0023553600909187
0.0023629085915387
0.0023697557598922
0.0023768328987059
0.0023837462499852
0.0023906486151077
0.0023974085352834
0.0024039595635691
0.0024102227713741
0.0024161683546826
0.0024218088776858
0.002427197495337
0.0024323976236083
0.0024374731648315
0.0024424875410623
0.0024474397855023
0.0024524677078137
0.0024573859539528
0.0024621557101227
0.0024666770181323
0.002470805638448
0.0024748921070545
0.0024803435496274
0.0025201416457213
0.93235673533985
0.86896049468028
0.78451892130928
0.68975008217764
0.5961910125267
0.50992016670687
0.43159088093145
0.36228864350441
0.30132407480406
0.2479527772917
0.20382214222062
0.16548873144033
0.13316302200053
0.10659219586159
0.085041635225998
0.067942907553666
0.054484958583223
0.043942058718461
0.035711723575802
0.029278255670032
0.024213022627537
0.020193958536784
0.017000075644271
0.014434195314789
0.012351034574315
0.010648924652482
0.0092477784502651
0.0080831011455638
0.0071087055311536
0.0062878392619419
0.0055907745237203
0.0049956781499809
0.0044841825510663
0.0040427669735911
0.0036587881238998
0.0033241112155968
0.0030301556064609
0.0027715262599645
0.0025424872319176
0.0023394252741656
0.0021581856882205
0.0019962740469961
0.0018508850951405
0.0017200672541151
0.001601936988193
0.0014949405478092
0.0013978941451437
0.0013094521271464
0.0012288566173217
0.0011550385228583
0.0010874587448746
0.0010253273378567
0.00096815027810209
0.00091537366488794
0.00086659541570751
0.00082145674426357
0.00077959877219614
0.00074071878968884
0.00070454049880297
0.00067082758081349
0.00063936542604312
0.00060996361211908
0.00058245054091986
0.00055667261354286
0.00053249051875389
0.00050977433314577
0.00048841180155127
0.00046819839364734
0.00084371946357532
0.0028158768833517
0.0030276534560547
0.0029831700839422
0.0029362865542255
0.0028964610562473
0.0028637589406618
0.0028380718207534
0.0028187950121878
0.0028048122616562
0.0027944468089773
0.0027856183831677
0.0027759621553669
0.0027634971771358
0.002746948121947
0.0027256959942263
0.0027027580641138
0.0026722909743932
0.0026363564787639
0.0025948376031742
0.0025487242530241
0.0025004257768496
0.0024540108579211
0.0024133205478494
0.0023809195551741
0.0023568395815909
0.0023395023633429
0.0023268172332591
0.002317002944911
0.0023088935687974
0.0023019827029248
0.0022962027696582
0.0022916708601582
0.0022884777006581
0.0022866234943704
0.0022860333253714
0.0022869154424921
0.0022892436502816
0.0022926928892126
0.0022971315716575
0.0023024200935753
0.002308377793793
0.0023147935335676
0.0023214589382123
0.0023282226233805
0.0023350181061427
0.0023418354646594
0.0023487121473749
0.002355639869402
0.0023631192440834
0.0023700196844443
0.0023771265425382
0.002384066809465
0.0023909790685812
0.0023977225331273
0.0024042255717238
0.0024104171335373
0.0024162703337865
0.0024218000852361
0.0024270707207317
0.0024321428781595
0.0024370772439731
0.0024419287401509
0.0024466842205458
0.0024514885360354
0.0024561211841666
0.0024605854240971
0.002464794189595
0.0024685728491305
0.0024722603981855
0.002477556676544
0.0025158681429939
0.90082081889578
0.78444251104713
0.66063618994208
0.55539635131325
0.46999935774391
0.39982286554514
0.34168952273173
0.29143679093284
0.2477683577552
0.20946763088623
0.17520241539401
0.14503069662619
0.1189677696594
0.096898527926375
0.078572727054477
0.063588104063602
0.051542832129873
0.041957726398404
0.034353177933
0.028322940749292
0.023536597725157
0.019723605764303
0.016651541748568
0.014172109804164
0.012156144725353
0.010502158194623
0.0091327310639556
0.0079935318316833
0.0070380674008298
0.0062313543350015
0.0055452058488415
0.0049587209810273
0.0044538681386647
0.0040173870743802
0.0036380084437505
0.0033065518417751
0.0030154821198481
0.0027590414070871
0.0025320363928491
0.002330401231728
0.0021505172184165
0.0019896830402674
0.0018451713378004
0.0017151371478664
0.0015975828205777
0.0014912058478338
0.0013945254427226
0.0013065350923018
0.0012262116968186
0.0011527232088161
0.0010853675233524
0.0010234398278131
0.00096645539724968
0.00091385495232052
0.00086524208095918
0.00082021673305755
0.00077846409259017
0.00073968143017933
0.00070359636743964
0.00066996662828745
0.00063857606886215
0.00060923670183513
0.00058178034142436
0.00055605495094722
0.00053192074746853
0.00050925124106794
0.00048792567146852
0.00046790691525849
0.00087981312873677
0.0028312098408243
0.0030279826679616
0.0029831167631314
0.0029363708703399
0.0028966477853904
0.0028640043186866
0.0028383411836203
0.0028190561508543
0.0028050351437034
0.0027946077357359
0.002785709626684
0.0027759952856961
0.0027634941166704
0.0027469353056518
0.0027257072915695
0.0027028269342469
0.0026724590834092
0.0026366220217464
0.0025952397589622
0.0025492254324479
0.0025009438461894
0.0024544403108096
0.0024135642431885
0.002380929286203
0.0023566215761822
0.0023391031669496
0.0023263011747669
0.0023164311752061
0.0023083219044267
0.0023014453511954
0.0022957148682659
0.0022912274954966
0.0022880639275008
0.0022862278412324
0.0022856537956639
0.0022865386533909
0.0022889200157271
0.002292423559525
0.0022969190655925
0.0023022633958879
0.0023082708046269
0.0023147325639818
0.0023214483689317
0.0023282733332208
0.0023351398913928
0.0023420327823404
0.0023489749400739
0.002355953952095
0.0023633891031451
0.0023703500446342
0.0023774591629095
0.0023844160112946
0.0023913177890881
0.0023980140161265
0.0024044370527278
0.0024105199767429
0.0024162338378904
0.0024215982367047
0.0024266854821529
0.0024315534600633
0.0024362628354691
0.0024408557538815
0.0024453122828943
0.0024497774348752
0.0024540123140351
0.0024580463323199
0.0024617706463912
0.002465003888578
0.0024679889367323
0.0024724696744419
0.0025085715221289
0.67670991549254
0.48918904417422
0.41010032273302
0.36185913327104
0.32149970337006
0.28714181334365
0.25510450376055
0.22592996196019
0.19793872450302
0.17180548101982
0.14721392751608
0.12475414565799
0.10455656977858
0.086797488211264
0.071587453881881
0.05881942188265
0.048284259740407
0.039708449536207
0.032788887066431
0.027225853314038
0.022754095051479
0.019150595300644
0.016240349687479
0.013865539580705
0.011922467284725
0.010322681439107
0.0089965274980837
0.0078857927824675
0.006952330531
0.0061627658103226
0.0054904528528472
0.0049135279212061
0.0044170596677399
0.0039870113611374
0.003612668917738
0.0032851868895881
0.0029977224239652
0.0027439457800405
0.0025192163519987
0.0023194031400087
0.002141206046246
0.0019815629271776
0.0018381930897665
0.0017090288848103
0.001592300981559
0.0014865369462222
0.001390400847078
0.0013029012604896
0.0012229695673446
0.0011498534377451
0.0010827586851239
0.0010211116652698
0.00096434452815123
0.00091196228614493
0.00086353633480341
0.00081867051501816
0.00077706116235253
0.00073840105071389
0.00070242531387187
0.0006688915588221
0.00063759035228149
0.00060833349401663
0.00058094996117272
0.00055528673519679
0.00053120820429739
0.00050859302804409
0.0004873257750112
0.00046772142620475
0.00092698224568721
0.0028488644377312
0.0030283935721769
0.0029830641464435
0.0029364633600001
0.0028968542423074
0.0028642788900271
0.0028386425982728
0.0028193460328382
0.0028052748393132
0.0027947679930097
0.0027857822600209
0.0027759930732945
0.0027634442181328
0.0027468795552116
0.002725690273576
0.0027028982247329
0.002672658698475
0.0026369483306954
0.0025957233060393
0.0025498289973752
0.0025015726432297
0.0024549650656226
0.0024138723998791
0.0023809544885888
0.0023563695776499
0.0023386290570354
0.0023256799529144
0.0023157357021533
0.0023076162838728
0.0023007735416035
0.0022950961138458
0.0022906593496058
0.002287534313442
0.0022857220769134
0.0022851633803672
0.0022860673131205
0.002288505601144
0.0022920695737107
0.0022966306798375
0.0023020405478214
0.0023081085887051
0.0023146271854073
0.0023214052719346
0.002328306135767
0.002335261781119
0.0023422421867315
0.0023492691386837
0.0023563302168198
0.0023637438135236
0.0023707575380646
0.0023778890779954
0.0023848698609619
0.0023917447160533
0.002398372990558
0.0024046890629902
0.0024106231253318
0.0024161442859052
0.0024212723297363
0.0024260916792001
0.0024306504940392
0.0024350073461298
0.0024391876019801
0.0024431716661351
0.0024471115778213
0.002450721685251
0.0024540765205879
0.0024571095782645
0.0024595606399684
0.0024615640239767
0.0024648634170443
0.0024982406656972
0.022793548430062
0.15557642130343
0.19113141973844
0.20450825260591
0.2067208198114
0.20056309493235
0.18884896174564
0.17448322918289
0.15876375330277
0.14237947145159
0.1259084301088
0.10974696632167
0.094386057713535
0.080194688095308
0.06747191097959
0.056387456504339
0.046938271874917
0.039037451380235
0.032518184014889
0.027182450157588
0.022832893399486
0.019291053118596
0.016399637584353
0.014037698862241
0.012090506869836
0.010475517011667
0.0091347789672826
0.0080129774539341
0.0070670806194771
0.0062637961040116
0.0055804040262738
0.0049948586429765
0.0044895374364143
0.0040514308218514
0.0036704896797332
0.0033372970745238
0.0030443348417953
0.0027859892624708
0.0025572933769691
0.0023538962414526
0.0021724055761681
0.0020099515101123
0.001864110611744
0.0017326631774265
0.001613891750542
0.0015063038822398
0.0014085805704623
0.001319593596575
0.0012383226634059
0.0011639994151354
0.0010958336234444
0.0010332184852883
0.00097554239552498
0.00092234096336402
0.00087318947878532
0.00082768096965335
0.00078546980031811
0.00074624135272159
0.00070974776623258
0.00067574641865816
0.00064401937487388
0.00061436930760371
0.00058662286507628
0.00056062796691899
0.0005362434823071
0.00051334046245682
0.00049179939984093
0.00047127417230381
0.0006213561089611
0.0026385793662546
0.00302933068311
0.0029952492822455
0.0029475625281251
0.0029062542494843
0.0028720340539583
0.0028447383696087
0.0028239356544245
0.0028086392300147
0.002797329861736
0.0027880695727053
0.0027785919712252
0.0027668129829535
0.0027513164170239
0.0027313524538923
0.0027029404524727
0.0026728470673544
0.0026372936294823
0.0025962576715766
0.0025505176240046
0.0025023066293883
0.0024555770439506
0.0024142348312713
0.0023809767339915
0.002356055627392
0.0023380438915067
0.0023249158345947
0.0023148838206877
0.0023067546413455
0.0022999535234624
0.0022943390399055
0.002289964325336
0.0022868975334349
0.0022851549075489
0.0022846598670843
0.0022853201046038
0.002287870844053
0.0022915342336025
0.0022962097581876
0.0023017272034814
0.0023078939151651
0.0023145064850267
0.0023213864156068
0.0023284056634897
0.0023354918873304
0.0023426169507348
0.0023497782371675
0.0023569382977997
0.0023642994036122
0.0023713735541168
0.0023785393622116
0.0023855200427979
0.0023923066793199
0.0023987753186381
0.002404847820465
0.0024104548092852
0.0024155587173164
0.0024201736544379
0.0024244040325564
0.0024282854072846
0.0024318385581006
0.0024350405354869
0.0024378847468532
0.002440560568124
0.0024428116658557
0.002444693120679
0.0024462103049744
0.0024470072866825
0.0024470570178514
0.0024478638683867
0.0024762000920279
0.01007318984155
0.027125895605101
0.048426680592592
0.066202813689065
0.079691586136667
0.088658543590912
0.093330967081502
0.094491356770935
0.091880365807589
0.087355374592615
0.081370979287042
0.074283810734318
0.066644299556836
0.058845192857292
0.051261357037615
0.044198838396095
0.037831941454681
0.032239748132458
0.027432154328331
0.023358565782616
0.019936208925051
0.017076426261791
0.014690896878114
0.012698708227113
0.011033171121225
0.009637941589639
0.0084618845793251
0.0074634421370569
0.0066162704034275
0.0058928804533394
0.0052722555502691
0.0047354271128719
0.0042704262221784
0.0038657747557142
0.0035119299675915
0.0032005431761816
0.0029261764200715
0.0026834362173457
0.0024678055044006
0.0022753467102173
0.0021031957115626
0.0019487791539048
0.0018097783954115
0.0016842405508853
0.0015705620965046
0.0014674330192051
0.0013735869274681
0.0012879660540839
0.0012096644215239
0.0011379432380083
0.0010721084638971
0.0010115335457345
0.00095569148040183
0.00090412463122827
0.00085643558076156
0.00081225297425544
0.00077123830829307
0.00073309547125643
0.00069757068650532
0.00066444366888183
0.00063350872277343
0.00060458129440385
0.00057749432470628
0.00055209996321811
0.0005282617100341
0.00050586398907984
0.00048479140685043
0.00046643205950524
0.0011578712203488
0.0029123404427313
0.0030304505243185
0.0029830466199523
0.0029367062069826
0.0028974390626784
0.0028651009682456
0.0028395509592762
0.0028201796940718
0.0028058768091328
0.0027950134097257
0.0027856411806136
0.0027755272538423
0.0027628068199738
0.0027462529831164
0.002725239215199
0.0027028448329459
0.0026730939269098
0.0026379569881186
0.0025974070412775
0.0025520784314103
0.0025040203161719
0.0024570219665135
0.0024150955903788
0.0023810122403829
0.0023552588215772
0.0023365659057265
0.0023229824868004
0.0023127213917752
0.0023045561090201
0.0022978434636503
0.0022923720893008
0.0022881448589792
0.0022852075383255
0.0022835702470696
0.002283164025638
0.002283859687484
0.0022865982407547
0.0022904252349527
0.0022952759452028
0.0023009700137617
0.002307303896295
0.0023140836170624
0.0023211445837332
0.0023283743726594
0.0023357006435404
0.0023430812960974
0.0023504829410296
0.0023578315556039
0.0023652303315613
0.0023724375044273
0.0023796347034562
0.0023865139092819
0.0023930485325268
0.0023991066423827
0.0024045756184378
0.0024093834275799
0.0024134888754473
0.0024168649033658
0.0024195393500574
0.0024215790119701
0.0024230466033331
0.0024238533033369
0.0024240520950754
0.0024238539754231
0.0024229206593714
0.0024213013516561
0.0024187951616254
0.0024149864776737
0.0024098409936381
0.0024049202157105
0.0024249349071787
0.0079837254006975
0.011880632525082
0.019228270610275
0.028129966847825
0.036498104749439
0.043638027684568
0.049185230481688
0.05299284430629
0.055142228369419
0.055440003518175
0.054072987782629
0.051638433331262
0.048301694313434
0.044303653246061
0.03996140743719
0.035553751888746
0.031296635967506
0.027340126501455
0.023769368042954
0.020615769899118
0.017875062352379
0.015518141492058
0.013504223037843
0.011788566327232
0.010328167238161
0.0090851071236817
0.0080246776574334
0.0071178092526767
0.0063398528419077
0.0056689645772277
0.0050886084554499
0.0045852267314202
0.0041465761682191
0.0037631602330601
0.0034255759410311
0.0031280233884566
0.0028649165369837
0.0026314417854559
0.0024232306769167
0.0022370049155529
0.0020702049408015
0.0019202082438629
0.0017849133618039
0.0016624257382239
0.001551476243272
0.0014506175717867
0.0013587329199222
0.0012747584349197
0.001197896568095
0.0011274360919216
0.0010626845371146
0.0010030608265208
0.0009480369324202
0.00089721184427003
0.00085017300018807
0.00080655875789773
0.00076604820668811
0.00072835523630065
0.00069324783330209
0.00066049134039263
0.00062988387673798
0.00060124821729083
0.00057442445320997
0.00054927712668558
0.00052567103794717
0.00050347808003071
0.00048257943491426
0.00046613268939448
0.001384858304298
0.0029570672762447
0.0030316607166265
0.0029828120576918
0.0029365938850264
0.0028975739335433
0.0028654283233995
0.0028399338964871
0.0028204669368996
0.0028059276079471
0.002794723000342
0.0027849911638944
0.0027746069673629
0.0027617507929018
0.0027452115155453
0.0027243536858525
0.0027023492900471
0.0026730230886281
0.0026384335757795
0.002598522834941
0.0025537626175709
0.0025059688499716
0.0024587212399204
0.0024161239364383
0.0023810372849668
0.0023542456428335
0.0023346810169187
0.0023205000433207
0.0023099264865891
0.0023016914473125
0.002295068063626
0.0022897643478889
0.0022857239546507
0.0022829645286346
0.0022814890752018
0.0022812490850083
0.0022820349135619
0.0022850056478599
0.0022890243340693
0.0022940583514624
0.0022999449114387
0.0023064657714983
0.0023134315743292
0.0023206967177551
0.0023281640127341
0.0023357692145302
0.0023434458645227
0.0023511556773528
0.0023587382222825
0.0023662681943281
0.0023736093427868
0.0023807475881336
0.0023873935843597
0.002393436572292
0.0023986911400956
0.0024029779985928
0.0024061093454523
0.002408052118969
0.0024089117590979
0.0024087129735439
0.0024073919214849
0.0024049318748069
0.0024012532849701
0.0023963869895875
0.002390156406198
0.0023824413618038
0.0023735431920036
0.0023626346639554
0.0023497024519085
0.0023349909299644
0.0023209748744352
0.002331293830276
0.0063542847497845
0.008391850389603
0.010637573211875
0.015049214976643
0.01996877596248
0.02466790417564
0.028859582078212
0.032294585202146
0.03486579457203
0.036448914454655
0.036993416569413
0.036465372320921
0.035177835541097
0.03333480512088
0.030992556847806
0.028354731831316
0.025610788646563
0.022904413627846
0.020334843269695
0.017966543794432
0.015832147975523
0.013939404787283
0.01227861996171
0.010831961393844
0.0095770981605444
0.0084908026567669
0.0075513300129333
0.0067379444077249
0.0060323282401368
0.0054188273819573
0.004884125838533
0.0044166989322647
0.0040064133810195
0.0036452459230745
0.0033266710594622
0.0030447488765715
0.0027944436106434
0.0025708959984766
0.0023711549292935
0.0021922835457582
0.0020315202296057
0.001886637789207
0.0017554602497639
0.001636723436433
0.0015288808867258
0.0014307258390382
0.0013410730024148
0.0012590413575589
0.0011839254928318
0.0011149402669532
0.0010514889772719
0.00099296286928222
0.0009389354301912
0.00088899136527067
0.00084272420245271
0.00079978936192665
0.00075986312977188
0.00072270834594504
0.00068808220115377
0.00065576334817378
0.00062555412938448
0.00059727036631404
0.0005707679858189
0.00054591171986188
0.00052256736767467
0.00050061517718633
0.00047994883892913
0.00046611341135361
0.0016644145968195
0.0029948495767824
0.0030310235546391
0.0029817531617704
0.0029359424117787
0.0028972697352983
0.0028653614241665
0.0028399179647036
0.0028203141516395
0.0028054719664707
0.002793846718011
0.0027837003689827
0.0027729971320738
0.0027599751929474
0.0027434542811057
0.0027228022887871
0.0027012712315739
0.0026724641280458
0.0026385558546852
0.0025994437906596
0.0025554284348039
0.0025080529116651
0.0024606343469957
0.0024173226302604
0.0023810894599952
0.0023530677349628
0.0023324383895008