/*--------------------------------*- C++ -*----------------------------------*\
| =========                 |                                                 |
| \\      /  F ield         | OpenFOAM: The Open Source CFD Toolbox           |
|  \\    /   O peration     | Version:  2312                                  |
|   \\  /    A nd           | Website:  www.openfoam.com                      |
|    \\/     M anipulation  |                                                 |
\*---------------------------------------------------------------------------*/
FoamFile
{
    version     2.0;
    format      ascii;
    arch        "LSB;label=32;scalar=64";
    class       volScalarField;
    location    "0.00014";
    object      yPlus;
}
// * * * * * * * * * * * * * * * * * * * * * * * * * * * * * * * * * * * * * //

dimensions      [0 0 0 0 0 0 0];

internalField   uniform 0;

boundaryField
{
    inlet
    {
        type            calculated;
        value           uniform 0;
    }
    outlet
    {
        type            calculated;
        value           uniform 0;
    }
    nozzleWalls
    {
        type            calculated;
        value           nonuniform List<scalar> 
144
(
35.085926578683
34.672109116214
34.241712707703
33.817182609263
33.404897640981
33.006982327363
32.624187388663
32.256442441286
31.903754685807
31.566108601625
31.243597307647
30.936415530767
30.644854843549
30.369310281727
30.110282768391
29.868352129801
29.644129604071
29.437622913111
29.245888974565
29.06677077431
28.899990998076
28.74556417812
28.603567281203
28.47411324073
28.357457601955
28.254048200499
28.164633190144
28.090421926393
28.033353998225
27.996610252212
27.98592311405
28.010246074524
28.089016896332
28.269853027117
28.720870709286
30.877008806042
35.324866483434
34.987274162372
34.564693319911
34.134649128486
33.712847054437
33.304024001036
32.9098524764
32.530847440403
32.166860200062
31.817931283781
31.484055871794
31.165354933189
30.862047113844
30.574448965559
30.302983496063
30.048173148503
29.810613886122
29.590891638025
29.388435910447
29.19994929412
29.023919914017
28.860224012514
28.708895715974
28.570020878781
28.443736023695
28.330339874088
28.230344743262
28.144594259718
28.074450056271
28.022099226794
27.991175206165
27.988210540703
28.023703636151
28.121555925191
28.344138355392
28.943416113823
35.177644539511
34.77882099695
34.349203903702
33.922299500745
33.506674275333
33.105050744023
32.718456084116
32.346969607685
31.990517432728
31.649106706653
31.322797162071
31.011759467996
30.71626054107
30.436668637296
30.173460655154
29.927197927238
29.698495893656
29.48770597375
29.292608532048
29.110392141169
28.9405297324
28.783009372363
28.637895701291
28.505289343972
28.385401503328
28.278623774547
28.185618721501
28.107459177595
28.045867974426
28.003645035811
27.985711617603
28.000084126218
28.062445296598
28.209984246186
28.559329572307
29.829496332757
35.260045480585
34.88423455044
34.456971579837
34.028145608973
33.609333354192
33.204070579142
32.813671054638
32.438439787429
32.078219181972
31.733048214233
31.402951168802
31.088074329866
30.788660387916
30.505051514398
30.237697301497
29.987141580384
29.753992575519
29.538761139998
29.340116771234
29.154784553635
28.981839488443
28.821229784928
28.673005660185
28.537260044492
28.414163435085
28.304058397532
28.207529266147
28.125527217797
28.059583968296
28.012171294365
27.987442448577
27.99284410822
28.040914590264
28.161311605079
28.437932267588
29.279168296956
)
;
    }
    tipWalls
    {
        type            calculated;
        value           nonuniform List<scalar> 
304
(
9.2155812589757
3.0160060533153
4.5514970791459
4.870368341908
4.7576865060207
4.4720078990256
4.0512301781615
3.3643610036963
2.3234152418484
1.2582496425835
0.3306407225869
0.58241447590835
0.57488468535507
0.51065190311265
0.44570225501645
0.39243786869579
0.35181566599181
0.32027646307798
0.29450078286499
0.27246696207199
0.2530858997894
0.23590890575064
0.22054320478051
0.20676386911209
0.194474847219
0.18353173776418
0.17377891411006
0.16506464315032
0.15724094854564
0.15017938112418
0.14377981912884
0.13796643618441
0.13268000529201
0.12786998390612
0.12348928350055
0.11949188389889
0.11585659853043
0.11253680978559
0.1094878858716
0.10665740055679
0.10399349775442
0.10145663843486
0.099034044302015
0.096731331750472
0.094565114096097
0.09256326420357
0.090722141821531
0.089061382668568
0.087578348570663
0.086261584970097
0.085078434405402
0.083989131970687
0.0829484736296
0.081926070118402
0.080876586192464
0.079777672124108
0.078619767191687
0.077404317641062
0.076154093867825
0.074916796344331
0.073734993973456
0.072642559752195
0.071673919001468
0.070933451512597
0.071482681234075
0.13802536674252
0.13663923723431
0.13486326789521
0.13332368479482
0.13196634928692
0.13075729524522
0.12963561838241
0.1285825825764
0.1276583041672
0.12702835288718
0.12735469809523
0.13073324143637
0.24326460759051
0.24247939198544
0.24008194898653
0.23748793006219
0.23518899858845
0.23329854572151
0.23180444900017
0.23070420765208
0.22996863175182
0.22957762303733
0.22949567713459
0.22970618973897
0.23035859721377
0.23160431902411
0.2336804454542
0.23682469271831
0.24130117362861
0.24650792380663
0.24947450614979
0.24074879099652
1.5740097731486
4.0288122047288
4.7964331134321
4.8439659846102
4.628636801032
4.2832993523334
3.7517294893717
2.8871220823961
1.7550469747568
0.79994165540592
0.48141593626965
0.59375645566303
0.54689616597806
0.47647639368512
0.41763594301947
0.37077357304744
0.33509439164072
0.30685698849196
0.28311898643884
0.26247189474601
0.24424759821171
0.22801682401063
0.21345895873201
0.20044244342811
0.18884481226769
0.17851603722558
0.16930147098048
0.16105013808525
0.15362178095354
0.14690210404583
0.1408038109869
0.13526068182929
0.13021832623377
0.12562981127922
0.12144244318369
0.11763220449984
0.1141598517607
0.1109816396185
0.10804872746204
0.10530774937104
0.10271039725105
0.10023107430873
0.097866800316382
0.095629871197011
0.093543871806523
0.091620489908541
0.089869179797854
0.088298125978124
0.086900744061829
0.085655670908569
0.08452481218602
0.083465554879332
0.082435982404418
0.081406942359837
0.080334005105561
0.079206353361371
0.078018495421634
0.076780736810338
0.075530930137445
0.074316706248828
0.073175669422605
0.07213989097417
0.071258676752466
0.070803122890979
0.071346179575559
0.13761168196925
0.13572484920696
0.13406713747798
0.13262494288545
0.13134488768389
0.13019020123774
0.12910084897822
0.12808966462222
0.12729306196249
0.1270110318498
0.12836270719955
0.13072845807015
22.548839262413
2.1328280684389
4.3294816241878
4.8492711911634
4.807072886734
4.5534050472882
4.1742686453326
3.5718084642398
2.6127454557344
1.4940052461518
0.5612150061452
0.54789094652813
0.5870595579799
0.52900367751749
0.46024404170667
0.40479326103555
0.36101169267851
0.32745533832619
0.30054675490698
0.27771245807799
0.25770593086921
0.24002074271277
0.2242307480614
0.21006341946352
0.19741514470771
0.18614978454729
0.17611380656676
0.16715415535329
0.15912088317188
0.15187924681888
0.14532216234587
0.13936824232096
0.13395509756945
0.12903031344367
0.1245476682458
0.12045528385908
0.11673423543144
0.11333946460396
0.11022750756294
0.10734748912769
0.1046466002399
0.10207995933849
0.099628928226904
0.097294932351477
0.095092531601817
0.093049386325188
0.091165659252476
0.089459661426698
0.087932870605982
0.086576739020813
0.085363768090941
0.084255102349969
0.083206538515725
0.082181859867955
0.081143216327925
0.08005765188147
0.078914951644013
0.077712845648168
0.076467320569196
0.075222401147406
0.074023295564877
0.072905594785449
0.07190174087985
0.071081186158939
0.070939245468316
3.2889903314163
3.6217774883006
4.7002643988756
4.866070316964
4.6970959655557
4.3819720049034
3.9114210986953
3.1382291776797
2.032620077355
1.0324800563465
0.38192831797383
0.59320536466104
0.56125577030351
0.49399616150455
0.43111148761713
0.38115436965558
0.34320959489643
0.31343137733567
0.28869890128341
0.26739168260691
0.24860133174559
0.23190751931757
0.21695231929275
0.20355806454913
0.1916190837778
0.18098795366377
0.17150893042947
0.16303069344262
0.15540848351214
0.14852077119248
0.14227402860276
0.13659752805467
0.13143465736836
0.12673675058893
0.12245399916622
0.11855116931479
0.1149986774357
0.11175113207036
0.10876191271383
0.10597772562242
0.10334815454978
0.10084034109539
0.098446598654058
0.0961762578223
0.094048774644326
0.092086465460889
0.0902899906786
0.088674248696331
0.087234410988246
0.085954749901262
0.084799012632382
0.083726178730305
0.082691332579801
0.081667855013795
0.080606913907473
0.079493927782906
0.078320891320418
0.077093400082492
0.075841727278157
0.074614714480047
0.073452293269339
0.072387108994065
0.071458449568442
0.07082579059185
0.07298859107895
)
;
    }
    wedge1
    {
        type            wedge;
    }
    wedge2
    {
        type            wedge;
    }
    defaultFaces
    {
        type            empty;
    }
}


// ************************************************************************* //
