/*--------------------------------*- C++ -*----------------------------------*\
| =========                 |                                                 |
| \\      /  F ield         | OpenFOAM: The Open Source CFD Toolbox           |
|  \\    /   O peration     | Version:  2312                                  |
|   \\  /    A nd           | Website:  www.openfoam.com                      |
|    \\/     M anipulation  |                                                 |
\*---------------------------------------------------------------------------*/
FoamFile
{
    version     2.0;
    format      ascii;
    arch        "LSB;label=32;scalar=64";
    class       volScalarField;
    location    "0.003";
    object      alphat;
}
// * * * * * * * * * * * * * * * * * * * * * * * * * * * * * * * * * * * * * //

dimensions      [1 -1 -1 0 0 0 0];

internalField   nonuniform List<scalar> 
48128
(
8.98649e-09
2.36506e-08
3.33716e-08
3.11829e-08
3.01253e-08
2.53326e-08
2.17565e-08
2.3061e-07
1.04526e-06
2.53951e-06
4.12958e-06
5.59151e-06
6.90744e-06
8.08696e-06
9.15953e-06
1.0162e-05
1.11177e-05
1.20449e-05
1.29644e-05
1.38919e-05
1.48334e-05
1.57968e-05
1.67895e-05
1.78221e-05
1.89064e-05
2.00578e-05
2.12881e-05
2.26193e-05
2.40685e-05
2.56599e-05
2.73763e-05
2.92245e-05
3.123e-05
3.34064e-05
3.5763e-05
3.83204e-05
4.11409e-05
4.41785e-05
4.74591e-05
5.09448e-05
5.46646e-05
5.86138e-05
6.29057e-05
6.73348e-05
7.19585e-05
7.66003e-05
8.15863e-05
8.66113e-05
9.1683e-05
9.63934e-05
0.000101219
0.000105652
0.000110329
0.000114613
0.000119614
0.000125826
0.000131697
0.000137481
0.00014291
0.000148131
0.000153059
0.000157712
0.000162188
0.000166451
0.000170555
0.000174375
0.000177988
0.000181315
0.000175594
0.000168899
0.000162774
0.000157265
0.000152099
0.000147293
0.000142789
0.000138504
0.00013451
0.000130692
0.000127132
0.000123747
0.000120657
0.000117675
0.000114967
0.00011231
0.000109888
0.000107506
0.000105361
0.000103273
0.000101398
9.95632e-05
9.78915e-05
9.62424e-05
9.47293e-05
9.32683e-05
9.19229e-05
9.06607e-05
8.9457e-05
8.82932e-05
8.71656e-05
8.6116e-05
8.5111e-05
8.42021e-05
8.33653e-05
8.25992e-05
8.18739e-05
8.12091e-05
8.05864e-05
8.00137e-05
7.94635e-05
7.89494e-05
7.8454e-05
7.80191e-05
7.76361e-05
7.72739e-05
7.69356e-05
7.65613e-05
7.60923e-05
7.55972e-05
7.49253e-05
7.43989e-05
7.45891e-05
7.43181e-05
7.4028e-05
7.41303e-05
7.40851e-05
7.39906e-05
7.38687e-05
7.37061e-05
7.35371e-05
7.33902e-05
7.32707e-05
7.31682e-05
7.30706e-05
7.2951e-05
7.28308e-05
7.27067e-05
7.25984e-05
7.25086e-05
7.24269e-05
7.23316e-05
7.2245e-05
7.21678e-05
7.20961e-05
7.20098e-05
7.19205e-05
7.18042e-05
7.16839e-05
7.15268e-05
7.13972e-05
7.13972e-05
7.13083e-05
7.12035e-05
7.11547e-05
7.10886e-05
7.10437e-05
7.09932e-05
7.09447e-05
7.08922e-05
7.0843e-05
7.079e-05
7.07337e-05
7.06668e-05
7.05937e-05
7.05226e-05
7.04359e-05
7.03387e-05
7.02453e-05
7.01498e-05
7.00589e-05
6.99604e-05
6.98731e-05
6.983e-05
6.97738e-05
6.9728e-05
6.96883e-05
6.96714e-05
6.96545e-05
6.96486e-05
6.96407e-05
6.96231e-05
6.95939e-05
6.95521e-05
6.94991e-05
6.94326e-05
6.93648e-05
6.92951e-05
6.92209e-05
6.91505e-05
6.90922e-05
6.90421e-05
6.90014e-05
6.89674e-05
6.8951e-05
6.89382e-05
6.89251e-05
6.89161e-05
6.89093e-05
6.88949e-05
6.88665e-05
6.88309e-05
6.87798e-05
6.87239e-05
6.8667e-05
6.86091e-05
6.85531e-05
6.8507e-05
6.84655e-05
6.84294e-05
6.84045e-05
6.83829e-05
6.83672e-05
6.83571e-05
6.83483e-05
6.83342e-05
6.83164e-05
6.82843e-05
6.82554e-05
6.82214e-05
6.81411e-05
6.81003e-05
6.8061e-05
6.80122e-05
6.79711e-05
6.79344e-05
6.79054e-05
6.78825e-05
6.78616e-05
6.78414e-05
6.78246e-05
6.78106e-05
6.77968e-05
6.77736e-05
6.77508e-05
6.77204e-05
6.76538e-05
6.76209e-05
6.75803e-05
6.75302e-05
6.74875e-05
6.74342e-05
1.6165e-07
1.33213e-07
7.58441e-08
6.23421e-08
1.19004e-07
2.74959e-07
7.12173e-07
1.97517e-06
4.46952e-06
8.48702e-06
1.38503e-05
1.98001e-05
2.63846e-05
3.33035e-05
4.03897e-05
4.75086e-05
5.46924e-05
6.20208e-05
6.96294e-05
7.76742e-05
8.61456e-05
9.52939e-05
0.000105097
0.000115742
0.000127252
0.000139757
0.000153244
0.00016793
0.000183566
0.000201427
0.000220921
0.000241446
0.000263309
0.000286711
0.00031115
0.000333876
0.000358437
0.000384444
0.000411972
0.000440539
0.000470302
0.000501187
0.000534076
0.000566964
0.000600266
0.000632907
0.000668041
0.000703852
0.000741025
0.000775047
0.000810743
0.000843582
0.000878018
0.000909548
0.000939775
0.000968628
0.000994524
0.00101899
0.00104142
0.00106186
0.00108019
0.00109677
0.00111186
0.00112547
0.00113791
0.00114834
0.00115736
0.00116442
0.00117068
0.00117735
0.0011823
0.00118662
0.00118922
0.00118959
0.00118949
0.00118673
0.00118398
0.00117874
0.0011735
0.00116594
0.00115906
0.00115026
0.00114235
0.00113288
0.00112408
0.00111366
0.0011038
0.00109293
0.00108274
0.00107172
0.0010614
0.00105043
0.00103989
0.00102918
0.00101867
0.00100832
0.00099809
0.000987858
0.000977434
0.000967253
0.00095702
0.000947246
0.000937609
0.000928521
0.00091958
0.000911152
0.000902881
0.000895094
0.000887408
0.000880024
0.000872816
0.000865979
0.000859505
0.000853297
0.000847395
0.00084154
0.000834706
0.000827653
0.000819366
0.000812233
0.000808464
0.000802032
0.000796287
0.000793033
0.000789598
0.000786209
0.000783144
0.000779791
0.000776352
0.000773028
0.000769887
0.000766823
0.00076391
0.000760805
0.000757681
0.000754546
0.000751438
0.000748488
0.000745683
0.000742823
0.000740046
0.000737355
0.000734814
0.000732156
0.000729585
0.000726259
0.000722176
0.000718113
0.00071414
0.000709761
0.000705583
0.000701524
0.000697192
0.000693362
0.000689643
0.000686133
0.000682831
0.000679615
0.000676611
0.000673727
0.000670908
0.000668294
0.000665646
0.000663082
0.00066046
0.000657828
0.000655196
0.000652553
0.000649937
0.000647334
0.000644604
0.000642105
0.00063964
0.000637345
0.000635049
0.000633059
0.000631073
0.000629397
0.000627778
0.000626291
0.00062489
0.000623533
0.00062224
0.000620965
0.000619592
0.000618158
0.000616661
0.000615089
0.000613615
0.000611904
0.00061037
0.000608768
0.000607502
0.000606232
0.000605054
0.000603964
0.000602984
0.000602084
0.000601301
0.000600484
0.000599733
0.000598797
0.000598011
0.000597098
0.000596122
0.000595027
0.000593992
0.000592922
0.00059196
0.000591011
0.000590138
0.000589361
0.00058867
0.000588076
0.000587527
0.000587017
0.000586525
0.000585973
0.000585425
0.000584738
0.000584011
0.000583289
0.000582517
0.00058172
0.000580964
0.000580262
0.000579591
0.000578977
0.000578418
0.000577953
0.000577536
0.000577177
0.000576881
0.000576496
0.000576113
0.000575705
0.000575196
0.000574663
0.000574049
0.000573127
3.24382e-07
4.16979e-07
3.72729e-07
4.64729e-07
1.0572e-06
2.13433e-06
4.71454e-06
1.01268e-05
2.00304e-05
3.58182e-05
5.6437e-05
7.96876e-05
0.000103917
0.000127874
0.000150827
0.00017259
0.000193448
0.000213885
0.000233797
0.000254355
0.000275094
0.000296928
0.000319558
0.000343457
0.000368603
0.000395178
0.000423281
0.000453385
0.000484869
0.00051858
0.000554055
0.000591094
0.00062951
0.000669089
0.000709987
0.000750777
0.000793704
0.000838499
0.000885313
0.000933396
0.000982935
0.00103324
0.00108629
0.00113895
0.00119222
0.00124347
0.00129795
0.00135262
0.00140927
0.00146093
0.00151435
0.00156347
0.00161419
0.00166068
0.00170688
0.00175073
0.00179104
0.00182946
0.00186484
0.0018974
0.00192696
0.00195402
0.00197893
0.0020017
0.00202264
0.00204068
0.0020567
0.00206985
0.00208044
0.00209041
0.00209707
0.00210283
0.00210603
0.00210632
0.00210585
0.00210187
0.00209759
0.00208979
0.00208197
0.00207081
0.00206067
0.00204734
0.00203545
0.00202077
0.002007
0.00199065
0.0019752
0.00195815
0.00194211
0.0019246
0.00190807
0.00189035
0.00187323
0.00185577
0.0018386
0.00182159
0.00180452
0.00178722
0.00176956
0.00175214
0.0017346
0.00171776
0.00170109
0.00168521
0.00166944
0.00165441
0.00163952
0.00162534
0.00161119
0.0015975
0.00158391
0.00157103
0.00155859
0.0015467
0.001535
0.00152348
0.00150985
0.00149617
0.00148043
0.00146587
0.00145765
0.00144531
0.00143359
0.00142575
0.00141826
0.00141046
0.00140317
0.00139515
0.00138714
0.00137922
0.00137169
0.00136425
0.00135717
0.00134967
0.00134226
0.00133469
0.00132737
0.00132017
0.00131334
0.0013063
0.00129957
0.00129286
0.00128655
0.00127994
0.00127359
0.00126668
0.00125994
0.00125294
0.00124613
0.00124068
0.00123459
0.00122859
0.00122328
0.00121826
0.00121364
0.00120921
0.00120507
0.00120097
0.0011971
0.00119321
0.00118947
0.00118557
0.00118156
0.00117761
0.00117341
0.00116897
0.00116452
0.00116001
0.00115545
0.00115088
0.00114635
0.00114232
0.00113833
0.00113449
0.00113109
0.00112789
0.00112511
0.00112259
0.0011203
0.00111814
0.00111594
0.00111367
0.00111116
0.00110846
0.00110553
0.00110249
0.00109929
0.00109603
0.00109284
0.00108971
0.00108669
0.001084
0.00108163
0.00107948
0.00107753
0.00107583
0.00107433
0.00107293
0.00107145
0.00106987
0.0010681
0.00106613
0.00106408
0.00106188
0.00105961
0.00105731
0.00105508
0.0010529
0.00105103
0.00104931
0.00104782
0.00104657
0.0010455
0.00104447
0.00104354
0.00104249
0.00104143
0.00104014
0.00103849
0.001037
0.0010354
0.00103371
0.00103206
0.00103038
0.0010289
0.00102759
0.00102642
0.00102537
0.00102448
0.00102374
0.00102311
0.00102246
0.00102185
0.00102099
0.00101984
0.00101892
0.00101771
0.00101638
0.00101505
0.00101316
4.83517e-07
8.57254e-07
1.15982e-06
2.13054e-06
3.97831e-06
7.89591e-06
1.66211e-05
3.34958e-05
6.16032e-05
9.91383e-05
0.000143104
0.000187588
0.000229506
0.000267961
0.000303012
0.000335761
0.000365735
0.000394897
0.000423215
0.000452109
0.000481068
0.000511146
0.000542096
0.000574458
0.000608231
0.000643597
0.000680692
0.000719617
0.000759965
0.000802158
0.00084596
0.000891267
0.000937588
0.000985249
0.00103469
0.00108459
0.00113621
0.00118935
0.00124417
0.00130004
0.00135733
0.00141451
0.00147459
0.00153364
0.00159348
0.00165076
0.00171107
0.00177094
0.00183238
0.00188925
0.00194732
0.00200099
0.00205615
0.00210703
0.00215855
0.00220712
0.00225298
0.00229688
0.0023374
0.00237534
0.00241056
0.00244352
0.00247436
0.00250292
0.00252943
0.00255289
0.00257464
0.0025934
0.0026095
0.00262498
0.00263653
0.00264731
0.0026548
0.00265982
0.00266337
0.00266353
0.00266284
0.00265845
0.00265397
0.00264632
0.00263952
0.00262937
0.00262045
0.00260822
0.00259646
0.00258203
0.00256822
0.00255285
0.00253828
0.00252209
0.00250663
0.0024897
0.00247325
0.00245628
0.00243956
0.00242287
0.00240585
0.00238817
0.00237002
0.00235189
0.00233359
0.00231598
0.0022986
0.00228199
0.00226548
0.0022496
0.00223383
0.00221871
0.00220352
0.00218876
0.00217392
0.00215991
0.00214633
0.00213341
0.00212055
0.00210749
0.00209167
0.00207552
0.00205705
0.00203831
0.00202906
0.00201583
0.00200224
0.00199334
0.00198534
0.00197654
0.00196798
0.00195835
0.00194873
0.00193904
0.00192979
0.00192059
0.00191181
0.00190233
0.00189298
0.00188326
0.00187387
0.00186454
0.0018557
0.00184646
0.00183765
0.00182874
0.00182038
0.00181149
0.00180297
0.00179354
0.00178433
0.00177476
0.00176525
0.00175754
0.00174922
0.00174081
0.0017333
0.00172613
0.00171954
0.00171313
0.00170712
0.00170112
0.00169542
0.00168967
0.00168413
0.00167828
0.00167233
0.00166639
0.00166014
0.00165352
0.00164689
0.00164015
0.00163334
0.00162655
0.00161974
0.00161372
0.00160769
0.00160195
0.00159671
0.00159183
0.00158748
0.00158345
0.0015798
0.00157623
0.00157262
0.00156893
0.00156488
0.00156052
0.0015559
0.00155111
0.00154614
0.00154104
0.00153617
0.00153133
0.00152677
0.00152256
0.00151877
0.0015153
0.00151213
0.00150927
0.00150673
0.00150427
0.0015017
0.00149906
0.00149603
0.00149283
0.00148944
0.0014859
0.00148228
0.00147868
0.00147518
0.00147178
0.00146885
0.00146608
0.00146369
0.00146153
0.00145971
0.00145789
0.00145626
0.00145442
0.0014526
0.00145042
0.00144776
0.00144527
0.00144277
0.00144014
0.00143754
0.00143496
0.00143266
0.0014306
0.00142874
0.00142705
0.00142559
0.00142432
0.00142323
0.00142207
0.00142102
0.00141958
0.00141774
0.00141621
0.00141435
0.00141233
0.00141033
0.0014075
6.36566e-07
2.08745e-06
3.37022e-06
5.50547e-06
1.03006e-05
2.08316e-05
4.1708e-05
7.84914e-05
0.000129644
0.000188994
0.000249289
0.000305927
0.000357655
0.000404768
0.000447421
0.000486208
0.000522434
0.00055726
0.000591117
0.000625252
0.00065939
0.000694425
0.000730289
0.000767432
0.000805886
0.000845729
0.000887034
0.000929845
0.000973787
0.00101893
0.00106495
0.00111229
0.00116052
0.00120987
0.00126117
0.00131298
0.00136619
0.00142035
0.0014757
0.00153182
0.00158919
0.00164536
0.00170372
0.00175982
0.00181646
0.0018705
0.00192739
0.00198316
0.00203973
0.00209271
0.00213465
0.00216961
0.0022031
0.00223943
0.00228464
0.00231687
0.0023579
0.00239523
0.00243016
0.0024699
0.00250718
0.00255255
0.00259085
0.00263453
0.00266799
0.00270893
0.0027455
0.00278406
0.00282319
0.00285864
0.00287781
0.00289342
0.00290487
0.0029151
0.00292284
0.00292789
0.0029317
0.00293234
0.00293287
0.00293103
0.00292992
0.00292576
0.00292267
0.00291613
0.00290947
0.00290039
0.00289155
0.00288139
0.00287171
0.00286049
0.00284978
0.00283748
0.00282551
0.00281286
0.00280033
0.00278767
0.00277447
0.00276023
0.0027455
0.00273048
0.00271533
0.00270073
0.00268639
0.00267269
0.00265909
0.00264592
0.00263288
0.00262029
0.0026076
0.00259522
0.00258269
0.00257087
0.00255945
0.0025487
0.00253791
0.00252632
0.00251187
0.00249666
0.00247935
0.00246002
0.00245197
0.0024415
0.00242969
0.00242208
0.00241594
0.00240883
0.00240151
0.00239303
0.00238457
0.00237582
0.00236746
0.00235911
0.00235107
0.00234219
0.00233342
0.00232408
0.00231507
0.00230603
0.00229749
0.00228844
0.00227982
0.00227099
0.00226275
0.00225381
0.00224522
0.0022355
0.00222597
0.00221601
0.00220582
0.00219774
0.00218927
0.00218046
0.00217256
0.00216504
0.00215815
0.00215143
0.00214512
0.00213878
0.00213278
0.00212661
0.00212072
0.00211433
0.00210785
0.00210127
0.00209431
0.00208686
0.00207939
0.0020717
0.00206391
0.00205613
0.00204822
0.00204133
0.00203439
0.00202783
0.00202176
0.00201619
0.0020112
0.00200661
0.00200245
0.00199836
0.00199419
0.00198988
0.0019851
0.00197989
0.00197437
0.0019686
0.00196259
0.00195639
0.00195047
0.0019446
0.00193912
0.00193401
0.00192937
0.00192516
0.00192133
0.00191786
0.00191475
0.00191173
0.00190853
0.00190528
0.00190146
0.00189746
0.00189321
0.00188875
0.00188421
0.00187965
0.00187529
0.00187105
0.0018674
0.0018639
0.0018609
0.00185815
0.00185585
0.00185352
0.00185145
0.00184906
0.00184675
0.00184397
0.0018406
0.00183735
0.00183416
0.00183081
0.00182749
0.0018242
0.00182131
0.00181867
0.00181633
0.00181417
0.00181232
0.00181069
0.00180932
0.00180781
0.00180645
0.00180464
0.0018023
0.00180027
0.00179793
0.00179538
0.00179283
0.00178927
7.87579e-07
5.47425e-06
7.10967e-06
1.15605e-05
2.19419e-05
4.36956e-05
8.30764e-05
0.000141608
0.000210216
0.000282146
0.000351409
0.000415124
0.000473227
0.000525544
0.000572215
0.000615188
0.000655435
0.000693805
0.000731032
0.000768086
0.000805001
0.000842394
0.000880388
0.000919287
0.000959175
0.00100002
0.00104184
0.00108471
0.00112825
0.00117211
0.00121647
0.001262
0.00130805
0.0013549
0.00140294
0.00145103
0.00150002
0.00154959
0.00159945
0.00164966
0.00170077
0.00174984
0.00178447
0.00179767
0.00180673
0.00182439
0.00184348
0.00186182
0.00187801
0.00190535
0.00193326
0.00195917
0.0019937
0.00201828
0.00207296
0.0020976
0.00212574
0.00216713
0.00219038
0.00223257
0.00225894
0.00230383
0.00233424
0.00237543
0.00240314
0.00244183
0.00247486
0.00251288
0.00255018
0.00258508
0.00262483
0.00265588
0.00269085
0.00272699
0.00275928
0.00279388
0.00282481
0.00285607
0.00288752
0.00292208
0.0029528
0.00298619
0.00301163
0.00301207
0.00301179
0.00300945
0.00300713
0.00300374
0.00300055
0.00299605
0.00299173
0.00298568
0.00297992
0.00297335
0.00296671
0.00295969
0.00295202
0.00294302
0.00293356
0.00292353
0.00291345
0.00290373
0.00289424
0.00288522
0.00287629
0.00286759
0.00285903
0.00285068
0.00284224
0.00283387
0.00282533
0.00281724
0.00280952
0.00280242
0.00279514
0.00278643
0.00277519
0.00276289
0.00274899
0.0027318
0.0027258
0.00271979
0.00271201
0.00270682
0.00270339
0.00269935
0.00269472
0.00268903
0.00268334
0.00267715
0.00267124
0.00266529
0.0026595
0.00265287
0.00264632
0.00263909
0.00263214
0.00262506
0.0026184
0.00261124
0.00260445
0.00259735
0.0025908
0.00258346
0.00257636
0.00256811
0.00255991
0.0025513
0.00254214
0.00253515
0.00252814
0.0025206
0.00251382
0.00250744
0.00250167
0.00249608
0.00249086
0.00248559
0.00248064
0.00247542
0.00247049
0.00246492
0.00245928
0.00245338
0.00244706
0.00244017
0.0024332
0.0024259
0.0024185
0.00241106
0.00240335
0.00239677
0.00239017
0.002384
0.00237825
0.00237308
0.00236847
0.00236437
0.00236066
0.00235703
0.00235325
0.00234929
0.00234475
0.00233971
0.00233427
0.00232853
0.00232246
0.00231616
0.00231013
0.00230414
0.00229861
0.00229344
0.00228878
0.00228463
0.00228091
0.00227754
0.00227456
0.00227166
0.00226853
0.00226534
0.00226144
0.00225731
0.00225292
0.00224823
0.00224344
0.00223862
0.00223405
0.00222959
0.00222579
0.00222211
0.00221903
0.0022162
0.00221391
0.00221155
0.00220951
0.00220706
0.00220468
0.00220182
0.00219824
0.00219472
0.0021913
0.00218768
0.00218409
0.00218051
0.00217743
0.0021746
0.00217213
0.00216988
0.00216799
0.00216632
0.002165
0.00216347
0.00216208
0.00216026
0.00215778
0.00215556
0.00215304
0.00215029
0.00214749
0.00214365
1.00887e-06
9.51804e-06
1.24673e-05
2.13766e-05
4.09775e-05
7.80339e-05
0.000137437
0.000210584
0.000289638
0.00036875
0.000442909
0.000510898
0.000572965
0.000627496
0.000676971
0.00072258
0.00076514
0.000805473
0.000844342
0.000882469
0.000920181
0.000957859
0.000995699
0.00103397
0.00107279
0.00111202
0.00115159
0.00119172
0.00123192
0.00127197
0.00131191
0.00135239
0.00139271
0.00143341
0.00147489
0.00151592
0.00155703
0.00158282
0.0015899
0.00159221
0.00159219
0.00159769
0.00160369
0.00160619
0.00160787
0.00162439
0.0016405
0.00165631
0.0016732
0.00169075
0.00172847
0.00174766
0.00178594
0.0017994
0.00185175
0.00187023
0.00188034
0.00192016
0.00193358
0.00196848
0.00198514
0.00202346
0.00204497
0.00207853
0.00209882
0.00212924
0.0021548
0.00218623
0.00221561
0.0022454
0.00227903
0.00230814
0.00234051
0.0023743
0.00240857
0.00244161
0.00247462
0.00250672
0.002541
0.00257641
0.00261114
0.00264776
0.00268026
0.00271217
0.0027445
0.00277735
0.00280911
0.00283764
0.00286975
0.00289527
0.00292474
0.00295182
0.00296707
0.00296825
0.00296907
0.00296904
0.00296829
0.00296604
0.00296337
0.00295984
0.00295633
0.00295303
0.00294984
0.00294695
0.00294402
0.00294116
0.00293825
0.00293523
0.00293205
0.00292876
0.0029253
0.00292198
0.00291895
0.00291637
0.00291336
0.00290838
0.00290162
0.00289356
0.00288465
0.00287162
0.00286845
0.00286702
0.00286463
0.00286237
0.00286198
0.0028616
0.00286046
0.00285846
0.0028564
0.0028536
0.00285102
0.00284822
0.00284547
0.00284201
0.0028386
0.00283448
0.00283058
0.00282639
0.00282251
0.00281825
0.00281427
0.00280992
0.00280601
0.00280129
0.00279672
0.00279107
0.00278536
0.00277924
0.00277238
0.00276745
0.00276289
0.00275772
0.00275312
0.00274888
0.00274519
0.00274171
0.00273854
0.00273533
0.00273238
0.0027291
0.00272604
0.00272231
0.00271854
0.0027143
0.00270968
0.00270443
0.00269904
0.00269322
0.00268732
0.0026813
0.00267488
0.00266959
0.00266441
0.00265963
0.00265514
0.00265131
0.00264798
0.00264524
0.0026428
0.00264044
0.0026379
0.00263508
0.00263168
0.00262771
0.00262324
0.00261847
0.00261327
0.00260785
0.00260261
0.00259739
0.00259267
0.00258829
0.00258446
0.00258113
0.00257825
0.00257571
0.00257354
0.00257144
0.0025691
0.00256664
0.00256348
0.00255991
0.00255611
0.00255194
0.00254766
0.00254331
0.00253925
0.00253524
0.00253197
0.00252875
0.00252619
0.00252386
0.00252216
0.00252033
0.00251884
0.00251688
0.00251494
0.00251259
0.00250943
0.00250619
0.00250312
0.00249977
0.00249647
0.00249315
0.00249039
0.00248785
0.00248573
0.00248382
0.00248234
0.00248106
0.00248018
0.00247907
0.00247804
0.00247663
0.00247445
0.00247244
0.00247017
0.00246764
0.00246501
0.00246148
1.28809e-06
1.44293e-05
2.06057e-05
3.61288e-05
6.77649e-05
0.000122088
0.000195713
0.00027734
0.000362653
0.000445379
0.00052213
0.000593072
0.000656144
0.00071221
0.000763342
0.000810326
0.000853923
0.000894946
0.000934046
0.00097174
0.00100863
0.00104491
0.00108083
0.00111661
0.00115241
0.00118803
0.00122335
0.00125863
0.00129346
0.00132752
0.00136098
0.00139438
0.00142706
0.00145942
0.00145665
0.0014428
0.00142725
0.00142305
0.00142234
0.00141608
0.00140823
0.00141399
0.00141987
0.00142563
0.00143291
0.00144912
0.00147801
0.00149037
0.0015106
0.00151383
0.00155854
0.00157066
0.001602
0.00160884
0.00163814
0.00165591
0.00165352
0.00168222
0.00168768
0.00171147
0.00172193
0.00174771
0.00176358
0.00178926
0.001808
0.00183081
0.00185327
0.00187751
0.00190211
0.00192703
0.00195318
0.00197931
0.00200254
0.00203001
0.00205633
0.00208024
0.00210997
0.00213185
0.00216606
0.00218981
0.00222593
0.00225022
0.0022883
0.00230894
0.00235128
0.00237861
0.00242179
0.00244861
0.00249088
0.00251832
0.00255903
0.00258932
0.00262846
0.00265774
0.00269375
0.00271655
0.00274789
0.00277315
0.00280334
0.00282894
0.00285689
0.00286873
0.00287336
0.00287786
0.00288204
0.00288603
0.00288971
0.00289307
0.00289614
0.00289901
0.00290151
0.0029041
0.00290684
0.0029096
0.00291153
0.00291127
0.0029102
0.00290754
0.00290485
0.0028979
0.00289801
0.00290128
0.00290471
0.00290614
0.002909
0.00291247
0.0029154
0.0029176
0.0029197
0.00292084
0.00292208
0.00292288
0.00292366
0.00292397
0.00292423
0.00292382
0.00292352
0.00292277
0.0029222
0.00292141
0.00292082
0.00291978
0.00291904
0.00291753
0.00291613
0.00291375
0.00291125
0.00290829
0.0029046
0.00290228
0.00290076
0.00289864
0.00289689
0.00289535
0.00289432
0.00289352
0.00289298
0.00289242
0.00289207
0.00289134
0.00289075
0.00288952
0.00288828
0.00288635
0.00288415
0.00288127
0.0028782
0.00287464
0.00287103
0.00286718
0.00286287
0.00285963
0.00285661
0.00285391
0.00285143
0.00284963
0.00284824
0.00284744
0.00284689
0.00284635
0.00284567
0.00284464
0.00284307
0.00284084
0.00283807
0.00283498
0.00283148
0.00282766
0.00282395
0.00282024
0.00281707
0.0028142
0.00281186
0.00280996
0.00280856
0.00280744
0.00280668
0.00280596
0.00280503
0.00280391
0.0028021
0.00279979
0.00279723
0.00279428
0.00279119
0.00278796
0.00278506
0.00278217
0.00278004
0.0027779
0.00277642
0.00277516
0.00277456
0.0027738
0.00277338
0.00277245
0.00277149
0.00277021
0.00276804
0.00276566
0.00276349
0.00276099
0.00275855
0.00275605
0.00275413
0.00275238
0.00275109
0.00274999
0.0027494
0.00274894
0.00274893
0.00274868
0.00274844
0.00274789
0.00274649
0.00274512
0.00274355
0.0027417
0.00273969
0.00273712
1.61481e-06
1.94375e-05
3.15947e-05
5.61909e-05
0.000101265
0.000170411
0.000251475
0.000338605
0.000427022
0.000511346
0.000589513
0.000661462
0.000724625
0.00078154
0.000833377
0.00088077
0.000924421
0.00096504
0.00100318
0.00103921
0.00107388
0.00110741
0.00113995
0.00117168
0.00120289
0.00123331
0.00126277
0.0012917
0.00131966
0.0013462
0.00137181
0.00136448
0.00133325
0.00131443
0.00130208
0.0012812
0.00126246
0.00125972
0.00126103
0.00125866
0.00125417
0.00126587
0.00128096
0.00129029
0.00130147
0.00130479
0.00134852
0.00135038
0.00136787
0.00135816
0.00139285
0.00139715
0.00141311
0.00142227
0.00142423
0.00144989
0.00145032
0.00146358
0.00146749
0.00148148
0.00149691
0.00151086
0.0015289
0.00154593
0.00156697
0.00158121
0.00160434
0.00162021
0.00164556
0.00166387
0.00168792
0.00171057
0.00172678
0.00175484
0.00176703
0.00179096
0.00181579
0.00183019
0.00186372
0.00187628
0.00191068
0.00192548
0.00196132
0.00197578
0.00201197
0.00203286
0.0020682
0.002091
0.00212465
0.00214792
0.0021804
0.00220651
0.00223953
0.00226954
0.00230333
0.00232726
0.00236075
0.0023894
0.00242449
0.00245603
0.00249124
0.00252467
0.00255171
0.00258137
0.00260922
0.00263594
0.00266086
0.00268625
0.0027106
0.00273536
0.00276171
0.00277338
0.00278324
0.00279253
0.0028004
0.00280632
0.00281188
0.00281596
0.00281976
0.00282094
0.0028256
0.00283404
0.00284298
0.00284924
0.00285615
0.00286377
0.00287137
0.0028783
0.00288526
0.00289098
0.00289662
0.00290159
0.00290644
0.00291102
0.00291542
0.00291923
0.00292304
0.00292623
0.00292943
0.0029325
0.00293571
0.0029384
0.00294125
0.00294333
0.00294556
0.00294692
0.00294815
0.00294879
0.00294897
0.00294971
0.00295151
0.00295291
0.00295441
0.00295593
0.00295793
0.00296018
0.00296261
0.00296504
0.00296764
0.00296983
0.00297208
0.00297376
0.00297545
0.00297626
0.00297693
0.00297693
0.00297666
0.00297589
0.00297509
0.00297391
0.00297234
0.00297165
0.00297125
0.0029711
0.00297116
0.0029718
0.00297281
0.0029743
0.00297604
0.00297772
0.00297935
0.00298051
0.00298127
0.00298127
0.00298066
0.00297988
0.00297863
0.00297696
0.00297533
0.00297371
0.00297265
0.00297179
0.00297139
0.00297141
0.00297196
0.00297273
0.0029738
0.0029749
0.00297585
0.00297657
0.00297657
0.00297611
0.00297532
0.00297412
0.0029728
0.00297124
0.00297005
0.00296881
0.00296833
0.00296777
0.00296786
0.00296812
0.00296909
0.00296984
0.00297094
0.00297147
0.00297198
0.00297226
0.0029716
0.0029706
0.00296981
0.00296869
0.00296764
0.00296645
0.00296585
0.00296537
0.00296536
0.00296551
0.00296623
0.00296701
0.00296827
0.00296929
0.00297025
0.002971
0.00297081
0.00297052
0.00297011
0.00296936
0.00296842
0.00296745
2.15569e-06
2.56318e-05
4.53597e-05
8.05061e-05
0.000138997
0.000216647
0.000302615
0.000392661
0.000482239
0.000566872
0.000645708
0.000717131
0.000780137
0.000837228
0.000889055
0.000936116
0.000978979
0.00101819
0.00105425
0.00108758
0.00111881
0.00114829
0.00117611
0.0012024
0.00122764
0.00125142
0.00127378
0.0012954
0.00130618
0.00126783
0.00124242
0.00121706
0.00118034
0.00116215
0.00115188
0.00113367
0.0011208
0.00113137
0.00113402
0.0011363
0.00113575
0.00114619
0.00117859
0.00118308
0.00119459
0.00118026
0.00122127
0.00121086
0.00122742
0.00121463
0.0012332
0.00123479
0.00124254
0.00125445
0.00123967
0.00126371
0.00127194
0.0012661
0.00127578
0.00127585
0.00129662
0.00129871
0.00131891
0.00132224
0.00134723
0.00135075
0.00137805
0.00138351
0.00141493
0.00142303
0.00145395
0.00146761
0.00149012
0.0015202
0.00152224
0.00155699
0.00156959
0.00159908
0.00162458
0.00163589
0.00166651
0.00167895
0.00170598
0.00172441
0.00175161
0.00177028
0.0017936
0.00181447
0.00183606
0.00185523
0.00187546
0.00189617
0.001918
0.00194309
0.00196466
0.00198596
0.00201032
0.00203479
0.00206385
0.00209056
0.00212221
0.00215067
0.00217893
0.00220837
0.00223724
0.00226613
0.00229574
0.00232423
0.00235489
0.00238293
0.00241589
0.00244493
0.00246888
0.00248999
0.00250484
0.00252439
0.00254818
0.00258382
0.00262415
0.00264047
0.00265281
0.00266753
0.00268239
0.00269491
0.00270732
0.00272004
0.00273323
0.00274571
0.00275832
0.0027693
0.00278029
0.00279016
0.00279986
0.00280928
0.0028186
0.00282725
0.00283596
0.00284376
0.00285144
0.00285891
0.0028665
0.00287347
0.00288046
0.00288662
0.00289302
0.00289862
0.00290415
0.00290894
0.00291358
0.0029181
0.00292346
0.00292866
0.00293384
0.00293884
0.00294417
0.0029497
0.00295541
0.0029611
0.00296693
0.00297232
0.00297772
0.00298259
0.0029875
0.00299142
0.00299523
0.00299851
0.00300141
0.00300384
0.00300622
0.00300812
0.00300974
0.00301193
0.00301448
0.00301722
0.00302012
0.00302348
0.00302719
0.00303123
0.00303552
0.00303971
0.0030439
0.00304758
0.00305097
0.00305353
0.00305552
0.00305738
0.00305874
0.00305964
0.00306053
0.00306138
0.00306282
0.00306432
0.00306623
0.00306851
0.00307133
0.0030743
0.00307752
0.00308075
0.0030839
0.00308679
0.00308898
0.00309076
0.00309218
0.00309314
0.00309401
0.00309457
0.0030955
0.00309634
0.00309787
0.0030993
0.00310132
0.00310348
0.00310632
0.00310895
0.00311192
0.00311427
0.00311665
0.00311886
0.00312013
0.00312096
0.00312198
0.00312264
0.00312344
0.00312399
0.00312511
0.00312627
0.00312792
0.00312969
0.00313208
0.00313447
0.00313735
0.00313999
0.00314253
0.00314494
0.00314633
0.00314755
0.00314869
0.00314944
0.00314997
0.00315118
2.81632e-06
3.39725e-05
6.13139e-05
0.000107694
0.000175506
0.000258623
0.000347805
0.000438964
0.000528421
0.000612495
0.000691238
0.000761451
0.000824073
0.000880851
0.000932104
0.000978143
0.00101937
0.00105623
0.0010892
0.00111868
0.00114523
0.00116932
0.00119105
0.0012106
0.00122853
0.00124454
0.00125026
0.00121492
0.00116668
0.00112016
0.00109421
0.0010762
0.00104266
0.00103521
0.00103113
0.00101676
0.00100698
0.00102601
0.00103829
0.00104816
0.00105407
0.00104965
0.00109209
0.0010812
0.00109233
0.00107029
0.00109859
0.00108572
0.00110541
0.00109402
0.00109084
0.00108275
0.00107891
0.00108025
0.0010673
0.00106652
0.00108355
0.00106691
0.00108404
0.00106845
0.00108896
0.00107723
0.00110103
0.00108893
0.00112093
0.00111477
0.00112808
0.00113174
0.00113191
0.00113766
0.00114105
0.0011477
0.00115426
0.0011627
0.00117147
0.00117883
0.00119032
0.00120277
0.00121659
0.00122949
0.00124465
0.00126031
0.00127795
0.00129559
0.00131575
0.0013356
0.00135852
0.00138088
0.0014064
0.00143151
0.00145892
0.00148754
0.00151707
0.00154789
0.00157923
0.0016109
0.00164356
0.00167687
0.00171175
0.00174574
0.00178104
0.00181517
0.0018495
0.00188356
0.00191386
0.00193659
0.00196159
0.00198481
0.00201151
0.00203576
0.00206454
0.00209
0.00211156
0.0021313
0.00214546
0.00217032
0.00220104
0.0022385
0.00227863
0.00233098
0.0023683
0.00237825
0.00239218
0.00241269
0.00242884
0.00244686
0.00246531
0.00248878
0.00251186
0.00253535
0.0025577
0.00257502
0.00259507
0.0026155
0.00263328
0.00264798
0.00266268
0.00267602
0.00268931
0.00270202
0.00271486
0.00272689
0.0027389
0.00274999
0.00276137
0.00277197
0.00278261
0.00279247
0.00280213
0.00281138
0.002821
0.00283038
0.00283985
0.00284881
0.00285797
0.00286715
0.00287655
0.00288584
0.00289529
0.00290421
0.00291316
0.00292156
0.00293004
0.00293744
0.00294484
0.00295169
0.00295817
0.00296416
0.00297011
0.00297547
0.00298067
0.00298609
0.00299192
0.0029978
0.00300386
0.0030102
0.00301682
0.00302365
0.00303069
0.00303762
0.00304459
0.00305102
0.00305725
0.00306267
0.0030676
0.00307234
0.00307658
0.00308042
0.00308414
0.00308779
0.00309198
0.00309614
0.00310062
0.00310539
0.00311069
0.00311607
0.00312167
0.00312724
0.00313279
0.00313812
0.00314278
0.00314709
0.00315101
0.00315447
0.00315784
0.00316085
0.00316421
0.00316744
0.00317127