/*--------------------------------*- C++ -*----------------------------------*\
| =========                 |                                                 |
| \\      /  F ield         | OpenFOAM: The Open Source CFD Toolbox           |
|  \\    /   O peration     | Version:  2312                                  |
|   \\  /    A nd           | Website:  www.openfoam.com                      |
|    \\/     M anipulation  |                                                 |
\*---------------------------------------------------------------------------*/
FoamFile
{
    version     2.0;
    format      ascii;
    arch        "LSB;label=32;scalar=64";
    class       volScalarField;
    location    "0.003";
    object      cSound;
}
// * * * * * * * * * * * * * * * * * * * * * * * * * * * * * * * * * * * * * //

dimensions      [0 1 -1 0 0 0 0];

internalField   nonuniform List<scalar> 
48128
(
373.679
373.697
373.727
373.744
373.721
373.605
373.251
372.79
372.382
371.979
371.627
371.22
370.723
370.172
369.637
369.141
368.667
368.207
367.766
367.35
366.938
366.538
366.159
365.808
365.493
365.223
365.006
364.85
364.762
364.734
364.764
364.882
365.079
365.344
365.67
366.052
366.484
366.949
367.45
367.975
368.512
369.051
369.588
370.131
370.653
371.141
371.585
371.996
372.363
372.679
372.935
373.129
373.254
373.314
373.308
373.235
373.099
372.898
372.64
372.329
371.971
371.577
371.148
370.685
370.19
369.666
369.114
368.541
367.95
367.33
366.693
366.032
365.348
364.659
363.947
363.245
362.523
361.818
361.106
360.43
359.756
359.11
358.459
357.825
357.183
356.566
355.961
355.381
354.824
354.293
353.766
353.257
352.761
352.281
351.828
351.396
350.972
350.549
350.138
349.742
349.36
349.005
348.681
348.378
348.087
347.814
347.554
347.31
347.072
346.848
346.621
346.419
346.243
346.079
345.911
345.727
345.522
345.296
345.015
344.638
344.707
344.634
344.456
344.548
344.527
344.491
344.438
344.37
344.296
344.218
344.15
344.089
344.024
343.957
343.887
343.817
343.751
343.698
343.647
343.595
343.545
343.5
343.457
343.41
343.36
343.306
343.257
343.201
343.127
343.157
343.154
343.142
343.169
343.186
343.217
343.248
343.282
343.312
343.344
343.371
343.399
343.411
343.425
343.433
343.436
343.434
343.43
343.426
343.422
343.413
343.415
343.428
343.44
343.459
343.485
343.523
343.564
343.613
343.663
343.712
343.747
343.783
343.795
343.808
343.809
343.806
343.799
343.791
343.791
343.795
343.806
343.823
343.855
343.892
343.933
343.978
344.027
344.073
344.109
344.142
344.155
344.171
344.175
344.176
344.176
344.179
344.188
344.202
344.224
344.251
344.286
344.326
344.371
344.411
344.451
344.482
344.509
344.541
344.535
344.542
344.552
344.558
344.569
344.584
344.606
344.633
344.666
344.702
344.741
344.783
344.825
344.861
344.894
344.927
344.933
344.949
344.964
344.97
344.981
345.005
373.564
373.59
373.636
373.675
373.673
373.457
373.04
372.443
371.846
371.314
370.699
369.9
369.004
368.163
367.411
366.733
366.112
365.546
365.039
364.594
364.186
363.821
363.508
363.253
363.064
362.946
362.901
362.907
363.009
363.201
363.469
363.82
364.247
364.742
365.295
365.898
366.531
367.176
367.832
368.486
369.126
369.74
370.322
370.872
371.369
371.804
372.167
372.467
372.696
372.844
372.903
372.868
372.751
372.552
372.268
371.899
371.458
370.949
370.378
369.747
369.067
368.34
367.568
366.757
365.908
365.036
364.134
363.215
362.285
361.339
360.389
359.427
358.45
357.482
356.494
355.524
354.538
353.574
352.614
351.692
350.783
349.906
349.033
348.18
347.33
346.5
345.697
344.915
344.166
343.441
342.732
342.036
341.363
340.701
340.072
339.464
338.87
338.279
337.7
337.139
336.591
336.07
335.582
335.121
334.672
334.246
333.834
333.445
333.058
332.694
332.325
331.984
331.67
331.375
331.08
330.772
330.442
330.09
329.682
329.135
329.067
328.872
328.545
328.515
328.418
328.29
328.144
327.987
327.824
327.659
327.505
327.362
327.217
327.068
326.918
326.767
326.621
326.488
326.362
326.234
326.11
325.992
325.878
325.761
325.641
325.516
325.389
325.252
325.086
325.022
324.936
324.829
324.772
324.704
324.658
324.61
324.569
324.527
324.491
324.454
324.416
324.375
324.331
324.283
324.232
324.176
324.118
324.059
324.001
323.941
323.884
323.853
323.818
323.794
323.768
323.769
323.769
323.778
323.791
323.8
323.807
323.807
323.799
323.786
323.767
323.744
323.717
323.69
323.662
323.651
323.642
323.641
323.65
323.668
323.69
323.717
323.75
323.781
323.805
323.827
323.833
323.842
323.839
323.834
323.827
323.828
323.832
323.842
323.858
323.879
323.908
323.943
323.983
324.021
324.06
324.09
324.119
324.159
324.153
324.161
324.177
324.184
324.197
324.216
324.24
324.271
324.306
324.346
324.39
324.436
324.485
324.529
324.568
324.618
324.63
324.651
324.679
324.694
324.715
324.754
373.455
373.496
373.561
373.618
373.521
373.135
372.482
371.787
371.14
370.451
369.703
368.958
368.267
367.63
367.052
366.536
366.073
365.651
365.282
364.973
364.698
364.468
364.286
364.159
364.09
364.078
364.128
364.253
364.461
364.749
365.104
365.526
366.006
366.528
367.088
367.68
368.284
368.886
369.477
370.049
370.587
371.08
371.519
371.905
372.222
372.459
372.61
372.672
372.645
372.529
372.314
372.001
371.596
371.108
370.527
369.863
369.133
368.336
367.485
366.58
365.637
364.655
363.641
362.598
361.527
360.451
359.356
358.261
357.16
356.053
354.955
353.852
352.75
351.667
350.568
349.498
348.417
347.366
346.329
345.333
344.36
343.423
342.495
341.592
340.699
339.828
338.992
338.174
337.393
336.636
335.896
335.169
334.468
333.776
333.119
332.484
331.861
331.244
330.64
330.055
329.483
328.938
328.426
327.938
327.463
327.01
326.571
326.153
325.738
325.345
324.947
324.577
324.232
323.907
323.579
323.24
322.883
322.503
322.075
321.514
321.408
321.179
320.84
320.756
320.615
320.448
320.266
320.077
319.884
319.69
319.508
319.337
319.164
318.989
318.814
318.638
318.469
318.311
318.16
318.008
317.861
317.72
317.583
317.444
317.301
317.155
317.006
316.849
316.663
316.575
316.465
316.335
316.252
316.157
316.084
316.011
315.944
315.877
315.815
315.754
315.693
315.628
315.563
315.494
315.423
315.348
315.272
315.194
315.118
315.041
314.963
314.912
314.856
314.815
314.769
314.752
314.731
314.725
314.722
314.716
314.707
314.693
314.673
314.647
314.617
314.583
314.545
314.505
314.471
314.442
314.426
314.407
314.41
314.417
314.429
314.447
314.47
314.493
314.51
314.527
314.529
314.531
314.526
314.519
314.507
314.503
314.504
314.509
314.52
314.537
314.561
314.592
314.628
314.664
314.701
314.731
314.76
314.8
314.797
314.805
314.819
314.827
314.84
314.858
314.883
314.913
314.949
314.989
315.033
315.082
315.132
315.179
315.222
315.273
315.291
315.317
315.347
315.367
315.392
315.437
373.381
373.443
373.512
373.499
373.197
372.566
371.838
371.152
370.51
369.906
369.352
368.811
368.286
367.789
367.332
366.932
366.587
366.286
366.032
365.83
365.654
365.516
365.42
365.37
365.368
365.422
365.541
365.733
365.993
366.314
366.691
367.12
367.594
368.1
368.63
369.179
369.723
370.246
370.739
371.196
371.599
371.936
372.198
372.386
372.486
372.487
372.379
372.165
371.845
371.427
370.904
370.279
369.554
368.748
367.844
366.864
365.834
364.74
363.604
362.424
361.224
359.997
358.756
357.501
356.233
354.981
353.726
352.49
351.262
350.042
348.852
347.662
346.49
345.35
344.197
343.083
341.97
340.888
339.835
338.825
337.846
336.909
335.982
335.089
334.212
333.362
332.552
331.761
331.007
330.278
329.564
328.864
328.189
327.521
326.892
326.283
325.685
325.095
324.518
323.959
323.412
322.894
322.407
321.94
321.486
321.054
320.635
320.233
319.836
319.457
319.074
318.717
318.383
318.067
317.746
317.414
317.068
316.696
316.285
315.758
315.644
315.419
315.122
315.007
314.854
314.682
314.497
314.307
314.114
313.919
313.737
313.564
313.389
313.213
313.038
312.861
312.692
312.533
312.38
312.227
312.08
311.938
311.799
311.659
311.515
311.368
311.218
311.061
310.877
310.784
310.671
310.541
310.45
310.352
310.273
310.194
310.122
310.049
309.982
309.915
309.848
309.778
309.707
309.633
309.557
309.478
309.397
309.315
309.235
309.154
309.072
309.016
308.955
308.908
308.857
308.833
308.805
308.793
308.783
308.771
308.757
308.738
308.713
308.683
308.649
308.612
308.57
308.526
308.49
308.455
308.434
308.409
308.408
308.411
308.419
308.432
308.45
308.469
308.483
308.497
308.497
308.499
308.493
308.484
308.473
308.466
308.466
308.47
308.479
308.493
308.515
308.544
308.578
308.613
308.649
308.679
308.708
308.748
308.748
308.757
308.771
308.78
308.794
308.812
308.836
308.866
308.902
308.943
308.988
309.038
309.09
309.138
309.183
309.236
309.257
309.285
309.318
309.341
309.369
309.417
373.327
373.405
373.441
373.235
372.695
371.992
371.305
370.693
370.165
369.728
369.349
368.919
368.504
368.139
367.814
367.532
367.293
367.084
366.912
366.783
366.675
366.599
366.559
366.557
366.602
366.702
366.863
367.086
367.369
367.704
368.082
368.501
368.955
369.426
369.904
370.385
370.842
371.256
371.616
371.918
372.145
372.279
372.31
372.236
372.053
371.751
371.309
370.737
370.042
369.245
368.328
367.31
366.183
364.989
363.698
362.346
360.972
359.535
358.082
356.601
355.128
353.653
352.185
350.73
349.28
347.883
346.496
345.16
343.85
342.564
341.334
340.102
338.911
337.762
336.607
335.504
334.409
333.353
332.335
331.368
330.435
329.551
328.676
327.847
327.035
326.254
325.515
324.794
324.11
323.451
322.803
322.17
321.557
320.953
320.389
319.845
319.31
318.781
318.264
317.766
317.276
316.814
316.381
315.965
315.563
315.18
314.809
314.452
314.1
313.762
313.42
313.103
312.804
312.52
312.229
311.928
311.615
311.277
310.908
310.443
310.332
310.133
309.904
309.768
309.626
309.469
309.302
309.13
308.955
308.779
308.613
308.454
308.294
308.133
307.973
307.81
307.657
307.51
307.37
307.229
307.094
306.965
306.838
306.709
306.576
306.442
306.302
306.158
305.99
305.9
305.796
305.679
305.591
305.499
305.426
305.353
305.286
305.219
305.156
305.094
305.031
304.966
304.899
304.829
304.757
304.683
304.606
304.529
304.452
304.376
304.298
304.244
304.186
304.142
304.095
304.071
304.044
304.033
304.022
304.011
303.997
303.979
303.955
303.926
303.893
303.858
303.818
303.775
303.74
303.707
303.686
303.661
303.659
303.662
303.669
303.682
303.699
303.717
303.731
303.746
303.746
303.75
303.744
303.738
303.728
303.723
303.723
303.728
303.737
303.752
303.774
303.803
303.837
303.873
303.909
303.939
303.971
304.011
304.015
304.026
304.041
304.053
304.068
304.088
304.113
304.143
304.18
304.222
304.269
304.32
304.374
304.424
304.472
304.526
304.55
304.581
304.615
304.641
304.672
304.724
373.303
373.37
373.263
372.849
372.215
371.537
370.931
370.433
370.056
369.756
369.437
369.121
368.835
368.587
368.369
368.181
368.02
367.88
367.766
367.69
367.63
367.601
367.601
367.638
367.722
367.858
368.047
368.29
368.586
368.922
369.289
369.682
370.095
370.507
370.901
371.278
371.608
371.867
372.044
372.125
372.099
371.948
371.653
371.217
370.633
369.901
368.991
367.92
366.707
365.396
363.941
362.39
360.732
359.027
357.276
355.463
353.669
351.838
350.004
348.209
346.429
344.723
343.028
341.415
339.801
338.314
336.845
335.476
334.151
332.871
331.675
330.467
329.335
328.25
327.173
326.164
325.165
324.215
323.313
322.472
321.66
320.913
320.161
319.465
318.776
318.124
317.507
316.91
316.345
315.805
315.269
314.747
314.24
313.743
313.283
312.841
312.401
311.968
311.543
311.133
310.728
310.351
309.999
309.658
309.334
309.027
308.729
308.441
308.156
307.883
307.604
307.349
307.106
306.872
306.63
306.379
306.122
305.838
305.532
305.155
305.052
304.899
304.747
304.607
304.497
304.374
304.238
304.101
303.959
303.816
303.68
303.549
303.417
303.286
303.154
303.019
302.894
302.772
302.655
302.539
302.428
302.322
302.216
302.109
301.999
301.888
301.769
301.648
301.507
301.429
301.342
301.247
301.172
301.094
301.034
300.975
300.921
300.868
300.818
300.768
300.716
300.664
300.608
300.55
300.489
300.427
300.362
300.295
300.229
300.164
300.096
300.051
300.003
299.968
299.929
299.912
299.893
299.887
299.881
299.876
299.866
299.854
299.836
299.813
299.786
299.757
299.724
299.688
299.658
299.631
299.614
299.596
299.596
299.601
299.611
299.627
299.647
299.667
299.685
299.703
299.707
299.717
299.713
299.712
299.706
299.705
299.708
299.716
299.729
299.746
299.77
299.802
299.838
299.875
299.913
299.947
299.981
300.024
300.033
300.048
300.066
300.082
300.1
300.122
300.149
300.182
300.221
300.265
300.314
300.367
300.424
300.477
300.529
300.584
300.613
300.647
300.683
300.713
300.747
300.804
373.295
373.292
373.018
372.482
371.826
371.207
370.705
370.333
370.072
369.834
369.603
369.393
369.212
369.056
368.918
368.796
368.692
368.606
368.541
368.508
368.491
368.499
368.534
368.605
368.72
368.881
369.087
369.339
369.633
369.954
370.289
370.63
370.972
371.286
371.553
371.773
371.912
371.942
371.838
371.595
371.192
370.614
369.827
368.833
367.634
366.258
364.646
362.844
360.883
358.845
356.68
354.423
352.134
349.754
347.55
345.209
342.888
340.684
338.405
336.343
334.218
332.353
330.441
328.75
327.025
325.534
324.051
322.737
321.468
320.286
319.22
318.134
317.176
316.255
315.378
314.567
313.773
313.033
312.35
311.733
311.135
310.624
310.081
309.602
309.111
308.665
308.241
307.836
307.46
307.099
306.74
306.39
306.042
305.702
305.389
305.09
304.782
304.482
304.183
303.896
303.607
303.346
303.103
302.865
302.645
302.436
302.233
302.034
301.838
301.648
301.454
301.279
301.111
300.945
300.77
300.587
300.405
300.196
299.971
299.702
299.603
299.527
299.448
299.336
299.264
299.187
299.094
299.005
298.91
298.814
298.721
298.63
298.539
298.448
298.356
298.261
298.174
298.088
298.004
297.923
297.846
297.773
297.698
297.623
297.544
297.465
297.377
297.287
297.184
297.123
297.063
296.998
296.943
296.887
296.847
296.81
296.775
296.742
296.712
296.681
296.648
296.615
296.577
296.536
296.493
296.449
296.401
296.352
296.302
296.255
296.204
296.172
296.14
296.118
296.095
296.088
296.082
296.085
296.091
296.094
296.096
296.094
296.086
296.074
296.055
296.04
296.017
295.992
295.971
295.954
295.946
295.938
295.943
295.955
295.972
295.994
296.02
296.045
296.07
296.094
296.105
296.124
296.124
296.132
296.132
296.138
296.148
296.161
296.179
296.202
296.231
296.266
296.307
296.348
296.39
296.428
296.468
296.515
296.531
296.552
296.574
296.595
296.618
296.645
296.676
296.712
296.755
296.802
296.855
296.912
296.972
297.029
297.085
297.144
297.178
297.216
297.255
297.29
297.328
297.391
373.289
373.202
372.782
372.166
371.528
370.993
370.595
370.327
370.129
369.964
369.818
369.696
369.59
369.497
369.417
369.348
369.292
369.251
369.231
369.233
369.248
369.287
369.351
369.448
369.583
369.758
369.967
370.209
370.481
370.762
371.034
371.285
371.51
371.67
371.739
371.707
371.544
371.21
370.662
369.895
368.887
367.632
366.076
364.239
362.142
359.864
357.302
354.543
351.66
348.658
345.764
342.708
339.835
336.732
334.145
331.377
328.475
326.031
323.378
321.156
318.775
316.866
314.851
313.18
311.428
309.993
308.564
307.383
306.242
305.248
304.358
303.498
302.765
302.069
301.472
300.893
300.381
299.896
299.5
299.155
298.849
298.614
298.356
298.127
297.933
297.739
297.595
297.426
297.319
297.182
297.071
296.946
296.826
296.687
296.578
296.463
296.332
296.207
296.08
295.958
295.828
295.719
295.611
295.506
295.413
295.325
295.239
295.153
295.066
294.983
294.892
294.819
294.744
294.665
294.577
294.475
294.383
294.264
294.14
293.989
293.913
293.923
293.908
293.856
293.831
293.806
293.771
293.739
293.705
293.667
293.629
293.59
293.548
293.508
293.466
293.42
293.382
293.341
293.3
293.261
293.228
293.194
293.159
293.123
293.083
293.045
292.995
292.946
292.887
292.852
292.827
292.797
292.77
292.743
292.73
292.719
292.711
292.703
292.699
292.693
292.684
292.675
292.661
292.644
292.624
292.605
292.579
292.554
292.525
292.501
292.473
292.458
292.447
292.443
292.44
292.448
292.459
292.476
292.498
292.514
292.531
292.543
292.548
292.554
292.546
292.549
292.54
292.529
292.522
292.52
292.524
292.528
292.542
292.564
292.591
292.623
292.657
292.692
292.725
292.759
292.78
292.809
292.82
292.836
292.847
292.862
292.881
292.902
292.929
292.959
292.994
293.036
293.083
293.131
293.18
293.224
293.271
293.322
293.349
293.377
293.406
293.435
293.464
293.497
293.534
293.575
293.622
293.674
293.732
293.793
293.859
293.921
293.983
294.046
294.086
294.13
294.173
294.215
294.258
294.327
373.285
373.086
372.555
371.913
371.323
370.871
370.561
370.362
370.229
370.125
370.049
369.991
369.94
369.896
369.86
369.833
369.818
369.814
369.826
369.856
369.898
369.96
370.044
370.155
370.296
370.469
370.661
370.869
371.089
371.293
371.456
371.559
371.592
371.496
371.232
370.78
370.107
369.174
367.928
366.35
364.42
362.193
359.564
356.611
353.386
349.949
346.437
342.646
338.904
334.86
331.472
327.726
324.433
320.823
317.88
314.87
311.598
309.079
306.256
304.052
301.67
299.853
297.952
296.431
294.862
293.577
292.356
291.358
290.435
289.67
288.978
288.403
287.851
287.407
287.048
286.663
286.446
286.12
286.028
285.849
285.848
285.771
285.83
285.746
285.876
285.861
286.025
286.044
286.223
286.282
286.443
286.525
286.671
286.744
286.885
286.955
287.061
287.133
287.219
287.291
287.354
287.429
287.481
287.537
287.597
287.656
287.71
287.765
287.808
287.863
287.896
287.947
287.976
288.014
288.02
288.012
288.019
288.008
288.013
287.973
287.96
288.034
288.106
288.128
288.159
288.191
288.232
288.264
288.307
288.332
288.362
288.379
288.396
288.412
288.432
288.442
288.462
288.471
288.483
288.492
288.511
288.524
288.536
288.544
288.551
288.559
288.555
288.557
288.545
288.547
288.558
288.569
288.578
288.588
288.605
288.625
288.649
288.672
288.7
288.722
288.746
288.763
288.781
288.792
288.797
288.811
288.809
288.813
288.812
288.815
288.814
288.822
288.835
288.854
288.873
288.902
288.933
288.969
289.009
289.043
289.078
289.109
289.132
289.158
289.167
289.188
289.198
289.205
289.215
289.23
289.25
289.27
289.298
289.332
289.372
289.416
289.462
289.509
289.554
289.599
289.633
289.675
289.699
289.727
289.751
289.778
289.808
289.841
289.877
289.917
289.962
290.012
290.068
290.124
290.18
290.233
290.288
290.346
290.386
290.423
290.461
290.498
290.536
290.577
290.621
290.669
290.722
290.781
290.845
290.912
290.984
291.052
291.121
291.189
291.239
291.289
291.338
291.386
291.436
291.514
373.248
372.946
372.354
371.718
371.191
370.812
370.573
370.436
370.35
370.3
370.275
370.26
370.25
370.245
370.244
370.249
370.263
370.288
370.325
370.374
370.435
370.51
370.602
370.712
370.843
370.99
371.139
371.28
371.403
371.474
371.449
371.293
370.979
370.447
369.634
368.506
367.032
365.216
362.965
360.263
357.097
353.647
349.832
345.674
341.359
336.637
332.482
327.795
323.484
318.565
314.959
310.806
307.362
303.653
300.448
297.579
294.391
291.934
289.284
287.219
285.225
283.564
282.051
280.717
279.544
278.44
277.593
276.759
276.175
275.591
275.15
274.833
274.409
274.268
273.976
273.823
273.818
273.565
273.735
273.596
273.819
273.798
274.055
274.055
274.359
274.456
274.779
274.93
275.259
275.46
275.77
276.004
276.305
276.551
276.852
277.084
277.36
277.602
277.87
278.116
278.362
278.615
278.833
279.058
279.283
279.501
279.71
279.919
280.111
280.31
280.491
280.677
280.828
280.985
281.104
281.201
281.313
281.429
281.575
281.657
281.732
281.884
282.046
282.146
282.254
282.354
282.471
282.58
282.702
282.8
282.901
282.985
283.069
283.15
283.236
283.311
283.393
283.461
283.53
283.597
283.67
283.736
283.801
283.859
283.919
283.978
284.029
284.084
284.124
284.169
284.222
284.277
284.329
284.379
284.433
284.49
284.55
284.608
284.672
284.727
284.785
284.835
284.888
284.931
284.97
285.016
285.047
285.081
285.113
285.146
285.176
285.211
285.252
285.297
285.343
285.396
285.451
285.509
285.569
285.625
285.682
285.734
285.779
285.825
285.858
285.899
285.932
285.96
285.991
286.026
286.064
286.103
286.147
286.198
286.254
286.313
286.372
286.433
286.492
286.552
286.601
286.658
286.697
286.74
286.779
286.821
286.864
286.91
286.96
287.012
287.068
287.129
287.194
287.26
287.326
287.389
287.454
287.521
287.576
287.623
287.672
287.72
287.768
287.818
287.871
287.927
287.989
288.055
288.126
288.201
288.28
288.356
288.434
288.508
288.569
288.625
288.681
288.738
288.795
288.883
373.16
372.803
372.187
371.576
371.11
370.794
370.615
370.53
370.482
370.472
370.48
370.497
370.518
370.541
370.567
370.595
370.631
370.676
370.727
370.787
370.854
370.93
371.016
371.107
371.203
371.297
371.362
371.382
371.329
371.155
370.799
370.199
369.313
368.089
366.447
364.326
361.728
358.793
355.257
351.255
346.77
341.93
337.208
331.979
326.836
320.952
316.486
311.214
306.774
301.532
297.963
293.704
290.437
286.954
283.833
281.284
278.631
276.291
274.277
272.388
271.038
269.565
268.636
267.421
266.824
265.823
265.501
264.729
264.601
264.051
263.976
263.733
263.535
263.619
263.284
263.426
263.387
263.353
263.591
263.458
263.792
263.768
264.103
264.129
264.506
264.621
264.987
265.172
265.542
265.776
266.137
266.414
266.777
267.086
267.455
267.756
268.115
268.443
268.808
269.156
269.516
269.877
270.213
270.558
270.9
271.237
271.567
271.893
272.213
272.528
272.839
273.148
273.412
273.679
273.899
274.112
274.338
274.589
274.865
275.11
275.297
275.525
275.767
275.949
276.136
276.318
276.512
276.703
276.905
277.085
277.262
277.416
277.574
277.727
277.884
278.03
278.179
278.31
278.444
278.573
278.706
278.829
278.952
279.065
279.182
279.297
279.405
279.517
279.615
279.709
279.808
279.91
280.009
280.102
280.197
280.294
280.394
280.492
280.594
280.686
280.782
280.868
280.958
281.037
281.114
281.195
281.262
281.332
281.399
281.467
281.53
281.597
281.668
281.743
281.818
281.898
281.98
282.062
282.147
282.227
282.307
282.382
282.453
282.523
282.582
282.646
282.704
282.757
282.811
282.868
282.928
282.988
283.052
283.121
283.194
283.271
283.347
283.423
283.499
283.575
283.642
283.715
283.772
283.833
283.889
283.947
284.007
284.068
284.132
284.198
284.267
284.341
284.417
284.495
284.573
284.647
284.725
284.801
284.874
284.933
284.994
285.054
285.114
285.176
285.239
285.305
285.375
285.451
285.531
285.615
285.702
285.787
285.873
285.955
286.03
286.093
286.158
286.223
286.289
286.389
373.031
372.659
372.046
371.471
371.06
370.806
370.679
370.63
370.613
370.628
370.661
370.702
370.744
370.786
370.829
370.874
370.922
370.975
371.032
371.091
371.152
371.214
371.275
371.323
371.351
371.346
371.263
371.06
370.69
370.089
369.188
367.904
366.162
363.962
361.194
357.799
353.817
349.624
344.818
339.579
333.989
327.762
322.535
316.425
310.901
304.403
299.888
294.395
290.258
285.236
281.901
277.812
275.032
271.846
269.357
266.973
265.189
263.095
261.949
260.223
259.641
258.266
258.041
256.845
256.936
255.997
256.234
255.511
255.834
255.287
255.643
255.308
255.521
255.57
255.434
255.744
255.531
255.849
255.979
255.931
256.321
256.214
256.593
256.585
256.974
257.029
257.382
257.507
257.856
258.016
258.358
258.57
258.918
259.178
259.533
259.799
260.151
260.46
260.826
261.18
261.558
261.935
262.306
262.686
263.066
263.447
263.831
264.212
264.596
264.978
265.363
265.746
266.085
266.432
266.72
267.028
267.353
267.709
268.09
268.466
268.777
269.062
269.371
269.638
269.898
270.156
270.424
270.694
270.973
271.231
271.487
271.714
271.947
272.174
272.405
272.625
272.846
273.045
273.247
273.442
273.639
273.822
274.005
274.178
274.353
274.528
274.695
274.865
275.025
275.171
275.319
275.47
275.62
275.759
275.898
276.038
276.18
276.32
276.462
276.595
276.731
276.857
276.987
277.104
277.221
277.341
277.446
277.555
277.658
277.764
277.863
277.964
278.068
278.175
278.282
278.392
278.503
278.612
278.722
278.829
278.935
279.037
279.134
279.23
279.317
279.407
279.494
279.573
279.653
279.735
279.819
279.902
279.987
280.077
280.17
280.266
280.36
280.454
280.548
280.642
280.728
280.821
280.897
280.977
281.052
281.129
281.207
281.285
281.365
281.448
281.532
281.619
281.709
281.8
281.891
281.978
282.068
282.157
282.247
282.321
282.395
282.47
282.543
282.617
282.692
282.769
282.851
282.937
283.027
283.12
283.216
283.311
283.408
283.498
283.588
283.66
283.734
283.81
283.885
283.999
372.88
372.51
371.916
371.388
371.032
370.835
370.755
370.729
370.733
370.767
370.819
370.874
370.929
370.981
371.033
371.084
371.136
371.188
371.239
371.286
371.326
371.356
371.365
371.334
371.242
371.051
370.696
370.112
369.223
367.96
366.259
364.011
361.105
357.68
353.611
348.9
343.52
337.859
332.203
325.917
319.568
312.234
306.745
300.109
294.705
288.251
283.859
278.474
274.87
270.364
267.425
263.795
261.718
258.811
257.308
254.964
254.305
252.419
252.208
250.654
250.784
249.533
249.91
248.882
249.517
248.746
249.421
248.838
249.524
249.07
249.751
249.402
250.003
249.821
250.224
250.415
250.356
250.838
250.735
251.029
251.396
251.199
251.632
251.595
251.99
251.973
252.323
252.365
252.683
252.735
253.033
253.13
253.424
253.556
253.842
253.985
254.26
254.452
254.735
254.984
255.276
255.568
255.869
256.181
256.496
256.826
257.167
257.517
257.88
258.252
258.633
259.016
259.363
259.731
260.035
260.381
260.758
261.165
261.599
262.036
262.419
262.735
263.085
263.414
263.734
264.052
264.381
264.712
265.054
265.375
265.701
265.994
266.294
266.588
266.886
267.175
267.466
267.73
267.999
268.257
268.518
268.759
269.002
269.234
269.466
269.7
269.927
270.155
270.375
270.577
270.775
270.975
271.175
271.364
271.549
271.733
271.919
272.102
272.287
272.461
272.639
272.807
272.979
273.136
273.294
273.454
273.6
273.749
273.892
274.036
274.173
274.311
274.449
274.591
274.731
274.872
275.015
275.152
275.29
275.424
275.558
275.688
275.814
275.938
276.055
276.173
276.289
276.397
276.505
276.614
276.723
276.831
276.94
277.052
277.166
277.282
277.396
277.51
277.624
277.737
277.845
277.957
278.055
278.155
278.252
278.349
278.446
278.543
278.641
278.741
278.841
278.944
279.048
279.153
279.259
279.361
279.465
279.568
279.675
279.765
279.854
279.944
280.032
280.12
280.208
280.299
280.391
280.489
280.59
280.694
280.8
280.906
281.014
281.115
281.218
281.301
281.386
281.473
281.559
281.688
372.727
372.354
371.79
371.318
371.026
370.878
370.831
370.819
370.84
370.89
370.953
371.015
371.074
371.13
371.182
371.23
371.275
371.316
371.349
371.37
371.37
371.34
371.259
371.085
370.772
370.253
369.443
368.269
366.615
364.425
361.673
358.198
353.903
349.088
343.892
337.997
331.388
324.125
318.041
310.883
304.26
296.398
290.784
283.975
279.01
273.037
269.016
264.124
261.029
257.28
254.822
252.034
250.524
248.096
247.488
245.347
245.568
243.912
244.472
243.172
243.838
242.819
243.713
242.898
243.972
243.414
244.479
244.045
245.069
244.726
245.676
245.388
246.249
246.006
246.784
246.72
247.163
247.634
247.471
247.97
248.285
248.126
248.634
248.586
249.008
248.968
249.368
249.366
249.688
249.674
249.963
249.989
250.253
250.287
250.525
250.557
250.777
250.853
251.057
251.17
251.36
251.517
251.696
251.884
252.061
252.262
252.47
252.694
252.937
253.195
253.468
253.742
254.003
254.278
254.505
254.794
255.13
255.501
255.903
256.327
256.715
257.009
257.336
257.67
258.005
258.344
258.696
259.054
259.423
259.779
260.144
260.481
260.824
261.163
261.507
261.843
262.182
262.498
262.816
263.124
263.435
263.725
264.019
264.301
264.584
264.87
265.151
265.435
265.709
265.967
266.215
266.463
266.711
266.949
267.181
267.408
267.638
267.864
268.092
268.308
268.529
268.738
268.952
269.149
269.349
269.549
269.736
269.927
270.109
270.293
270.47
270.645
270.819
270.996
271.169
271.343
271.518
271.684
271.851
272.014
272.178
272.336
272.492
272.645
272.794
272.94
273.087
273.225
273.363
273.5
273.636
273.77
273.904
274.039
274.176
274.314
274.449
274.583
274.717
274.852
274.981
275.115
275.235
275.357
275.477
275.595
275.713
275.831
275.947
276.065
276.184
276.303
276.423
276.543
276.664
276.782
276.901
277.02
277.143
277.252
277.357
277.463
277.567
277.67
277.773
277.877
277.983
278.093
278.206
278.321
278.439
278.556
278.676
278.789
278.906
279.001
279.098
279.197
279.295
279.439
372.591
372.197
371.671
371.26
371.032
370.926
370.9
370.901
370.936
370.996
371.063
371.126
371.183
371.233
371.278
371.314
371.342
371.36
371.362
371.338
371.271
371.136
370.885
370.453
369.769
368.725
367.234
365.231
362.571
359.195
355.192
350.452
344.768
338.402
332.393
325.433
317.907
309.288
302.888
295.075
288.557
280.766
275.304
268.81
264.495
259.353
255.923
251.814
249.162
246.31
244.2
242.579
241.097
239.755
239.445
237.896
238.614
237.237
238.221
237.348
238.485
237.697
239.068
238.504
239.954
239.507
240.933
240.573
241.916
241.608
242.83
242.572
243.676
243.455
244.456
244.312
245.075
245.417
245.479
246.089
246.207
246.326
246.924
246.836
247.318
247.3
247.752
247.73
248.087
248.061
248.373
248.381
248.643
248.633
248.863
248.851
249.065
249.092
249.268
249.313
249.465
249.529
249.65
249.766
249.844
249.953
250.05
250.165
250.293
250.429
250.577
250.702
250.827
250.928
251.007
251.17
251.38
251.621
251.891
252.179
252.475
252.661
252.882
253.126
253.386
253.664
253.96
254.267
254.596
254.916
255.256
255.583
255.918
256.251
256.593
256.932
257.275
257.605
257.937
258.263
258.593
258.908
259.225
259.537
259.851
260.172
260.495
260.82
261.135
261.438
261.728
262.015
262.301
262.583
262.858
263.126
263.395
263.66
263.927
264.182
264.442
264.689
264.941
265.177
265.417
265.655
265.883
266.113
266.335
266.557
266.773
266.986
267.195
267.406
267.614
267.821
268.026
268.221
268.418
268.61
268.804
268.99
269.177
269.36
269.541
269.716
269.893
270.063
270.231
270.397
270.559
270.721
270.88
271.04
271.2
271.36
271.516
271.671
271.827
271.984
272.136
272.291
272.435
272.58
272.724
272.864
273.004
273.142
273.278
273.416
273.553
273.69
273.825
273.962
274.099
274.233
274.368
274.504
274.644
274.773
274.895
275.018
275.139
275.258
275.375
275.494
275.614
275.737
275.863
275.99
276.12
276.25
276.381
276.508
276.638
276.747
276.857
276.969
277.079
277.241
372.469
372.052
371.567
371.22
371.045
370.975
370.963
370.978
371.023
371.086
371.15
371.208
371.257
371.296
371.322
371.338
371.339
371.322
371.274
371.175
370.987
370.66
370.115
369.257
368.004
366.202
363.803
360.761
356.909
352.167
346.707
341.022
334.099
326.012
319.315
311.336
303.334
293.954
287.229
279.136
273.095
265.993
261.119
255.519
251.889
247.733
244.757
241.56
239.245
237.253
235.788
234.999
233.641
233.952
233.115
233.327
233.316
232.663
234.028
233.28
234.958
234.207
236.033
235.457
237.232
236.789
238.508
238.149
239.763
239.479
240.938
240.658
241.975
241.752
242.925
242.788
243.761
243.784
244.338
244.996
244.85
245.443
245.983