/*--------------------------------*- C++ -*----------------------------------*\
| =========                 |                                                 |
| \\      /  F ield         | OpenFOAM: The Open Source CFD Toolbox           |
|  \\    /   O peration     | Version:  2312                                  |
|   \\  /    A nd           | Website:  www.openfoam.com                      |
|    \\/     M anipulation  |                                                 |
\*---------------------------------------------------------------------------*/
FoamFile
{
    version     2.0;
    format      ascii;
    arch        "LSB;label=32;scalar=64";
    class       volScalarField;
    location    "0.003";
    object      k;
}
// * * * * * * * * * * * * * * * * * * * * * * * * * * * * * * * * * * * * * //

dimensions      [0 2 -2 0 0 0 0];

internalField   nonuniform List<scalar> 
48128
(
0.542218
1.42764
2.01899
1.88811
1.82512
1.53523
1.31725
13.9863
63.9864
158.039
263.096
364.943
460.84
549.72
632.345
710.078
784.304
855.9
925.491
993.814
1061.4
1128.15
1194.02
1259.1
1323.47
1387.38
1451.13
1515.13
1579.65
1645.6
1711.09
1775.97
1840.84
1905.74
1970.52
2035.93
2106.49
2177.39
2250.05
2322.22
2394.73
2467.99
2545.18
2619.05
2689.13
2750.71
2815.44
2873.06
2920.23
2945.2
2966.19
2967.08
2972.38
2961.6
2975.13
3037.2
3081.89
3121.26
3146.05
3163.21
3171.26
3171.68
3168.42
3160.92
3150.85
3135.69
3117.31
3094.36
3065.54
3034.64
3001.81
2970.63
2938.52
2904.94
2871.89
2837.14
2803.62
2768.97
2734.82
2699.47
2665.59
2630.85
2598.86
2566.42
2536.9
2506.83
2478.92
2450.72
2424.49
2398.03
2373.72
2349.7
2327.36
2305.87
2285.51
2266.12
2247.75
2230.52
2214.03
2198.77
2184.2
2170.74
2157.76
2145.47
2133.73
2122.66
2112.16
2102.21
2092.81
2083.84
2075.57
2067.92
2060.66
2053.55
2047.01
2040.55
2033.97
2028.05
2020.81
2021.17
2019.38
2014.65
2012.26
2008.84
2004.61
2000.04
1995.42
1990.83
1986.64
1983.15
1980.08
1977.27
1974.65
1972.07
1969.68
1967.53
1965.66
1964.01
1962.34
1960.67
1959.12
1957.7
1956.27
1954.84
1953.47
1952.08
1950.73
1949.07
1948.93
1948.18
1946.76
1945.42
1943.8
1942.07
1940.16
1938.09
1935.91
1933.67
1931.39
1929.12
1926.81
1924.62
1922.54
1920.65
1918.8
1917.11
1915.69
1914.4
1913.35
1912.25
1911.59
1910.85
1909.99
1909.04
1908.01
1906.81
1905.43
1903.86
1902.05
1900.09
1898.05
1895.99
1894.1
1892.41
1891.03
1889.86
1888.9
1888.2
1887.68
1887.14
1886.52
1885.85
1885.03
1883.98
1882.72
1881.28
1879.65
1877.86
1876.04
1874.14
1872.58
1871.04
1869.9
1868.92
1868.2
1867.55
1866.88
1866.16
1865.36
1864.41
1863.3
1862.01
1860.53
1858.91
1857.2
1855.46
1853.94
1852.13
1850.83
1849.97
1849.06
1848.25
1847.49
1846.69
1845.83
1844.85
1843.71
1842.41
1840.97
1839.42
1837.74
1835.99
1834.34
1832.44
1831.02
1829.97
1828.83
1827.92
1827.04
1825.76
3.49577
1.69441
0.833624
0.708206
1.45243
4.78967
16.3105
51.8474
124.043
231.8
355.543
482.103
612.669
744.113
876.516
1009.84
1145.66
1285.62
1431.38
1585.06
1746.15
1917.56
2097.86
2289.29
2490.93
2704.01
2927.85
3164.51
3409.12
3670.86
3942.34
4219.04
4501.63
4789.26
5075.61
5355.37
5640.71
5928.51
6217.94
6503.7
6784.13
7058.49
7331.44
7586.19
7820.3
8027.62
8237.15
8434.08
8615.28
8737.69
8848.56
8911.38
8969.42
8990.81
8995.89
8995.39
8965.52
8911.26
8833.14
8736.57
8622.6
8495
8357.87
8213.19
8063.96
7907.13
7745.83
7579.22
7411
7248.1
7082.54
6920.46
6757.04
6591.78
6429.89
6266.63
6107.86
5950.18
5796.58
5644.16
5497.9
5353.74
5216.35
5082.48
4954.38
4829.36
4709.14
4592.57
4481.05
4373.18
4270.16
4170.97
4075.91
3985.09
3898.25
3815.33
3735.95
3659.89
3586.48
3516.51
3449.08
3385.35
3324.14
3266.56
3211.39
3159.4
3109.62
3062.64
3017.66
2974.87
2933.96
2895.22
2858.52
2823.84
2790.68
2758.81
2726.62
2694.82
2661.62
2630.44
2607.04
2582.22
2556.35
2537.65
2518.81
2500.74
2483.8
2467.01
2450.48
2434.45
2419.12
2404.39
2390.16
2376.2
2362.4
2349.07
2336.02
2323.64
2311.83
2300.36
2289.26
2278.59
2268.42
2258.36
2248.62
2238.73
2228.72
2218.6
2208.24
2199.74
2191.18
2182.46
2174.93
2167.74
2161.11
2154.94
2149.1
2143.53
2138.3
2133.15
2128.28
2123.33
2118.41
2113.52
2108.56
2103.53
2098.51
2093.52
2088.65
2083.74
2079.01
2074.77
2070.89
2066.95
2063.74
2060.54
2057.86
2055.47
2053.32
2051.3
2049.27
2047.14
2044.76
2042.12
2039.26
2036.22
2033.04
2029.82
2026.51
2023.53
2020.53
2018.02
2015.8
2013.86
2012.14
2010.64
2009.39
2008.19
2006.91
2005.48
2003.8
2001.94
1999.85
1997.58
1995.2
1992.81
1990.49
1988.26
1986.33
1984.56
1983.07
1981.84
1980.82
1979.87
1978.9
1977.83
1976.65
1975.18
1973.37
1971.53
1969.64
1967.68
1965.74
1963.86
1962.16
1960.67
1959.33
1958.15
1957.1
1956.22
1955.4
1954.53
1953.59
1952.39
1950.93
1949.42
1947.77
1945.99
1944.13
1941.61
7.01473
3.90948
2.07117
2.63901
9.52559
28.1776
72.9204
163.366
312.291
512.437
743.389
982.486
1222.52
1460.1
1693.8
1923.56
2151.24
2379.25
2610.39
2849.58
3094.99
3351.67
3617.88
3896.31
4186.58
4490.2
4806.91
5138.18
5476.99
5827.8
6188.16
6557.8
6933.42
7314.3
7702.42
8090.34
8478.38
8866.65
9256.46
9641.6
10016.1
10372.5
10724.6
11054.4
11359.3
11617
11866.4
12092.5
12300.3
12431.5
12534.6
12579.1
12604.5
12584.7
12535.1
12459.6
12348.7
12211.3
12048.6
11865.8
11663.2
11445.6
11217.3
10980.7
10739.5
10491.5
10240.1
9985.06
9726.84
9473.86
9217.47
8967.05
8717.63
8470.22
8228.71
7990.7
7758.52
7532.15
7311.88
7096.76
6889.79
6687.8
6494.95
6307.82
6128.18
5953.91
5786.19
5624.29
5469.36
5319.72
5176.81
5039.19
4907.44
4781.48
4660.88
4545.52
4434.69
4328.31
4225.58
4127.35
4032.64
3942.72
3856.05
3774.14
3695.29
3620.61
3548.66
3480.5
3414.8
3352.21
3291.9
3234.64
3179.71
3127.72
3077.55
3029.66
2981.34
2934.59
2886.94
2839.78
2801.82
2762.8
2722.39
2688.97
2657.72
2627.52
2598.87
2570.77
2543.37
2516.84
2491.25
2466.58
2442.8
2419.5
2396.72
2374.51
2352.95
2332.06
2312.05
2292.5
2273.67
2255.34
2237.79
2220.47
2203.75
2187.02
2170.64
2154.47
2138.11
2123.6
2109.24
2094.67
2081.43
2068.61
2056.62
2045.15
2034.24
2023.7
2013.64
2003.84
1994.44
1985.12
1975.97
1967.01
1958.07
1949.11
1940.24
1931.5
1922.81
1914.34
1905.87
1898.18
1890.65
1883.43
1876.64
1870.24
1864.4
1858.93
1853.81
1848.98
1844.27
1839.59
1834.81
1829.94
1824.98
1819.91
1814.75
1809.57
1804.38
1799.44
1794.62
1790.13
1786
1782.17
1778.62
1775.38
1772.41
1769.68
1766.95
1764.18
1761.28
1758.25
1755.06
1751.76
1748.36
1744.99
1741.65
1738.42
1735.43
1732.64
1730.09
1727.87
1725.89
1724.04
1722.3
1720.52
1718.7
1716.76
1714.48
1712.14
1709.82
1707.4
1704.96
1702.58
1700.36
1698.33
1696.48
1694.79
1693.27
1691.96
1690.76
1689.6
1688.4
1687.12
1685.53
1683.89
1682.2
1680.36
1678.41
1675.73
10.4557
6.89699
5.33732
12.6889
36.1689
87.0473
191.37
373.001
633.85
946.826
1277.92
1598.81
1905.68
2199.86
2483.25
2759.48
3032.76
3306.02
3582.06
3867.04
4159.73
4464.64
4781.9
5114.09
5462.31
5827.02
6207.55
6604.85
7014.05
7436.26
7872.15
8322.97
8782.79
9249
9729.41
10211.5
10688.2
11158.7
11628.9
12094
12545.8
12963.8
13369.3
13744.6
14093
14376.5
14635
14857.1
15051.4
15162
15226.8
15224.7
15191
15106.3
14979.7
14816.7
14616.4
14389.5
14138.7
13869.1
13581.9
13281.8
12973.1
12657.3
12339
12017.1
11695.4
11374
11052.1
10739.2
10423.8
10117.9
9815.36
9519.85
9230.87
8950.69
8676.36
8412.21
8155.46
7907.27
7668.12
7436.44
7214.82
7000.17
6793.62
6594.4
6402.58
6218.41
6041.98
5872.13
5709.63
5553.34
5403.7
5260.61
5123.47
4992.13
4865.75
4744.12
4626.81
4514.28
4405.97
4302.83
4203.48
4109.31
4018.63
3932.34
3849.12
3769.97
3693.56
3620.59
3550.04
3482.93
3418.24
3357.03
3297.67
3241.01
3183.85
3128.89
3073.26
3016.65
2971.26
2925.03
2876.91
2835.83
2797.58
2760.37
2724.66
2689.72
2655.73
2622.82
2591
2560.33
2530.77
2501.78
2473.54
2445.93
2419.15
2393.11
2368.13
2343.7
2320.11
2297.1
2275.01
2253.24
2232.19
2211.22
2190.69
2170.56
2150.2
2131.77
2113.7
2095.38
2078.38
2061.88
2046.24
2031.16
2016.72
2002.73
1989.25
1976.13
1963.51
1951.04
1938.84
1926.91
1915.11
1903.38
1891.79
1880.42
1869.12
1858.17
1847.12
1837.03
1826.96
1817.39
1808.1
1799.36
1791.1
1783.27
1775.94
1768.87
1762.05
1755.37
1748.69
1741.95
1735.28
1728.56
1721.82
1715.03
1708.46
1701.95
1695.77
1689.7
1684.09
1678.79
1673.79
1669.11
1664.73
1660.61
1656.6
1652.62
1648.59
1644.47
1640.31
1636.09
1631.83
1627.59
1623.41
1619.35
1615.54
1611.89
1608.49
1605.38
1602.52
1599.82
1597.31
1594.77
1592.29
1589.76
1586.98
1584.13
1581.34
1578.48
1575.58
1572.74
1570.07
1567.56
1565.24
1563.08
1561.07
1559.3
1557.64
1556.07
1554.51
1552.92
1551.11
1549.26
1547.39
1545.41
1543.33
1540.45
13.7708
13.2353
16.3222
37.4911
88.4091
190.742
378.578
664.527
1024.84
1399.59
1760.25
2105.88
2439.42
2762.12
3076.08
3384.17
3690.13
3996.68
4306.96
4627.59
4958.54
5303.82
5665.31
6045.98
6446.78
6867.75
7309.13
7772.18
8252.68
8747.9
9259.13
9790.94
10336.3
10885.2
11450.7
12022.5
12583.8
13127.4
13664.2
14192.3
14705.6
15168.4
15602.4
15993.2
16350.6
16627.8
16856.6
17032.6
17162.5
17207.3
17189.1
17106.4
16971
16784.1
16543.4
16263.9
15955
15621.8
15273.3
14909.9
14544.9
14172.4
13796.5
13416.5
13038.8
12663.1
12292.5
11927.6
11567.3
11219
10871.6
10536.8
10207.4
9890.78
9579.67
9282.55
8990.69
8712.71
8442.56
8183.75
7934.18
7693.96
7463.62
7241.75
7027.83
6823.04
6625.44
6437.12
6256
6082.46
5915.96
5756.03
5602.69
5456.04
5315.11
5180.05
5049.95
4924.42
4803.45
4687.03
4575.18
4468.25
4365.34
4267.54
4173.37
4083.36
3996.58
3913.72
3833.67
3757.06
3682.86
3612
3543.48
3478.67
3415.56
3355.22
3294.41
3236.01
3176.99
3115.78
3067.07
3018
2966.88
2922.11
2880.32
2839.6
2800.18
2761.74
2724.32
2688.02
2652.82
2618.9
2586.13
2554.02
2522.74
2492.14
2462.39
2433.47
2405.65
2378.46
2352.17
2326.5
2301.82
2277.54
2254
2230.61
2207.68
2185.25
2162.5
2141.71
2121.53
2101.09
2081.84
2063.2
2045.39
2028.16
2011.59
1995.49
1979.95
1964.76
1950.15
1935.68
1921.56
1907.73
1894.1
1880.59
1867.26
1854.2
1841.24
1828.68
1815.98
1804.33
1792.64
1781.55
1770.64
1760.38
1750.51
1741.12
1732.24
1723.65
1715.37
1707.23
1699.21
1691.13
1683.22
1675.28
1667.4
1659.43
1651.82
1644.18
1636.97
1629.83
1623.06
1616.71
1610.68
1604.94
1599.52
1594.35
1589.35
1584.41
1579.49
1574.48
1569.56
1564.58
1559.61
1554.66
1549.83
1545.12
1540.66
1536.33
1532.27
1528.46
1524.91
1521.53
1518.36
1515.21
1512.16
1509.13
1505.89
1502.58
1499.37
1496.1
1492.8
1489.58
1486.52
1483.62
1480.9
1478.37
1475.97
1473.79
1471.75
1469.8
1467.91
1466.01
1463.94
1461.84
1459.78
1457.64
1455.4
1452.31
17.0184
28.3658
38.2695
79.7487
170.076
340.615
617.994
987.449
1378.9
1760.34
2130.88
2490.82
2841.44
3183.64
3519.45
3851.56
4183.12
4516.78
4856.14
5207.4
5572.18
5954.4
6356.95
6782.72
7233.5
7709.46
8210.59
8739.85
9292.8
9861.74
10447.7
11058.8
11688.5
12316.9
12957.3
13609.1
14247.4
14850.8
15433.4
15996.8
16541
17015.2
17441.3
17805.9
18118.1
18331.3
18463.9
18524.2
18508.5
18420.9
18253.2
18038.1
17762.8
17447.3
17066.8
16654.8
16235.2
15794
15351.3
14899.6
14455.7
14008.1
13566
13131.8
12702.8
12291.2
11891.4
11506.2
11136.6
10779.9
10437.8
10108.9
9789.09
9489.3
9191.09
8913.32
8637.99
8380.29
8128.09
7890.73
7660.06
7440.53
7228.18
7024.14
6825.46
6637.05
6453.59
6280.6
6112.34
5952.43
5797.94
5649.7
5507.02
5370.78
5239.04
5112.72
4990.73
4872.68
4758.76
4648.65
4542.93
4441.23
4343.36
4250.05
4160.14
4073.81
3990.6
3910.73
3833.55
3759.3
3687.25
3618.04
3550.87
3487.34
3425.16
3365.53
3305.58
3247.96
3189.74
3128.59
3079.73
3031.31
2981.32
2935.69
2893.18
2852.05
2811.93
2772.94
2734.85
2697.79
2661.71
2626.92
2593.17
2560.18
2527.99
2496.47
2465.76
2435.87
2407.02
2378.9
2351.6
2324.95
2299.28
2274.04
2249.53
2225.23
2201.36
2178.01
2154.26
2132.38
2111.3
2089.96
2069.65
2050
2031.12
2012.89
1995.25
1978.13
1961.54
1945.29
1929.64
1914.13
1899.02
1884.16
1869.57
1855.1
1840.84
1826.85
1813
1799.55
1785.92
1773.4
1760.78
1748.85
1736.98
1725.85
1714.99
1704.71
1694.84
1685.34
1676.13
1667.06
1658.18
1649.21
1640.53
1631.78
1623.16
1614.43
1606.12
1597.74
1589.83
1581.97
1574.48
1567.4
1560.66
1554.19
1548.04
1542.15
1536.44
1530.83
1525.26
1519.61
1514.12
1508.59
1503.09
1497.64
1492.35
1487.15
1482.2
1477.38
1472.81
1468.5
1464.44
1460.57
1456.89
1453.28
1449.78
1446.36
1442.76
1439.09
1435.54
1431.95
1428.35
1424.82
1421.46
1418.26
1415.24
1412.4
1409.71
1407.22
1404.89
1402.63
1400.45
1398.32
1396.03
1393.71
1391.48
1389.17
1386.8
1383.51
21.7718
52.0632
71.4372
141.07
282.224
525.752
875.298
1267.83
1656.71
2038.19
2411.64
2778.15
3138.47
3493.52
3845.26
4195.78
4547.6
4903.92
5268.24
5646.03
6041.09
6456.91
6896.84
7364.5
7863.33
8392.86
8951.96
9546.08
10170.4
10812.8
11471
12155.2
12864.4
13564.8
14265.3
14975.6
15672.1
16312.5
16908.1
17464.6
17986.2
18405.6
18751.9
19007.9
19176.6
19244.5
19208.7
19091.7
18878.7
18600.7
18218.7
17776.9
17261
16724.5
16142.8
15540.1
14974.1
14401.6
13839.8
13307.3
12790
12310
11829.1
11388.6
10944.8
10549.4
10167.1
9815.91
9489.68
9176.24
8893.48
8616.86
8359.17
8123.47
7887.3
7676.1
7461.67
7268.48
7074.03
6899.13
6723.84
6563.2
6401.68
6252.66
6102.24
5963.35
5823.23
5693.78
5563.98
5442.29
5322.1
5207.2
5093.65
4984.36
4876.17
4772.46
4671.19
4572.84
4477.28
4384.17
4294.54
4207.64
4124.1
4044.01
3966.69
3891.9
3819.75
3749.84
3682.27
3616.64
3552.9
3491.03
3430.8
3373.6
3317.19
3262.94
3208.74
3156.55
3103.63
3047.64
3001.69
2957.15
2911.96
2868.65
2828.23
2789.79
2751.87
2715.3
2679.16
2643.95
2609.45
2576.14
2543.64
2512.05
2481.04
2450.74
2421.03
2392.09
2363.99
2336.7
2310.07
2284.1
2259
2234.33
2210.36
2186.61
2163.26
2140.33
2116.98
2095.23
2074.39
2053.34
2033.11
2013.52
1994.6
1976.39
1958.64
1941.5
1924.74
1908.42
1892.56
1876.9
1861.66
1846.55
1831.83
1817.15
1802.72
1788.54
1774.5
1760.82
1746.94
1734.14
1721.26
1709.08
1696.87
1685.42
1674.19
1663.57
1653.26
1643.35
1633.71
1624.19
1614.93
1605.54
1596.5
1587.36
1578.39
1569.34
1560.67
1551.94
1543.65
1535.44
1527.6
1520.12
1512.96
1506.06
1499.49
1493.17
1487.03
1481.04
1475.08
1469.1
1463.22
1457.4
1451.58
1445.85
1440.26
1434.77
1429.52
1424.39
1419.49
1414.87
1410.47
1406.27
1402.26
1398.36
1394.55
1390.88
1387.05
1383.16
1379.39
1375.59
1371.79
1368.06
1364.49
1361.09
1357.86
1354.83
1351.93
1349.23
1346.7
1344.25
1341.87
1339.58
1337.14
1334.64
1332.29
1329.87
1327.39
1323.99
27.7198
83.3008
117.309
222.002
418.664
724.548
1103.26
1488.37
1870.5
2246.72
2617.82
2985.06
3349.3
3711.95
4074.37
4438.14
4805.52
5179.97
5564.97
5965.02
6386.16
6831.46
7305.25
7811.67
8355.93
8937.17
9551.46
10206.6
10899.7
11612.5
12338.3
13085
13860.6
14618.2
15355.9
16088.9
16799.6
17426.2
17973.2
18446.1
18855
19133.7
19310
19358.8
19288.7
19106.9
18747.8
18276.8
17694.9
17084.3
16381.9
15660.6
14896.3
14136.6
13407.5
12692.6
11995.5
11380.7
10756.1
10226.9
9690.47
9243.66
8789.78
8414.78
8034.99
7723.48
7417.43
7155.6
6912.81
6687.5
6494.27
6301.08
6135.43
5981.79
5834
5708
5578.98
5473.16
5364.01
5273.41
5179.71
5099.52
5015.44
4941.89
4865.07
4796.69
4725.42
4660.26
4593.26
4530.5
4466.79
4403.77
4339.05
4274.53
4208.49
4144.3
4079.53
4015.91
3952.95
3890.17
3829.41
3768.45
3709.07
3650.88
3594.03
3538.13
3483.88
3430.35
3378.51
3327.27
3277.33
3228.08
3180.41
3134.19
3088.5
3044.36
3000.86
2958.55
2915.18
2869.46
2829
2791.79
2754.32
2716.87
2681.39
2648.57
2615.61
2584.21
2552.58
2521.88
2491.37
2461.92
2432.99
2405.09
2377.36
2350.39
2323.62
2297.58
2272.04
2247.4
2223.11
2199.48
2176.44
2153.93
2131.95
2110.22
2088.8
2067.61
2046.09
2025.64
2006.2
1986.65
1967.63
1949.15
1931.18
1914
1897.08
1880.89
1864.84
1849.36
1834.1
1819.21
1804.61
1790.06
1775.99
1761.85
1747.99
1734.33
1720.79
1707.55
1694.1
1681.62
1669.12
1657.22
1645.31
1634.07
1623.04
1612.54
1602.35
1592.49
1582.9
1573.44
1564.24
1554.91
1545.89
1536.82
1527.92
1518.95
1510.27
1501.58
1493.29
1485.08
1477.2
1469.63
1462.37
1455.35
1448.64
1442.2
1435.92
1429.83
1423.75
1417.73
1411.71
1405.82
1399.93
1394.12
1388.44
1382.87
1377.51
1372.28
1367.24
1362.48
1357.93
1353.59
1349.42
1345.39
1341.43
1337.68
1333.77
1329.79
1325.92
1322.06
1318.19
1314.38
1310.72
1307.23
1303.89
1300.76
1297.77
1294.97
1292.33
1289.8
1287.31
1284.95
1282.44
1279.87
1277.46
1275
1272.48
1269.04
34.6941
120.096
175.344
318.998
566.503
910.209
1283.6
1657.99
2029.34
2396.46
2760.99
3124.29
3487.81
3853.18
4221.17
4593.15
4971.43
5359.23
5760.1
6177.91
6620.29
7091.4
7595.88
8137.6
8724.3
9355.09
10020.9
10732.1
11488.6
12265.5
13049.6
13841.1
14655.7
15436.9
16167.6
16864.6
17514.9
18034.7
18444.6
18739.4
18939
18936.3
18761.4
18427.4
17925.2
17333.6
16567.9
15707.4
14773.6
13858.7
12928.8
12049.3
11194.6
10415.2
9699.9
9054.92
8396.08
7864.3
7318.21
6884.71
6440.04
6092.58
5739.08
5465.65
5186.7
4971.2
4755.58
4585.26
4423.12
4285.11
4166.2
4051.62
3961.32
3873.24
3798.76
3735.59
3673.96
3629.49
3582.95
3551.02
3517.59
3494.49
3469.36
3451.1
3431.23
3417.17
3401.61
3388.65
3374.69
3361.28
3346.99
3332.3
3316.37
3299.82
3281.65
3262.64
3242.4
3221.37
3199.43
3176.49
3152.93
3128.1
3101.88
3074.38
3045.91
3016.73
2987.16
2957.24
2927.31
2897.14
2866.98
2836.19
2805.85
2775.27
2744.95
2715.11
2686.26
2657.11
2626.65
2594.65
2563.69
2536.26
2508.46
2480.3
2452.84
2427.75
2402.58
2378.52
2354.15
2330.27
2306.19
2282.86
2259.73
2237.46
2215.13
2193.37
2171.52
2150.2
2129.07
2108.68
2088.42
2068.71
2049.29
2030.4
2011.81
1993.54
1975.34
1957.25
1938.92
1921.07
1904.08
1887.2
1870.46
1854.16
1838.19
1822.97
1807.87
1793.46
1779.09
1765.27
1751.52
1738.19
1725
1711.88
1699.12
1686.36
1673.73
1661.34
1648.98
1636.84
1624.55
1612.97
1601.45
1590.4
1579.37
1568.87
1558.54
1548.67
1539.06
1529.78
1520.71
1511.81
1503.07
1494.34
1485.7
1477.19
1468.75
1460.24
1451.94
1443.68
1435.75
1427.88
1420.28
1412.95
1405.92
1399.1
1392.54
1386.27
1380.14
1374.23
1368.3
1362.49
1356.65
1350.92
1345.21
1339.55
1334.01
1328.57
1323.31
1318.18
1313.21
1308.49
1303.97
1299.67
1295.52
1291.53
1287.6
1283.92
1280.08
1276.18
1272.36
1268.58
1264.78
1261.04
1257.41
1253.95
1250.62
1247.5
1244.53
1241.74
1239.1
1236.59
1234.11
1231.79
1229.29
1226.74
1224.36
1221.95
1219.47
1216.09
46.347
160.721
242.2
424.789
712.498
1061
1422.38
1783.2
2140.76
2495.8
2850.31
3205.83
3564.39
3927.82
4296.66
4672.07
5056.32
5452.58
5864.22
6295.52
6755.07
7248.83
7781.33
8355.23
8981.32
9658.86
10373.8
11134.8
11943.3
12770.7
13592.3
14393.8
15205.1
15952.2
16591
17167.7
17667.6
17983.4
18102.5
18038.7
17819.1
17442
16811.3
16033.5
15096.7
14109.9
13061
11978.4
10982.3
9997.86
9129.93
8324.54
7572.28
6919.21
6296.8
5793.26
5272.94
4866.83
4453.66
4139.99
3822.82
3584.84
3343.65
3164.94
2983.1
2848.86
2713.9
2614.38
2517.39
2443.9
2376.9
2320.97
2277.24
2236.32
2207.59
2181.4
2163.42
2152.22
2141.92
2139.38
2139.84
2143.49
2149.38
2158.36
2168.84
2181.64
2195.1
2209.81
2223.85
2238.33
2251.42
2265.36
2278.44
2292.2
2303.71
2315.25
2325.42
2334.9
2343.85
2350.73
2357.07
2361.02
2363.46
2364.03
2363.46
2361.88
2359.21
2355.38
2350.53
2344.6
2337.76
2329.49
2320.15
2309.44
2297.82
2285.76
2273.84
2261.37
2247.87
2231.93
2214.65
2198.77
2182.68
2166.22
2149.6
2134.07
2118.79
2103.86
2088.66
2073.27
2057.59
2042.12
2026.59
2011.46
1996.23
1981.2
1966
1950.93
1935.82
1921.09
1906.32
1891.89
1877.51
1863.46
1849.6
1835.97
1822.25
1808.51
1794.53
1780.57
1767.08
1753.82
1740.44
1727.34
1714.37
1701.98
1689.65
1677.85
1666.05
1654.65
1643.29
1632.25
1621.26
1610.37
1599.6
1588.98
1578.3
1567.84
1557.34
1546.98
1536.48
1526.43
1516.45
1506.83
1497.19
1487.98
1478.86
1470.13
1461.59
1453.37
1445.28
1437.4
1429.59
1421.87
1414.11
1406.55
1398.96
1391.32
1383.82
1376.34
1369.12
1361.95
1354.97
1348.21
1341.72
1335.41
1329.32
1323.5
1317.83
1312.36
1306.87
1301.51
1296.13
1290.82
1285.54
1280.28
1275.12
1270.04
1265.1
1260.28
1255.58
1251.09
1246.8
1242.72
1238.78
1234.99
1231.29
1227.83
1224.23
1220.58
1216.98
1213.43
1209.85
1206.31
1202.85
1199.54
1196.35
1193.37
1190.52
1187.86
1185.34
1182.95
1180.6
1178.41
1176.05
1173.63
1171.37
1169.09
1166.74
1163.56
60.72
203.219
313.315
531.649
835.948
1178.48
1524.83
1869.39
2211.01
2551.48
2893.11
3237.25
3587.32
3944.84
4310.21
4684.36
5069.69
5469.66
5887.89
6329.29
6802.89
7316.98
7876.08
8480.44
9143.06
9865.19
10626.8
11424.9
12262.9
13117.5
13941.6
14686
15424.8
16067.8
16533.7
16847
17025.5
16979.8
16721.3
16253
15573.7
14771.3
13756.7
12643.3
11511.3
10374.2
9369.56
8341.51
7475.35
6595.68
5885.49
5232.75
4645.87
4161.46
3693.91
3341.82
2987.3
2714.06
2448.34
2246.34
2053.27
1907.7
1766.99
1662.34
1560.02
1485.28
1409.77
1356.4
1301.98
1264.8
1226.57
1201.61
1177.39
1160.35
1148.67
1136.34
1134.28
1132.46
1134.63
1139.27
1146
1155.89
1168.27
1183.48
1200.33
1219.4
1239.75
1261.84
1284.71
1308.89
1333.41
1359.14
1384.6
1411.14
1436.49
1462.54
1487.87
1513.49
1539.03
1563.06
1586.84
1608.16
1629.08
1648.53
1667.46
1684.57
1701.04
1715.46
1729.54
1741.28
1752.77
1761.65
1769.33
1775.26
1780.07
1784.77
1789.7
1793.99
1798.46
1799.38
1798.18
1796.12
1793.31
1789.59
1785.21
1780.64
1775.98
1771.32
1766.27
1760.82
1754.78
1748.4
1741.78
1735.07
1728.14
1720.99
1713.49
1705.69
1697.66
1689.53
1681.23
1672.98
1664.66
1656.37
1648.22
1640.07
1631.81
1623.37
1614.58
1605.58
1596.58
1587.65
1578.57
1569.46
1560.31
1551.52
1542.72
1534.27
1525.76
1517.53
1509.23
1501.19
1493.08
1485.05
1477.04
1469.11
1461.1
1453.15
1445.15
1437.15
1429.04
1421.12
1413.24
1405.58
1397.85
1390.43
1383
1375.9
1368.89
1362.18
1355.53
1349.09
1342.66
1336.33
1329.92
1323.67
1317.36
1311
1304.68
1298.35
1292.2
1286.06
1280.05
1274.19
1268.55
1263.05
1257.74
1252.65
1247.72
1242.98
1238.21
1233.57
1228.9
1224.29
1219.68
1215.07
1210.53
1206.03
1201.64
1197.35
1193.13
1189.09
1185.21
1181.54
1177.99
1174.59
1171.28
1168.22
1165.03
1161.79
1158.58
1155.41
1152.21
1149.03
1145.89
1142.87
1139.95
1137.23
1134.63
1132.2
1129.92
1127.77
1125.66
1123.71
1121.59
1119.43
1117.39
1115.34
1113.22
1110.36
75.97
246.233
384.743
626.284
935.195
1265.71
1595.47
1921.67
2245.34
2568.67
2895.15
3227.79
3567.78
3916.47
4274.44
4642.79
5024.36
5423.59
5844.85
6293.49
6778.78
7311.93
7898.11
8533.72
9231.01
9990.01
10788.8
11609.5
12444.3
13272.7
14048.7
14682.8
15243.4
15659.9
15813.3
15754.3
15542.8
15164.8
14499.7
13636.2
12581.7
11467.9
10338.3
9174.78
8128.83
7056.06
6201.96
5337.58
4667.02
3995.62
3482.14
3011.64
2618.82
2295.69
2002.67
1778.51
1573.13
1413.1
1264.49
1152.37
1047.31
969.565
896.208
842.374
790.342
752.578
714.527
687.417
659.797
640.605
620.673
607.718
593.675
586.194
578.512
572.076
569.825
567.11
568.103
569.898
572.675
577.311
583.545
591.667
601.117
612.245
624.597
638.548
653.623
670.291
688.038
707.381
727.64
749.306
771.679
795.22
819.493
844.936
871.111
897.998
925.349
952.625
980.192
1006.88
1033.87
1059.7
1085.73
1110.19
1134.81
1157.43
1179.9
1200.15
1219.21
1237
1254.6
1272.2
1289.98
1307.43
1324.08
1339.44
1351.07
1360.62
1369.27
1376.93
1383.08
1388.98
1394.1
1399.43
1403.78
1408.19
1411.48
1414.43
1416.74
1419.1
1420.79
1422.49
1423.32
1423.3
1422.94
1422.25
1421.13
1419.73
1418.09
1416.28
1414.36
1412.33
1410.07
1407.51
1404.44
1400.92
1397.09
1393.03
1388.7
1384.13
1379.38
1374.66
1369.9
1365.28
1360.58
1355.97
1351.28
1346.7
1342.02
1337.33
1332.6
1327.83
1322.98
1318.05
1313.03
1307.9
1302.63
1297.33
1292
1286.73
1281.4
1276.17
1270.89
1265.82
1260.75
1255.95
1251.14
1246.5
1241.86
1237.27
1232.61
1228.01
1223.36
1218.64
1213.87
1209.05
1204.31
1199.54
1194.81
1190.17
1185.67
1181.29
1177.04
1172.97
1169.04
1165.29
1161.52
1157.85
1154.16
1150.49
1146.8
1143.08
1139.4
1135.72
1132.1
1128.54
1125.02
1121.63
1118.36
1115.28
1112.33
1109.48
1106.75
1104.24
1101.64
1098.99
1096.33
1093.7
1091.04
1088.37
1085.69
1083.11
1080.59
1078.26
1076.03
1073.97
1072.05
1070.26
1068.51
1066.9
1065.15
1063.37
1061.65
1059.93
1058.14
1055.75
91.2559
284.661
448.228
703.773
1009.85
1325.71
1637.82
1944.12
2248.26
2556.98
2869.37
3186.8
3512.48
3848.23
4194.84
4553.51
4927.87
5323.81
5746.71
6202.43
6700.01
7253.53
7869.88
8537.38
9262.85
10053.4
10873.9
11686
12475.9
13216.8
13869.2
14291.1
14575.1
14672.5
14484.7
14077.7
13476.5
12750
11764.6
10644.9
9474.69
8271.98
7231.94
6176.68
5316.02
4447.34
3786.44
3154.87
2686.79
2248.91
1922.52
1625.49
1398.09
1206.89
1046.7
923.082
816.241
735.358
663.356
609.639
560.836
524.933
491.306
466.551
442.52
424.622
406.591
393.008
379.216
368.866
358.273
350.466
342.13
336.759
330.714
326.789
323.224
319.374
317.684
316.043
314.916
315.034
315.567
316.892
318.884
321.73
325.202
329.517
334.511
340.413
347.057
354.682
363.089
372.537
382.826
394.213
406.496
419.961
434.421
450.076
466.744
484.434
503.102
522.513
542.767
563.761
585.506
607.854
630.729
653.885
677.306
700.612
723.611
746.462
769.864
793.71
817.865
842.224
865.696
888.785
908.446
925.964
942.345
958.297
972.807
987.255
1000.65
1014.26
1026.84
1039.57
1051.08
1062.37
1072.57
1082.84
1092.13
1101.32
1109.56
1117.25
1124.07
1130.65
1136.5
1142
1147.08
1151.98
1156.48
1160.99
1164.93
1168.69
1171.52
1173.65
1175.07
1176.19
1176.79
1176.97
1176.82
1176.53
1176.09
1175.58
1174.95
1174.26
1173.47
1172.65
1171.68
1170.62
1169.44
1168.17
1166.72
1165.13
1163.36
1161.42
1159.25
1156.91
1154.45
1151.89
1149.25
1146.53
1143.72
1140.97
1138.17
1135.54
1132.88
1130.31
1127.76
1125.2
1122.57
1119.92
1117.22
1114.41
1111.5
1108.49
1105.44
1102.33
1099.17
1096.02
1092.93
1089.9
1086.97
1084.18
1081.51
1078.99
1076.45
1073.99
1071.5
1069
1066.46
1063.88
1061.26
1058.62
1055.98
1053.37
1050.74
1048.19
1045.73
1043.43
1041.24
1039.14
1037.15
1035.36
1033.51
1031.61
1029.68
1027.74
1025.77
1023.76
1021.71
1019.7
1017.72
1015.92
1014.18
1012.61
1011.16
1009.84
1008.58
1007.42
1006.16
1004.86
1003.58
1002.3
1000.93
999.151
104.936
315.694
500.255
762.625
1061.28
1361.17
1654.32
1941.99
2231.21
2521.98
2816.26
3116.1
3425.11
3745.49
4078.34
4425.11
4790.47
5182.31
5607.44
6072.83
6586.94
7163.52
7809.84
8513.98
9265.43
10071.2
10890.6
11657
12338.5
12915.6
13373.2
13506.9
13448.4
13257.8
12758.7
12025.4
11094.9
10049.6
8921
7741.3
6658.67
5554.84
4679.78
3840.96
3194.75
2588.56
2138.15
1741.06
1453.01
1204.22
1022.86
862.215
749.935
650.095
575.982
515.277
467.171
431.138
400.746
377.62
356.482
340.163
324.272
311.971
299.833
290.242
280.451
272.466
264.291
257.611
250.754
245.171
239.367
234.791
229.901
226.379
222.74
219.275
216.557
213.764
211.534
209.785
207.923
206.762
205.57
205.103
204.62
204.697
204.953
205.546
206.435
207.716
209.332
211.385
213.829
216.777
220.161
224.093
228.53
233.595
239.237
245.553
252.545
260.167
268.506
277.581
287.466
298.189
309.746
322.122
335.289
349.255
364.004
379.669
396.552
414.603
433.632
453.476
473.921
494.867
514.913
533.974
552.523
571.272
589.416
607.751
625.529
643.563
661.087
678.925
695.949
713.102
729.118
745.257
760.415
775.35
789.447
803.384
816.338
829.135
841.161
852.855
863.977
874.971
885.353
895.693
905.274
914.489
922.756
930.316
936.874
943.065
948.528
953.681
958.109
962.437
966.277
970.172
973.662
977.213
980.421
983.638
986.434
989.184
991.623
994.002
996.067
997.985
999.604
1001.02
1002.1
1002.91
1003.47
1003.86
1004.07
1004.03
1003.86
1003.63
1003.31
1003.01
1002.66
1002.36
1002.03
1001.69
1001.26
1000.78
1000.22
999.524
998.67
997.653
996.519
995.246
993.867
992.409
990.924
989.446
988.026
986.697
985.463
984.354
983.237
982.173
981.076
979.941
978.736
977.454
976.094
974.668
973.198
971.697
970.154
968.625
967.133
965.771
964.515
963.31
962.233
961.299
960.349
959.337
958.282
957.197
956.056
954.842
953.567
952.274
950.969
949.813
948.695
947.735
946.881
946.142
945.473
944.881
944.215
943.505
942.784
942.054
941.204
940.186
117.396
339.466
539.831
803.644
1091.19
1374.39
1650.7
1924.21
2194.65
2465.35
2739.98
3020.9
3311.8
3615.44
3933.49
4267.85
4624.41
5013.6
5444.54
5925.73
6460.72
7064.91
7749.45
8493.46
9261.22
10061.6
10846.4
11515.8
12029.6
12381
12570
12412.8
12045.8
11539.5
10756.1
9770.62
8611.68
7377.16
6273.39
5187.81
4287.91
3414.73
2765.31
2192.16
1772.14
1415.77
1156.67
945.138
791.034
667.787
576.022
499.104
446.762
397.777
366.354
336.966
317.616
301.169
287.366
276.545
265.252
255.918
246.29
238.722
230.885
224.439
217.817
212.268
206.509
201.578
196.505
192.211
187.771
184.063
180.221
177.129
173.893
171.282
168.787
166.163
163.901
161.975
159.978
158.232
156.464
155.153
153.813
152.762
151.678
150.887
150.072
149.551
149.014
148.745
148.529
148.587
148.76
149.108
149.622
150.345
151.266
152.429
153.835
155.464
157.361
159.537
162.041
164.899
168.133
171.759
175.807
180.319
185.347
191.012
197.453
204.691
212.728
221.537
231.089
241.295
251.942
262.901
274.31
286.258
298.735
311.779
325.326
339.463
354.125
369.453
385.241
401.487
417.974
434.766
451.63
468.713
485.509
502.461
518.81
535.221
551.145
566.945
582.299
597.621
612.44
627.177
641.245
654.861
667.672
679.957
691.156
701.978
711.885
721.607
730.387
739.092
747.028
755.04
762.418
769.878
776.758
783.711
790.162
796.638
802.683
808.713
814.332
819.814
824.909
829.776
834.238
838.359
842.1
845.616
848.737
851.597
854.054
856.469
858.623
860.815
862.856
864.936
866.941
868.966
870.838
872.624
874.355
875.9
877.224
878.273
879.189
879.856
880.372
880.704
880.964
881.173
881.396
881.659
881.989
882.394
882.824
883.289
883.697
884.055
884.309
884.45
884.444
884.363
884.194
883.944
883.609
883.236
882.849
882.56
882.352
882.176
882.131
882.168
882.242
882.225
882.167
882.059
881.868
881.57
881.176
880.723
880.226
879.822
879.441
879.193
879.035
878.989
879.01
879.091
879.109
879.084
879.028
878.956
878.703
878.609
127.557
354.583
566.698
827.672
1101.48
1370.48
1633.9
1890.27
2141.35
2391.44
2645.49
2906.75
3178.94
3465.56
3769.38
4092.86
4443.26
4834.32
5276.08
5778.95
6347.94
6992.78
7721.7
8509.4
9277.03
10042.2
10747.9
11261.2
11545.6
11612.4
11526.9
11122.2
10430.5
9580.88
8526.01
7349.02
6148.56
4940.29
3996.31
3144.14
2503.43
1941.66
1537.62
1208.67
974.802
791.775
659.428
555.96
477.533
417.244
369.215
332.296
304.459
281.376
266.639
252.718
243.458
233.779
226.023
218.192
210.309
203.739
197.027
191.394
185.713
180.983
176.109
171.977
167.717
164.117
160.395
157.228
153.984
151.261
148.483
146.114
143.629
141.63
139.717
137.738
135.84
134.27
132.683
131.204
129.699
128.466
127.219
126.123
125.005
124.051
123.078
122.233
121.368