/*--------------------------------*- C++ -*----------------------------------*\
| =========                 |                                                 |
| \\      /  F ield         | OpenFOAM: The Open Source CFD Toolbox           |
|  \\    /   O peration     | Version:  2312                                  |
|   \\  /    A nd           | Website:  www.openfoam.com                      |
|    \\/     M anipulation  |                                                 |
\*---------------------------------------------------------------------------*/
FoamFile
{
    version     2.0;
    format      ascii;
    arch        "LSB;label=32;scalar=64";
    class       volScalarField;
    location    "0.003";
    object      nut;
}
// * * * * * * * * * * * * * * * * * * * * * * * * * * * * * * * * * * * * * //

dimensions      [0 2 -1 0 0 0 0];

internalField   nonuniform List<scalar> 
48128
(
2.56754e-07
6.75839e-07
9.54673e-07
8.9243e-07
8.62413e-07
7.25334e-07
6.22651e-07
6.60084e-06
2.99754e-05
7.30574e-05
0.000119557
0.000163039
0.000202727
0.000238619
0.00027138
0.000301879
0.000330779
0.000358541
0.000385601
0.000412333
0.000438928
0.00046547
0.000492034
0.000518762
0.000545803
0.000573366
0.000601618
0.000630846
0.000661234
0.000693154
0.000725897
0.000759398
0.000793921
0.000829467
0.000865924
0.000903473
0.000943461
0.000984199
0.00102601
0.00106789
0.00111006
0.00115241
0.00119618
0.00123827
0.00127883
0.00131582
0.00135353
0.00138809
0.00141879
0.00144144
0.00146231
0.00147594
0.0014904
0.00149889
0.00151449
0.00154423
0.00156774
0.00158881
0.00160474
0.00161773
0.00162737
0.00163418
0.0016394
0.00164289
0.00164522
0.00164562
0.00164472
0.0016421
0.00156019
0.00147344
0.00139574
0.00132648
0.001263
0.00120553
0.00115241
0.00110379
0.00105879
0.00101744
0.000978998
0.000943689
0.000911151
0.00088093
0.000853154
0.000827044
0.000803057
0.000780397
0.000759737
0.000740177
0.000722345
0.000705427
0.00068982
0.000674958
0.000661229
0.000648254
0.000636258
0.000625061
0.000614486
0.000604489
0.000594999
0.000586212
0.000577886
0.00057027
0.000563185
0.000556628
0.000550395
0.000544623
0.000539175
0.000534107
0.000529268
0.000524736
0.000520396
0.000516445
0.000512823
0.000509372
0.000506072
0.000502717
0.000499206
0.000495754
0.000491652
0.000488628
0.000488106
0.00048608
0.000483812
0.0004831
0.000481678
0.000480005
0.000478218
0.000476368
0.000474583
0.000472953
0.000471492
0.000470152
0.000468845
0.000467531
0.000466257
0.000465037
0.000463917
0.000462918
0.000461956
0.000460985
0.000460069
0.000459221
0.000458395
0.000457563
0.000456726
0.000455866
0.000455027
0.000454071
0.000453306
0.000452988
0.000452388
0.000451675
0.000451182
0.000450588
0.000450049
0.000449471
0.000448888
0.000448286
0.000447692
0.000447093
0.000446484
0.000445857
0.000445244
0.000444659
0.000444056
0.000443468
0.00044293
0.000442415
0.000441959
0.000441484
0.000441117
0.000440867
0.00044057
0.0004403
0.000440026
0.000439816
0.000439574
0.000439337
0.00043906
0.000438732
0.000438352
0.000437937
0.000437504
0.000437071
0.000436684
0.000436325
0.00043599
0.000435706
0.000435487
0.000435308
0.000435156
0.000435004
0.000434894
0.000434765
0.000434609
0.000434437
0.000434244
0.000434005
0.000433714
0.000433398
0.00043307
0.000432758
0.000432478
0.000432224
0.000432018
0.000431864
0.000431728
0.000431611
0.000431504
0.000431395
0.000431284
0.000431164
0.00043102
0.000430838
0.000430629
0.000430372
0.000430151
0.000429905
0.000429561
0.000429395
0.000429247
0.000429082
0.000428954
0.000428847
0.000428752
0.000428656
0.00042855
0.000428426
0.000428292
0.000428147
0.00042798
0.000427778
0.000427578
0.000427351
0.000427061
0.000426903
0.00042674
0.000426572
0.000426436
0.000426284
4.61649e-06
3.80469e-06
2.16893e-06
1.78364e-06
3.40449e-06
7.86366e-06
2.03509e-05
5.64028e-05
0.000127829
0.000243492
0.000399336
0.000573771
0.000767896
0.000972665
0.0011823
0.00139293
0.00160469
0.00181945
0.00204022
0.00227082
0.00251078
0.00276629
0.00303547
0.0033222
0.00362513
0.00394561
0.00428097
0.0046347
0.00499674
0.00539885
0.00582032
0.00624227
0.00666955
0.00710353
0.0075283
0.00787703
0.00823578
0.00859118
0.00894332
0.00928086
0.00960528
0.00991669
0.0102254
0.0104997
0.0107429
0.0109463
0.0111563
0.0113502
0.0115316
0.0116447
0.0117573
0.0118154
0.0118775
0.0118946
0.0118826
0.0118525
0.011784
0.0117009
0.0115991
0.0114814
0.0113496
0.0112089
0.0110628
0.0109123
0.0107607
0.0106021
0.0104412
0.0102754
0.0101158
0.00996923
0.00982116
0.00967822
0.00953182
0.00938116
0.00923407
0.00908136
0.00893414
0.00878232
0.00863471
0.00848212
0.00833695
0.00818926
0.0080504
0.00791097
0.00777921
0.00764487
0.00751676
0.00738778
0.00726527
0.00714296
0.00702732
0.00691285
0.00680339
0.00669652
0.00659291
0.00649266
0.00639579
0.0063024
0.00621046
0.00612213
0.00603523
0.00595194
0.00587019
0.00579282
0.00571711
0.00564554
0.00557553
0.00550942
0.00544483
0.00538321
0.00532354
0.00526618
0.00521107
0.00515824
0.00510754
0.00505925
0.00500982
0.00496126
0.00491028
0.00486677
0.00482268
0.00477767
0.00473483
0.00469943
0.00466506
0.00463248
0.00460228
0.00457232
0.00454293
0.00451446
0.00448708
0.0044604
0.00443472
0.00440927
0.00438416
0.00435978
0.00433559
0.0043124
0.00429007
0.00426817
0.00424684
0.00422615
0.00420632
0.00418662
0.00416762
0.00414565
0.0041196
0.00409464
0.00407014
0.00404015
0.00401384
0.0039879
0.00395979
0.00393432
0.00390925
0.00388522
0.00386241
0.00384023
0.00381927
0.0037993
0.00377975
0.00376203
0.00374457
0.00372772
0.00371128
0.00369545
0.00367985
0.00366449
0.00364953
0.00363493
0.00361982
0.00360497
0.00359058
0.00357691
0.00356274
0.00354997
0.0035369
0.00352508
0.00351346
0.00350261
0.00349264
0.0034831
0.00347466
0.00346693
0.00345914
0.00345133
0.00344358
0.00343564
0.00342799
0.00341919
0.00341102
0.00340221
0.00339463
0.00338679
0.00337929
0.003372
0.00336509
0.00335867
0.00335323
0.00334778
0.00334341
0.00333836
0.00333444
0.00333011
0.00332565
0.00332055
0.00331565
0.00331046
0.00330536
0.00330019
0.00329513
0.0032903
0.00328573
0.00328172
0.00327794
0.0032747
0.00327171
0.0032686
0.00326676
0.00326368
0.00326048
0.00325757
0.00325431
0.0032509
0.00324742
0.00324395
0.0032405
0.0032372
0.003234
0.00323113
0.00322838
0.00322615
0.00322425
0.00322218
0.00322114
0.00321938
0.00321749
0.00321582
0.0032136
0.00321016
9.25862e-06
1.19068e-05
1.06578e-05
1.32903e-05
3.02222e-05
6.09417e-05
0.000134389
0.000288622
0.000571811
0.00102552
0.0016227
0.00230113
0.00301489
0.00372602
0.00441052
0.00505865
0.0056772
0.00627983
0.00686049
0.00745197
0.00804053
0.00865033
0.00926957
0.00990812
0.0105605
0.0112284
0.0119085
0.012611
0.013311
0.0140283
0.0147426
0.0154429
0.0161206
0.0167661
0.0173775
0.0179216
0.0184528
0.0189598
0.0194441
0.0198896
0.0202981
0.0206622
0.0210086
0.0212911
0.0215203
0.0216705
0.0218208
0.0219337
0.0220256
0.0220146
0.0219942
0.0218988
0.0218028
0.0216505
0.0214808
0.0212858
0.0210522
0.0208052
0.0205366
0.020252
0.0199543
0.0196506
0.0193455
0.0190405
0.0187385
0.0184335
0.0181306
0.0178269
0.017524
0.0172353
0.0169441
0.0166656
0.0163881
0.0161123
0.0158445
0.0155773
0.0153179
0.0150583
0.0148063
0.0145514
0.0143083
0.0140631
0.0138324
0.0136013
0.0133823
0.0131611
0.01295
0.0127388
0.0125375
0.0123366
0.0121457
0.0119568
0.0117756
0.0115987
0.011427
0.0112602
0.0110978
0.0109404
0.0107852
0.0106354
0.0104879
0.0103459
0.0102061
0.0100727
0.00994132
0.00981604
0.00969266
0.00957518
0.00945948
0.00934842
0.00923964
0.00913517
0.00903324
0.00893578
0.00883993
0.0087493
0.00865459
0.00856369
0.00846855
0.00838289
0.0082991
0.00821293
0.00812914
0.0080562
0.00798709
0.00791947
0.00785605
0.00779197
0.00772972
0.00766863
0.00760988
0.00755215
0.00749677
0.00744136
0.00738729
0.00733381
0.00728179
0.00723065
0.00718165
0.00713278
0.00708588
0.00703939
0.00699512
0.00695059
0.0069079
0.0068644
0.00682227
0.00678017
0.00673934
0.00670066
0.0066621
0.00662389
0.00658835
0.00655388
0.00652134
0.00648948
0.00645928
0.00642954
0.00640105
0.00637309
0.00634596
0.00631914
0.00629256
0.00626655
0.00624055
0.00621434
0.00618846
0.00616283
0.00613741
0.00611244
0.00608781
0.00606428
0.0060413
0.00601888
0.00599793
0.00597756
0.0059587
0.00594076
0.00592372
0.00590746
0.00589167
0.00587592
0.00586013
0.00584437
0.00582827
0.00581212
0.00579584
0.00577958
0.00576348
0.00574758
0.00573201
0.0057174
0.0057038
0.00569094
0.00567874
0.00566739
0.0056568
0.0056468
0.005637
0.00562703
0.00561723
0.00560697
0.00559687
0.00558647
0.00557603
0.00556539
0.00555498
0.00554471
0.00553518
0.0055262
0.0055179
0.00551035
0.00550346
0.00549681
0.00549073
0.00548449
0.00547859
0.00547182
0.0054652
0.00545866
0.00545167
0.00544467
0.00543773
0.00543064
0.00542403
0.00541794
0.00541228
0.00540706
0.00540229
0.00539805
0.00539413
0.00539043
0.00538705
0.00538275
0.00537866
0.00537491
0.00537029
0.00536557
0.00536076
0.00535384
1.3793e-05
2.44877e-05
3.31602e-05
6.09112e-05
0.000113552
0.000224899
0.000472893
0.00095358
0.00175784
0.0028391
0.00411801
0.00542904
0.00667637
0.00782875
0.00888512
0.0098705
0.010769
0.011638
0.0124713
0.0133089
0.0141352
0.0149777
0.0158239
0.016684
0.0175525
0.0184296
0.0193099
0.0201937
0.0210583
0.021911
0.0227371
0.023526
0.0242632
0.0249532
0.0255969
0.0261676
0.0266954
0.0271724
0.0276
0.0279684
0.0282818
0.0285242
0.0287317
0.0288574
0.0289209
0.0288951
0.0288539
0.0287637
0.0286386
0.0284246
0.0281891
0.027887
0.0275822
0.0272329
0.0268803
0.0265028
0.0261096
0.0257087
0.0252911
0.0248695
0.0244467
0.0240286
0.0236177
0.023214
0.0228192
0.0224304
0.0220514
0.0216805
0.0213144
0.0209694
0.0206245
0.0202979
0.019975
0.0196616
0.0193555
0.0190577
0.0187664
0.0184811
0.0182039
0.0179302
0.0176674
0.0174071
0.0171596
0.0169145
0.0166799
0.0164468
0.0162222
0.0160004
0.015787
0.0155759
0.0153731
0.0151735
0.0149808
0.0147932
0.0146106
0.0144331
0.0142594
0.0140899
0.0139231
0.013761
0.0136017
0.0134477
0.0132963
0.0131512
0.0130082
0.0128707
0.0127353
0.0126053
0.012477
0.0123531
0.012231
0.0121136
0.0119983
0.0118881
0.0117789
0.0116747
0.0115652
0.0114596
0.0113493
0.0112434
0.0111484
0.01105
0.0109508
0.0108655
0.0107846
0.0107037
0.0106268
0.0105485
0.0104724
0.010397
0.0103242
0.0102524
0.0101833
0.0101135
0.0100455
0.00997744
0.0099114
0.00984587
0.00978321
0.00972006
0.00965952
0.00959893
0.00954131
0.00948275
0.00942677
0.00936894
0.00931298
0.00925674
0.00920152
0.00914923
0.0090972
0.00904501
0.00899636
0.00894859
0.00890349
0.00885896
0.00881659
0.00877463
0.00873427
0.00869442
0.00865579
0.00861721
0.00857915
0.00854157
0.00850422
0.00846634
0.0084291
0.00839201
0.00835518
0.00831912
0.00828323
0.00824928
0.00821555
0.00818304
0.00815196
0.0081221
0.00809394
0.00806684
0.00804122
0.00801619
0.00799192
0.00796779
0.00794354
0.00791911
0.00789458
0.00786982
0.00784512
0.00782022
0.00779636
0.00777233
0.0077493
0.00772696
0.0077062
0.0076863
0.0076674
0.00764949
0.00763276
0.00761659
0.00760078
0.00758502
0.00756906
0.00755286
0.0075366
0.00752021
0.00750386
0.00748746
0.00747145
0.00745576
0.00744122
0.00742721
0.00741442
0.0074022
0.00739116
0.0073803
0.00737039
0.00736021
0.00735069
0.00733976
0.00732889
0.00731827
0.00730753
0.00729673
0.00728603
0.00727526
0.00726526
0.00725587
0.00724722
0.00723907
0.00723169
0.00722487
0.00721867
0.00721254
0.00720714
0.00720027
0.00719368
0.00718762
0.00718064
0.00717361
0.00716652
0.00715653
1.81532e-05
5.9646e-05
9.63356e-05
0.0001572
0.000293385
0.000592366
0.00118591
0.00223574
0.00370501
0.00542638
0.00719894
0.00888463
0.0104415
0.0118706
0.0131707
0.0143524
0.0154511
0.0165004
0.0175069
0.0185057
0.0194872
0.0204732
0.0214557
0.0224421
0.0234262
0.0244041
0.0253687
0.0263146
0.0272213
0.0280854
0.0288898
0.0296375
0.0303192
0.030937
0.0314952
0.031972
0.0323862
0.0327276
0.0329956
0.0331924
0.0333217
0.0333622
0.0333302
0.0332022
0.0330021
0.0327257
0.0324226
0.0320678
0.0316678
0.0312159
0.0305664
0.0298445
0.0290993
0.0284351
0.0278825
0.0272068
0.0266677
0.0261109
0.0255604
0.0250904
0.0246283
0.0242725
0.0238776
0.0235611
0.023181
0.0229002
0.0226021
0.0223549
0.0221322
0.0219062
0.0215858
0.0212627
0.0209436
0.0206415
0.0203434
0.0200616
0.019784
0.0195208
0.0192645
0.019019
0.0187825
0.0185532
0.0183344
0.018121
0.0179142
0.0177122
0.0175154
0.0173241
0.0171379
0.0169558
0.0167796
0.0166075
0.0164404
0.0162783
0.01612
0.0159661
0.0158149
0.0156667
0.0155208
0.0153782
0.0152384
0.0151028
0.0149697
0.0148416
0.0147158
0.014594
0.0144742
0.0143584
0.0142442
0.0141334
0.014024
0.0139181
0.0138139
0.0137142
0.0136151
0.0135196
0.0134192
0.0133216
0.0132193
0.0131151
0.01303
0.0129408
0.0128483
0.0127686
0.0126936
0.012618
0.0125451
0.012471
0.0123988
0.0123266
0.0122567
0.0121876
0.0121208
0.012053
0.0119867
0.0119199
0.0118549
0.0117901
0.0117281
0.0116652
0.011605
0.0115442
0.0114866
0.0114275
0.011371
0.0113121
0.011255
0.0111972
0.0111394
0.0110855
0.0110319
0.0109774
0.0109264
0.0108761
0.0108285
0.0107814
0.0107364
0.0106916
0.0106484
0.0106055
0.010564
0.010522
0.0104808
0.0104397
0.0103988
0.0103571
0.0103161
0.010275
0.0102341
0.0101939
0.0101536
0.0101158
0.0100778
0.0100414
0.0100062
0.00997262
0.00994066
0.00990997
0.00988087
0.00985235
0.00982447
0.00979676
0.00976869
0.00974031
0.00971188
0.00968291
0.009654
0.00962471
0.00959667
0.00956844
0.00954154
0.00951514
0.00949043
0.00946688
0.00944454
0.00942323
0.00940326
0.00938389
0.00936477
0.00934585
0.00932651
0.00930683
0.00928721
0.00926723
0.00924743
0.00922743
0.00920815
0.00918915
0.00917159
0.00915446
0.00913896
0.00912389
0.00911044
0.00909701
0.00908494
0.00907228
0.0090607
0.00904736
0.00903394
0.0090207
0.00900756
0.00899427
0.00898109
0.00896786
0.0089557
0.00894414
0.00893363
0.00892369
0.00891475
0.00890642
0.00889904
0.00889145
0.00888494
0.00887667
0.00886857
0.00886105
0.00885265
0.00884415
0.00883559
0.00882374
2.24355e-05
0.000156375
0.00020294
0.000329405
0.000623999
0.00124179
0.00236388
0.00404139
0.00602556
0.00813146
0.0101884
0.0121049
0.0138729
0.0154783
0.0169175
0.0182412
0.0194752
0.0206428
0.0217603
0.0228545
0.0239233
0.0249819
0.0260262
0.0270594
0.0280758
0.0290677
0.0300251
0.0309411
0.0317977
0.0325789
0.0332825
0.0339141
0.0344647
0.0349384
0.0353179
0.0356027
0.0358106
0.0359298
0.0359507
0.0358912
0.0357518
0.0355205
0.0348919
0.0338309
0.0326634
0.0316881
0.0306991
0.0297177
0.0286914
0.0278895
0.0270791
0.0262854
0.0256019
0.0248426
0.0244447
0.0237457
0.0231173
0.0226567
0.022047
0.0216555
0.0211485
0.0208418
0.0204341
0.020153
0.0197858
0.019545
0.0192759
0.019082
0.018898
0.0187236
0.0186074
0.0184448
0.0183392
0.0182538
0.0181607
0.0181094
0.0180401
0.0180031
0.0179684
0.0179733
0.0179521
0.0179706
0.0179405
0.017787
0.017634
0.0174878
0.017343
0.0172058
0.0170701
0.0169403
0.0168126
0.0166885
0.0165676
0.0164514
0.0163363
0.0162245
0.016114
0.016005
0.0158974
0.0157915
0.015688
0.0155869
0.015488
0.0153929
0.0152997
0.0152087
0.0151196
0.0150327
0.0149473
0.0148632
0.0147801
0.0146986
0.0146184
0.0145417
0.0144652
0.0143907
0.0143125
0.0142362
0.0141553
0.0140684
0.0140031
0.0139349
0.0138627
0.0137984
0.0137393
0.0136799
0.0136221
0.0135635
0.013506
0.0134482
0.013392
0.0133363
0.0132822
0.0132272
0.0131734
0.0131186
0.0130653
0.0130117
0.0129605
0.0129084
0.0128584
0.0128077
0.0127598
0.0127102
0.0126628
0.012613
0.0125644
0.0125148
0.0124642
0.0124178
0.0123717
0.0123243
0.0122797
0.0122357
0.0121941
0.0121528
0.0121133
0.012074
0.012036
0.0119979
0.0119613
0.0119238
0.011887
0.0118499
0.0118131
0.0117752
0.0117378
0.0117
0.0116623
0.011625
0.0115874
0.0115523
0.0115169
0.0114832
0.0114501
0.0114189
0.011389
0.0113606
0.0113334
0.011307
0.0112809
0.011255
0.0112284
0.0112015
0.0111744
0.0111466
0.0111186
0.0110902
0.0110629
0.0110353
0.0110091
0.0109832
0.010959
0.0109361
0.0109144
0.0108936
0.0108742
0.0108555
0.0108368
0.0108184
0.0107994
0.0107799
0.0107607
0.0107406
0.0107209
0.0107009
0.0106817
0.0106625
0.010645
0.0106277
0.0106123
0.0105972
0.0105839
0.0105706
0.0105588
0.0105462
0.0105349
0.0105218
0.0105085
0.0104951
0.010482
0.0104685
0.0104552
0.0104417
0.0104295
0.0104177
0.0104073
0.0103974
0.0103888
0.0103807
0.0103739
0.0103666
0.0103606
0.0103527
0.0103449
0.0103375
0.0103293
0.010321
0.0103125
0.0103011
2.86992e-05
0.000271365
0.000355138
0.00060801
0.0011643
0.00221863
0.00391751
0.0060262
0.00833069
0.0106709
0.0128959
0.014962
0.0168692
0.0185605
0.0201007
0.0215188
0.0228362
0.0240746
0.025252
0.0263885
0.0274889
0.0285625
0.0296071
0.0306232
0.0316058
0.0325444
0.0334253
0.0342421
0.0349786
0.0356223
0.0361676
0.0366143
0.0369592
0.0372208
0.0373595
0.0373909
0.037336
0.0368137
0.0357927
0.0346329
0.0333875
0.0322813
0.0311245
0.0299153
0.0286663
0.0277263
0.0267364
0.025769
0.0248099
0.0239221
0.0232956
0.0224788
0.0218952
0.0210742
0.0206902
0.0200132
0.0192722
0.0188577
0.0182384
0.0178543
0.0173418
0.0170501
0.0166475
0.0163799
0.0160363
0.0158086
0.0155595
0.0153904
0.0152181
0.0150788
0.0149836
0.0148735
0.0148141
0.0147673
0.0147455
0.0147351
0.0147301
0.0147447
0.0147717
0.0148217
0.0148641
0.0149379
0.0149872
0.0150529
0.0151202
0.0152037
0.0152779
0.0153458
0.0154294
0.0154883
0.0155658
0.0156417
0.0156535
0.0155993
0.0155417
0.0154858
0.0154286
0.0153717
0.0153146
0.0152576
0.0152019
0.0151473
0.0150943
0.0150434
0.014993
0.0149433
0.0148941
0.0148449
0.0147965
0.0147475
0.0146992
0.0146501
0.0146022
0.0145559
0.0145095
0.0144635
0.0144163
0.0143694
0.0143181
0.0142592
0.0142184
0.0141765
0.0141323
0.0140891
0.0140512
0.0140144
0.0139778
0.0139411
0.0139045
0.0138673
0.0138308
0.0137945
0.0137593
0.0137235
0.0136882
0.0136519
0.0136164
0.0135802
0.0135458
0.0135108
0.0134771
0.0134428
0.0134105
0.0133768
0.0133448
0.0133104
0.013277
0.0132419
0.0132054
0.0131722
0.0131396
0.0131055
0.0130734
0.0130415
0.0130115
0.012982
0.0129536
0.0129256
0.0128983
0.012871
0.0128446
0.0128173
0.0127907
0.0127632
0.0127362
0.0127077
0.0126797
0.0126509
0.0126222
0.0125934
0.012564
0.012537
0.0125096
0.0124838
0.0124581
0.0124342
0.0124113
0.0123899
0.0123693
0.0123496
0.0123297
0.0123101
0.0122898
0.012269
0.0122477
0.0122259
0.0122036
0.0121808
0.0121587
0.0121363
0.012115
0.0120941
0.0120747
0.0120562
0.012039
0.0120226
0.0120076
0.011993
0.0119786
0.0119643
0.0119495
0.0119338
0.0119185
0.0119022
0.0118862
0.0118697
0.011854
0.0118381
0.011824
0.0118097
0.0117975
0.0117853
0.0117752
0.0117647
0.011756
0.0117464
0.0117379
0.011728
0.0117175
0.0117069
0.0116967
0.0116856
0.0116748
0.0116637
0.0116538
0.0116443
0.0116362
0.0116286
0.0116225
0.0116167
0.0116126
0.0116078
0.0116042
0.0115989
0.0115934
0.0115881
0.0115822
0.011576
0.0115696
0.0115614
3.65562e-05
0.000410468
0.00058579
0.00102621
0.00192517
0.00347543
0.00559075
0.00795921
0.0104705
0.0129419
0.0152666
0.0174419
0.019398
0.0211512
0.0227555
0.0242287
0.0255898
0.0268597
0.0280549
0.0291906
0.0302759
0.0313169
0.0323118
0.0332589
0.034154
0.0349856
0.0357376
0.0364
0.0369657
0.0374193
0.0377622
0.0379769
0.0380674
0.0380794
0.0370343
0.0356627
0.0342301
0.033059
0.0319004
0.0306015
0.029237
0.0281848
0.0270652
0.0259619
0.024857
0.0239457
0.0231895
0.0222106
0.0213454
0.0203114
0.0197996
0.0189682
0.018357
0.017551
0.0169804
0.0163923
0.0156287
0.0151952
0.0146065
0.014218
0.0137507
0.0134446
0.0130902
0.0128467
0.0125781
0.012374
0.0121787
0.0120319
0.0118941
0.0117907
0.0117043
0.0116378
0.0115786
0.0115435
0.0115285
0.0115089
0.0115321
0.0115304
0.0115963
0.0116187
0.0117054
0.011746
0.0118571
0.0118953
0.012044
0.0121258
0.0122839
0.0123705
0.012529
0.0126231
0.0127796
0.0128938
0.0130488
0.0131619
0.0133025
0.0133846
0.0135073
0.013607
0.0137302
0.0138346
0.0139504
0.0139859
0.0139876
0.0139879
0.0139864
0.0139836
0.0139798
0.0139746
0.0139689
0.0139614
0.0139532
0.013943
0.0139339
0.0139234
0.013913
0.0139016
0.0138916
0.0138792
0.0138628
0.0138397
0.0138249
0.0138136
0.0137996
0.0137822
0.0137689
0.0137579
0.0137463
0.0137351
0.0137228
0.0137099
0.0136967
0.0136832
0.0136703
0.0136572
0.0136438
0.0136296
0.0136152
0.0136001
0.0135857
0.0135712
0.0135573
0.0135426
0.0135294
0.0135151
0.013502
0.0134867
0.0134722
0.0134552
0.013437
0.0134201
0.0134049
0.0133876
0.0133714
0.0133551
0.0133401
0.0133257
0.013312
0.0132986
0.0132855
0.0132725
0.0132597
0.0132464
0.0132334
0.0132192
0.0132057
0.0131904
0.0131756
0.0131596
0.0131438
0.0131272
0.01311
0.0130948
0.0130793
0.0130647
0.0130502
0.0130372
0.0130247
0.0130136
0.0130029
0.0129931
0.012983
0.0129731
0.0129623
0.0129511
0.0129393
0.0129269
0.012914
0.0129003
0.012887
0.0128733
0.0128606
0.0128479
0.0128365
0.0128258
0.0128163
0.0128073
0.0127996
0.0127922
0.0127852
0.012778
0.0127705
0.012762
0.0127536
0.0127442
0.0127351
0.0127251
0.0127161
0.0127066
0.0126988
0.0126904
0.012684
0.0126776
0.0126732
0.0126683
0.0126652
0.0126611
0.0126581
0.0126539
0.0126491
0.0126438
0.012639
0.0126331
0.0126275
0.0126212
0.0126162
0.0126112
0.0126078
0.0126047
0.0126032
0.012602
0.0126025
0.0126023
0.0126032
0.0126026
0.0126015
0.0126005
0.0125989
0.0125969
0.0125945
0.0125924
4.57405e-05
0.000551679
0.000896654
0.00159491
0.0028785
0.00485856
0.00719968
0.0097486
0.0123762
0.0149167
0.0173046
0.0195284
0.0215029
0.0232947
0.0249319
0.0264287
0.0278023
0.0290703
0.0302473
0.0313452
0.0323749
0.0333419
0.0342441
0.0350772
0.0358381
0.0365173
0.0370956
0.0375618
0.0379151
0.0381347
0.0382437
0.0373164
0.0356569
0.0343492
0.0330975
0.031595
0.0301209
0.0290243
0.0279375
0.0267569
0.025491
0.0245706
0.0236337
0.0226103
0.021597
0.0204955
0.0199618
0.018902
0.018057
0.0169454
0.0163602
0.0155424
0.0148586
0.0141957
0.0134656
0.0130421
0.012432
0.0119733
0.0114846
0.011118
0.010788
0.0104857
0.0102336
0.0100104
0.00983344
0.00964431
0.0095191
0.00938003
0.00930157
0.0092126
0.00915677
0.00912028
0.00906052
0.00906579
0.00901409
0.00902245
0.00905158
0.00903782
0.00912249
0.00911266
0.00921162
0.009225
0.00934056
0.00936973
0.00950087
0.00956775
0.00969905
0.00978312
0.00991162
0.0100013
0.010131
0.0102378
0.0103755
0.0105047
0.0106463
0.010749
0.0108943
0.0110219
0.0111782
0.0113209
0.0114797
0.0116288
0.0117497
0.0118809
0.0120023
0.0121182
0.0122257
0.0123355
0.0124401
0.012546
0.0126587
0.0127014
0.0127364
0.0127673
0.0127976
0.0128259
0.0128562
0.0128814
0.0129026
0.012919
0.012935
0.0129552
0.0129732
0.012987
0.0130017
0.0130188
0.0130359
0.0130522
0.0130679
0.0130818
0.0130945
0.0131065
0.0131185
0.0131303
0.0131412
0.0131511
0.0131602
0.0131682
0.0131763
0.013184
0.0131918
0.0131987
0.0132066
0.0132134
0.0132212
0.0132272
0.0132334
0.0132369
0.0132395
0.0132412
0.0132448
0.0132465
0.0132482
0.0132493
0.0132513
0.0132538
0.0132566
0.0132598
0.0132629
0.0132659
0.0132689
0.0132716
0.0132743
0.0132755
0.0132775
0.0132777
0.0132782
0.0132775
0.0132768
0.0132749
0.0132724
0.0132711
0.0132697
0.0132688
0.0132676
0.0132676
0.0132678
0.0132689
0.0132705
0.0132725
0.0132745
0.0132763
0.0132777
0.0132782
0.0132781
0.0132777
0.0132766
0.0132745
0.0132725
0.0132699
0.0132682
0.0132661
0.013265
0.0132643
0.0132648
0.0132654
0.0132672
0.0132693
0.0132718
0.0132741
0.0132762
0.0132772
0.0132782
0.0132782
0.0132784
0.0132774
0.0132775
0.0132766
0.0132774
0.0132773
0.013279
0.0132804
0.0132839
0.0132867
0.0132914
0.0132948
0.0132995
0.0133033
0.0133064
0.0133086
0.0133115
0.013313
0.0133148
0.0133155
0.0133174
0.0133191
0.0133224
0.0133257
0.0133309
0.0133361
0.0133431
0.0133494
0.0133567
0.0133627
0.0133679
0.013373
0.0133778
0.0133818
0.0133854
0.0133922
6.09704e-05
0.000726184
0.00128572
0.00228467
0.00395434
0.00618723
0.0086845
0.0113427
0.0140251
0.0165949
0.0190205
0.0212437
0.0232258
0.0250334
0.02668
0.0281755
0.0295341
0.0307702
0.0318959
0.0329213
0.0338573
0.0347105
0.0354786
0.0361552
0.0367387
0.0372196
0.0375894
0.0378255
0.0376702
0.0360292
0.0347169
0.0333119
0.0315406
0.0302802
0.0290997
0.0276905
0.0263763
0.025592
0.0245294
0.0234499
0.0222743
0.0213156
0.0206727
0.0195966
0.0186255
0.0173191
0.0167569
0.0156462
0.0148925
0.013878
0.0132245
0.0125002
0.0118577
0.0113424
0.0106053
0.0102567
0.00983705
0.0093485
0.00901308
0.00864498
0.00844352
0.00814722
0.00799087
0.00775385
0.00766808
0.0074767
0.00743305
0.00728468
0.00728456
0.00718132
0.0071952
0.00714797
0.00714502
0.00718627
0.00711177
0.00718976
0.00717962
0.00724948
0.00730503
0.00730585
0.00739342
0.00740715
0.00748617
0.00754283
0.00763248
0.00769659
0.00777503
0.00785547
0.0079326
0.00800885
0.00808737
0.00817318
0.00826318
0.00837208
0.00846283
0.00855933
0.00866731
0.00877972
0.00891083
0.00903453
0.00917899
0.00930914
0.00944012
0.00957473
0.00970583
0.00983675
0.00997072
0.0101002
0.0102383
0.0103645
0.0105109
0.0106382
0.0107443
0.0108364
0.0109093
0.0110057
0.0111219
0.0112892
0.0114763
0.0115602
0.0116176
0.0116733
0.0117264
0.0117762
0.0118241
0.0118722
0.0119208
0.0119672
0.0120131
0.0120555
0.0120973
0.012137
0.0121764
0.0122146
0.0122524
0.0122882
0.0123235
0.0123567
0.0123894
0.0124211
0.0124525
0.0124828
0.0125134
0.0125429
0.0125734
0.0126021
0.0126309
0.0126564
0.0126815
0.0127038
0.0127274
0.0127491
0.0127702
0.0127901
0.0128104
0.0128308
0.0128513
0.012872
0.0128924
0.0129126
0.0129327
0.0129522
0.0129718
0.0129898
0.0130085
0.0130256
0.0130427
0.0130585
0.0130744
0.0130885
0.0131023
0.0131162
0.01313
0.013144
0.0131576
0.0131717
0.0131858
0.0132005
0.0132155
0.0132307
0.013246
0.0132609
0.0132756
0.0132895
0.0133026
0.0133156
0.0133277
0.0133386
0.0133496
0.0133597
0.0133704
0.0133805
0.0133912
0.013402
0.0134138
0.0134255
0.0134383
0.0134513
0.0134648
0.0134781
0.0134913
0.0135035
0.0135156
0.0135266
0.0135377
0.0135476
0.0135582
0.0135678
0.0135787
0.0135886
0.0136
0.0136109
0.0136238
0.0136358
0.0136498
0.0136624
0.0136764
0.0136897
0.0137024
0.0137139
0.0137261
0.0137368
0.0137478
0.0137574
0.0137679
0.0137779
0.0137893
0.0138008
0.0138141
0.0138272
0.0138423
0.0138567
0.013872
0.0138861
0.0138992
0.0139121
0.0139249
0.0139365
0.0139477
0.0139657
7.95882e-05
0.00096147
0.00173696
0.00305694
0.00499824
0.00739985
0.0100065
0.012719
0.0154152
0.0179858
0.0204224
0.022621
0.0246009
0.0264071
0.0280437
0.0295159
0.0308334
0.0320076
0.0330482
0.0339643
0.0347667
0.0354635
0.0360539
0.0365322
0.0368932
0.0371347
0.0370165
0.0355649
0.0337018
0.0318443
0.0305425
0.0293502
0.0276749
0.0267072
0.0256715
0.024355
0.0231109
0.0224888
0.021614
0.0206729
0.0196333
0.0184117
0.0179041
0.0166676
0.0157608
0.0144739
0.0138222
0.0128167
0.0122157
0.0113718
0.0106447
0.00995631
0.00935098
0.00886447
0.0082951
0.00786126
0.00762012
0.00716877
0.00699018
0.0066152
0.00649842
0.00619989
0.00613219
0.00587712
0.0058807
0.00569487
0.00562429
0.00551472
0.00539982
0.0053232
0.00524224
0.00519253
0.0051423
0.00511057
0.00509015
0.00506852
0.00507165
0.00507739
0.00509406
0.0051146
0.00514344
0.00518162
0.00522749
0.00528211
0.00534339
0.00541225
0.00548959
0.00557293
0.00566566
0.00576313
0.00586922
0.00598338
0.006101
0.00622765
0.00635512
0.00649051
0.00662833
0.00677235
0.00692171
0.00707044
0.00722445
0.00737387
0.00752687
0.00767795
0.00781346
0.00791818
0.00803236
0.00813947
0.0082606
0.00837096
0.00849907
0.00861208
0.00871135
0.00880242
0.00887727
0.00899835
0.00914264
0.00931349
0.00949437
0.00972868
0.00989363
0.0099373
0.00999439
0.0100833
0.0101531
0.0102296
0.0103063
0.0104031
0.0104971
0.0105961
0.0106897
0.0107659
0.0108533
0.0109419
0.0110194
0.0110845
0.0111488
0.0112097
0.01127
0.0113275
0.0113848
0.0114406
0.0114963
0.0115505
0.0116057
0.0116589
0.0117122
0.011762
0.0118111
0.0118569
0.0119021
0.0119447
0.0119871
0.012027
0.0120668
0.012106
0.0121455
0.0121845
0.0122234
0.0122617
0.0122998
0.0123373
0.0123746
0.0124106
0.012447
0.0124817
0.0125166
0.0125498
0.0125831
0.0126142
0.0126453
0.0126754
0.0127054
0.0127349
0.0127641
0.0127931
0.0128219
0.0128509
0.01288
0.0129092
0.0129385
0.0129674
0.0129962
0.0130242
0.0130516
0.0130787
0.0131048
0.01313
0.0131547
0.0131784
0.0132025
0.0132256
0.0132491
0.0132722
0.0132962
0.0133199
0.0133445
0.0133692
0.0133946
0.0134198
0.013445
0.0134693
0.0134936
0.0135167
0.0135399
0.0135616
0.013584
0.0136051
0.0136272
0.0136482
0.0136703
0.0136917
0.0137149
0.0137373
0.0137615
0.0137844
0.0138088
0.0138327
0.0138562
0.0138782
0.0139009
0.0139221
0.0139435
0.0139632
0.0139835
0.014003
0.0140239
0.0140445
0.0140671
0.0140894
0.0141137
0.0141371
0.0141617
0.0141851
0.0142076
0.0142295
0.0142514
0.014272
0.0142919
0.0143231
9.91501e-05
0.00123096
0.00223272
0.00381528
0.0059644
0.0084718
0.0111416
0.0138734
0.0165521
0.0190986
0.021523
0.0237074
0.0256847
0.0274777
0.0290857
0.0305092
0.0317534
0.0328271
0.0337392
0.034499
0.0351177
0.035607
0.0359727
0.0362078
0.0363117
0.0344962
0.032885
0.0312769
0.0294929
0.0278634
0.0268638
0.0259365
0.0243782
0.0236305
0.0227456
0.021653
0.0205332
0.019816
0.0193137
0.0182676
0.0172804
0.0158445
0.0152356
0.0140302
0.0133276
0.0122496
0.0114335
0.0104734
0.00989355
0.00918655
0.0084557
0.0078169
0.00729767
0.00678876
0.00645436
0.00592805
0.00584571
0.00547716
0.00526936
0.00500212
0.00474727
0.00455668
0.00437546
0.00424453
0.00411618
0.00402813
0.00393574
0.00387464
0.00380998
0.00376812
0.00372281
0.00369568
0.00366407
0.00365076
0.00363422
0.00362125
0.00361831
0.00361434
0.00361884
0.00362538
0.00363446
0.00364858
0.00366722
0.00369131
0.00371953
0.00375304
0.00379105
0.00383474
0.00388337
0.00393788
0.00399876
0.00406559
0.00413929
0.00421755
0.00430396
0.00439431
0.00449368
0.00459838
0.00471068
0.00483006
0.00495502
0.00508595
0.00522202
0.0053619
0.00550818
0.00565287
0.00580379
0.00595172
0.00610601
0.00625522
0.00640911
0.00655712
0.00670399
0.00684843
0.00699513
0.00714483
0.00729842
0.00745353
0.00760838
0.00776177
0.00789987
0.00802985
0.0081558
0.00827541
0.00835817
0.0084467
0.00853366
0.00863499
0.0087332
0.00883933
0.00894823
0.00904749
0.00915115
0.00925829
0.00936545
0.00948145
0.00959108
0.00969134
0.0097957
0.00989678
0.00999481
0.0100817
0.0101748
0.0102642
0.0103464
0.0104266
0.0105065
0.0105832
0.0106581
0.0107291
0.0107984
0.010864
0.0109287
0.0109903
0.0110517
0.011111
0.0111708
0.0112293
0.0112883
0.0113457
0.0114035
0.0114599
0.0115166
0.0115716