/*--------------------------------*- C++ -*----------------------------------*\
| =========                 |                                                 |
| \\      /  F ield         | OpenFOAM: The Open Source CFD Toolbox           |
|  \\    /   O peration     | Version:  2312                                  |
|   \\  /    A nd           | Website:  www.openfoam.com                      |
|    \\/     M anipulation  |                                                 |
\*---------------------------------------------------------------------------*/
FoamFile
{
    version     2.0;
    format      ascii;
    arch        "LSB;label=32;scalar=64";
    class       volScalarField;
    location    "0.003";
    object      omega;
}
// * * * * * * * * * * * * * * * * * * * * * * * * * * * * * * * * * * * * * //

dimensions      [0 0 -1 0 0 0 0];

internalField   nonuniform List<scalar> 
48128
(
2.11182e+06
2.11239e+06
2.11485e+06
2.1157e+06
2.11629e+06
2.11659e+06
2.11555e+06
2.11887e+06
2.13463e+06
2.16321e+06
2.20059e+06
2.23838e+06
2.27321e+06
2.30375e+06
2.33011e+06
2.35219e+06
2.37108e+06
2.38718e+06
2.40013e+06
2.41022e+06
2.41815e+06
2.42368e+06
2.4267e+06
2.42712e+06
2.42481e+06
2.41971e+06
2.41205e+06
2.40174e+06
2.38894e+06
2.37408e+06
2.35721e+06
2.33866e+06
2.31867e+06
2.29755e+06
2.27563e+06
2.25345e+06
2.23272e+06
2.21235e+06
2.19302e+06
2.17459e+06
2.15729e+06
2.14159e+06
2.12776e+06
2.11509e+06
2.10281e+06
2.09049e+06
2.08006e+06
2.06979e+06
2.05825e+06
2.04324e+06
2.02842e+06
2.0103e+06
1.99435e+06
1.97587e+06
1.96444e+06
1.9668e+06
1.96582e+06
1.96453e+06
1.96047e+06
1.95534e+06
1.94871e+06
1.94084e+06
1.93267e+06
1.92399e+06
1.91515e+06
1.90547e+06
1.89534e+06
1.88439e+06
1.87222e+06
1.85975e+06
1.84707e+06
1.83504e+06
1.82297e+06
1.81075e+06
1.79876e+06
1.78656e+06
1.77475e+06
1.76284e+06
1.75106e+06
1.73912e+06
1.72754e+06
1.71586e+06
1.70493e+06
1.69401e+06
1.68392e+06
1.67378e+06
1.66425e+06
1.6547e+06
1.64571e+06
1.63671e+06
1.62833e+06
1.62012e+06
1.61242e+06
1.60501e+06
1.59796e+06
1.59122e+06
1.58482e+06
1.57882e+06
1.57309e+06
1.56777e+06
1.56269e+06
1.55796e+06
1.55337e+06
1.549e+06
1.54481e+06
1.54083e+06
1.53703e+06
1.53341e+06
1.52999e+06
1.52671e+06
1.52368e+06
1.52083e+06
1.51811e+06
1.51543e+06
1.51294e+06
1.51051e+06
1.50819e+06
1.50616e+06
1.50385e+06
1.5041e+06
1.50294e+06
1.50128e+06
1.50036e+06
1.49878e+06
1.497e+06
1.49513e+06
1.49326e+06
1.49146e+06
1.48983e+06
1.48844e+06
1.48718e+06
1.48601e+06
1.48491e+06
1.48386e+06
1.48289e+06
1.48202e+06
1.48125e+06
1.48055e+06
1.47985e+06
1.47916e+06
1.47852e+06
1.47792e+06
1.47731e+06
1.47674e+06
1.47618e+06
1.47567e+06
1.47519e+06
1.47464e+06
1.47461e+06
1.47425e+06
1.47375e+06
1.47328e+06
1.47267e+06
1.47202e+06
1.47129e+06
1.4705e+06
1.46966e+06
1.46881e+06
1.46793e+06
1.46707e+06
1.4662e+06
1.46538e+06
1.46462e+06
1.46393e+06
1.46327e+06
1.4627e+06
1.46223e+06
1.46182e+06
1.4615e+06
1.46117e+06
1.461e+06
1.46076e+06
1.46048e+06
1.46016e+06
1.4598e+06
1.45935e+06
1.45884e+06
1.45823e+06
1.45753e+06
1.45678e+06
1.45601e+06
1.45525e+06
1.45457e+06
1.45398e+06
1.45351e+06
1.45314e+06
1.45285e+06
1.45266e+06
1.45254e+06
1.4524e+06
1.45222e+06
1.45201e+06
1.45172e+06
1.45134e+06
1.45088e+06
1.45035e+06
1.44973e+06
1.44906e+06
1.44839e+06
1.4477e+06
1.44716e+06
1.44664e+06
1.44627e+06
1.44597e+06
1.44577e+06
1.44559e+06
1.44541e+06
1.44519e+06
1.44493e+06
1.44461e+06
1.44423e+06
1.44376e+06
1.44321e+06
1.44262e+06
1.44199e+06
1.44137e+06
1.44082e+06
1.44018e+06
1.43978e+06
1.43952e+06
1.43924e+06
1.439e+06
1.43878e+06
1.43855e+06
1.43828e+06
1.43796e+06
1.43757e+06
1.43712e+06
1.43661e+06
1.43604e+06
1.43543e+06
1.4348e+06
1.4342e+06
1.43353e+06
1.43307e+06
1.43273e+06
1.43236e+06
1.43209e+06
1.43183e+06
1.43145e+06
757235
445347
384349
397057
426623
609089
801461
919234
970377
951980
890334
840235
797854
765024
741368
724976
713947
706599
701584
698013
695462
693188
691115
689089
687128
685322
683924
682786
682269
679933
677340
675882
674953
674208
674204
679872
684904
690069
695261
700765
706292
711779
716986
722512
727950
733364
738341
743080
747102
750357
752600
754215
755158
755872
757067
758945
760824
761586
761535
760936
759724
757882
755496
752652
749388
745811
741853
737607
732619
727048
721151
715055
708893
702662
696322
690054
683654
677519
671311
665419
659462
653752
647962
642460
636874
631713
626486
621644
616776
612236
607652
603365
599100
595099
591279
587638
584126
580713
577490
574394
571490
568781
566274
563898
561716
559627
557727
555891
554225
552620
551130
549777
548548
547442
546384
545302
544256
543173
542051
540490
540579
540476
539902
539992
539932
539827
539689
539554
539405
539255
539129
539051
538965
538910
538850
538805
538801
538827
538879
538956
539050
539165
539290
539424
539545
539685
539770
539900
539910
540137
540460
540690
541024
541381
541774
542192
542612
543043
543473
543892
544329
544697
545074
545425
545768
546107
546427
546753
547075
547403
547784
548206
548674
549114
549577
550047
550532
551007
551483
551920
552296
552682
552987
553223
553461
553677
553879
554095
554282
554567
554847
555180
555453
555768
556093
556417
556737
557038
557259
557472
557586
557731
557777
557832
557879
557974
558075
558203
558335
558488
558637
558811
558989
559156
559272
559353
559387
559447
559350
559270
559278
559243
559221
559243
559272
559310
559362
559412
559469
559524
559575
559569
559517
559507
559361
559178
559099
558974
558842
558732
757643
328341
194333
198566
315185
462370
542605
566020
546144
499686
458120
426958
405496
391866
384037
380251
378927
378871
380497
382393
384924
387462
390297
393244
396437
399896
403653
407438
411462
415432
419746
424647
430097
436256
443241
451430
459462
467655
476056
484756
493450
502006
510489
519205
527844
536072
543812
551323
558456
564692
569905
574417
578113
581267
583551
585350
586576
586936
586690
585907
584497
582455
579838
576701
573126
569153
564797
560112
555058
549678
543992
538057
531949
525699
519341
512971
506499
500199
493837
487704
481523
475555
469546
463766
457930
452387
446809
441509
436242
431213
426227
421448
416748
412241
407884
403680
399601
395628
391793
388077
384504
381091
377819
374691
371710
368846
366118
363492
360993
358585
356280
354087
352001
350022
348142
346275
344480
342678
340901
338759
337605
336396
334893
333776
332752
331779
330812
329926
329038
328200
327370
326606
325847
325142
324439
323776
323128
322524
321938
321404
320873
320388
319907
319465
319019
318604
318170
317760
317258
316925
316603
316230
315925
315632
315368
315148
314933
314751
314579
314422
314285
314145
314017
313891
313765
313648
313525
313411
313294
313188
313064
313010
312955
312921
312881
312877
312887
312911
312946
312991
313030
313072
313101
313112
313125
313124
313112
313097
313072
313077
313088
313103
313124
313160
313207
313262
313324
313395
313456
313520
313550
313582
313580
313572
313550
313543
313530
313528
313527
313533
313542
313567
313601
313644
313675
313707
313712
313746
313708
313655
313632
313592
313542
313515
313487
313463
313449
313440
313435
313439
313444
313444
313418
313431
313374
313288
313242
313174
313092
312996
758040
281651
160955
208318
318524
387051
404679
391159
360585
333496
310325
294491
285436
280998
279484
279568
281620
284071
287225
290561
294281
298086
302195
306527
311199
316177
321470
327075
333077
339385
346226
353778
361979
370654
380101
390233
400376
410665
421338
432417
443598
454486
465314
476294
487293
497541
507210
516522
525562
533410
540165
545943
550753
554709
557274
559062
559808
559714
559039
557674
555573
552748
549293
545244
540729
535749
530370
524620
518529
512137
505410
498471
491382
484184
476913
469662
462336
455178
448006
441003
434026
427208
420453
413857
407293
400954
394680
388641
382718
377001
371405
365990
360708
355610
350668
345881
341232
336703
332312
328050
323929
319968
316138
312467
308931
305525
302241
299079
296030
293091
290249
287522
284894
282385
279965
277610
275296
273036
270789
268303
266519
264709
262711
260995
259406
257889
256395
254985
253594
252268
250964
249730
248522
247370
246234
245146
244077
243057
242061
241120
240189
239308
238438
237615
236793
236016
235229
234484
233678
233000
232346
231661
231024
230414
229825
229278
228741
228240
227753
227287
226844
226412
225995
225592
225195
224817
224435
224072
223708
223361
222995
222689
222378
222092
221799
221539
221289
221062
220854
220662
220479
220308
220139
219968
219806
219644
219477
219307
219136
218975
218829
218676
218537
218413
218300
218199
218103
218025
217951
217880
217806
217729
217646
217560
217466
217375
217281
217194
217106
217025
216941
216878
216816
216769
216719
216675
216618
216596
216537
216462
216399
216326
216246
216177
216106
216040
215977
215923
215866
215824
215780
215745
215691
215675
215621
215545
215494
215430
215353
215251
758587
221897
169431
238493
301342
322001
319230
297229
276610
257924
244514
237026
233628
232686
233554
235792
238826
242217
246015
250063
254451
259062
264047
269404
275195
281418
288116
295356
303169
311476
320498
330356
340916
351851
363570
376032
388555
401112
414122
427576
441321
454659
468116
481692
495441
508096
519903
531143
541954
551236
559077
565698
570847
574992
576922
577978
577750
576775
575032
572380
568936
564637
559692
554072
547997
541426
534471
527149
519517
511673
503647
495554
487377
479169
470899
462703
454442
446330
438245
430293
422425
414698
407083
399632
392305
385217
378263
371571
365040
358723
352568
346592
340789
335172
329721
324441
319316
314324
309485
304784
300240
295857
291612
287539
283598
279798
276118
272573
269139
265829
262612
259519
256516
253654
250865
248175
245501
242914
240330
237572
235386
233215
230917
228852
226911
225044
223209
221453
219726
218067
216438
214883
213363
211900
210461
209074
207710
206399
205119
203893
202687
201529
200392
199303
198223
197187
196150
195159
194130
193199
192309
191402
190533
189700
188888
188117
187362
186642
185938
185258
184603
183964
183341
182739
182146
181574
181004
180458
179913
179390
178851
178369
177881
177420
176954
176521
176096
175693
175313
174948
174602
174265
173945
173621
173316
173014
172716
172414
172124
171834
171563
171288
171021
170775
170540
170317
170103
169903
169716
169531
169355
169174
169002
168829
168654
168482
168310
168146
167982
167823
167663
167523
167381
167256
167130
167015
166892
166803
166692
166570
166456
166339
166216
166102
165986
165876
165767
165668
165565
165475
165384
165305
165213
165153
165071
164974
164898
164814
164721
164591
758546
181396
188575
242099
272558
274294
261432
244334
228843
216485
209148
205769
204819
205684
208037
211146
214792
218806
223165
227851
232918
238349
244252
250660
257642
265224
273457
282468
292247
302703
313910
326082
339145
352531
366876
382250
397855
413330
429292
445702
462663
479025
495464
511906
528473
543451
556973
569279
580112
589460
596098
601719
604787
607163
606522
605103
602990
599710
595879
591144
586078
580208
573811
566723
559248
551328
543120
534615
525912
517067
508079
499117
490072
481116
472069
463164
454195
445389
436610
427995
419485
411137
402897
394903
387063
379524
372114
365027
358072
351377
344857
338539
332396
326464
320699
315123
309715
304448
299343
294377
289580
284934
280434
276104
271911
267860
263935
260147
256472
252927
249473
246149
242903
239816
236786
233869
230957
228147
225339
222384
219931
217534
215061
212756
210577
208484
206424
204442
202491
200606
198754
196975
195236
193554
191901
190300
188726
187206
185720
184290
182884
181527
180198
178914
177648
176424
175206
174034
172835
171719
170656
169581
168542
167542
166567
165632
164716
163834
162973
162135
161324
160531
159756
159002
158262
157543
156830
156142
155458
154799
154126
153510
152887
152297
151700
151139
150583
150055
149544
149053
148581
148117
147677
147231
146812
146393
145985
145573
145181
144785
144411
144035
143669
143324
142991
142669
142359
142062
141779
141502
141235
140966
140709
140456
140202
139955
139711
139475
139239
139012
138784
138575
138365
138173
137979
137801
137617
137462
137295
137120
136953
136786
136616
136455
136293
136139
135985
135842
135696
135562
135426
135303
135172
135068
134949
134820
134711
134597
134477
134308
758621
191857
201153
232020
242397
236971
223432
210386
198868
191006
187007
185680
186047
188223
191300
194982
199140
203697
208627
213958
219765
226063
232946
240488
248794
257890
267820
278782
290760
303539
317162
331979
348071
364440
381838
400514
419758
438573
457818
477434
497761
516972
535192
552678
569057
583803
595214
605329
612492
619171
621726
624312
623666
622546
619004
614223
609483
603599
597347
590343
583039
575081
566677
557824
548727
539552
530387
521197
512195
503120
494242
485320
476503
467920
459205
450770
442193
433910
425532
417500
409407
401609
393740
386249
378699
371534
364310
357500
350660
344160
337730
331526
325401
319524
313749
308184
302762
297484
292353
287344
282500
277781
273222
268823
264569
260445
256460
252601
248861
245237
241707
238294
234951
231769
228623
225598
222578
219672
216762
213732
211113
208594
206050
203607
201280
199067
196874
194769
192683
190661
188670
186751
184867
183048
181254
179517
177803
176145
174519
172951
171407
169913
168449
167030
165634
164278
162933
161633
160312
159065
157873
156678
155515
154393
153295
152241
151204
150207
149225
148273
147343
146435
145548
144678
143829
142996
142174
141377
140585
139821
139043
138322
137595
136904
136207
135547
134892
134268
133659
133070
132502
131939
131404
130861
130351
129836
129338
128837
128358
127876
127416
126957
126513
126086
125671
125269
124879
124504
124141
123789
123443
123104
122769
122448
122123
121811
121500
121199
120900
120612
120322
120054
119784
119533
119281
119046
118807
118595
118374
118150
117930
117716
117500
117293
117085
116889
116692
116508
116320
116146
115969
115806
115637
115491
115336
115173
115028
114882
114731
114518
758279
202941
200258
216332
217468
208477
197337
187000
178646
173600
171473
171143
172662
175496
179050
183177
187791
192853
198360
204347
210932
218140
226086
234874
244654
255453
267267
280400
294861
310335
326737
344550
364106
383888
404708
426965
450174
472134
493428
514270
535168
554185
570246
584657
596022
607453
613519
618752
620130
621708
619097
614899
608232
600623
592144
582694
573791
564531
555122
545853
536472
527310
517908
508813
499468
490835
482096
473816
465737
457689
450066
442287
434892
427669
420361
413513
406473
399947
393226
386981
380564
374535
368305
362465
356447
350754
344906
339392
333769
328467
323112
317905
312617
307515
302354
297419
292504
287718
283015
278381
273880
269446
265169
261002
256967
253019
249207
245470
241859
238319
234880
231519
228250
225102
221987
218993
216019
213164
210287
207336
204631
202105
199594
197128
194743
192513
190277
188146
186010
183945
181896
179923
177976
176104
174244
172448
170664
168939
167237
165601
163979
162411
160867
159372
157899
156467
155045
153666
152273
150941
149661
148395
147152
145949
144765
143632
142509
141435
140366
139338
138321
137336
136367
135414
134487
133571
132669
131792
130921
130077
129222
128419
127616
126847
126076
125339
124613
123912
123229
122565
121921
121285
120675
120060
119472
118885
118315
117745
117193
116643
116113
115589
115078
114584
114103
113635
113179
112741
112312
111898
111487
111090
110692
110310
109927
109556
109188
108831
108476
108135
107792
107472
107150
106849
106545
106262
105974
105712
105444
105174
104906
104650
104390
104141
103892
103656
103419
103197
102971
102759
102546
102346
102141
101959
101769
101573
101394
101215
101034
100778
758499
206750
195553
200010
196805
187341
178286
170075
163971
160656
159552
159987
162202
165410
169308
173794
178814
184355
190433
197092
204488
212687
221816
231991
243436
256183
270136
285719
303007
321635
341224
362380
385824
409366
433197
457605
482463
504577
524366
542512
559171
574270
584700
593376
598242
603194
600967
596976
590543
583807
575030
565305
554615
543344
533215
522406
511119
500748
489968
480196
469910
460694
451142
442724
433939
426291
418411
411513
404535
398039
391918
385681
380104
374419
369057
363972
358787
354154
349315
344968
340438
336259
331895
327761
323474
319371
315142
311041
306852
302807
298707
294765
290773
286888
282944
279136
275295
271538
267796
264080
260433
256808
253229
249670
246176
242713
239336
235992
232741
229524
226400
223297
220302
217373
214490
211690
208947
206275
203575
200840
198197
195772
193357
190983
188655
186480
184305
182232
180147
178131
176119
174177
172254
170405
168564
166782
165006
163288
161584
159943
158312
156736
155172
153662
152165
150715
149269
147863
146450
145083
143761
142468
141186
139944
138717
137543
136375
135256
134141
133068
132001
130971
129951
128951
127969
127007
126051
125125
124200
123304
122400
121540
120685
119860
119039
118248
117468
116714
115976
115259
114559
113873
113203
112541
111890
111253
110627
110004
109395
108793
108210
107633
107070
106523
105989
105470
104961
104472
103991
103527
103064
102618
102171
101739
101308
100889
100472
100068
99666.9
99280.9
98893.4
98527.5
98161.5
97817.5
97470.8
97145
96815.5
96511.3
96200.3
95891.9
95584.1
95289
94991.2
94704.5
94418.6
94146.1
93873.7
93616.2
93356.6
93111.2
92864.5
92632.5
92395.9
92180.7
91958.8
91732.6
91521.8
91313.9
91104.2
90806.1
760156
205965
188377
185930
180181
171482
163784
157211
152638
150395
149855
150908
153467
156903
161045
165820
171203
177203
183855
191230
199516
208837
219325
231093
244465
259510
275978
294374
314846
337204
360444
384817
411338
436918
460762
483716
505917
524412
539106
552296
562799
572794
574027
573390
569922
565746
557874
548007
536598
524884
512662
499998
487133
473854
460922
448036
434119
421866
408856
397827
386172
376516
366357
358177
349553
342674
335520
329950
324222
319668
315283
311296
307985
304563
301893
299163
296827
294689
292455
290626
288703
286970
285141
283317
281396
279456
277416
275311
273088
270781
268374
265945
263471
260968
258408
255818
253186
250525
247823
245087
242321
239527
236739
233960
231197
228456
225738
223041
220383
217742
215167
212573
210064
207549
205075
202632
200252
197887
195499
193070
190629
188360
186134
183949
181798
179754
177739
175802
173865
171976
170087
168255
166436
164677
162927
161227
159533
157885
156248
154663
153088
151560
150040
148567
147104
145688
144269
142893
141508
140160
138841
137565
136289
135052
133827
132648
131477
130349
129227
128142
127065
126021
124984
123972
122966
121989
121010
120063
119114
118194
117268
116377
115495
114640
113789
112968
112155
111369
110596
109848
109111
108394
107685
106992
106303
105631
104967
104308
103661
103022
102399
101786
101184
100598
100025
99467.9
98920.1
98392.1
97871.6
97369.5
96868.1
96383.5
95898.8
95428.6
94959.6
94502.5
94047.8
93606.7
93167.9
92745.1
92321.6
91918.6
91516.5
91136.6
90754.8
90393.7
90029.7
89690.1
89343.8
89003.1
88661.6
88333.8
88003.3
87684.7
87366.7
87062.9
86759.1
86471.5
86181.6
85907
85631.4
85370.8
85106.5
84862.3
84612.3
84360
84120.4
83886.6
83651.3
83315.5
762927
203535
180381
173916
167248
159258
152384
146975
143430
141861
141664
143108
145820
149386
153696
158706
164422
170887
178161
186351
195672
206324
218453
232136
247825
265659
285158
306833
330811
356858
383063
408310
434978
459301
479641
497683
514578
528955
537725
543377
545006
545775
541238
534345
524548
513966
501700
488153
473253
456761
440181
423257
405970
389760
373204
359301
344467
331723
318402
307503
296242
287202
277854
270475
262847
256849
250658
245960
241115
237601
233979
231411
228962
227050
225666
224196
223651
223039
222735
222748
222808
223075
223486
224055
224639
225303
225837
226424
226754
227114
227188
227153
226946
226592
226036
225335
224472
223482
222348
221070
219649
218089
216436
214709
212926
211099
209231
207330
205400
203445
201473
199468
197470
195454
193470
191496
189563
187632
185680
183669
181608
179611
177689
175784
173892
172068
170269
168536
166799
165100
163388
161716
160052
158438
156826
155261
153693
152162
150636
149153
147673
146233
144800
143403
142017
140672
139326
138018
136700
135413
134143
132917
131690
130495
129307
128161
127020
125920
124823
123762
122703
121679
120656
119660
118667
117701
116733
115791
114849
113931
113009
112117
111231
110372
109515
108686
107862
107066
106280
105520
104767
104037
103312
102604
101898
101208
100525
99847.7
99179.8
98520.7
97875.3
97239.9
96614
96004.4
95406.7
94824.4
94251.2
93697.2
93150.7
92622.6
92094.9
91583.7
91073.1
90575.9
90080.3
89596.1
89114.3
88645.7
88179.5
87729
87278.6
86847.3
86417.6
86009.6
85600.8
85211.6
84821.1
84453.4
84079.8
83713.4
83345.2
82990.9
82634.3
82289.8
81945.5
81615.9
81286.1
80973.1
80658
80358.6
80058.6
79774
79486.3
79217.4
78943.3
78669.9
78405.4
78149.2
77891.5
77522.8
766212
200033
172320
164151
156796
149402
143200
138514
135653
134496
134514
136151
138907
142532
146960
152177
158231
165217
173236
182425
193030
205351
219559
235688
254216
275506
298620
323599
350250
378053
404769
428252
452073
472764
487451
500193
510280
519703
519947
518496
513838
507796
498212
486419
472307
456288
439209
420090
400184
378641
359730
340615
322561
306542
290096
276901
263225
251733
239970
230376
220614
212779
204826
198461
192008
186830
181548
177414
173176
170006
166722
164440
162026
160568
159184
157977
157484
156905
156985
157197
157568
158229
159125
160287
161611
163133
164756
166517
168313
170216
172063
173992
175788
177664
179295
180966
182365
183746
184923
185919
186750
187305
187703
187784
187696
187462
187073
186532
185851
185035
184097
183030
181863
180625
179353
178059
176748
175410
174029
172569
171024
169445
167889
166325
164758
163232
161713
160246
158771
157318
155852
154399
152949
151537
150124
148750
147362
145989
144610
143263
141912
140589
139273
137981
136701
135454
134209
132995
131772
130572
129380
128225
127069
125941
124811
123721
122632
121581
120530
119514
118497
117513
116530
115570
114614
113680
112747
111833
110920
110029
109132
108260
107392
106550
105707
104891
104077
103290
102509
101756
101007
100280
99558.2
98852.4
98148.5
97457.7
96774.1
96095.7
95424.4
94761
94109.2
93467.4
92833.2
92214.2
91605.5
91012.5
90427.4
89861
89301.3
88759.9
88218.7
87693.3
87168.6
86656.5
86145.9
85645.7
85147.9
84662.3
84179.3
83710.9
83243.3
82792.8
82344.9
81917
81490.2
81080.7
80672
80283.8
79891.2
79506.5
79119.2
78745.4
78369.7
78005.7
77641.6
77292.2
76942.5
76609.6
76274.7
75955.7
75636.4
75332.6
75026.3
74737.4
74444.1
74154.3
73869.7
73595
73318.7
72922.7
769929
196126
164997
155740
148144
141214
135557
131347
128891
127950
128122
129798
132532
136178
140708
146149
152609
160256
169243
179751
192057
206574
223527
242839
264897
290039
316430
343467
370784
397891
423349
443388
461902
478084
487523
492884
495547
498343
494397
487759
477437
465242
450965
434262
415210
392887
370061
346135
325358
303612
285602
267265
251680
237463
223907
212808
201668
192564
183348
175743
168065
161778
155423
150232
144981
140679
136311
132771
129171
126329
123434
121218
118905
117294
115605
114348
113311
112249
111643
111178
110801
110814
110936
111257
111760
112481
113367
114455
115698
117132
118704
120450
122305
124309
126395
128599
130848
133176
135518
137886
140259
142498
144755
146802
148766
150547
152215
153683
155010
156106
157041
157733
158256
158529
158743
158789
158729
158561
158262
157798
157139
156340
155455
154503
153504
152475
151426
150368
149295
148207
147096
145964
144818
143673
142519
141373
140217
139060
137893
136741
135581
134430
133285
132151
131024
129921
128820
127740
126651
125563
124474
123410
122344
121298
120246
119226
118203
117216
116226
115267
114308
113378
112449
111539
110633
109746
108859
107988
107117
106263
105406
104567
103731
102918
102103
101314
100523
99758.8
98997.6
98262.9
97531.7
96821.1
96115.9
95425.8
94736.7
94058.5
93388.5
92722.5
92062.2
91407.9
90763.9
90128.7
89499.9
88884.6
88277.5
87686
87101.4
86534.5
85973.5
85430.7
84887.7
84360
83832.6
83317
82802.4
82297.3
81794.4
81302.2
80812.6
80336.2
79861.3
79400.8
78944.1
78505
78069.2
77647.8
77229.2
76828.7
76425.4
76030
75631.7
75245.8
74858.5
74482
74105
73742.4
73379.2
73032.4
72683.8
72350.8
72017.8
71699.9
71380.4
71076.9
70769.9
70468
70168.8
69880
69589.5
69172.7
773687
192144
158151
148294
140734
134227
128989
125157
122890
122052
122296
123926
126606
130269
134940
140697
147727
156297
166630
178983
193655
211132
231722
254989
280730
309136
337514
365005
391274
415896
439119
453905
465542
477926
480306
479550
476753
473135
465072
453710
438745
420436
400023
376186
351106
324427
301386
278060
259341
240801
226052
211135
199599
188176
178493
169556
161275
154266
147324
141439
135519
130507
125420
121220
116979
113515
109993
107116
104198
101828
99421.7
97467.5
95467.8
93868.7
92212
90933.4
89665.1
88482.6
87517
86583.3
85777.8
85177.2
84557.5
84153.8
83780.1
83601
83491.9
83541.4
83672.4
83925.7
84290.7
84789.1
85407
86166.3
87055.7
88099.9
89273.5
90598.7
92052.9
93656.6
95384.7
97241
99211.6
101261
103389
105575
107814
110085
112383
114647
116889
119031
121140
123128
125115
127065
128867
130540
132006
133312
134285
134966
135478
135831
136052
136111
136059
135935
135725
135438
135065
134612
134083
133495
132848
132152
131415
130644
129841
129016
128168
127302
126423
125534
124637
123740
122834
121923
121003
120072
119133
118200
117266
116338
115401
114483
113560
112664
111765
110892
110020
109167
108312
107471
106629
105803
104974
104158
103342
102538
101732
100939
100146
99372.9
98599.1
97844.4
97086.6
96353.8
95620.8
94912.6
94207.4
93521.6
92840.5
92173.8
91508.1
90851.5
90203.5
89559
88919.2
88283
87656.5
87036.7
86422.6
85819.6
85223.6
84642.1
84066.9
83508.2
82954.8
82419.1
81883.3
81362.3
80841.3
80331.2
79821.9
79320.7
78821.8
78331.8
77844.6
77368.7
76894.8
76432.5
75975.6
75533.1
75096.5
74670.9
74250.3
73844.2
73439.2
73040
72638.3
72247.4
71855.8
71473.6
71090.8
70721.5
70351.6
69997
69640.9
69299.5
68958.8
68632.1
68304.9
67992.5
67677.2
67367.7
67059.4
66761.7
66461.9
66031.2
777468
188468
151783
141613
134257
128146
123242
119692
117540
116698
116943
118488
121121
124854
129784
136059
143967
153909
166208
181182
199151
220571
245633
273048
301778
332488
361365
387917
411822
432403
452197
460277
465508
471475
469662
465326
457266
446780
433049
415593
394372
367998
340110
310953
286358
262019
242354
223959
208935
195439
184026
173204
164632
155815
148637
141196
135032
129142
123549
118821
113924
109793
105589
102233
98826.1
96088.9
93319.3
91082.5
88808
86909.2
84976.6
83356.3
81701.9
80318.4
78903.2
77735.9
76550.6
75523.8
74586.1
73629.6
72778.2
72048.7
71300.6
70662
70015.7
69514.9
69005.3
68610.5
68212.3
67913.2
67636.8
67432.1
67280.8
67171.7
67165.4
67218.2
67332
67524.5
67792.3
68150.7
68595.5
69141.1
69786.7
70528
71374.2
72323
73384.3
74559.1
75846
77239.8
78739.6
80345.2
82060.8
83899.6
85878.4
87976.1
90159.7
92394.8
94648.7
96905.6
99058.7
101057
102885
104697
106328
107952
109361
110768
111966
113163
114167
115108
115849
116511
116996
117391
117630
117781
117766
117689
117533
117300
116997
116632
116213
115744
115227
114663
114060
113418
112745
112049
111336
110607
109865
109112
108351
107595
106833
106081
105323
104578
103830
103089
102345
101611
100872
100140
99406.2
98678.6
97949.6
97225.7
96501.9
95791.1
95076.3
94371.6
93661.8
92971.4
92278.8
91608.5
90939.3
90287.9
89641
89007
88374.6
87749.2
87132.1
86518.6
85907.2
85297.6
84695.7
84098.4
83506
82921.4
82343.3
81777.8
81218.2
80673.6
80134
79611.3
79089.1
78580.7
78072.6
77573.7
77076.2
76585.1
76096.3
75614.7
75136.1
74666.4
74199.6
73741.8
73290.5
72851
72419.2
71995.8
71579
71173.5
70772.5
70375.2
69976.3
69586.5
69196.4
68814.5
68431.9
68061.5
67690.7
67333.7
66975.7
66631.3
66288
65957.8
65627.8
65311.6
64993.1
64680.8
64368.7
64066.8
63762.5
63324.9
780860
185224
145926
135613
128539
122771
118160
114823
112753
111841
112038
113503
116148
120084
125514
132673
141982
153987
169133
187879
210323
236525
266344
297703
328225
359909
387866
412084
432046
447134
461410
463651
463108
462185
457370
448768
434798
415972
393645
366036
336211
304805
278314
252808
232499
214148
199321
186070
174673
164783
155549
147412
140084
132906
126710
120401
115252
109958
105491
101362
97215
93923.9
90659.5
88027.6
85450.2
83346.8
81268.1
79527.4
77744.6
76230.7
74681.4
73378.8
72056.1
70947
69822.7
68861.3
67881.2
67031.4
66243.2
65444.6
64689.9
64033
63369.6
62767
62154.9
61630.4
61099.5
60631.8
60157.2
59743.8
59324.7
58956
58581.6
58257.6
57928.4
57662.6
57393.2
57183.8
56970.5
56820.7
56671.8
56586.1
56517.4
56509.4
56536
56600.2
56712.3
56877.3
57098.1
57377.5
57720.6
58135.6
58632.1
59230
59940
60770.5
61713.8
62761.4
63904.6
65130.9
66439.3
67803.6
69225.4
70710.5
72253.7
73857.2
75506.2
77208.7
78953.5
80756.1
82585.3
84456.5
86277.4
88124
89849.9
91579.1
93169.3
94710.8
96089.1
97365.3
98501.6
99518.1
100410
101177
101834
102354
102779
103047
103249
103270
103215
103089
102890
102628
102307
101937
101523
101077
100601
100100
99577.4
99041.5
98493.7
97936.6
97369.9
96795.8
96212.1
95620.2
95019.9
94412.2
93796.5
93173.7
92544.4
91915.9
91283.8
90654.2
90019.6
89396
88768.2
88158.4
87548
86952.1
86359.9
85779
85199.9
84625
84058.2
83490.9
82921.1
82350.6
81784.2
81219.7
80658.8
80102.1
79551.1
79009.8
78474.5
77951.6
77433.8
76931.4
76430.4
75940.9
75452.1
74970.1
74490.1
74014.4
73540.9
73072.8
72607.5
72149.1
71693.9
71246
70804.6
70372.9
69949.9
69533.5
69124.4
68724
68330.7
67939.5
67547.7
67163
66778.8
66401.3
66023.6
65656.2
65288.9
64933.4
64577.9
64234.4
63892.6
63562.7
63234
62917.4
62600.5
62289.4
61977.6
61675.6
61370.8
60932.1
783966
182608
140612
130218
123443
117984
113646
110470
108440
107491
107619
109062
111860
116252
122573
131215
142713
157844
177188
201143
229098
260487
294908
329340
359757
390558
416384
436219
450844
459140
465693
464663
459939
452126
440243
423587
401035
371247
338433
304481
276239
249803
228662
209734
194592
181243
169956
159746
150689
142445
134433
127276
120225
114059
108131
102806
98175.6
93548.6
90105
86509.5
83490.7
81151.9
78821.2
76962.9
75081.5
73515
71980.2
70580
69140.9
67970
66787.5
65803.7