/*--------------------------------*- C++ -*----------------------------------*\
| =========                 |                                                 |
| \\      /  F ield         | OpenFOAM: The Open Source CFD Toolbox           |
|  \\    /   O peration     | Version:  2312                                  |
|   \\  /    A nd           | Website:  www.openfoam.com                      |
|    \\/     M anipulation  |                                                 |
\*---------------------------------------------------------------------------*/
FoamFile
{
    version     2.0;
    format      ascii;
    arch        "LSB;label=32;scalar=64";
    class       volScalarField;
    location    "0.003";
    object      p;
}
// * * * * * * * * * * * * * * * * * * * * * * * * * * * * * * * * * * * * * //

dimensions      [1 -1 -2 0 0 0 0];

internalField   nonuniform List<scalar> 
48128
(
3490.94
3490.68
3487.41
3486.27
3484.84
3482.09
3477.11
3468
3453.9
3435.54
3407.35
3375.76
3344.86
3317.11
3293.96
3276.43
3263.03
3253.27
3248.09
3247.46
3250.14
3256.76
3267.79
3283.73
3305.25
3333.03
3367.36
3409.24
3459.28
3517.62
3584.24
3659.78
3744.89
3839.78
3944.61
4059.49
4183.42
4317.29
4461.04
4614.04
4776.77
4948.08
5130.99
5321.19
5521.74
5727.74
5944.78
6167.45
6399.92
6634.27
6876.34
7118.71
7366.64
7611.78
7861.83
8107.66
8352.61
8594.58
8833.01
9067.03
9295.31
9517.79
9734.19
9943.98
10147.5
10342.9
10531.5
10712.1
10883.8
11047.9
11201
11346
11481.7
11605.1
11722.9
11826.3
11925.7
12011.4
12095.3
12168
12241.9
12304.7
12367.9
12419.4
12469.7
12510.3
12551.5
12586.7
12623.5
12654.5
12685.7
12709.9
12734
12753.8
12773.9
12792.7
12809.1
12820.6
12828.6
12835.1
12839.9
12846.3
12854.7
12864.3
12874.1
12884.7
12895.8
12907.5
12918.2
12928.8
12937.9
12949.4
12963.8
12978.4
12993.2
13002.5
12998.2
12986.5
12957.4
12917.8
12969.8
12971
12967.6
13011.6
13040.4
13066.5
13089.6
13106.4
13119.9
13132.8
13146.9
13161.2
13175.4
13185.6
13194.5
13201.2
13208.3
13216.3
13225
13231.5
13238.1
13244.9
13252.2
13256.8
13260.8
13260.1
13258.6
13253
13245.6
13257.2
13258
13258.5
13266
13272.4
13282.3
13292.4
13303.2
13313.6
13324.4
13334.4
13344.1
13351.2
13356.8
13361.6
13363.5
13362.6
13360.8
13357.7
13353.9
13348.9
13343.4
13343.7
13342.9
13343.9
13346.5
13352.6
13360
13369.8
13380.6
13391.1
13399.8
13407.2
13411.3
13412.7
13411.5
13408.8
13404.2
13398.7
13394.2
13390.2
13387.9
13387.3
13389.9
13394.3
13399.8
13406.9
13415.3
13423.5
13429.7
13435.1
13436.4
13436.4
13434.3
13430.9
13426.3
13422.4
13419.1
13416.8
13416.9
13418.2
13421.3
13426.2
13432.4
13438.5
13444.6
13448.8
13452.1
13455.6
13450
13447.7
13445.4
13441.4
13438.1
13435.4
13434.3
13434.9
13436.7
13439.4
13443.3
13448.3
13454.1
13458.7
13463
13466.7
13463.1
13462.7
13461
13456.8
13453.4
13449.4
3490.34
3490.51
3486.96
3486.06
3486.29
3483.35
3478.43
3469.73
3453.26
3432.6
3404.35
3372.63
3341.82
3314.96
3293.98
3276.53
3263.15
3253.52
3248.38
3247.77
3250.44
3256.98
3267.88
3283.66
3305.04
3332.84
3367.35
3408.56
3457.88
3515.47
3581.77
3656.98
3741.39
3835.42
3939.42
4053.36
4176.4
4309.25
4451.83
4603.73
4765.26
4935.12
5116.28
5305.15
5504.35
5709.16
5924.22
6145.06
6375.65
6608.86
6849.19
7090.21
7336.47
7580.91
7828.83
8073.63
8317.95
8559.55
8797.56
9031.39
9259.78
9482.51
9699.19
9909.37
10113.1
10309.1
10498.2
10678.5
10849.6
11014
11168.1
11313.9
11450.3
11575
11693.5
11798.1
11898.3
11985.1
12070
12144.2
12219.4
12283.6
12347.7
12400.3
12451.3
12492.8
12534.9
12571.2
12609
12640.9
12672.8
12697.7
12722.4
12742.6
12763.5
12783.1
12800.1
12811.8
12820.3
12827.1
12832.3
12839.1
12848.1
12858.1
12868.4
12879.3
12890.7
12902.7
12913.7
12924.5
12933.7
12945.4
12960
12975.1
12990.1
12999.2
12994.9
12983.5
12954.9
12914
12966.2
12968.8
12966.6
13008.5
13039.9
13065
13087.9
13104.7
13118.3
13131.3
13145.3
13159.8
13174
13184.2
13193.2
13199.9
13207.1
13215.1
13223.9
13230.4
13237.1
13243.9
13251.2
13256
13259.9
13259.2
13257.6
13252.3
13244.7
13256
13257.3
13258
13265.1
13272.1
13281.7
13291.9
13302.7
13313.1
13324
13334
13343.7
13350.9
13356.4
13361.2
13363.1
13362.2
13360.4
13357.4
13353.6
13348.6
13343.1
13343.6
13342.7
13343.7
13346.3
13352.4
13359.8
13369.7
13380.5
13390.9
13399.7
13407.2
13411.2
13412.5
13411.4
13408.8
13404.2
13398.6
13394.1
13390.1
13387.8
13387.2
13390
13394.3
13399.8
13406.9
13415.3
13423.5
13429.7
13435.1
13436.4
13436.4
13434.3
13430.9
13426.3
13422.3
13419.1
13416.8
13417
13418.2
13421.3
13426.2
13432.5
13438.5
13444.7
13448.8
13452.2
13455.6
13450.1
13447.7
13445.4
13441.4
13438.1
13435.4
13434.3
13435
13436.7
13439.4
13443.4
13448.4
13454.2
13458.7
13463
13466.8
13463.1
13462.7
13461
13456.8
13453.5
13449.5
3490.27
3489.51
3485.93
3486.51
3486.05
3482.98
3476.63
3464.19
3446.55
3423.7
3395.51
3367.24
3338.97
3313.06
3290.92
3274.06
3261.65
3252.66
3247.98
3247.59
3250.39
3256.93
3267.74
3283.49
3304.93
3332.23
3366.3
3407.2
3456.11
3512.94
3578.36
3652.89
3736.54
3829.48
3932.56
4045.25
4167.1
4298.57
4439.73
4590.17
4750.31
4918.49
5097.83
5285
5482.59
5685.85
5898.88
6117.73
6346.41
6578.26
6817.26
7057.18
7302.23
7545.53
7792.32
8036.79
8280.27
8521.41
8759.18
8992.92
9221.6
9444.77
9662.03
9872.88
10077.2
10273.8
10463.6
10644.7
10817.3
10982.8
11138.2
11284.9
11422
11547.9
11667.1
11772.7
11873.8
11961.1
12047
12122.3
12198.8
12264.2
12329.5
12382.9
12434.5
12476.6
12519.6
12556.5
12595.3
12628
12660.6
12686
12711.3
12731.9
12753.5
12773.7
12791.2
12803.2
12812.1
12819.2
12824.8
12832
12841.5
12851.9
12862.4
12873.7
12885.4
12897.7
12908.9
12920
12929.2
12941.2
12956.1
12971.4
12986.5
12995.3
12991.2
12979.5
12952.8
12911.4
12960
12966.7
12966.7
13005.7
13037.9
13063.2
13085.8
13102.5
13116.4
13129.5
13143.6
13158.1
13172.3
13182.5
13191.6
13198.3
13205.6
13213.8
13222.5
13229.1
13235.9
13242.8
13250.1
13254.8
13258.7
13258.1
13256.5
13251.5
13243.8
13254.6
13256.7
13257.5
13264.4
13271.4
13281
13291.3
13302.1
13312.5
13323.4
13333.4
13343.2
13350.3
13355.9
13360.6
13362.5
13361.7
13360
13357
13353.2
13348.2
13342.8
13343.2
13342.4
13343.5
13346.1
13352.2
13359.6
13369.5
13380.3
13390.7
13399.5
13406.9
13411
13412.3
13411.1
13408.6
13404
13398.4
13393.9
13390
13387.8
13387.1
13389.9
13394.2
13399.7
13406.8
13415.2
13423.4
13429.6
13435.1
13436.3
13436.4
13434.3
13430.8
13426.2
13422.3
13419.1
13416.8
13417
13418.2
13421.4
13426.3
13432.5
13438.6
13444.7
13448.8
13452.1
13455.5
13450.2
13447.6
13445.4
13441.5
13438.1
13435.4
13434.4
13435
13436.8
13439.5
13443.4
13448.4
13454.2
13458.8
13463
13466.8
13463.3
13462.7
13461
13456.9
13453.5
13449.5
3490.82
3487.24
3485.41
3485.32
3485.4
3480.92
3471.18
3456.27
3436.34
3412.85
3386.23
3357.08
3330.4
3307.11
3286.9
3271.4
3260
3251.75
3247.59
3247.37
3250.24
3256.75
3267.52
3283.19
3304.18
3330.88
3364.46
3404.76
3452.92
3508.95
3573.45
3647.1
3729.69
3821.41
3923.54
4035.03
4155.74
4285.81
4425.69
4574.74
4733.66
4900.06
5078.41
5264.1
5460.44
5661.81
5873.62
6091.19
6319.15
6549.58
6788.14
7027.08
7271.98
7514.61
7761.16
8006
8248.92
8489.78
8727.6
8961.17
9190.15
9413.65
9631.52
9842.9
10047.6
10244.2
10434.8
10616.1
10789.9
10956
11112.3
11260
11397.2
11524.5
11644.3
11750.5
11852.5
11939.8
12026.5
12102.6
12180.4
12246.8
12313.3
12367.4
12419.5
12462
12505.9
12543.4
12583.1
12616.5
12649.7
12675.6
12701.4
12722.3
12744.5
12765.3
12783.1
12795.3
12804.6
12812.1
12817.9
12825.6
12835.5
12846.1
12857
12868.5
12880.6
12893
12904.3
12915.7
12925.2
12937.4
12952.3
12967.9
12983
12991.1
12987.2
12975.2
12951.1
12910.8
12952.3
12964
12968.8
13003.1
13035.4
13061.3
13083.5
13100.2
13114.5
13127.7
13141.8
13156.3
13170.3
13180.6
13189.9
13196.7
13204.2
13212.3
13221.1
13227.7
13234.6
13241.5
13248.8
13253.5
13257.3
13256.8
13255.2
13250.8
13243.3
13252.8
13255.9
13257.2
13263.7
13270.9
13280.4
13290.7
13301.5
13311.9
13322.8
13332.7
13342.5
13349.7
13355.2
13360
13361.8
13361.1
13359.4
13356.5
13352.7
13347.9
13342.4
13342.7
13342.2
13343.3
13346
13352
13359.4
13369.3
13380
13390.5
13399.2
13406.6
13410.6
13411.9
13410.8
13408.3
13403.8
13398.3
13393.7
13389.8
13387.7
13387.2
13389.8
13394.1
13399.7
13406.8
13415.2
13423.3
13429.5
13435
13436.1
13436.3
13434.1
13430.7
13426.1
13422.2
13419.1
13416.8
13417
13418.3
13421.4
13426.3
13432.5
13438.6
13444.6
13448.8
13452
13455.3
13450.5
13447.6
13445.3
13441.5
13438.1
13435.4
13434.5
13435.1
13436.8
13439.6
13443.5
13448.5
13454.2
13458.9
13463
13466.8
13463.4
13462.7
13461
13457
13453.6
13449.6
3490.92
3485.53
3484.89
3484.79
3483.42
3475.92
3463.4
3445.89
3424.75
3400.75
3374.28
3347.45
3322.45
3300.88
3282.73
3268.6
3258.12
3250.62
3246.83
3246.69
3249.59
3256.08
3266.71
3281.95
3302.42
3328.64
3361.41
3401.11
3448.51
3503.74
3567.35
3640.2
3721.8
3812.3
3913.62
4024.08
4143.81
4272.67
4411.67
4559.66
4717.87
4882.22
5061.06
5245.78
5442.09
5642.16
5854.17
6071.47
6299.85
6528.81
6767.45
7005.76
7251.37
7494.04
7741.79
7986.27
8229.22
8469.94
8707.71
8941.48
9170.48
9394.76
9613.14
9824.86
10029.3
10225.7
10417
10597.9
10772.7
10938.2
11094.9
11243
11379.4
11508.2
11627.9
11734.3
11836.8
11923.3
12010.5
12087.2
12166
12233.2
12300.4
12354.9
12407.3
12449.9
12494.7
12532.6
12573
12606.9
12640.8
12666.9
12693.3
12714.3
12737.2
12758.3
12776.5
12788.6
12798.4
12806.2
12812.3
12820.5
12830.7
12841.5
12852.6
12864.4
12876.7
12889.2
12900.6
12912.2
12921.9
12934.4
12949.4
12965.1
12979.9
12986.9
12983.2
12970.8
12949.8
12912.3
12944.8
12961.7
12972.7
13001.4
13033.1
13059.4
13081.2
13097.9
13112.8
13126.2
13140.4
13154.7
13168.5
13178.8
13188.3
13195.3
13203
13211.1
13219.7
13226.4
13233.5
13240.4
13247.5
13252.2
13255.8
13255.6
13253.9
13250.2
13243.2
13251
13255.2
13257.2
13263.2
13270.4
13279.9
13290.1
13300.9
13311.3
13322.2
13332
13341.8
13349
13354.6
13359.2
13361
13360.5
13358.9
13355.9
13352.2
13347.7
13342.2
13342.3
13342
13343.3
13346
13352
13359.4
13369.1
13379.8
13390.1
13398.8
13406.1
13410.2
13411.4
13410.3
13408
13403.6
13398.1
13393.5
13389.7
13387.8
13387.3
13389.8
13394.1
13399.7
13406.8
13415.1
13423.1
13429.3
13434.8
13435.8
13436.2
13433.9
13430.6
13426
13422.2
13419.1
13416.9
13417.1
13418.4
13421.5
13426.3
13432.5
13438.5
13444.6
13448.7
13451.9
13455
13450.6
13447.6
13445.2
13441.5
13438.1
13435.5
13434.6
13435.2
13436.9
13439.6
13443.6
13448.5
13454.2
13458.9
13462.9
13466.7
13463.6
13462.7
13460.9
13457
13453.6
13449.6
3494.24
3485.83
3486.46
3484.87
3479.76
3469.5
3453.91
3434.39
3412.51
3388.5
3362.48
3337.53
3314.65
3294.87
3278.41
3265.49
3255.83
3249.02
3245.54
3245.44
3248.4
3254.73
3265.04
3279.79
3299.73
3325.29
3357.31
3396.49
3443.18
3497.63
3560.34
3632.5
3713.21
3802.5
3903.31
4012.97
4131.7
4260.02
4398.68
4546.27
4704.74
4868.06
5045.83
5230.27
5427.41
5626.81
5840.04
6057.63
6287.2
6515.3
6754.44
6991.71
7238.19
7480.17
7731.88
7972.6
8215.58
8457.56
8693.37
8928.72
9156.46
9382.7
9601.11
9813.85
10017.2
10213.9
10405.6
10586.3
10762.5
10927.2
11084.4
11232.2
11367.3
11497.7
11616.9
11723.2
11825.8
11911.3
11998.7
12075.9
12155.8
12223.6
12290.7
12344.7
12397
12439.9
12485.5
12523.7
12564.9
12599
12633.5
12659.7
12686.4
12707.6
12731.2
12752.5
12770.7
12782.9
12793.1
12801.2
12807.8
12816.7
12827.1
12837.9
12849.3
12861.4
12873.8
12886.2
12897.7
12909.5
12919.5
12932.5
12947.3
12963
12977.1
12982.5
12978.9
12966.5
12949.2
12915.7
12938.6
12960.3
12977.6
13001.2
13031.1
13057.5
13078.8
13095.8
13111.5
13125.1
13139.4
13153.4
13166.8
13177.2
13186.8
13194.1
13202.1
13210.2
13218.5
13225.3
13232.6
13239.5
13246.4
13251
13254.4
13254.4
13252.7
13249.8
13243.5
13249.5
13254.6
13257.4
13263.1
13270.2
13279.6
13289.7
13300.4
13310.8
13321.7
13331.4
13341
13348.2
13353.9
13358.4
13360.1
13359.8
13358.3
13355.4
13351.7
13347.6
13342.1
13341.9
13342
13343.4
13346.2
13352
13359.4
13369.1
13379.6
13389.7
13398.4
13405.6
13409.6
13410.9
13409.8
13407.6
13403.3
13398
13393.4
13389.7
13387.9
13387.6
13389.9
13394.1
13399.8
13406.9
13415
13422.9
13429
13434.5
13435.4
13436
13433.5
13430.4
13426
13422.1
13419.1
13417
13417.3
13418.6
13421.6
13426.4
13432.5
13438.5
13444.5
13448.6
13451.6
13454.7
13450.8
13447.6
13445.1
13441.5
13438.2
13435.5
13434.7
13435.3
13437
13439.8
13443.7
13448.6
13454.2
13458.9
13462.7
13466.5
13463.8
13462.6
13460.8
13457.1
13453.7
13449.7
3499
3491.1
3489.04
3484.25
3475.6
3461.81
3443.66
3423.26
3401.09
3376.13
3351.22
3328.08
3307.17
3289.1
3274.09
3262.21
3253.24
3247.06
3243.9
3243.77
3246.7
3252.74
3262.56
3276.82
3296.19
3321.08
3352.38
3391.07
3437.11
3490.78
3552.53
3624.14
3704.18
3792.05
3892.9
4002.57
4120.22
4248.59
4386.87
4534.43
4693.33
4855.74
5033.7
5217.17
5414.82
5613.64
5827.59
6044.44
6273.75
6500.79
6742.44
6975.88
7224.46
7460.63
7721.88
7954.56
8193.73
8441.55
8672.05
8908.9
9133.33
9363.49
9580.69
9795.99
9997.83
10195.2
10387.4
10568.5
10746.8
10911.3
11070.9
11218.7
11353
11486.2
11604.7
11711.7
11814.2
11899.3
11987.5
12065.7
12146.7
12216.1
12282.2
12336.1
12388.1
12431.6
12478.4
12516.3
12558.7
12592.6
12627.8
12654
12681
12701.7
12726.3
12747.1
12765.3
12777.6
12788.5
12796.9
12804.1
12813.9
12824.4
12835.1
12846.7
12859.1
12871.5
12883.9
12895.3
12907.4
12917.8
12931.5
12946
12961.4
12974.3
12977.5
12974
12962.1
12949.1
12920.6
12934.8
12960
12982.9
13002.7
13029.6
13055.5
13076.3
13093.7
13110.4
13124.3
13138.8
13152.4
13165.3
13175.7
13185.6
13193.1
13201.6
13209.5
13217.5
13224.5
13232
13238.7
13245.5
13249.8
13252.9
13253.3
13251.6
13249.5
13244.2
13248.5
13254.1
13257.9
13263.4
13270.4
13279.5
13289.5
13300.1
13310.4
13321.4
13330.9
13340.3
13347.5
13353.3
13357.5
13359.2
13359.2
13357.7
13354.9
13351.4
13347.6
13342.3
13341.7
13342.1
13343.7
13346.6
13352.3
13359.7
13369.1
13379.6
13389.2
13398
13404.9
13409
13410.4
13409.1
13407.2
13403.1
13397.9
13393.4
13389.7
13388.1
13387.9
13390.1
13394.3
13400
13407.1
13414.9
13422.6
13428.7
13434.1
13435.2
13435.8
13433.2
13430.3
13425.9
13422.1
13419.2
13417.2
13417.6
13418.8
13421.7
13426.5
13432.6
13438.5
13444.4
13448.4
13451.3
13454.3
13450.9
13447.6
13444.9
13441.5
13438.2
13435.7
13434.9
13435.5
13437.2
13439.9
13443.8
13448.7
13454.2
13458.8
13462.6
13466.3
13464
13462.6
13460.6
13457.2
13453.8
13449.7
3507.09
3497.24
3491.61
3483.07
3470.49
3453.58
3434.16
3413.38
3389.25
3364.51
3341.06
3319.53
3300.31
3283.73
3269.93
3258.92
3250.6
3244.98
3242.11
3241.76
3244.46
3250.14
3259.48
3273.2
3292.01
3316.22
3346.76
3385.03
3430.5
3483.42
3543.99
3615.32
3695.73
3781.62
3882.4
3992.7
4111.36
4236.83
4375.57
4522.45
4681.66
4843.18
5021.69
5203.75
5400.1
5597.89
5812.04
6024.8
6251.2
6471.57
6721.93
6946.67
7198.93
7424.23
7693.87
7923.44
8153.85
8405.52
8630.51
8868.15
9089.35
9322.76
9539.66
9757.53
9958.04
10155.7
10349
10531.3
10712.9
10877.5
11041.8
11190
11324.2
11461.5
11579.4
11689
11791.9
11877.5
11967.9
12048
12131.1
12201.9
12270.9
12322.9
12377.8
12421
12471.6
12507.3
12553.2
12585.2
12622.6
12648.2
12676.7
12695.9
12722.6
12741.6
12760.3
12772.5
12784.6
12793.5
12801.4
12812.3
12822.2
12832.7
12844.8
12857.4
12869.8
12882
12893.4
12905.9
12916.6
12931.2
12945.2
12960.3
12970.9
12971.4
12967.8
12957.1
12949.5
12926.8
12934.4
12960.5
12987.7
13005.8
13029
13052.8
13073.7
13091.5
13109.6
13123.6
13138.6
13151.5
13163.7
13174.2
13184.4
13192.3
13201.4
13209
13216.7
13223.7
13231.7
13238.2
13244.6
13248.6
13251.4
13252.1
13250.6
13249.4
13245.2
13248
13253.8
13258.6
13264.1
13270.9
13279.8
13289.5
13300
13310.1
13321.2
13330.4
13339.7
13346.6
13352.7
13356.6
13358.1
13358.7
13357
13354.4
13351.1
13347.7
13342.6
13341.7
13342.4
13344.2
13347.2
13352.9
13360.1
13369.4
13379.7
13388.8
13397.6
13404
13408.2
13409.8
13408.2
13406.8
13402.8
13397.9
13393.5
13389.9
13388.5
13388.4
13390.5
13394.6
13400.3
13407.3
13414.9
13422.4
13428.4
13433.6
13434.8
13435.4
13432.9
13430
13425.9
13422.2
13419.4
13417.6
13417.9
13419.2
13422
13426.7
13432.7
13438.6
13444.2
13448.2
13451
13453.9
13451
13447.6
13444.8
13441.5
13438.4
13435.9
13435.2
13435.7
13437.4
13440.1
13444
13448.8
13454.2
13458.8
13462.4
13466.1
13464.1
13462.5
13460.4
13457.2
13453.9
13449.8
3513.78
3503.03
3493.35
3480.83
3464.74
3445.96
3425.88
3403.11
3378.13
3354.36
3332.14
3312.01
3294.21
3278.89
3266.12
3255.88
3248.16
3242.92
3240.08
3239.43
3241.79
3247.13
3255.96
3269.07
3287.38
3310.91
3340.62
3378.55
3423.56
3476.12
3535.25
3605.75
3687.84
3772.25
3872.63
3982.01
4100.86
4225.18
4364.54
4509.57
4667.08
4827.56
5005.28
5183.73
5375.44
5568.81
5791.32
5991.2
6214.79
6419.44
6681.6
6896.39
7150.28
7365.95
7634.04
7872.7
8090.65
8340.93
8560.55
8799.07
9019.68
9253.74
9473.61
9692.98
9896.11
10093.4
10289.5
10473.5
10659.2
10824.7
10995.4
11143.1
11279.5
11420.9
11537.3
11651.3
11757.1
11841.3
11938.7
12017.1
12105.8
12175.3
12253.6
12298.3
12361.9
12401.6
12460.7
12491.5
12543.7
12572.5
12613.4
12638.5
12670.3
12688.6
12718.7
12734.3
12754.7
12766.4
12780.5
12789.9
12799.5
12811.5
12820.2
12831.1
12843.5
12856.3
12868.5
12880.7
12891.9
12904.9
12916.2
12931.7
12944.7
12959.8
12966.1
12964.1
12959.8
12952.2
12948.9
12934.3
12938.4
12963.5
12992.8
13009.6
13029.1
13049.6
13070.9
13089
13108.8
13123
13138.6
13150.7
13162.2
13172.6
13183.3
13191.5
13201.4
13208.7
13216.1
13223.1
13231.4
13237.7
13243.8
13247.1
13249.9
13250.8
13249.7
13249.3
13246.4
13248.2
13253.7
13259.3
13265.1
13271.8
13280.3
13289.7
13300.1
13309.9
13321.1
13329.9
13339.1
13345.6
13352.2
13355.6
13357
13358.1
13356.2
13353.9
13350.9
13347.8
13343.1
13342
13342.9
13344.8
13348.1
13353.6
13360.9
13369.8
13379.7
13388.4
13397
13403.2
13407.4
13409.1
13407.4
13406.3
13402.7
13398
13393.6
13390.2
13389
13389.1
13391
13395
13400.8
13407.7
13414.9
13422.1
13428
13433.1
13434.2
13434.9
13432.6
13429.8
13425.9
13422.3
13419.7
13418
13418.4
13419.7
13422.4
13426.9
13432.8
13438.6
13444.1
13447.9
13450.5
13453.4
13451
13447.7
13444.7
13441.5
13438.5
13436.1
13435.5
13436
13437.7
13440.4
13444.3
13448.9
13454.1
13458.7
13462.1
13465.7
13464.3
13462.4
13460.2
13457.3
13454
13450
3518.31
3506.69
3493.87
3477.79
3459.38
3439.03
3417.94
3393.1
3368.62
3345.71
3324.56
3305.62
3289
3274.72
3262.81
3253.25
3245.95
3240.8
3237.78
3236.96
3238.92
3243.87
3252.13
3264.57
3282.46
3305.42
3334.06
3372.06
3416.4
3468.46
3526.94
3597.65
3678.83
3762.09
3863.09
3971.15
4088.81
4211.87
4350.47
4492.25
4644.32
4803.65
4983.78
5152.74
5338.34
5516.33
5754.75
5939.63
6160.32
6344.31
6607.46
6815.95
7071
7284.1
7536.94
7793.27
8004.26
8244.58
8461.06
8696.27
8923.44
9155.36
9378.8
9598.53
9806.81
10004.6
10204.4
10390.8
10582.2
10750.1
10927.4
11077.3
11217.2
11366.3
11476.3
11598
11707.9
11791.1
11902.9
11972.2
12071.5
12137.2
12225.4
12264.6
12339.1
12375.5
12441.2
12470.8
12526.4
12555
12597
12623.8
12657.6
12678.9
12709.8
12724
12745.1
12757.2
12773.7
12784.4
12796.4
12809.9
12818.2
12829.4
12842.2
12855
12867.2
12879.1
12890.7
12903.6
12916.6
12932.5
12944.2
12958.4
12959.5
12955.2
12951
12948.2
12949.4
12942.8
12946
12969.7
12997.8
13012.4
13029.3
13046.9
13067.5
13086.3
13107.5
13122.5
13138.4
13149.7
13160.6
13171
13182
13190.9
13201.3
13208.4
13215.5
13222.6
13231.1
13237.2
13243
13245.5
13248.3
13249.3
13249
13249.2
13247.8
13249.2
13254
13260.1
13266.4
13272.9
13281.1
13290.2
13300.2
13309.9
13320.9
13329.4
13338.4
13344.7
13351.4
13354.4
13355.9
13357.2
13355.5
13353.4
13350.8
13347.9
13343.8
13342.7
13343.7
13345.8
13349.2
13354.6
13361.9
13370.3
13379.7
13388
13396.3
13402.2
13406.5
13408.1
13406.7
13405.6
13402.5
13398
13393.9
13390.7
13389.8
13390
13391.8
13395.6
13401.3
13408.1
13415
13421.8
13427.5
13432.4
13433.5
13434.4
13432.2
13429.5
13425.9
13422.4
13420
13418.5
13418.9
13420.2
13422.9
13427.3
13432.9
13438.6
13443.9
13447.5
13450.1
13452.8
13451
13447.7
13444.6
13441.5
13438.7
13436.4
13435.9
13436.4
13438
13440.7
13444.6
13449.1
13454.1
13458.6
13461.8
13465.4
13464.4
13462.3
13460
13457.3
13454.1
13450.1
3519.62
3507.69
3492.7
3474.35
3454.23
3432.26
3410.12
3384.48
3360.75
3338.53
3318.35
3300.44
3284.77
3271.35
3260.12
3251.01
3243.89
3238.67
3235.5
3234.46
3235.98
3240.46
3248.13
3259.82
3277.43
3300.23
3327.14
3365.43
3409.47
3461.22
3518.38
3589.43
3670.45
3751.26
3852.62
3958.05
4072.3
4195.13
4330.51
4468.32
4611.37
4760.96
4954.21
5106.56
5288.18
5440.91
5686.42
5860.43
6082.95
6247.86
6498.67
6700.7
6951.88
7167.53
7403.93
7667.17
7885.38
8114.97
8333.01
8559.76
8793.06
9018.27
9255.17
9464.55
9693.34
9880.07
10098.9
10273
10483
10643.5
10834
10981.2
11135.1
11293.4
11395.2
11528.2
11629.9
11735.2
11852.6
11918.1
12027.8
12087.3
12179.7
12222.5
12305.5
12343
12412.2
12445.2
12502.5
12532.5
12575.8
12603.9
12640.8
12664.6
12696.9
12709.9
12731.9
12744.9
12763.9
12776.6
12791.2
12806.3
12815.2
12827
12839.7
12852.3
12864.5
12876.3
12888.4
12901.6
12916.3
12933.2
12942.8
12953.8
12950.7
12944.6
12942
12944.4
12951.5
12953
12958.5
12977.3
13001.6
13014.5
13029.1
13044.8
13063.8
13083.5
13105.7
13121.7
13138.1
13148.2
13158.9
13169.5
13180.7
13190.2
13201.2
13207.7
13214.9
13222.3
13230.8
13236.3
13241.8
13243.9
13246.4
13247.6
13248.2
13249.3
13249.3
13250.5
13254.8
13261.1
13267.8
13274.3
13282.1
13290.7
13300.4
13310
13320.7
13328.8
13337.5
13343.6
13350.5
13352.9
13354.7
13356.2
13354.7
13352.9
13350.6
13348.2
13344.6
13343.5
13344.6
13347
13350.5
13355.9
13363
13370.9
13379.7
13387.6
13395.6
13401.1
13405.3
13407
13405.9
13404.9
13402.2
13398.1
13394.3
13391.4
13390.7
13391
13392.7
13396.4
13402
13408.5
13415
13421.5
13426.9
13431.7
13432.8
13433.9
13431.8
13429.3
13425.9
13422.7
13420.5
13419.1
13419.6
13420.9
13423.6
13427.7
13433.1
13438.6
13443.7
13447.1
13449.5
13452.1
13450.9
13447.7
13444.6
13441.5
13439
13436.8
13436.3
13436.8
13438.4
13441.1
13445
13449.3
13454.1
13458.4
13461.5
13465
13464.4
13462.2
13459.8
13457.3
13454.3
13450.3
3518.62
3506.2
3490.05
3470.3
3448.6
3426.39
3402.67
3377.46
3354.29
3332.81
3313.51
3296.45
3281.57
3268.81
3258.06
3249.17
3242.07
3236.76
3233.36
3232.01
3233.01
3237.05
3244.17
3255.15
3272.4
3295.24
3321.13
3358.82
3402.48
3454.56
3510.23
3581.39
3661.44
3739.42
3840.08
3940.12
4046.02
4169.41
4305.68
4434.36
4569.05
4696.53
4901.55
5038.75
5222.24
5348.47
5582.67
5744.71
5970.54
6125.61
6354.24
6555.01
6797.22
7012.87
7238.48
7486.46
7728.28
7939.45
8174.5
8373.77
8631.16
8830.36
9099.15
9281.19
9547.21
9713.25
9966.21
10122.2
10359.9
10504.7
10719.5
10855.6
11030.2
11180.9
11301.9
11447
11534.8
11669.9
11770.7
11855.4
11979.6
12024.1
12119.6
12169.7
12261.9
12302.9
12375.7
12413.1
12473.6
12503.1
12550.2
12578
12618.9
12644.5
12679.6
12692
12716
12729
12751.2
12765.9
12783.9
12800.2
12810.9
12824
12835.9
12848.1
12860.4
12872.3
12885.1
12899
12915.1
12932.7
12939.8
12946.1
12939.4
12932.4
12932.9
12939.6
12953.1
12964.9
12974.2
12986.3
13004.5
13016.3
13028.8
13042.7
13060.3
13080.3
13103.2
13119.9
13137.2
13146.3
13157
13167.8
13179.1
13189.5
13200.8
13207
13214.4
13221.9
13230.4
13235.2
13240.3
13242
13244.1
13245.7
13247.2
13249.5
13250.8
13252.2
13256
13262.2
13269.3
13275.9
13283.2
13291.5
13300.7
13310.1
13320.5
13328.1
13336.5
13342.4
13349.2
13351.3
13353.4
13355
13353.7
13352.2
13350.4
13348.5
13345.6
13344.6
13345.7
13348.3
13352.1
13357.4
13364.2
13371.6
13379.7
13387
13394.7
13399.7
13404
13405.8
13405
13404
13401.8
13398.2
13394.8
13392.2
13391.7
13392.1
13393.8
13397.4
13402.7
13409
13415.1
13421.1
13426.3
13430.8
13432
13433.2
13431.3
13428.9
13426
13423
13421
13419.8
13420.3
13421.7
13424.3
13428.3
13433.3
13438.5
13443.4
13446.7
13448.9
13451.5
13450.6
13447.7
13444.6
13441.6
13439.2
13437.3
13436.8
13437.3
13438.8
13441.5
13445.4
13449.5
13454
13458.2
13461.1
13464.5
13464.3
13462.1
13459.6
13457.3
13454.5
13450.6
3515.08
3502.5
3485.94
3465.47
3442.91
3421.16
3396.37
3372.02
3349.26
3328.53
3310.01
3293.66
3279.39
3267.12
3256.64
3247.8
3240.61
3235.17
3231.42
3229.63
3230.15
3233.91
3240.66
3250.72
3268.03
3290.03
3315.17
3353.89
3396.7
3448.25
3501.98
3572.61
3648.87
3724.62
3825.49
3917.67
4007.04
4120.54
4274.69
4386.63
4519.96
4615.18
4815.65
4940.64
5130.04
5243.86
5451.07
5594.9
5815.42
5971.27
6187.04
6376.92
6611.25
6812.45
7049.68
7256.18
7531.13
7713.57
7989.15
8159.77
8450.59
8619.41
8913.94
9072.95
9368.37
9524.88
9804.37
9951.41
10210
10344.8
10581.9
10705.3
10908.9
11029.3
11197.5
11329.1
11439.3
11593.1
11665.8
11787.6
11915.5
11949.7
12054.9
12109.8
12210.2
12254.1
12334.6
12374.2
12440.3
12468.3
12521
12547.5
12594.2
12618.3
12656.5
12669.9
12697.5
12710.4
12736.1
12752
12774
12790.8
12804.7
12820
12830.5
12842.7
12855
12867.4
12881.3
12896.1
12913.2
12930.3
12934.9
12935.3
12924.9
12919.7
12923.6
12935.1
12954.9
12977.1
12991.5
12995.8
13007.4
13017.7
13028.2
13040.5
13057.1
13076.7
13099.7
13117
13135.1
13144.1
13154.8
13165.6
13177.2
13188.3
13200.1
13206.2
13213.7
13221.3
13229.7
13233.6
13238.3
13239.8
13241.6
13243.7
13246.1
13249.5
13252.4
13254.2
13257.6
13263.5
13270.7
13277.5
13284.6
13292.3
13301.1
13310.2
13320.1
13327.2
13335.3
13340.9
13347.6
13349.5
13351.7
13353.6
13352.7
13351.7
13350.3
13348.8
13346.8
13346.1
13347.2
13349.9
13353.7
13359.1
13365.6
13372.4
13379.7
13386.4
13393.6
13398.2
13402.5
13404.3
13403.9
13403.1
13401.3
13398.4
13395.4
13393.2
13392.9
13393.4
13395.1
13398.6
13403.7
13409.6
13415.2
13420.7
13425.5
13429.8
13431.1
13432.4
13430.7
13428.6
13426
13423.4
13421.7
13420.6
13421.1
13422.5
13425.1
13428.9
13433.6
13438.5
13443.1
13446.2
13448.2
13450.7
13450.3
13447.6
13444.5
13441.6
13439.6
13437.8
13437.4
13437.8
13439.4
13442.1
13445.8
13449.7
13454
13458
13460.6
13464
13464.2
13461.9
13459.4
13457.3
13454.7
13450.9
3509.44
3497.15
3480.78
3460.36
3438.05
3416.25
3391.41
3367.94
3345.71
3325.7
3307.86
3292.08
3278.27
3266.29
3255.9
3246.95
3239.63
3233.97
3229.8
3227.5
3227.75
3231.37
3237.41
3246.14
3264.08
3286.71
3310.52
3350.2
3391.5
3440.97
3492.33
3561.9
3628.57
3700.58
3809.77
3890.96
3962.05
4048.55
4219.22
4316.73
4457.91
4529.56
4708.15
4817.84
5002.16
5112.54
5295.88
5424.68
5620.84
5776.73
5986.51
6167.45
6401.65
6583.35
6846.37
7008.05
7305.46
7460.53
7773.54
7935.85
8248.55
8398.44
8701.79
8849.92
9165.6
9320.31
9620.09
9766.81
10045.7
10177.5
10432.9
10549.9
10776.4
10877.2
11077.5
11183.9
11348.2
11495.1
11564.1
11711.4
11821.4
11869.8
11993.5
12043.9
12148.4
12194.1
12287.3
12327.9
12400.9
12427.6
12487.4
12514.2
12566.6
12588.2
12630.1
12643.1
12676.7
12690.7
12720.3
12736.4
12762.2
12778.7
12797.1
12814.6
12824.1
12836.7
12848.5
12861.6
12876.6
12892.6
12910
12924.2
12926.2
12921.4
12907.1
12907.2
12915.8
12932.9
12958
12989.3
13008.4
13005.8
13011.1
13018.5
13027.4
13038.7
13054.3
13073
13095.3
13112.6
13131.7
13141.2
13152.2
13162.9
13174.9
13186.4
13198.5
13204.9
13212.7
13220.1
13228.4
13231.5
13235.5
13236.9
13238.8
13241.7
13245.4
13250
13254.2
13256.4
13259.5
13264.9
13272.1
13279
13285.9
13293.3
13301.5
13310.1
13319.5
13326.1
13333.9
13339.1
13345.6
13347.6
13350.3
13352
13351.4
13350.9
13350
13349.1
13347.9
13347.7
13348.9
13351.8
13355.9
13361.1
13367
13373.1
13379.6
13385.7
13392.4
13396.7
13400.6
13402.6
13402.6
13402.1
13400.7
13398.4
13396.1
13394.3
13394.2
13394.9
13396.6
13399.9
13404.7
13410.2
13415.2
13420.3
13424.6
13428.7
13430
13431.4
13430
13428.2
13426.1
13423.8
13422.4
13421.6
13422
13423.5
13426.1
13429.6
13433.8
13438.4
13442.7
13445.6
13447.5
13449.8
13449.8
13447.5
13444.5
13441.8
13439.9
13438.4
13438
13438.5
13440
13442.7
13446.3
13450
13453.9
13457.7
13460.2
13463.4
13464
13461.7
13459.2
13457.3
13454.8
13451.2
3502.55
3490.96
3475.18
3455.21
3434.19
3411.83
3387.84
3365.11
3343.62
3324.3
3307.01
3291.66
3278.12
3266.26
3255.83
3246.69
3239.15
3233.27
3228.8
3225.99
3225.27
3228.74
3234.83
3243
3261.91
3284.74
3306.63
3346.88
3385.21
3429.6
3478.86
3552.74
3601.53
3657.46
3784.17
3855.2
3922.27
3972.78
4135.48
4219.26
4368.29
4435.17
4585.63
4678.91
4841.1
4948.62
5113.88
5231.87
5402.07
5561.9
5747.62
5925.51
6117.96
6290.16
6531.3
6667.32
6959.78
7100.97
7423.03
7581.03
7899.3
8048.16
8382.21
8527.17
8863.01
9021.59
9352.59
9499.88
9808.95
9947.03
10230.9
10350.7
10604.2
10706.5
10935.3
11032.1
11230
11364
11473.6
11635.8
11706.1
11795.8
11943.4
11978
12084.7
12133.4
12239.6
12278.6
12358.4
12385.7
12453.3
12481
12538
12556.3
12601.8
12614.5
12655.1
12671
12704.8
12720.5
12749.5
12764.6
12788.3
12807.4
12817.4
12831.2
12842
12856
12872.2
12888.9
12904.9
12915.1
12913.7
12904
12889
12895.5
12910.5
12932.6
12961.8
12998.8
13022.7
13015.8
13015.4
13019.4
13026.5
13037.3
13052
13069.2
13089.9
13106.4
13126.7
13137.6
13149.4
13159.8
13172.2
13183.7
13196.3
13203.7
13211.9
13218.6
13226.8
13229.5
13233.2
13234.3
13235.8
13239.4
13244.1
13250
13255.7
13258.9
13262.5
13267.5
13273.8
13280.6
13287.3
13294.3
13301.8
13309.8
13318.5
13324.7
13332.4
13337.4
13343.6
13345.1
13348
13349.9
13349.9
13350
13349.6
13349.4
13349.2
13349.5
13350.9
13353.9
13358
13363.3
13369
13374
13379.6
13385.1
13391.1
13394.6
13398.4
13400.6
13401.3
13400.9
13400
13398.5
13396.9
13395.6
13395.6
13396.4
13398.2
13401.4
13405.8
13410.7
13415.2
13419.7
13423.5
13427.4
13428.9
13430.3
13429.2
13427.7
13426.1
13424.3
13423.1
13422.6
13423.1
13424.6
13427.1
13430.4
13434.1
13438.2
13442.3
13445
13446.7
13448.9
13449.2
13447.3
13444.6
13441.9
13440.3
13439
13438.7
13439.1
13440.6
13443.3
13446.8
13450.2
13453.8
13457.4
13459.7
13462.8
13463.7
13461.4
13459
13457.3
13455
13451.5
3495.17
3484.49
3469.62
3450.36
3431
3408.53
3385.64
3363.64
3342.95
3324.24
3307.39
3292.31
3278.9
3267.02
3256.39
3247.02
3239.29
3233.14
3228.1
3224.71
3223.19
3227.25
3233.9
3241.07
3260.65
3282.77
3301.65
3341.84
3375.64
3410.78
3454.49
3545.81
3580.28
3604.8
3737.14
3799.5
3884.41
3904.83
4038.66
4106.05
4244.23
4315.14
4439.17
4520.47
4651.78
4757.56
4894.58
5013.77
5130.79
5255.32
5393.23
5560.86
5716.4
5946.86
6130.51
6338.72
6590.09
6759.49
7069.33
7249.32
7590.73
7731.43
8080.55
8233.9
8592.3
8742.62
9090.37
9242.34
9576.74
9713.35
10018.8
10135.2
10410.2
10513.8
10764.8
10864.2
11082.4
11184.5
11352.9
11516.2
11566.2
11709.2
11853.4
11892.5
12011.9
12063.9
12176.4
12213.7
12303.5
12336.5
12413.4
12441.9
12503.7
12519.6
12569.2
12584
12631.5
12650
12688.4
12704.4
12736.1
12750.2
12778.1
12798.4
12810.1
12825.9
12836.1
12851.4
12868.3
12885.1
12898
12903.4
12898.6
12884.8