/*--------------------------------*- C++ -*----------------------------------*\
| =========                 |                                                 |
| \\      /  F ield         | OpenFOAM: The Open Source CFD Toolbox           |
|  \\    /   O peration     | Version:  2312                                  |
|   \\  /    A nd           | Website:  www.openfoam.com                      |
|    \\/     M anipulation  |                                                 |
\*---------------------------------------------------------------------------*/
FoamFile
{
    version     2.0;
    format      ascii;
    arch        "LSB;label=32;scalar=64";
    class       surfaceScalarField;
    location    "0.003";
    object      phi;
}
// * * * * * * * * * * * * * * * * * * * * * * * * * * * * * * * * * * * * * //

dimensions      [1 0 -1 0 0 0 0];

oriented        oriented;

internalField   nonuniform List<scalar> 
95760
(
5.0065e-09
-5.01029e-09
7.59934e-09
-2.59683e-09
7.61696e-09
-2.19059e-11
7.22761e-09
3.84769e-10
6.76654e-09
4.5631e-10
3.41619e-09
3.3457e-09
-4.5166e-09
7.92909e-09
-1.67844e-08
1.22647e-08
-3.48828e-08
1.80953e-08
-5.42957e-08
1.94098e-08
-7.12176e-08
1.69189e-08
-8.58614e-08
1.4641e-08
-9.84056e-08
1.25416e-08
-1.09135e-07
1.0727e-08
-1.18445e-07
9.30768e-09
-1.26667e-07
8.21952e-09
-1.341e-07
7.43146e-09
-1.40967e-07
6.86479e-09
-1.47419e-07
6.4491e-09
-1.5351e-07
6.08886e-09
-1.59344e-07
5.83211e-09
-1.64923e-07
5.57605e-09
-1.7026e-07
5.33447e-09
-1.75345e-07
5.08157e-09
-1.80163e-07
4.8154e-09
-1.84656e-07
4.48972e-09
-1.88858e-07
4.19957e-09
-1.92698e-07
3.83655e-09
-1.96394e-07
3.69362e-09
-1.9982e-07
3.42394e-09
-2.02566e-07
2.74473e-09
-2.04743e-07
2.17604e-09
-2.06408e-07
1.66374e-09
-2.07415e-07
1.00538e-09
-2.07526e-07
1.09112e-10
-2.07078e-07
-4.50142e-10
-2.05861e-07
-1.2203e-09
-2.03881e-07
-1.98493e-09
-2.00913e-07
-2.97409e-09
-1.96969e-07
-3.9485e-09
-1.91985e-07
-4.9878e-09
-1.86022e-07
-5.96467e-09
-1.78439e-07
-7.58282e-09
-1.69459e-07
-8.97894e-09
-1.59049e-07
-1.04089e-08
-1.47756e-07
-1.12886e-08
-1.34879e-07
-1.28676e-08
-1.20367e-07
-1.44974e-08
-1.03771e-07
-1.65754e-08
-8.59963e-08
-1.77472e-08
-6.63878e-08
-1.95754e-08
-4.57692e-08
-2.05785e-08
-2.32972e-08
-2.24262e-08
4.32758e-10
-2.36816e-08
2.45097e-08
-2.4045e-08
5.10737e-08
-2.65497e-08
7.88602e-08
-2.77888e-08
1.08316e-07
-2.94702e-08
1.38705e-07
-3.04103e-08
1.70056e-07
-3.13754e-08
2.02083e-07
-3.20468e-08
2.3471e-07
-3.26369e-08
2.67971e-07
-3.32536e-08
3.01748e-07
-3.37479e-08
3.36238e-07
-3.44397e-08
3.70832e-07
-3.45228e-08
4.05773e-07
-3.48542e-08
4.4047e-07
-3.46033e-08
4.75088e-07
-3.45317e-08
5.09692e-07
-3.45402e-08
5.43998e-07
-3.42726e-08
5.78421e-07
-3.44237e-08
6.12455e-07
-3.40625e-08
6.46014e-07
-3.36144e-08
6.79367e-07
-3.34352e-08
7.11894e-07
-3.26155e-08
7.44137e-07
-3.23321e-08
7.75319e-07
-3.12624e-08
8.05707e-07
-3.04465e-08
8.34798e-07
-2.9131e-08
8.63124e-07
-2.83397e-08
8.90369e-07
-2.72335e-08
9.17079e-07
-2.66858e-08
9.42841e-07
-2.57289e-08
9.6803e-07
-2.51626e-08
9.91933e-07
-2.3882e-08
1.01508e-06
-2.31382e-08
1.03702e-06
-2.1943e-08
1.05819e-06
-2.11869e-08
1.0784e-06
-2.02204e-08
1.09807e-06
-1.96863e-08
1.11682e-06
-1.87676e-08
1.13501e-06
-1.82015e-08
1.15229e-06
-1.72877e-08
1.16881e-06
-1.65197e-08
1.18468e-06
-1.5866e-08
1.20009e-06
-1.54056e-08
1.21489e-06
-1.48079e-08
1.22901e-06
-1.41156e-08
1.24254e-06
-1.35284e-08
1.25533e-06
-1.27969e-08
1.26742e-06
-1.20961e-08
1.27888e-06
-1.14658e-08
1.28987e-06
-1.09865e-08
1.30033e-06
-1.04641e-08
1.31037e-06
-1.0044e-08
1.31996e-06
-9.58493e-09
1.32923e-06
-9.27552e-09
1.33808e-06
-8.84243e-09
1.34668e-06
-8.59551e-09
1.3549e-06
-8.21541e-09
1.36271e-06
-7.80202e-09
1.37022e-06
-7.49154e-09
1.37747e-06
-7.2373e-09
1.38476e-06
-7.26848e-09
1.39191e-06
-7.12032e-09
1.39854e-06
-6.60959e-09
1.40484e-06
-6.27305e-09
1.41075e-06
-5.89098e-09
1.41762e-06
-6.84956e-09
1.4216e-06
-3.95382e-09
1.42463e-06
-3.00689e-09
1.42984e-06
-5.19342e-09
1.43352e-06
-3.66526e-09
1.43809e-06
-4.56231e-09
1.44274e-06
-4.65379e-09
1.44742e-06
-4.67638e-09
1.45183e-06
-4.40711e-09
1.45615e-06
-4.33251e-09
1.46041e-06
-4.27102e-09
1.46454e-06
-4.14039e-09
1.46855e-06
-4.03367e-09
1.47251e-06
-3.9902e-09
1.47623e-06
-3.75958e-09
1.47983e-06
-3.63412e-09
1.48325e-06
-3.45236e-09
1.48648e-06
-3.27099e-09
1.4896e-06
-3.15089e-09
1.49258e-06
-2.99647e-09
1.49541e-06
-2.83984e-09
1.49813e-06
-2.72265e-09
1.50075e-06
-2.61791e-09
1.50327e-06
-2.50545e-09
1.50566e-06
-2.37174e-09
1.50796e-06
-2.27063e-09
1.50991e-06
-1.93291e-09
1.51171e-06
-1.77942e-09
1.51319e-06
-1.45586e-09
1.51503e-06
-1.83289e-09
1.51587e-06
-8.33621e-10
1.51643e-06
-5.43445e-10
1.51747e-06
-1.04238e-09
1.518e-06
-5.16946e-10
1.51879e-06
-7.95228e-10
1.51944e-06
-6.4241e-10
1.52008e-06
-6.34971e-10
1.52075e-06
-6.67083e-10
1.52141e-06
-6.46085e-10
1.52208e-06
-6.67873e-10
1.52272e-06
-6.39312e-10
1.52335e-06
-6.24227e-10
1.52406e-06
-7.09696e-10
1.52464e-06
-5.83092e-10
1.52521e-06
-5.73954e-10
1.5256e-06
-3.98986e-10
1.52588e-06
-2.95778e-10
1.52611e-06
-2.35318e-10
1.52623e-06
-1.35819e-10
1.52628e-06
-7.27741e-11
1.52626e-06
1.37441e-11
1.52606e-06
1.87794e-10
1.52589e-06
1.61636e-10
1.52563e-06
2.56049e-10
1.52541e-06
2.17587e-10
1.5252e-06
2.23559e-10
1.52497e-06
2.34544e-10
1.52476e-06
2.18618e-10
1.5246e-06
1.77887e-10
1.52447e-06
1.36691e-10
1.52443e-06
5.72909e-11
1.52443e-06
1.41522e-11
1.52442e-06
1.71221e-11
1.52456e-06
-1.35151e-10
1.52458e-06
-2.02249e-11
1.52453e-06
4.88182e-11
1.52443e-06
9.52254e-11
1.52425e-06
1.73346e-10
1.524e-06
2.41216e-10
1.52374e-06
2.47659e-10
1.52319e-06
5.48358e-10
1.52271e-06
4.75745e-10
1.52214e-06
5.61082e-10
1.52172e-06
4.04755e-10
1.52121e-06
5.03503e-10
1.52073e-06
4.72474e-10
1.52028e-06
4.391e-10
1.51988e-06
4.05459e-10
1.51954e-06
3.31355e-10
1.51926e-06
2.866e-10
1.519e-06
2.60004e-10
1.51874e-06
2.55624e-10
1.51842e-06
3.16369e-10
1.51814e-06
2.77688e-10
1.51776e-06
3.70761e-10
1.51734e-06
4.10227e-10
1.51677e-06
5.67894e-10
1.51618e-06
5.84327e-10
1.51551e-06
6.67099e-10
1.51487e-06
6.34507e-10
1.51419e-06
6.79055e-10
1.51358e-06
6.03032e-10
1.51295e-06
6.3168e-10
1.51238e-06
5.83425e-10
1.51184e-06
5.46027e-10
1.51137e-06
4.84674e-10
1.51093e-06
4.48803e-10
1.51051e-06
4.30983e-10
1.50995e-06
5.68196e-10
1.50959e-06
3.71822e-10
1.5091e-06
4.876e-10
1.50845e-06
6.43956e-10
1.50785e-06
5.96079e-10
1.50716e-06
6.75821e-10
1.50637e-06
7.87462e-10
1.50559e-06
7.75373e-10
1.50481e-06
7.67808e-10
1.50402e-06
7.7835e-10
1.50329e-06
7.34072e-10
1.50256e-06
7.31863e-10
1.50187e-06
7.00554e-10
1.50121e-06
6.68449e-10
1.50062e-06
6.00289e-10
1.50009e-06
5.40042e-10
1.49936e-06
7.31651e-10
1.49889e-06
4.65298e-10
1.49839e-06
4.9264e-10
1.49767e-06
7.1147e-10
1.49701e-06
6.51328e-10
1.49626e-06
7.30023e-10
8.40448e-10
7.0725e-09
-1.20862e-08
1.03662e-08
-5.89418e-09
1.01998e-08
1.40446e-10
7.59832e-09
2.98193e-09
3.68375e-10
7.6817e-09
-1.18163e-08
1.55263e-08
-2.99024e-08
2.60119e-08
-5.23289e-08
3.46882e-08
-7.16339e-08
3.73973e-08
-8.8296e-08
3.60688e-08
-1.03057e-07
3.16769e-08
-1.1566e-07
2.72415e-08
-1.26192e-07
2.30707e-08
-1.34981e-07
1.95138e-08
-1.42299e-07
1.66236e-08
-1.48645e-07
1.45627e-08
-1.54201e-07
1.29851e-08
-1.59186e-07
1.18476e-08
-1.63697e-07
1.09582e-08
-1.67812e-07
1.02011e-08
-1.71625e-07
9.64212e-09
-1.75137e-07
9.08543e-09
-1.78358e-07
8.55287e-09
-1.81277e-07
7.99738e-09
-1.83882e-07
7.41775e-09
-1.86226e-07
6.83004e-09
-1.88362e-07
6.33226e-09
-1.89972e-07
5.44425e-09
-1.90911e-07
4.63043e-09
-1.9121e-07
3.72028e-09
-1.91087e-07
2.62049e-09
-1.90324e-07
1.4113e-09
-1.88907e-07
2.45607e-10
-1.86782e-07
-1.12092e-09
-1.83901e-07
-2.77344e-09
-1.80242e-07
-4.1116e-09
-1.75795e-07
-5.67042e-09
-1.70462e-07
-7.32158e-09
-1.64068e-07
-9.37328e-09
-1.56605e-07
-1.14169e-08
-1.48002e-07
-1.35947e-08
-1.38402e-07
-1.55653e-08
-1.27244e-07
-1.87404e-08
-1.14642e-07
-2.15799e-08
-1.0043e-07
-2.46198e-08
-8.51328e-08
-2.65816e-08
-6.81073e-08
-2.9886e-08
-4.93695e-08
-3.32227e-08
-2.85054e-08
-3.74212e-08
-6.34606e-09
-3.98829e-08
1.7792e-08
-4.36861e-08
4.34531e-08
-4.62067e-08
7.10921e-08
-5.00273e-08
9.97956e-08
-5.2345e-08
1.30884e-07
-5.51077e-08
1.63554e-07
-5.92136e-08
1.97288e-07
-6.15325e-08
2.3219e-07
-6.43906e-08
2.68139e-07
-6.63809e-08
3.0516e-07
-6.84186e-08
3.42881e-07
-6.97858e-08
3.81305e-07
-7.10693e-08
4.20402e-07
-7.23426e-08
4.60096e-07
-7.34155e-08
5.00466e-07
-7.47629e-08
5.40898e-07
-7.48893e-08
5.81752e-07
-7.56268e-08
6.22522e-07
-7.52869e-08
6.63324e-07
-7.52536e-08
7.04117e-07
-7.52742e-08
7.44525e-07
-7.46515e-08
7.84909e-07
-7.48129e-08
8.24713e-07
-7.38968e-08
8.63974e-07
-7.29277e-08
9.0285e-07
-7.23822e-08
9.40847e-07
-7.06863e-08
9.78429e-07
-6.9987e-08
1.01492e-06
-6.78192e-08
1.05054e-06
-6.61145e-08
1.08492e-06
-6.35474e-08
1.11849e-06
-6.19193e-08
1.15091e-06
-5.96544e-08
1.1827e-06
-5.84621e-08
1.21342e-06
-5.64433e-08
1.24344e-06
-5.51656e-08
1.27217e-06
-5.26151e-08
1.30008e-06
-5.10479e-08
1.32683e-06
-4.86962e-08
1.35277e-06
-4.71392e-08
1.37768e-06
-4.51391e-08
1.40191e-06
-4.39231e-08
1.4252e-06
-4.20606e-08
1.44782e-06
-4.08174e-08
1.4696e-06
-3.90568e-08
1.49065e-06
-3.75577e-08
1.51099e-06
-3.61856e-08
1.53067e-06
-3.50749e-08
1.54966e-06
-3.37915e-08
1.56794e-06
-3.23892e-08
1.58557e-06
-3.11652e-08
1.60252e-06
-2.97543e-08
1.61887e-06
-2.84597e-08
1.63463e-06
-2.7254e-08
1.64989e-06
-2.62583e-08
1.66458e-06
-2.51812e-08
1.67884e-06
-2.4316e-08
1.69262e-06
-2.33689e-08
1.70601e-06
-2.26715e-08
1.71892e-06
-2.17495e-08
1.73145e-06
-2.11185e-08
1.7436e-06
-2.03492e-08
1.75544e-06
-1.96186e-08
1.76698e-06
-1.90079e-08
1.7782e-06
-1.84266e-08
1.78918e-06
-1.82233e-08
1.79972e-06
-1.76338e-08
1.80944e-06
-1.63011e-08
1.81897e-06
-1.57773e-08
1.8267e-06
-1.35931e-08
1.83838e-06
-1.85074e-08
1.84582e-06
-1.13708e-08
1.85246e-06
-9.62153e-09
1.86145e-06
-1.41658e-08
1.87009e-06
-1.22826e-08
1.87789e-06
-1.23465e-08
1.88584e-06
-1.25889e-08
1.89372e-06
-1.25535e-08
1.90113e-06
-1.18067e-08
1.90836e-06
-1.15612e-08
1.91543e-06
-1.1348e-08
1.92238e-06
-1.11039e-08
1.92919e-06
-1.08522e-08
1.93577e-06
-1.05941e-08
1.94204e-06
-1.00605e-08
1.9481e-06
-9.72955e-09
1.95393e-06
-9.31737e-09
1.95961e-06
-8.98426e-09
1.96514e-06
-8.73206e-09
1.97051e-06
-8.40036e-09
1.97563e-06
-7.99691e-09
1.98061e-06
-7.7337e-09
1.98544e-06
-7.47038e-09
1.99012e-06
-7.18951e-09
1.99458e-06
-6.82658e-09
1.99883e-06
-6.49451e-09
2.00272e-06
-5.79917e-09
2.00661e-06
-5.62993e-09
2.0099e-06
-4.72223e-09
2.0141e-06
-5.99782e-09
2.01746e-06
-4.17473e-09
2.0205e-06
-3.55463e-09
2.02385e-06
-4.37911e-09
2.02719e-06
-3.84177e-09
2.03043e-06
-4.03112e-09
2.03369e-06
-3.89568e-09
2.03686e-06
-3.80662e-09
2.04001e-06
-3.80561e-09
2.04303e-06
-3.65196e-09
2.046e-06
-3.62468e-09
2.04885e-06
-3.48696e-09
2.05158e-06
-3.34451e-09
2.05411e-06
-3.22653e-09
2.05652e-06
-2.985e-09
2.05878e-06
-2.82563e-09
2.06081e-06
-2.42876e-09
2.06261e-06
-2.0997e-09
2.0643e-06
-1.93017e-09
2.06579e-06
-1.64222e-09
2.06717e-06
-1.45597e-09
2.06832e-06
-1.1473e-09
2.06973e-06
-1.24053e-09
2.0708e-06
-9.28624e-10
2.07186e-06
-8.27912e-10
2.07293e-06
-8.54912e-10
2.07415e-06
-1.00345e-09
2.07538e-06
-9.94495e-10
2.07675e-06
-1.14737e-09
2.07812e-06
-1.1732e-09
2.07948e-06
-1.2184e-09
2.0808e-06
-1.24609e-09
2.08206e-06
-1.22345e-09
2.08313e-06
-1.03583e-09
2.08398e-06
-9.71579e-10
2.0847e-06
-7.26311e-10
2.08516e-06
-4.00026e-10
2.08548e-06
-2.12974e-10
2.0857e-06
-3.71568e-11
2.08586e-06
8.46573e-11
2.08593e-06
1.80616e-10
2.08598e-06
5.01292e-10
2.08596e-06
4.93696e-10
2.08619e-06
3.28202e-10
2.08641e-06
1.699e-10
2.08665e-06
2.52251e-10
2.08691e-06
1.92884e-10
2.08726e-06
7.83953e-11
2.08764e-06
8.84131e-12
2.08796e-06
-4.96605e-12
2.08821e-06
3.64088e-11
2.08834e-06
1.22397e-10
2.08834e-06
2.57034e-10
2.08817e-06
4.88934e-10
2.08792e-06
5.32808e-10
2.08751e-06
7.81063e-10
2.08707e-06
8.47813e-10
2.08647e-06
1.16621e-09
2.0859e-06
1.155e-09
2.08535e-06
1.22144e-09
2.08487e-06
1.10501e-09
2.08446e-06
1.07898e-09
2.08417e-06
8.93506e-10
2.08388e-06
9.14217e-10
2.08362e-06
8.4121e-10
2.08336e-06
8.04355e-10
2.08311e-06
7.43582e-10
2.08278e-06
7.93266e-10
2.08243e-06
7.87244e-10
2.08153e-06
1.49723e-09
2.08093e-06
9.91761e-10
2.08028e-06
1.14905e-09
2.07939e-06
1.54914e-09
2.07852e-06
1.48467e-09
2.07762e-06
1.58361e-09
2.07662e-06
1.78403e-09
2.07572e-06
1.67523e-09
2.07486e-06
1.60874e-09
2.07406e-06
1.56101e-09
2.0733e-06
1.4804e-09
2.07262e-06
1.39873e-09
2.07195e-06
1.3686e-09
2.0713e-06
1.32251e-09
2.0706e-06
1.32269e-09
2.06999e-06
1.16316e-09
2.06875e-06
1.99755e-09
2.06798e-06
1.25249e-09
2.06717e-06
1.30935e-09
2.06594e-06
1.93469e-09
2.06478e-06
1.80767e-09
2.0636e-06
1.88971e-09
2.07173e-09
6.73925e-09
-1.88285e-08
9.44166e-09
-8.59994e-09
7.84744e-09
1.73093e-09
5.51206e-11
1.07702e-08
-1.32793e-08
2.10121e-08
-3.33505e-08
3.55941e-08
-5.45259e-08
4.71844e-08
-7.24859e-08
5.26453e-08
-8.76836e-08
5.25918e-08
-1.004e-07
4.87821e-08
-1.11252e-07
4.25258e-08
-1.20046e-07
3.60325e-08
-1.27556e-07
3.05786e-08
-1.3403e-07
2.59852e-08
-1.39591e-07
2.21823e-08
-1.44341e-07
1.93107e-08
-1.48437e-07
1.70785e-08
-1.52055e-07
1.54626e-08
-1.55305e-07
1.42061e-08
-1.58211e-07
1.31046e-08
-1.60832e-07
1.22604e-08
-1.6317e-07
1.14205e-08
-1.65218e-07
1.05978e-08
-1.66999e-07
9.77565e-09
-1.68502e-07
8.91786e-09
-1.69594e-07
7.91899e-09
-1.70109e-07
6.84383e-09
-1.70204e-07
5.53618e-09
-1.69805e-07
4.2297e-09
-1.68848e-07
2.76064e-09
-1.67311e-07
1.08187e-09
-1.6512e-07
-7.81005e-10
-1.62252e-07
-2.6231e-09
-1.58675e-07
-4.69905e-09
-1.54178e-07
-7.27241e-09
-1.48699e-07
-9.59147e-09
-1.4231e-07
-1.20623e-08
-1.34947e-07
-1.46877e-08
-1.26407e-07
-1.79176e-08
-1.16653e-07
-2.11757e-08
-1.05583e-07
-2.46675e-08
-9.3422e-08
-2.77269e-08
-7.96082e-08
-3.25534e-08
-6.42289e-08
-3.69581e-08
-4.7025e-08
-4.18225e-08
-2.85866e-08
-4.50175e-08
-8.11303e-09
-5.03545e-08
1.42531e-08
-5.55776e-08
3.8975e-08
-6.21266e-08
6.49844e-08
-6.5873e-08
9.30877e-08
-7.17702e-08
1.22592e-07
-7.5689e-08
1.54263e-07
-8.16721e-08
1.8719e-07
-8.52435e-08
2.22483e-07
-9.03837e-08
2.59416e-07
-9.61474e-08
2.97428e-07
-9.95606e-08
3.36857e-07
-1.03839e-07
3.77319e-07
-1.06863e-07
4.18917e-07
-1.10033e-07
4.61164e-07
-1.12044e-07
5.04149e-07
-1.14057e-07
5.47766e-07
-1.1595e-07
5.91958e-07
-1.17581e-07
6.36639e-07
-1.19401e-07
6.81293e-07
-1.19485e-07
7.26226e-07
-1.2049e-07
7.70846e-07
-1.19832e-07
8.15413e-07
-1.19754e-07
8.59707e-07
-1.1952e-07
9.03436e-07
-1.18359e-07
9.46944e-07
-1.18331e-07
9.89537e-07
-1.16522e-07
1.03152e-06
-1.14965e-07
1.07291e-06
-1.13829e-07
1.1133e-06
-1.11141e-07
1.15309e-06
-1.09829e-07
1.19166e-06
-1.06432e-07
1.22925e-06
-1.03739e-07
1.26557e-06
-9.98801e-08
1.30099e-06
-9.73487e-08
1.33522e-06
-9.38816e-08
1.36868e-06
-9.19243e-08
1.40095e-06
-8.87204e-08
1.43233e-06
-8.65507e-08
1.46237e-06
-8.26759e-08
1.49152e-06
-8.02209e-08
1.51952e-06
-7.67108e-08
1.5467e-06
-7.4333e-08
1.57283e-06
-7.12716e-08
1.59819e-06
-6.92943e-08
1.62259e-06
-6.64513e-08
1.64629e-06
-6.45073e-08
1.66913e-06
-6.18684e-08
1.69129e-06
-5.96882e-08
1.71271e-06
-5.75766e-08
1.73341e-06
-5.57419e-08
1.75332e-06
-5.36857e-08
1.7725e-06
-5.1548e-08
1.79101e-06
-4.96763e-08
1.80883e-06
-4.75926e-08
1.82614e-06
-4.57858e-08
1.84295e-06
-4.41005e-08
1.85928e-06
-4.26201e-08
1.87507e-06
-4.10086e-08
1.89044e-06
-3.97254e-08
1.90537e-06
-3.83197e-08
1.91992e-06
-3.72355e-08
1.93399e-06
-3.58152e-08
1.94767e-06
-3.4789e-08
1.96094e-06
-3.36033e-08
1.97402e-06
-3.26674e-08
1.98683e-06
-3.17834e-08
1.99934e-06
-3.09005e-08
2.01155e-06
-3.04013e-08
2.02314e-06
-2.91783e-08
2.03375e-06
-2.68828e-08
2.04387e-06
-2.58761e-08
2.05237e-06
-2.20605e-08
2.06403e-06
-3.01407e-08
2.07326e-06
-2.05848e-08
2.08142e-06
-1.77546e-08
2.09147e-06
-2.41994e-08
2.10202e-06
-2.28151e-08
2.11184e-06
-2.21452e-08
2.12135e-06
-2.20852e-08
2.13055e-06
-2.17347e-08
2.13923e-06
-2.04763e-08
2.14768e-06
-2.00081e-08
2.15592e-06
-1.95863e-08
2.16406e-06
-1.92476e-08
2.17203e-06
-1.88317e-08
2.17973e-06
-1.8305e-08
2.18705e-06
-1.74035e-08
2.19411e-06
-1.68204e-08
2.2009e-06
-1.61379e-08
2.20756e-06
-1.56745e-08
2.21409e-06
-1.53073e-08
2.22043e-06
-1.479e-08
2.22649e-06
-1.41114e-08
2.23241e-06
-1.37032e-08
2.23817e-06
-1.32739e-08
2.24377e-06
-1.28085e-08
2.24909e-06
-1.21652e-08
2.25415e-06
-1.15393e-08
2.2588e-06
-1.04331e-08
2.26339e-06
-1.01799e-08
2.26741e-06
-8.70537e-09
2.27226e-06
-1.08056e-08
2.27655e-06
-8.42118e-09
2.28048e-06
-7.44983e-09
2.28468e-06
-8.55257e-09
2.28902e-06
-8.16393e-09
2.29325e-06
-8.25027e-09
2.29755e-06
-8.18522e-09
2.30176e-06
-8.00602e-09
2.30591e-06
-7.9517e-09
2.30991e-06
-7.64793e-09
2.31385e-06
-7.55004e-09
2.31765e-06
-7.26494e-09
2.32127e-06
-6.95647e-09
2.32462e-06
-6.55693e-09
2.3278e-06
-6.15444e-09
2.33077e-06
-5.78622e-09
2.33345e-06
-5.09645e-09
2.33586e-06
-4.503e-09
2.33811e-06
-4.18452e-09
2.34014e-06
-3.67465e-09
2.34204e-06
-3.36121e-09
2.34374e-06
-2.86473e-09
2.34573e-06
-3.25076e-09
2.34738e-06
-2.59732e-09
2.34904e-06
-2.51898e-09
2.35074e-06
-2.57234e-09
2.35263e-06
-2.90617e-09
2.35458e-06
-2.95216e-09
2.35664e-06
-3.20537e-09
2.35872e-06
-3.24635e-09
2.36082e-06
-3.30666e-09
2.36278e-06
-3.19511e-09
2.3646e-06
-3.02389e-09
2.3662e-06
-2.62103e-09
2.36749e-06
-2.24769e-09
2.36858e-06
-1.79422e-09
2.3694e-06
-1.20247e-09
2.36995e-06
-7.38602e-10
2.37039e-06
-4.66032e-10
2.37078e-06
-2.87457e-10
2.37113e-06
-1.5757e-10
2.37144e-06
2.08807e-10
2.37174e-06
2.03901e-10
2.37232e-06
-2.54213e-10
2.37286e-06
-3.83243e-10
2.37351e-06
-4.09718e-10
2.3742e-06
-5.12015e-10
2.37498e-06
-7.16216e-10
2.37578e-06
-8.17061e-10
2.37645e-06
-6.8829e-10
2.37697e-06
-4.98242e-10
2.3773e-06
-2.18698e-10
2.37739e-06
1.6595e-10
2.37736e-06
5.21584e-10
2.37709e-06
8.01532e-10
2.37669e-06
1.19161e-09
2.37623e-06
1.31522e-09
2.37572e-06
1.68083e-09
2.37517e-06
1.71119e-09
2.3747e-06
1.6895e-09
2.37433e-06
1.47737e-09
2.37411e-06
1.2946e-09
2.37395e-06
1.03838e-09
2.37386e-06
1.00272e-09
2.3738e-06
8.94138e-10
2.37367e-06
9.28021e-10
2.37355e-06
8.60164e-10
2.37326e-06
1.08849e-09
2.37291e-06
1.14618e-09
2.37194e-06
2.48541e-09
2.37115e-06
1.81507e-09
2.37039e-06
1.92698e-09
2.36944e-06
2.5383e-09
2.3684e-06
2.55213e-09
2.36738e-06
2.62426e-09
2.36633e-06
2.84678e-09
2.36538e-06
2.63245e-09
2.36449e-06
2.48535e-09
2.36368e-06
2.35111e-09
2.36289e-06
2.24231e-09
2.36224e-06
2.02859e-09
2.36157e-06
2.01464e-09
2.36094e-06
1.95408e-09
2.36013e-06
2.13813e-09
2.35941e-06
1.90453e-09
2.35809e-06
3.35972e-09
2.35703e-06
2.34225e-09
2.356e-06
2.35797e-09
2.35456e-06
3.38093e-09
2.35312e-06
3.24495e-09
2.35171e-06
3.29489e-09
3.50068e-09
5.46459e-09
-2.4296e-08
6.31547e-09
-9.45396e-09
5.29947e-10
7.51297e-09
-1.20819e-08
2.33783e-08
-3.16054e-08
4.05322e-08
-5.12745e-08
5.52603e-08
-6.79275e-08
6.38346e-08
-8.17357e-08
6.64506e-08
-9.3081e-08
6.39341e-08
-1.02116e-07
5.78137e-08
-1.09665e-07
5.00715e-08
-1.16372e-07
4.27371e-08
-1.21995e-07
3.61992e-08
-1.26704e-07
3.06914e-08
-1.30736e-07
2.6212e-08
-1.34185e-07
2.27575e-08
-1.37183e-07
2.00742e-08
-1.39803e-07
1.80801e-08
-1.42172e-07
1.65725e-08
-1.4426e-07
1.519e-08
-1.46098e-07
1.40963e-08
-1.47691e-07
1.30102e-08
-1.49043e-07
1.19471e-08
-1.50088e-07
1.08174e-08
-1.50719e-07
9.54612e-09
-1.50968e-07
8.16499e-09
-1.5074e-07
6.61242e-09
-1.49964e-07
4.7572e-09
-1.48604e-07
2.86757e-09
-1.46655e-07
8.10184e-10
-1.44066e-07
-1.50896e-09
-1.40695e-07
-4.15403e-09
-1.36509e-07
-6.81023e-09
-1.3152e-07
-9.68856e-09
-1.25445e-07
-1.33482e-08
-1.18232e-07
-1.6806e-08
-1.09959e-07
-2.03361e-08
-1.00611e-07
-2.40385e-08
-8.99227e-08
-2.86096e-08
-7.78469e-08
-3.32552e-08
-6.42256e-08
-3.82905e-08
-4.94402e-08
-4.25123e-08
-3.27233e-08
-4.92692e-08
-1.43422e-08
-5.53384e-08
6.18442e-09
-6.23489e-08
2.82006e-08
-6.70326e-08
5.25851e-08
-7.4736e-08
7.89458e-08
-8.1928e-08
1.07811e-07
-9.09767e-08
1.37943e-07
-9.59887e-08
1.70495e-07
-1.0431e-07
2.0456e-07
-1.09743e-07
2.41079e-07
-1.18177e-07
2.78829e-07
-1.22976e-07
3.19138e-07
-1.30685e-07
3.61038e-07
-1.38055e-07
4.03914e-07
-1.42457e-07
4.48436e-07
-1.4838e-07
4.93928e-07
-1.52368e-07
5.40643e-07
-1.56754e-07
5.87826e-07
-1.59226e-07
6.35796e-07
-1.62018e-07
6.8427e-07
-1.64406e-07
7.33178e-07
-1.66459e-07
7.82332e-07
-1.68515e-07
8.31318e-07
-1.68424e-07
8.8034e-07
-1.69457e-07
9.28833e-07
-1.6827e-07
9.77129e-07
-1.68002e-07
1.02474e-06
-1.67096e-07
1.07152e-06
-1.65134e-07
1.11779e-06
-1.64623e-07
1.1628e-06
-1.61569e-07
1.20705e-06
-1.59273e-07
1.25044e-06
-1.57271e-07
1.29265e-06
-1.53394e-07
1.33394e-06
-1.51152e-07
1.37384e-06
-1.46353e-07
1.41259e-06
-1.42503e-07
1.44998e-06
-1.37266e-07
1.48635e-06
-1.3371e-07
1.52145e-06
-1.28973e-07
1.55561e-06
-1.26081e-07
1.58832e-06
-1.21454e-07
1.61994e-06
-1.18194e-07
1.65005e-06
-1.1283e-07
1.67927e-06
-1.09484e-07
1.70724e-06
-1.04715e-07
1.73442e-06
-1.01537e-07
1.76049e-06
-9.73508e-08
1.78576e-06
-9.45673e-08
1.81e-06
-9.06872e-08
1.83357e-06
-8.8046e-08
1.85618e-06
-8.44527e-08
1.87819e-06
-8.16495e-08
1.89942e-06
-7.8754e-08
1.91985e-06
-7.61269e-08
1.93942e-06
-7.32204e-08
1.95823e-06
-7.03325e-08
1.97638e-06
-6.78085e-08
1.99384e-06
-6.5057e-08
2.01086e-06
-6.28301e-08
2.02748e-06
-6.07589e-08
2.04364e-06
-5.88299e-08
2.05929e-06
-5.67188e-08
2.07457e-06
-5.50551e-08
2.08943e-06
-5.32301e-08
2.10394e-06
-5.17723e-08
2.11799e-06
-4.98705e-08
2.13167e-06
-4.84649e-08
2.14494e-06
-4.68524e-08
2.15812e-06
-4.58094e-08
2.17107e-06
-4.46943e-08
2.18378e-06
-4.35601e-08
2.19614e-06
-4.27172e-08
2.20771e-06
-4.07023e-08
2.21822e-06
-3.73614e-08
2.22797e-06
-3.55904e-08
2.23657e-06
-3.06397e-08
2.24676e-06
-4.03056e-08
2.25671e-06
-3.05159e-08
2.26592e-06
-2.6951e-08
2.27597e-06
-3.42306e-08
2.28705e-06
-3.38773e-08
2.29774e-06
-3.28153e-08
2.30787e-06
-3.22017e-08
2.31753e-06
-3.13768e-08
2.32662e-06
-2.95518e-08
2.33548e-06
-2.88548e-08
2.34409e-06
-2.81888e-08
2.35262e-06
-2.77796e-08
2.36099e-06
-2.71997e-08
2.36904e-06
-2.63693e-08
2.37669e-06
-2.50666e-08
2.38406e-06
-2.42089e-08
2.39112e-06
-2.32223e-08
2.39808e-06
-2.26596e-08
2.40491e-06
-2.21858e-08
2.41156e-06
-2.14866e-08
2.41791e-06
-2.05219e-08
2.42413e-06
-1.99847e-08
2.43019e-06
-1.9389e-08
2.43606e-06
-1.87285e-08
2.44165e-06
-1.77846e-08
2.44692e-06
-1.68207e-08
2.45179e-06
-1.529e-08
2.45651e-06
-1.48724e-08
2.46078e-06
-1.29349e-08
2.46554e-06
-1.55067e-08
2.47018e-06
-1.30115e-08
2.4745e-06
-1.17153e-08
2.47889e-06
-1.29034e-08
2.48353e-06
-1.27698e-08
2.48812e-06
-1.28218e-08
2.49278e-06
-1.28444e-08
2.49737e-06
-1.25858e-08
2.50191e-06
-1.24803e-08
2.50629e-06
-1.202e-08
2.5106e-06
-1.18558e-08
2.51476e-06
-1.14064e-08
2.51873e-06
-1.09094e-08
2.52239e-06
-1.01949e-08
2.52586e-06
-9.61084e-09
2.52909e-06
-8.99546e-09
2.53197e-06
-7.96492e-09
2.53458e-06
-7.10323e-09
2.53701e-06
-6.59883e-09
2.53918e-06
-5.84177e-09
2.54121e-06
-5.39585e-09
2.54306e-06
-4.72853e-09
2.54518e-06
-5.3855e-09
2.54705e-06
-4.49191e-09
2.54894e-06
-4.43872e-09
2.5509e-06
-4.55788e-09
2.55306e-06
-5.09077e-09
2.55533e-06
-5.23637e-09
2.55773e-06
-5.61736e-09
2.56017e-06
-5.69057e-09
2.56263e-06
-5.75998e-09
2.56492e-06
-5.47031e-09
2.56703e-06
-5.1168e-09
2.56887e-06
-4.4481e-09
2.57036e-06
-3.71849e-09
2.57161e-06
-3.02401e-09
2.57255e-06
-2.12448e-09
2.57323e-06
-1.39451e-09
2.57371e-06
-9.24839e-10
2.57416e-06
-7.15133e-10
2.57456e-06
-5.33133e-10
2.57503e-06
-2.31821e-10
2.57553e-06
-2.729e-10
2.57618e-06
-9.02628e-10
2.57696e-06
-1.16979e-09
2.57778e-06
-1.23634e-09
2.5787e-06
-1.44237e-09
2.57972e-06
-1.75356e-09
2.58076e-06
-1.88047e-09
2.58162e-06
-1.57296e-09
2.5823e-06
-1.20526e-09
2.58274e-06
-6.73773e-10
2.58288e-06
2.25488e-11
2.58288e-06
5.20995e-10
2.5826e-06
1.08597e-09
2.58217e-06
1.62529e-09
2.58165e-06
1.84117e-09
2.58115e-06
2.19736e-09
2.58058e-06
2.28611e-09
2.58015e-06
2.13003e-09
2.57983e-06
1.80259e-09
2.57969e-06
1.43043e-09
2.57961e-06
1.11344e-09
2.57959e-06
1.01435e-09
2.57965e-06
8.33118e-10
2.57962e-06
9.37626e-10
2.57957e-06
8.96235e-10
2.5793e-06
1.35859e-09
2.57889e-06
1.55275e-09
2.57793e-06
3.46418e-09
2.57699e-06
2.78311e-09
2.57611e-06
2.83122e-09
2.57509e-06
3.59788e-09
2.57393e-06
3.75824e-09
2.5728e-06
3.79426e-09
2.5717e-06
3.98271e-09
2.5707e-06
3.65074e-09
2.56977e-06
3.41042e-09
2.56893e-06
3.16886e-09
2.56811e-06
3.03254e-09
2.56745e-06
2.65155e-09
2.56678e-06
2.656e-09
2.56613e-06
2.58123e-09
2.56528e-06
2.9879e-09
2.56443e-06
2.77495e-09
2.56309e-06
4.74359e-09
2.56182e-06
3.64858e-09
2.56062e-06
3.59736e-09
2.55905e-06
4.97052e-09
2.5574e-06
4.8975e-09
2.55579e-06
4.9028e-09
5.09132e-09
2.8586e-09
-2.71573e-08
-3.48815e-10
-6.2495e-09
-1.06208e-08
1.77817e-08
-2.76191e-08
4.03735e-08
-4.56284e-08
5.85388e-08
-6.11438e-08
7.0773e-08
-7.40027e-08
7.66907e-08
-8.43691e-08
7.68139e-08
-9.24097e-08
7.19716e-08
-9.88826e-08
6.42834e-08
-1.04425e-07
5.56107e-08
-1.09165e-07
4.74742e-08
-1.1319e-07
4.0221e-08
-1.16607e-07
3.41066e-08
-1.19572e-07
2.91744e-08
-1.22154e-07
2.53365e-08
-1.24423e-07
2.23408e-08
-1.26399e-07
2.00539e-08
-1.2814e-07
1.83111e-08
-1.29644e-07
1.66914e-08
-1.30905e-07
1.53548e-08
-1.31933e-07
1.40353e-08
-1.32651e-07
1.2662e-08
-1.32998e-07
1.11622e-08
-1.32992e-07
9.5371e-09
-1.32529e-07
7.69826e-09
-1.31475e-07
5.5561e-09
-1.29785e-07
3.06452e-09
-1.27433e-07
5.13039e-10
-1.24408e-07
-2.21747e-09
-1.20654e-07
-5.26466e-09
-1.15967e-07
-8.84199e-09
-1.10309e-07
-1.24692e-08
-1.03765e-07
-1.62332e-08
-9.59503e-08
-2.11634e-08
-8.68078e-08
-2.59489e-08
-7.64281e-08
-3.07168e-08
-6.48556e-08
-3.56124e-08
-5.17095e-08
-4.17585e-08
-3.69408e-08
-4.80269e-08
-2.02857e-08
-5.49462e-08
-2.08365e-09
-6.07133e-08
1.78718e-08
-6.92233e-08
3.98814e-08
-7.73476e-08
6.44837e-08
-8.69519e-08
9.07222e-08
-9.32716e-08
1.19876e-07
-1.03888e-07
1.51191e-07
-1.13233e-07
1.85438e-07
-1.25207e-07
2.20973e-07
-1.31509e-07
2.59599e-07
-1.42933e-07
2.99809e-07
-1.49953e-07
3.42963e-07
-1.6133e-07
3.87069e-07
-1.67078e-07
4.3415e-07
-1.77771e-07
4.82599e-07
-1.8652e-07
5.31773e-07
-1.91658e-07
5.83085e-07
-1.99709e-07
6.35018e-07
-2.04306e-07
6.88245e-07
-2.09973e-07
7.41534e-07
-2.12498e-07
7.95486e-07
-2.15945e-07
8.49599e-07
-2.18487e-07
9.03939e-07
-2.20758e-07
9.58144e-07
-2.22677e-07
1.01188e-06
-2.22122e-07
1.06525e-06
-2.22796e-07
1.11765e-06
-2.20644e-07
1.16954e-06
-2.19868e-07
1.2203e-06
-2.17854e-07
1.27002e-06
-2.14869e-07
1.31891e-06
-2.13563e-07
1.36618e-06
-2.08889e-07
1.41251e-06
-2.05654e-07
1.45755e-06
-2.0236e-07
1.50113e-06
-1.97004e-07
1.54344e-06
-1.9348e-07
1.58406e-06
-1.86969e-07
1.62335e-06
-1.8177e-07
1.66108e-06
-1.74962e-07
1.6977e-06
-1.70295e-07
1.73286e-06
-1.64106e-07
1.76679e-06
-1.60001e-07
1.79889e-06
-1.53585e-07
1.82971e-06
-1.49063e-07
1.85886e-06
-1.42047e-07
1.8872e-06
-1.37896e-07
1.91418e-06
-1.31748e-07
1.94042e-06
-1.27827e-07
1.96548e-06
-1.22437e-07
1.98972e-06
-1.18816e-07
2.01288e-06
-1.13835e-07
2.03538e-06
-1.1051e-07
2.05681e-06
-1.05836e-07
2.07769e-06
-1.02477e-07
2.09774e-06
-9.87279e-08
2.11692e-06
-9.52442e-08
2.13519e-06
-9.14325e-08
2.1527e-06
-8.78018e-08
2.16956e-06
-8.46392e-08
2.18575e-06
-8.12435e-08
2.20163e-06
-7.8724e-08
2.21718e-06
-7.63414e-08
2.23227e-06
-7.39847e-08
2.2469e-06
-7.14255e-08
2.26121e-06
-6.94361e-08
2.27515e-06
-6.72365e-08
2.28875e-06
-6.54295e-08
2.30193e-06
-6.30755e-08
2.3148e-06
-6.13464e-08
2.32728e-06
-5.9308e-08
2.33978e-06
-5.82606e-08
2.35209e-06
-5.69556e-08
2.36425e-06
-5.56626e-08
2.37595e-06
-5.43619e-08
2.3867e-06
-5.14036e-08
2.39635e-06
-4.696e-08
2.40495e-06
-4.41556e-08
2.41309e-06
-3.87553e-08
2.42136e-06
-4.85597e-08
2.43103e-06
-4.01779e-08
2.44095e-06
-3.68537e-08
2.45028e-06
-4.35499e-08
2.46122e-06
-4.47999e-08
2.47186e-06
-4.34399e-08
2.48187e-06
-4.2197e-08
2.49132e-06
-4.0806e-08
2.50019e-06
-3.84074e-08
2.50887e-06
-3.75112e-08
2.51726e-06
-3.65753e-08
2.52562e-06
-3.61311e-08
2.53379e-06
-3.53713e-08
2.54162e-06
-3.42123e-08
2.54905e-06
-3.25011e-08
2.5562e-06
-3.13687e-08
2.56302e-06
-3.00523e-08
2.56978e-06
-2.9443e-08
2.57642e-06
-2.8856e-08
2.58287e-06
-2.79819e-08
2.58902e-06
-2.67345e-08
2.59506e-06
-2.60901e-08
2.60094e-06
-2.53399e-08
2.60662e-06
-2.44775e-08
2.612e-06
-2.32198e-08
2.61703e-06
-2.18803e-08
2.62169e-06
-1.99574e-08
2.62613e-06
-1.92923e-08
2.6303e-06
-1.70636e-08
2.63459e-06
-1.97365e-08
2.63916e-06
-1.75156e-08
2.64354e-06
-1.60337e-08
2.64775e-06
-1.70557e-08
2.65228e-06
-1.72584e-08
2.65686e-06
-1.73681e-08
2.66151e-06
-1.7484e-08
2.6661e-06
-1.71715e-08
2.67066e-06
-1.70264e-08
2.67506e-06
-1.64152e-08
2.6794e-06
-1.61863e-08
2.68357e-06
-1.55662e-08
2.68755e-06
-1.487e-08
2.69119e-06
-1.38128e-08
2.69464e-06
-1.30428e-08
2.69782e-06
-1.21494e-08
2.70061e-06
-1.07397e-08
2.70316e-06
-9.63495e-09
2.70548e-06
-8.90389e-09
2.70753e-06
-7.882e-09
2.70944e-06
-7.30398e-09
2.71121e-06
-6.50754e-09
2.71318e-06
-7.36675e-09
2.71499e-06
-6.32148e-09
2.71687e-06
-6.34813e-09
2.71884e-06
-6.56137e-09
2.72102e-06
-7.30416e-09
2.72334e-06
-7.58216e-09
2.72584e-06
-8.13145e-09
2.72839e-06
-8.25249e-09
2.731e-06
-8.36102e-09
2.73337e-06
-7.83308e-09
2.73557e-06
-7.30611e-09
2.73745e-06
-6.31771e-09
2.73896e-06
-5.20373e-09
2.7402e-06
-4.24984e-09
2.7411e-06
-2.99797e-09
2.74173e-06
-1.99914e-09
2.74213e-06
-1.29711e-09
2.7425e-06
-1.05887e-09
2.74282e-06
-8.26675e-10
2.74326e-06
-6.41389e-10
2.74378e-06
-7.61361e-10
2.74442e-06
-1.52444e-09
2.74523e-06
-1.97524e-09
2.74612e-06
-2.12491e-09
2.74713e-06
-2.46126e-09
2.74824e-06
-2.88698e-09
2.74936e-06
-3.03027e-09
2.7503e-06
-2.53461e-09
2.75103e-06
-1.96378e-09
2.75148e-06
-1.14688e-09
2.75161e-06
-1.21591e-10
2.75152e-06
6.02079e-10
2.75117e-06
1.44254e-09
2.75066e-06
2.13999e-09
2.75004e-06
2.47416e-09
2.74942e-06
2.83219e-09
2.74881e-06
2.90618e-09
2.74835e-06
2.6109e-09
2.748e-06
2.1574e-09
2.74785e-06
1.58733e-09
2.74778e-06
1.1825e-09
2.74777e-06
1.0202e-09
2.74786e-06
7.37966e-10
2.74786e-06
9.15487e-10
2.74783e-06
9.10888e-10
2.74752e-06
1.64854e-09
2.747e-06
2.06176e-09
2.74603e-06
4.43936e-09
2.74492e-06
3.91095e-09
2.74388e-06
3.90384e-09
2.74278e-06
4.74377e-09