/*--------------------------------*- C++ -*----------------------------------*\
| =========                 |                                                 |
| \\      /  F ield         | OpenFOAM: The Open Source CFD Toolbox           |
|  \\    /   O peration     | Version:  2312                                  |
|   \\  /    A nd           | Website:  www.openfoam.com                      |
|    \\/     M anipulation  |                                                 |
\*---------------------------------------------------------------------------*/
FoamFile
{
    version     2.0;
    format      ascii;
    arch        "LSB;label=32;scalar=64";
    class       volScalarField;
    location    "0.003";
    object      rho;
}
// * * * * * * * * * * * * * * * * * * * * * * * * * * * * * * * * * * * * * //

dimensions      [1 -3 0 0 0 0 0];

internalField   nonuniform List<scalar> 
48128
(
0.0350004
0.0349945
0.0349561
0.0349415
0.0349314
0.0349255
0.0349417
0.0349364
0.0348707
0.0347604
0.0345406
0.0342956
0.0340727
0.0338906
0.0337516
0.0336623
0.0336108
0.0335942
0.0336213
0.0336909
0.0337945
0.0339372
0.0341226
0.034355
0.0346397
0.0349825
0.0353847
0.0358555
0.0363994
0.0370191
0.0377137
0.0384838
0.0393364
0.0402746
0.0413004
0.0424145
0.0436064
0.0448878
0.0462561
0.047706
0.0492446
0.0508618
0.052589
0.0543782
0.0562691
0.0582148
0.0602765
0.0623959
0.0646204
0.0668729
0.0692182
0.0715834
0.0740267
0.0764655
0.07898
0.0814814
0.0840044
0.086531
0.0890549
0.0915673
0.094053
0.0965087
0.0989314
0.101316
0.103667
0.105963
0.108218
0.110416
0.112546
0.114629
0.116622
0.118558
0.120426
0.122181
0.123904
0.12548
0.12704
0.128452
0.12986
0.131131
0.132423
0.13358
0.134755
0.135796
0.136837
0.137758
0.138681
0.139525
0.140373
0.141139
0.141909
0.14259
0.143262
0.143876
0.144474
0.145043
0.14558
0.146063
0.146497
0.146902
0.14728
0.147653
0.148025
0.148392
0.148755
0.149111
0.149462
0.149808
0.150138
0.150455
0.150758
0.15107
0.15139
0.151704
0.152025
0.152295
0.152427
0.152489
0.152395
0.152261
0.152813
0.152893
0.15301
0.153447
0.153806
0.154146
0.154467
0.154725
0.154951
0.155174
0.155402
0.155627
0.155853
0.156035
0.156203
0.156346
0.15649
0.156634
0.156783
0.156907
0.157031
0.157153
0.157279
0.157377
0.15747
0.157511
0.157538
0.157523
0.157503
0.157614
0.157626
0.157643
0.157707
0.157769
0.157858
0.157948
0.158046
0.158141
0.158241
0.158334
0.158424
0.158497
0.158551
0.158599
0.158619
0.158611
0.158592
0.158561
0.158519
0.158466
0.1584
0.158392
0.158371
0.158365
0.158373
0.15841
0.158459
0.158531
0.158613
0.158692
0.158763
0.158818
0.158854
0.158859
0.158844
0.158815
0.158767
0.158709
0.158655
0.158605
0.158567
0.158544
0.158547
0.158564
0.158591
0.158633
0.158688
0.158742
0.158783
0.158817
0.158819
0.158805
0.158776
0.158735
0.158681
0.158631
0.158585
0.158544
0.158526
0.158516
0.15852
0.158541
0.158573
0.158608
0.158643
0.158663
0.158678
0.158689
0.15863
0.158596
0.158559
0.158506
0.158458
0.158412
0.158379
0.158361
0.158352
0.15835
0.158361
0.158382
0.158411
0.158432
0.158453
0.158465
0.158417
0.158399
0.158364
0.158309
0.15826
0.158191
0.0350159
0.0350128
0.0349685
0.0349522
0.034955
0.0349658
0.0349946
0.035019
0.0349648
0.0348554
0.0346832
0.0345086
0.0343596
0.0342395
0.0341621
0.0341069
0.0340828
0.0340877
0.0341284
0.0342053
0.0343103
0.0344483
0.034623
0.0348391
0.0351026
0.0354208
0.0357965
0.0362333
0.0367371
0.0373092
0.0379569
0.0386792
0.0394792
0.0403618
0.0413307
0.042386
0.0435219
0.0447487
0.0460647
0.0474675
0.0489628
0.0505398
0.0522305
0.053998
0.0558755
0.0578193
0.0598802
0.0620125
0.0642604
0.0665579
0.0689564
0.0713966
0.0739226
0.0764671
0.0790887
0.0817236
0.0843964
0.0870863
0.0897844
0.0924852
0.0951738
0.0978486
0.100505
0.103138
0.105747
0.108313
0.110846
0.113321
0.115728
0.118098
0.120383
0.122608
0.124763
0.126806
0.128816
0.130678
0.132523
0.134218
0.135905
0.137458
0.139027
0.140459
0.1419
0.143203
0.144497
0.145674
0.146845
0.147938
0.14903
0.150038
0.15104
0.151954
0.152849
0.153688
0.15451
0.155302
0.156054
0.156743
0.157385
0.157993
0.158572
0.159149
0.159724
0.160288
0.160847
0.161393
0.161937
0.162466
0.162982
0.163476
0.163954
0.164442
0.164938
0.165424
0.165911
0.166337
0.166614
0.166823
0.166867
0.166893
0.167638
0.167871
0.168176
0.168751
0.169258
0.169716
0.170164
0.170546
0.170892
0.171234
0.171579
0.171918
0.172257
0.172547
0.172822
0.17307
0.173319
0.173566
0.173816
0.174038
0.174258
0.174474
0.174693
0.17488
0.175061
0.175186
0.175303
0.175379
0.175458
0.175677
0.175788
0.175913
0.176068
0.176234
0.176413
0.176601
0.176789
0.176972
0.177157
0.177329
0.1775
0.177642
0.177763
0.177879
0.17796
0.17801
0.17805
0.178075
0.178088
0.178087
0.178076
0.178116
0.178144
0.178183
0.178247
0.178328
0.178426
0.178548
0.178678
0.178807
0.178916
0.179017
0.179079
0.179111
0.179117
0.179107
0.179076
0.179032
0.179002
0.178961
0.178941
0.178933
0.17896
0.178999
0.179048
0.179111
0.179188
0.179263
0.17932
0.179368
0.179378
0.179368
0.179344
0.179303
0.17925
0.179196
0.179148
0.179106
0.179091
0.179084
0.179094
0.179121
0.17916
0.179198
0.179237
0.179258
0.179272
0.179273
0.179206
0.179165
0.179118
0.179057
0.178998
0.178941
0.1789
0.178875
0.178859
0.178851
0.178855
0.17887
0.178893
0.178906
0.17892
0.178915
0.178854
0.178825
0.178772
0.178699
0.178631
0.178535
0.0350357
0.0350204
0.0349723
0.0349674
0.0349809
0.0350225
0.0350812
0.0350866
0.0350298
0.034927
0.0347798
0.0346297
0.0344679
0.0343191
0.0341971
0.0341179
0.0340745
0.0340591
0.0340788
0.0341325
0.0342134
0.0343256
0.0344739
0.0346642
0.0349039
0.0351944
0.0355444
0.0359517
0.0364261
0.0369667
0.0375818
0.038276
0.03905
0.0399073
0.0408567
0.0418923
0.0430125
0.044225
0.0455313
0.0469288
0.0484251
0.0500063
0.0517072
0.0534944
0.0554
0.0573807
0.0594825
0.0616686
0.0639832
0.066362
0.0688525
0.0713953
0.0740358
0.0767039
0.079461
0.0822489
0.0850761
0.0879326
0.0908057
0.0936894
0.0965684
0.0994384
0.102294
0.105129
0.10794
0.110705
0.113438
0.116108
0.118719
0.121287
0.123764
0.126178
0.12851
0.130727
0.132907
0.134932
0.136937
0.13878
0.140614
0.142311
0.144019
0.145582
0.147151
0.148572
0.149974
0.151253
0.152525
0.153715
0.154904
0.156006
0.157099
0.158098
0.159077
0.159997
0.1609
0.161773
0.162602
0.163361
0.164072
0.164747
0.165391
0.166034
0.166674
0.167306
0.16793
0.168542
0.16915
0.169745
0.170325
0.170884
0.171426
0.171976
0.17254
0.173091
0.173644
0.174126
0.174457
0.174711
0.174815
0.174864
0.175639
0.175979
0.176352
0.176976
0.17757
0.1781
0.17861
0.17905
0.179456
0.179852
0.180251
0.180644
0.181034
0.181374
0.181698
0.181992
0.182286
0.18258
0.182874
0.18314
0.183403
0.183661
0.183921
0.184148
0.184368
0.184529
0.184681
0.184794
0.184904
0.185157
0.185315
0.185479
0.185673
0.185883
0.186103
0.186334
0.186564
0.186789
0.187016
0.187227
0.187438
0.187615
0.187771
0.18792
0.188031
0.188109
0.188175
0.188226
0.188264
0.188285
0.188302
0.188368
0.188424
0.188489
0.188581
0.188688
0.188818
0.188964
0.189121
0.189276
0.189411
0.189532
0.189614
0.189663
0.189683
0.189688
0.189669
0.189638
0.189615
0.189595
0.189583
0.189597
0.189633
0.189684
0.189748
0.189827
0.189919
0.190007
0.190074
0.190131
0.190146
0.190143
0.19012
0.19008
0.190029
0.189979
0.189934
0.189893
0.189883
0.18988
0.189895
0.189927
0.189972
0.190014
0.190056
0.190079
0.190091
0.19009
0.190019
0.189973
0.189924
0.189858
0.189795
0.189735
0.189692
0.189665
0.189646
0.189636
0.189638
0.18965
0.189671
0.18968
0.189687
0.189679
0.189608
0.189569
0.189508
0.189426
0.189349
0.189239
0.0350552
0.0350075
0.0349762
0.0349778
0.0350353
0.0351087
0.0351477
0.0351263
0.0350449
0.034919
0.0347507
0.0345527
0.0343759
0.0342278
0.0341033
0.0340166
0.0339618
0.0339316
0.0339351
0.0339705
0.0340333
0.0341271
0.0342581
0.0344317
0.0346522
0.0349219
0.0352509
0.0356358
0.0360886
0.0366099
0.0372062
0.0378844
0.0386423
0.0394839
0.0404226
0.0414479
0.0425622
0.0437704
0.0450787
0.0464825
0.0479928
0.04959
0.0513226
0.0531453
0.055098
0.0571296
0.0593011
0.0615687
0.0639829
0.0664652
0.0690807
0.0717537
0.0745462
0.0773706
0.0803022
0.0832787
0.0862895
0.0893425
0.09242
0.0955123
0.0986049
0.101692
0.104767
0.10782
0.110846
0.113814
0.116756
0.119619
0.122429
0.125181
0.127835
0.130423
0.132906
0.13528
0.137603
0.139761
0.141894
0.143847
0.145791
0.14759
0.1494
0.151052
0.15271
0.154201
0.155664
0.156993
0.158315
0.159549
0.160783
0.161923
0.163054
0.164082
0.165095
0.166041
0.166972
0.167869
0.168721
0.169495
0.170222
0.17091
0.171566
0.172222
0.172875
0.17352
0.174158
0.174784
0.175405
0.176014
0.176607
0.177182
0.177738
0.178305
0.178886
0.179457
0.18003
0.180518
0.18086
0.181116
0.181249
0.181289
0.182005
0.182429
0.182839
0.183457
0.184091
0.184659
0.185191
0.185651
0.186083
0.1865
0.186919
0.187331
0.18774
0.188098
0.188441
0.188752
0.189062
0.189373
0.189682
0.189964
0.190243
0.190515
0.190789
0.19103
0.19126
0.191434
0.191596
0.191726
0.191843
0.192097
0.192281
0.192461
0.192667
0.192894
0.193131
0.193378
0.193625
0.193868
0.194111
0.194339
0.194567
0.194759
0.19493
0.195092
0.195214
0.195305
0.195381
0.195442
0.195488
0.195519
0.195544
0.195619
0.195688
0.195764
0.195868
0.195987
0.196132
0.196291
0.196462
0.19663
0.196777
0.196909
0.197001
0.197057
0.197085
0.197096
0.197083
0.197058
0.197037
0.197024
0.19702
0.197045
0.197084
0.197143
0.197215
0.197303
0.197403
0.197499
0.197572
0.197634
0.197651
0.197652
0.197628
0.197588
0.197536
0.197487
0.197442
0.197402
0.197394
0.197394
0.197412
0.197446
0.197494
0.197538
0.197582
0.197605
0.197615
0.197612
0.197541
0.197488
0.197436
0.197368
0.197301
0.197238
0.197193
0.197164
0.197144
0.197132
0.197131
0.197141
0.19716
0.197166
0.197168
0.197157
0.197081
0.197034
0.196968
0.196879
0.196794
0.196674
0.0350663
0.0349974
0.0349842
0.035022
0.0351096
0.0351667
0.0351697
0.0351076
0.0349917
0.0348287
0.0346286
0.0344334
0.0342533
0.0340984
0.0339709
0.0338765
0.033812
0.0337725
0.0337648
0.033787
0.0338371
0.0339187
0.034037
0.0341961
0.034401
0.0346551
0.0349657
0.0353356
0.0357729
0.0362797
0.0368624
0.0375297
0.0382766
0.0391075
0.0400431
0.0410665
0.0421842
0.0433992
0.0447241
0.0461495
0.0476923
0.0493182
0.0511163
0.0530031
0.0550407
0.0571571
0.0594459
0.0618429
0.0644103
0.0670398
0.0698366
0.0726973
0.0757096
0.0787561
0.0819384
0.0851579
0.088418
0.0917329
0.0950754
0.0984401
0.1018
0.105162
0.108506
0.111817
0.115094
0.118293
0.121471
0.124539
0.12756
0.130494
0.13332
0.136079
0.1387
0.141225
0.143675
0.145945
0.148186
0.150216
0.152243
0.15411
0.155993
0.157696
0.159409
0.160925
0.162411
0.16375
0.165086
0.166323
0.167565
0.168702
0.169835
0.170855
0.171864
0.172798
0.173718
0.174599
0.175434
0.176185
0.176891
0.177555
0.178189
0.178824
0.179456
0.18008
0.180696
0.181302
0.181902
0.182492
0.183064
0.183623
0.184163
0.184714
0.185281
0.185844
0.186404
0.186864
0.187185
0.187414
0.187555
0.187572
0.188179
0.188666
0.189106
0.189691
0.190328
0.190904
0.19143
0.191887
0.192323
0.192739
0.193156
0.193566
0.19397
0.194325
0.194667
0.194975
0.195283
0.195591
0.195896
0.196176
0.196453
0.196721
0.196991
0.197226
0.19745
0.19762
0.197776
0.197907
0.198018
0.198252
0.19845
0.198632
0.198836
0.199064
0.199302
0.19955
0.1998
0.200044
0.20029
0.20052
0.200749
0.200943
0.201116
0.201278
0.2014
0.201491
0.201567
0.201625
0.201671
0.201703
0.201724
0.201797
0.201869
0.201947
0.202051
0.202173
0.202321
0.202484
0.20266
0.202831
0.202982
0.203116
0.20321
0.203268
0.203295
0.203306
0.203293
0.203267
0.203245
0.203231
0.20323
0.203256
0.203296
0.203357
0.203433
0.203524
0.203627
0.203725
0.203799
0.203863
0.203877
0.203878
0.203851
0.20381
0.203755
0.203702
0.203655
0.203616
0.203607
0.203606
0.203623
0.203657
0.203705
0.20375
0.203793
0.203815
0.20382
0.203814
0.203742
0.203682
0.203625
0.203553
0.203482
0.203415
0.203368
0.203336
0.203313
0.203298
0.203295
0.203302
0.203317
0.20332
0.203316
0.203302
0.203223
0.203167
0.203095
0.203002
0.202909
0.202779
0.0351041
0.0350071
0.0350334
0.0350952
0.0351633
0.0351877
0.035144
0.0350394
0.0348873
0.034698
0.034491
0.0342938
0.0341115
0.0339536
0.0338239
0.0337251
0.0336548
0.03361
0.0335947
0.0336077
0.0336492
0.0337202
0.033827
0.0339729
0.0341638
0.0344031
0.0346988
0.0350572
0.0354821
0.0359776
0.0365499
0.0372116
0.0379534
0.0387798
0.0397232
0.0407564
0.0418877
0.0431284
0.04449
0.0459626
0.0475715
0.0492629
0.0511428
0.053137
0.0553137
0.0575732
0.0600498
0.0626503
0.0654554
0.0683178
0.0713929
0.0745348
0.0778731
0.0812429
0.0848019
0.0883363
0.0919545
0.0956508
0.0993503
0.103095
0.106813
0.110539
0.114233
0.11787
0.121458
0.124934
0.128391
0.131689
0.134945
0.138065
0.141064
0.143991
0.146727
0.149393
0.151937
0.154278
0.156585
0.158643
0.1607
0.162578
0.164482
0.166171
0.167868
0.169341
0.170795
0.172088
0.173391
0.174577
0.175778
0.176859
0.177946
0.178907
0.179864
0.180735
0.181602
0.182421
0.183197
0.183881
0.184531
0.185134
0.185713
0.186294
0.18687
0.187438
0.187997
0.188549
0.189094
0.189632
0.190151
0.190663
0.191157
0.191667
0.19219
0.192716
0.193232
0.193627
0.1939
0.194074
0.194202
0.19418
0.194656
0.195179
0.195633
0.196169
0.196764
0.197321
0.19782
0.198255
0.198678
0.199071
0.199466
0.199853
0.20023
0.200561
0.200883
0.201171
0.20146
0.201746
0.20203
0.20229
0.202548
0.202796
0.203044
0.203258
0.203458
0.203609
0.203743
0.203862
0.203955
0.204154
0.204349
0.204523
0.204713
0.204928
0.205155
0.205391
0.20563
0.205864
0.206102
0.20632
0.20654
0.206723
0.206888
0.207038
0.207148
0.20723
0.207296
0.207342
0.207377
0.207402
0.207411
0.207471
0.207537
0.207608
0.207705
0.20782
0.207962
0.20812
0.208292
0.208457
0.208605
0.208733
0.208822
0.208874
0.208895
0.2089
0.20888
0.208847
0.208818
0.208797
0.208793
0.208813
0.208849
0.208908
0.208982
0.209071
0.20917
0.209265
0.209335
0.209396
0.209405
0.2094
0.209367
0.20932
0.209258
0.2092
0.209148
0.209105
0.209092
0.209087
0.2091
0.209131
0.209177
0.209218
0.209257
0.209275
0.209274
0.209262
0.209188
0.209118
0.209053
0.208977
0.2089
0.208827
0.208777
0.20874
0.208713
0.208694
0.208686
0.208688
0.208698
0.208697
0.208684
0.208666
0.208584
0.208518
0.208439
0.208341
0.208241
0.2081
0.0351534
0.0350747
0.0351054
0.0351583
0.0351949
0.0351721
0.0350826
0.0349448
0.0347676
0.0345568
0.0343448
0.0341464
0.0339651
0.0338081
0.033679
0.033579
0.0335055
0.0334574
0.0334367
0.0334414
0.0334746
0.0335356
0.0336304
0.0337643
0.0339428
0.0341692
0.0344528
0.0348029
0.0352193
0.0357072
0.036273
0.0369362
0.0376823
0.0385111
0.0394784
0.0405425
0.0417032
0.0429954
0.0444198
0.0459739
0.0476884
0.0494927
0.051525
0.0536913
0.0560892
0.0585866
0.0613584
0.0642755
0.0674408
0.0706772
0.0741973
0.077747
0.0815675
0.0853842
0.0894987
0.0934499
0.0975674
0.101823
0.106018
0.110252
0.114471
0.118677
0.122839
0.126895
0.130879
0.134689
0.138487
0.142051
0.14559
0.148911
0.152101
0.155185
0.157993
0.16078
0.163343
0.1657
0.167998
0.170008
0.172018
0.173827
0.175667
0.177251
0.178836
0.180176
0.181512
0.182676
0.183868
0.184913
0.185993
0.186933
0.187895
0.188715
0.189547
0.19028
0.191039
0.191727
0.192389
0.192954
0.193499
0.193992
0.19447
0.194954
0.195428
0.195897
0.19636
0.196822
0.197276
0.197726
0.198159
0.198593
0.19901
0.199451
0.199898
0.200357
0.200791
0.201083
0.201274
0.20137
0.201469
0.201387
0.201742
0.202237
0.202701
0.203162
0.203682
0.204191
0.204643
0.205037
0.20543
0.20578
0.206135
0.206475
0.206803
0.207092
0.207376
0.207626
0.207881
0.208125
0.208368
0.208593
0.208819
0.209028
0.209239
0.209414
0.209574
0.209691
0.209788
0.209882
0.209943
0.210098
0.210271
0.210424
0.21059
0.210779
0.210982
0.211194
0.211411
0.211622
0.21184
0.212035
0.212233
0.212394
0.212541
0.212667
0.212755
0.212818
0.212863
0.212888
0.212904
0.212913
0.2129
0.212937
0.212989
0.213047
0.213126
0.213227
0.213353
0.2135
0.213659
0.213808
0.213946
0.214058
0.214135
0.214175
0.214182
0.214173
0.21414
0.214095
0.214053
0.214019
0.214004
0.214012
0.21404
0.21409
0.214157
0.214238
0.214327
0.214412
0.214474
0.214525
0.214526
0.214508
0.214466
0.214409
0.214338
0.21427
0.21421
0.214159
0.214138
0.214125
0.21413
0.214154
0.214193
0.214228
0.21426
0.214269
0.214258
0.214239
0.21416
0.214078
0.214003
0.213918
0.213833
0.213753
0.213697
0.213654
0.21362
0.213595
0.213581
0.213576
0.213577
0.21357
0.213547
0.213522
0.213437
0.213359
0.213272
0.213168
0.213059
0.212905
0.0352359
0.0351533
0.0351759
0.0352061
0.0351994
0.035129
0.0350066
0.0348451
0.0346358
0.0344137
0.0342008
0.0340028
0.0338253
0.0336723
0.0335455
0.0334449
0.0333697
0.0333193
0.0332935
0.0332895
0.0333145
0.0333659
0.0334501
0.0335732
0.0337416
0.0339576
0.0342316
0.0345778
0.0349907
0.0354768
0.0360407
0.0367164
0.0374876
0.0383257
0.0393326
0.0404569
0.0416957
0.0430457
0.0445868
0.0462748
0.0481661
0.0501686
0.0524609
0.0549125
0.0576462
0.0605168
0.0637363
0.0671017
0.0707692
0.0745311
0.0787159
0.082805
0.0872691
0.0916664
0.0964723
0.101018
0.1058
0.110707
0.115543
0.120373
0.125225
0.129993
0.134726
0.139277
0.143743
0.147956
0.152173
0.156045
0.15992
0.163437
0.166877
0.170077
0.172952
0.175857
0.17837
0.18075
0.182965
0.18489
0.186789
0.188473
0.190162
0.191574
0.19299
0.194106
0.195224
0.196161
0.197152
0.19794
0.19881
0.1995
0.200243
0.200818
0.201433
0.201928
0.202499
0.20296
0.203438
0.203804
0.204173
0.204483
0.20479
0.205115
0.205422
0.205739
0.20606
0.206386
0.206706
0.207023
0.207328
0.207644
0.207946
0.208283
0.208616
0.208971
0.209267
0.209419
0.209493
0.209489
0.209543
0.209391
0.209623
0.210031
0.210492
0.210862
0.211273
0.211694
0.212085
0.212419
0.212762
0.213046
0.213343
0.213611
0.213869
0.214097
0.214326
0.21452
0.214725
0.214909
0.215093
0.215266
0.215443
0.215599
0.215755
0.215872
0.215978
0.216046
0.216094
0.216147
0.216165
0.216263
0.216395
0.216517
0.216647
0.216798
0.216963
0.217139
0.217322
0.217498
0.217685
0.217845
0.21801
0.218136
0.218257
0.218345
0.218402
0.218438
0.21845
0.218445
0.218432
0.218415
0.218373
0.218379
0.218408
0.218443
0.218497
0.218577
0.21868
0.218805
0.218942
0.219067
0.219185
0.219273
0.219333
0.219351
0.219337
0.219309
0.219257
0.219193
0.219131
0.219077
0.219047
0.219039
0.219052
0.219087
0.21914
0.219207
0.219279
0.219349
0.219397
0.219433
0.219419
0.219386
0.219329
0.219258
0.219174
0.21909
0.219018
0.218955
0.218922
0.218898
0.218891
0.218903
0.218932
0.218956
0.218976
0.218974
0.21895
0.21892
0.218833
0.218737
0.218647
0.218551
0.218456
0.218367
0.218301
0.218249
0.218206
0.218172
0.21815
0.218136
0.218126
0.218109
0.218075
0.218041
0.21795
0.217859
0.217761
0.217649
0.217531
0.217362
0.0353038
0.0352333
0.0352362
0.0352313
0.0351799
0.0350745
0.0349286
0.0347337
0.0345036
0.03428
0.0340669
0.0338718
0.033699
0.0335502
0.0334261
0.0333263
0.0332499
0.0331968
0.0331658
0.0331537
0.0331702
0.0332138
0.033289
0.033403
0.0335644
0.0337732
0.0340409
0.0343888
0.0348056
0.0353012
0.0358703
0.0365652
0.037391
0.0382666
0.0393408
0.0405506
0.0419131
0.0434021
0.0451377
0.0470405
0.0492005
0.0515198
0.0542005
0.0570665
0.0602618
0.0636622
0.0675548
0.0714414
0.075753
0.0801489
0.0851364
0.0898932
0.0951043
0.10019
0.105768
0.11117
0.11666
0.122237
0.127779
0.133251
0.138757
0.144088
0.1494
0.154432
0.159351
0.163953
0.168539
0.17273
0.176911
0.180608
0.184336
0.187557
0.190583
0.193567
0.19603
0.1985
0.200605
0.202504
0.204299
0.205898
0.207421
0.208724
0.209979
0.210869
0.211767
0.21247
0.213237
0.213736
0.214359
0.214765
0.215221
0.215526
0.215848
0.21605
0.21635
0.216509
0.216695
0.216787
0.216894
0.216946
0.217013
0.217104
0.217173
0.217271
0.217393
0.21752
0.217645
0.217766
0.217891
0.218027
0.218167
0.218353
0.218527
0.218725
0.218823
0.218801
0.218718
0.218607
0.218542
0.218356
0.218445
0.218757
0.219143
0.219392
0.219675
0.219971
0.220267
0.220523
0.220789
0.220993
0.221209
0.221386
0.221552
0.221703
0.221853
0.221976
0.222112
0.222219
0.222326
0.222429
0.222541
0.222627
0.222711
0.222754
0.222791
0.222793
0.22278
0.22277
0.222741
0.222768
0.222843
0.222921
0.223005
0.223101
0.223218
0.223345
0.223482
0.223611
0.223755
0.223869
0.223987
0.22407
0.224152
0.224193
0.224208
0.224205
0.224176
0.224131
0.224081
0.224025
0.223949
0.223919
0.223913
0.223916
0.22394
0.223989
0.224062
0.224155
0.22426
0.224352
0.224442
0.224498
0.224532
0.224523
0.224479
0.224427
0.224352
0.224262
0.224173
0.224094
0.224043
0.224013
0.224002
0.224016
0.224049
0.224097
0.224146
0.224194
0.224223
0.224238
0.224204
0.224151
0.224075
0.223985
0.223883
0.223781
0.223691
0.223612
0.223563
0.223522
0.2235
0.223496
0.223509
0.22352
0.223524
0.223506
0.223465
0.223422
0.223322
0.22321
0.223102
0.222992
0.222884
0.222781
0.222704
0.222639
0.222585
0.22254
0.222507
0.22248
0.222457
0.222428
0.222379
0.222335
0.222235
0.222128
0.222017
0.221895
0.221766
0.22158
0.0353563
0.0352966
0.0352796
0.0352375
0.0351505
0.0350152
0.0348454
0.0346178
0.034384
0.0341594
0.033948
0.0337574
0.0335893
0.0334444
0.033323
0.0332244
0.0331474
0.0330903
0.0330529
0.0330357
0.033045
0.033082
0.0331498
0.0332567
0.0334155
0.0336225
0.0338867
0.0342469
0.0346742
0.0351891
0.0357871
0.0365354
0.037423
0.03838
0.0395839
0.0409407
0.0424929
0.0442082
0.0462312
0.0484565
0.0509893
0.0537723
0.0570121
0.0603715
0.0641374
0.0681482
0.0728816
0.0773897
0.0824189
0.087522
0.0932511
0.0987815
0.104787
0.110598
0.116892
0.123209
0.129301
0.135433
0.141548
0.147583
0.153563
0.159405
0.165052
0.170527
0.175694
0.180661
0.185395
0.18992
0.194237
0.198158
0.202072
0.205318
0.208553
0.211542
0.214045
0.216557
0.218617
0.220578
0.222392
0.223915
0.225405
0.226667
0.227885
0.228615
0.229495
0.230008
0.230688
0.230981
0.231458
0.231648
0.2319
0.232
0.232114
0.232092
0.232151
0.232022
0.231943
0.231761
0.231612
0.231396
0.231203
0.231028
0.230815
0.230646
0.230505
0.230374
0.230248
0.230118
0.230009
0.229912
0.229846
0.229825
0.229785
0.22978
0.229605
0.229372
0.229113
0.228876
0.228659
0.22841
0.228345
0.228516
0.228747
0.228844
0.228966
0.229111
0.229283
0.229437
0.229609
0.229712
0.229827
0.229888
0.229942
0.229994
0.230045
0.230078
0.230126
0.230139
0.230151
0.230166
0.230195
0.230195
0.23019
0.23014
0.23009
0.230012
0.229924
0.229839
0.229751
0.229702
0.229699
0.229716
0.229742
0.229774
0.229827
0.229893
0.22997
0.230042
0.23013
0.230187
0.230248
0.230277
0.230307
0.230289
0.230252
0.230201
0.230121
0.23003
0.229932
0.22983
0.229711
0.229634
0.229586
0.229551
0.229535
0.229543
0.229579
0.22963
0.229694
0.229747
0.229798
0.229817
0.229818
0.22977
0.229693
0.229609
0.229503
0.229382
0.229261
0.229151
0.229074
0.229014
0.228974
0.22896
0.228967
0.228989
0.22901
0.22903
0.229033
0.229022
0.228961
0.228887
0.228786
0.228672
0.228547
0.228422
0.228312
0.228212
0.228141
0.22808
0.228038
0.228015
0.228007
0.227999
0.227984
0.227945
0.227885
0.227825
0.227706
0.227576
0.227448
0.227319
0.227196
0.227078
0.226985
0.226905
0.226836
0.226777
0.226731
0.226688
0.226649
0.226605
0.226537
0.226481
0.226367
0.226245
0.226119
0.225985
0.225842
0.225637
0.0353861
0.0353339
0.0352994
0.0352294
0.0351135
0.0349497
0.0347579
0.0345123
0.0342791
0.0340544
0.0338471
0.0336612
0.0334977
0.0333566
0.0332376
0.0331395
0.0330606
0.0329995
0.0329579
0.0329368
0.0329404
0.0329724
0.0330352
0.0331378
0.0332995
0.0335142
0.0337757
0.0341607
0.0346176
0.0351761
0.0358257
0.0366677
0.0376754
0.0387613
0.0401663
0.0417473
0.0435717
0.0456232
0.0480375
0.0507023
0.0536877
0.0570097
0.0609966
0.0648686
0.0693067
0.0739465
0.0794801
0.0847108
0.090491
0.0962041
0.102477
0.10875
0.115379
0.121863
0.128666
0.135666
0.142197
0.148827
0.155078
0.161515
0.167575
0.17375
0.17955
0.185284
0.190612
0.19575
0.200573
0.205222
0.209621
0.213716
0.217665
0.221028
0.224463
0.227509
0.230145
0.232579
0.2347
0.236888
0.238825
0.240388
0.241988
0.243227
0.244467
0.245278
0.246239
0.246773
0.247472
0.247784
0.248232
0.248391
0.248572
0.248612
0.24866
0.248551
0.248498
0.248193
0.24796
0.247605
0.247301
0.246907
0.24653
0.246162
0.245719
0.245321
0.244943
0.244575
0.244211
0.24385
0.243507
0.243193
0.242914
0.242682
0.242392
0.242126
0.24168
0.241191
0.240745
0.24035
0.239998
0.239599
0.239377
0.239325
0.239353
0.239276
0.239221
0.239193
0.239204
0.239235
0.23929
0.239272
0.239267
0.239182
0.239104
0.239034
0.238967
0.23889
0.238831
0.238725
0.238626
0.238537
0.238463
0.238353
0.238242
0.238085
0.237931
0.237757
0.237583
0.237414
0.237246
0.237109
0.237018
0.236957
0.236909
0.236869
0.236846
0.236836
0.236841
0.236846
0.236865
0.236853
0.236846
0.236808
0.236777
0.236688
0.236591
0.236481
0.236341
0.236192
0.236039
0.235882
0.235714
0.235582
0.235483
0.2354
0.235337
0.235298
0.235286
0.235287
0.235301
0.235306
0.235313
0.235284
0.235242
0.235153
0.235037
0.234912
0.234767
0.23461
0.234452
0.234307
0.234196
0.234101
0.234025
0.233977
0.233952
0.233941
0.233929
0.233915
0.233884
0.233842
0.233752
0.233649
0.233519
0.233376
0.233225
0.233073
0.232937
0.232812
0.232716
0.23263
0.232564
0.232516
0.232483
0.232451
0.232412
0.23235
0.232266
0.232186
0.232045
0.231894
0.231742
0.231591
0.231449
0.231313
0.231202
0.231103
0.231016
0.23094
0.230877
0.230816
0.230758
0.230695
0.230607
0.230536
0.230405
0.230265
0.230121
0.229973
0.229816
0.229588
0.0354006
0.0353461
0.0352993
0.0352082
0.0350657
0.0348876
0.0346698
0.034422
0.0341891
0.0339674
0.0337646
0.0335834
0.0334242
0.0332867
0.0331696
0.0330711
0.0329902
0.0329267
0.0328821
0.0328579
0.0328573
0.0328873
0.0329489
0.0330519
0.033222
0.0334547
0.0337327
0.0341527
0.0346659
0.0353108
0.0360552
0.0370435
0.0382326
0.0395203
0.0412085
0.0430882
0.0452478
0.047753
0.050698
0.0538367
0.0573444
0.0612051
0.0659643
0.0704546
0.0756379
0.080809
0.0869066
0.0927975
0.0992143
0.105407
0.111944
0.118905
0.125803
0.132855
0.139675
0.147051
0.153851
0.160581
0.166784
0.173124
0.179246
0.185342
0.191315
0.196966
0.202466
0.207502
0.212512
0.217062
0.221598
0.225661
0.229632
0.233158
0.236515
0.239654
0.242505
0.245024
0.247315
0.249589
0.25149
0.253396
0.25527
0.256434
0.257708
0.258787
0.25996
0.260717
0.261541
0.262078
0.262644
0.262938
0.26323
0.26338
0.263526
0.263531
0.263542
0.263259
0.263044
0.26269
0.262408
0.261999
0.261611
0.26119
0.260668
0.260182
0.259671
0.259166
0.25866
0.258155
0.257662
0.257196
0.25677
0.25638
0.255867
0.255327
0.254643
0.253919
0.253311
0.252769
0.252315
0.251836
0.251435
0.251135
0.250912
0.250642
0.250399
0.250187
0.250028
0.249913
0.249836
0.249678
0.249535
0.249292
0.249066
0.248854
0.248646
0.248442
0.248252
0.248008
0.247779
0.247567
0.247368
0.247128
0.246893
0.246613
0.246339
0.246054
0.245782
0.24552
0.245259
0.245026
0.244832
0.244678
0.244543
0.244417
0.244307
0.24421
0.244129
0.244055
0.243993
0.243898
0.243812
0.243698
0.243593
0.243425
0.243258
0.243078
0.242869
0.242653
0.242438
0.242219
0.241994
0.2418
0.24164
0.241501
0.241383
0.24129
0.241219
0.241164
0.241119
0.241067
0.241021
0.240936
0.240844
0.24071
0.240546
0.240375
0.240185
0.239986
0.239786
0.2396
0.239448
0.239312
0.239196
0.239108
0.239044
0.238993
0.238941
0.238887
0.238819
0.238739
0.238614
0.238478
0.238314
0.238139
0.237957
0.237775
0.237608
0.237454
0.237328
0.237213
0.237118
0.237042
0.236979
0.236919
0.236851
0.236761
0.23665
0.236545
0.23638
0.236206
0.236026
0.235849
0.235686
0.235528
0.235395
0.235274
0.235167
0.235071
0.234988
0.234906
0.234825
0.234741
0.23463
0.234541
0.234389
0.234231
0.234066
0.233901
0.233727
0.233473
0.0353937
0.0353371
0.0352825
0.0351749
0.0350131
0.0348289
0.0345916
0.0343483
0.0341158
0.0338983
0.0337003
0.0335238
0.0333688
0.0332344
0.0331186
0.0330196
0.0329374
0.0328728
0.0328257
0.0327993
0.0327975
0.0328305
0.0328974
0.0330049
0.0331971
0.0334549
0.0337752
0.0342775
0.0348825
0.0356553
0.0365482
0.0377472
0.039176
0.0407588
0.0428314
0.0450563
0.0475387
0.0505373
0.0542284
0.0578155
0.0619634
0.0662758
0.071652
0.0767985
0.0826937
0.0883566
0.094712
0.101007
0.107759
0.114366
0.121117
0.128293
0.135128
0.142385
0.14907
0.156271
0.163034
0.169489
0.175837
0.181827
0.188111
0.193799
0.199816
0.205064
0.210665
0.215513
0.220639
0.224998
0.229577
0.233456
0.237508
0.240949
0.244355
0.247412
0.250376
0.252931
0.255513
0.257954
0.259784
0.261884
0.263952
0.265123
0.266538
0.267831
0.269207
0.27021
0.27123
0.272012
0.272776
0.273277
0.273787
0.274156
0.274539
0.274777
0.27499
0.27497
0.274973
0.274839
0.27478
0.274589
0.274433
0.274165
0.273819
0.273479
0.273031
0.272587
0.272127
0.271649
0.271176
0.270707
0.270267
0.269825
0.2692
0.268446
0.267604
0.266785
0.266096
0.265503
0.265028
0.264596
0.264116
0.263568
0.263104
0.262653
0.26223
0.261845
0.261525
0.261263
0.26105
0.26076
0.260481
0.260084
0.25971
0.25935
0.258999
0.258658
0.258325
0.257935
0.257565
0.257216
0.256881
0.256497
0.256123
0.255711
0.255306
0.254904
0.254523
0.254156
0.253799
0.253454
0.253149
0.252888
0.252652
0.252429
0.25222
0.252026
0.251848
0.251681
0.251525
0.251337
0.251162
0.250959
0.250769
0.250516
0.250267
0.25001
0.249727
0.249437
0.24915
0.24886
0.248572
0.248313
0.248082
0.247876
0.247695
0.24754
0.247403
0.247282
0.247169
0.247053
0.246945
0.246796
0.246649
0.246461
0.246245
0.246021
0.245781
0.245535
0.245288
0.245055
0.244857
0.244675
0.244513
0.24438
0.244271
0.244174
0.244076
0.243976
0.243863
0.243741
0.243577
0.243403
0.243201
0.242988
0.242772
0.242556
0.242355
0.242168
0.242006
0.241859
0.241732
0.241621
0.241524
0.24143
0.241331
0.24121
0.241067
0.240933
0.240742
0.240539
0.240331
0.240125
0.239938
0.239755
0.239597
0.239451
0.239319
0.2392
0.239095
0.238988
0.238882
0.238773
0.238637
0.238525
0.238353
0.238172
0.237984
0.2378
0.237608
0.237324
0.0353658
0.0353128
0.0352542
0.0351363
0.0349649
0.0347709
0.0345269
0.0342901
0.0340599
0.033847
0.0336541
0.0334823
0.0333312
0.0331995
0.0330846
0.0329851
0.0329027
0.032838
0.0327897
0.0327628
0.0327653
0.0328073
0.032883
0.0330027
0.033241
0.0335654
0.033957
0.0345835
0.0353264
0.0362738
0.0373775
0.0388653
0.0405598
0.0425137
0.0451005
0.0476826
0.0505097
0.0539513
0.0583976
0.0625299
0.067417
0.0721828
0.0779539
0.0836412
0.0899594
0.0960108
0.10245
0.108864
0.115492
0.122179
0.129071
0.13593
0.142798
0.149739
0.156488
0.162991
0.169602
0.175563
0.182091
0.187887
0.194225
0.199417
0.205106
0.210001
0.21558
0.220226
0.225333
0.229583
0.234171
0.237908