/*--------------------------------*- C++ -*----------------------------------*\
| =========                 |                                                 |
| \\      /  F ield         | OpenFOAM: The Open Source CFD Toolbox           |
|  \\    /   O peration     | Version:  2312                                  |
|   \\  /    A nd           | Website:  www.openfoam.com                      |
|    \\/     M anipulation  |                                                 |
\*---------------------------------------------------------------------------*/
FoamFile
{
    version     2.0;
    format      ascii;
    arch        "LSB;label=32;scalar=64";
    class       volScalarField;
    location    "0.003";
    object      T;
}
// * * * * * * * * * * * * * * * * * * * * * * * * * * * * * * * * * * * * * //

dimensions      [0 0 0 1 0 0 0];

internalField   nonuniform List<scalar> 
48128
(
347.526
347.56
347.615
347.646
347.604
347.389
346.731
345.874
345.118
344.372
343.72
342.967
342.05
341.034
340.049
339.137
338.267
337.422
336.614
335.854
335.1
334.37
333.679
333.04
332.467
331.977
331.582
331.299
331.139
331.086
331.143
331.356
331.713
332.195
332.788
333.484
334.271
335.121
336.036
336.997
337.982
338.971
339.958
340.959
341.92
342.821
343.642
344.403
345.083
345.669
346.143
346.503
346.736
346.848
346.836
346.701
346.448
346.075
345.596
345.019
344.357
343.627
342.834
341.98
341.066
340.102
339.086
338.035
336.952
335.818
334.653
333.449
332.202
330.952
329.661
328.39
327.085
325.814
324.533
323.319
322.111
320.956
319.793
318.662
317.521
316.424
315.351
314.325
313.34
312.403
311.474
310.579
309.707
308.865
308.071
307.315
306.574
305.836
305.119
304.43
303.765
303.146
302.584
302.059
301.554
301.081
300.631
300.21
299.798
299.412
299.02
298.671
298.368
298.085
297.796
297.48
297.126
296.738
296.256
295.608
295.727
295.601
295.296
295.454
295.418
295.355
295.264
295.149
295.021
294.887
294.771
294.666
294.556
294.441
294.322
294.201
294.089
293.997
293.911
293.822
293.737
293.66
293.585
293.506
293.42
293.327
293.244
293.149
293.021
293.074
293.068
293.047
293.093
293.122
293.175
293.229
293.287
293.338
293.392
293.438
293.486
293.508
293.531
293.545
293.549
293.545
293.54
293.532
293.525
293.511
293.515
293.535
293.557
293.59
293.634
293.698
293.769
293.853
293.938
294.022
294.082
294.144
294.164
294.186
294.187
294.183
294.171
294.156
294.158
294.163
294.182
294.212
294.266
294.33
294.4
294.478
294.561
294.64
294.701
294.757
294.781
294.808
294.815
294.816
294.815
294.821
294.836
294.861
294.898
294.945
295.005
295.074
295.15
295.219
295.288
295.341
295.388
295.442
295.431
295.443
295.461
295.471
295.489
295.516
295.552
295.6
295.656
295.718
295.786
295.856
295.929
295.991
296.047
296.104
296.115
296.141
296.168
296.178
296.197
296.239
347.313
347.361
347.446
347.519
347.514
347.113
346.338
345.231
344.125
343.14
342.005
340.533
338.886
337.341
335.966
334.726
333.595
332.564
331.641
330.833
330.093
329.432
328.866
328.404
328.062
327.849
327.768
327.779
327.962
328.311
328.795
329.43
330.204
331.102
332.107
333.204
334.358
335.536
336.735
337.934
339.108
340.238
341.31
342.325
343.243
344.047
344.72
345.275
345.7
345.975
346.085
346.019
345.802
345.434
344.906
344.223
343.408
342.467
341.412
340.252
339.001
337.666
336.253
334.771
333.223
331.635
330
328.336
326.657
324.952
323.246
321.522
319.778
318.053
316.297
314.578
312.834
311.137
309.45
307.833
306.244
304.715
303.196
301.716
300.244
298.812
297.428
296.084
294.798
293.558
292.347
291.161
290.017
288.893
287.827
286.799
285.795
284.801
283.826
282.884
281.965
281.093
280.278
279.508
278.759
278.05
277.364
276.718
276.077
275.473
274.863
274.298
273.781
273.293
272.807
272.3
271.757
271.177
270.509
269.611
269.499
269.18
268.645
268.596
268.438
268.228
267.991
267.734
267.469
267.199
266.948
266.714
266.477
266.236
265.992
265.746
265.509
265.292
265.087
264.879
264.678
264.487
264.301
264.113
263.918
263.715
263.509
263.288
263.019
262.916
262.776
262.603
262.511
262.401
262.326
262.249
262.183
262.115
262.056
261.997
261.936
261.869
261.798
261.722
261.638
261.548
261.455
261.36
261.266
261.169
261.078
261.028
260.971
260.933
260.89
260.891
260.892
260.906
260.927
260.942
260.954
260.953
260.941
260.919
260.889
260.852
260.808
260.764
260.719
260.701
260.687
260.686
260.701
260.728
260.764
260.809
260.861
260.912
260.949
260.985
260.995
261.009
261.004
260.997
260.985
260.987
260.994
261.01
261.035
261.07
261.115
261.172
261.236
261.299
261.361
261.41
261.456
261.521
261.511
261.524
261.549
261.561
261.581
261.612
261.652
261.701
261.759
261.822
261.893
261.969
262.048
262.118
262.182
262.262
262.281
262.315
262.36
262.385
262.419
262.482
347.11
347.186
347.306
347.412
347.232
346.515
345.304
344.015
342.819
341.549
340.17
338.8
337.533
336.365
335.31
334.367
333.523
332.754
332.083
331.521
331.022
330.604
330.275
330.045
329.918
329.898
329.989
330.215
330.593
331.114
331.76
332.527
333.401
334.353
335.375
336.457
337.564
338.668
339.754
340.806
341.798
342.709
343.521
344.234
344.822
345.261
345.54
345.656
345.605
345.39
344.992
344.413
343.662
342.76
341.689
340.464
339.122
337.66
336.1
334.448
332.728
330.944
329.107
327.221
325.291
323.357
321.396
319.439
317.48
315.515
313.572
311.625
309.687
307.789
305.869
304.005
302.126
300.306
298.516
296.802
295.131
293.528
291.944
290.406
288.889
287.415
286.001
284.624
283.311
282.04
280.802
279.588
278.42
277.268
276.179
275.126
274.096
273.078
272.083
271.121
270.181
269.288
268.451
267.654
266.878
266.141
265.426
264.748
264.075
263.438
262.794
262.195
261.639
261.114
260.586
260.04
259.466
258.856
258.169
257.27
257.1
256.734
256.193
256.058
255.833
255.567
255.277
254.975
254.669
254.36
254.07
253.798
253.524
253.245
252.968
252.689
252.42
252.169
251.931
251.69
251.458
251.235
251.018
250.798
250.573
250.342
250.107
249.859
249.566
249.427
249.254
249.049
248.917
248.769
248.654
248.538
248.434
248.328
248.231
248.136
248.039
247.937
247.834
247.727
247.615
247.497
247.378
247.256
247.136
247.016
246.893
246.814
246.726
246.661
246.59
246.562
246.529
246.521
246.515
246.506
246.492
246.47
246.438
246.398
246.351
246.298
246.238
246.176
246.123
246.078
246.052
246.023
246.027
246.038
246.057
246.085
246.12
246.157
246.183
246.209
246.213
246.217
246.209
246.197
246.18
246.172
246.173
246.183
246.2
246.226
246.264
246.312
246.368
246.425
246.483
246.53
246.574
246.637
246.632
246.645
246.668
246.681
246.701
246.729
246.767
246.814
246.871
246.933
247.003
247.079
247.158
247.231
247.299
247.38
247.407
247.448
247.496
247.528
247.566
247.636
346.971
347.088
347.215
347.191
346.63
345.46
344.111
342.842
341.656
340.544
339.524
338.53
337.567
336.657
335.821
335.09
334.461
333.912
333.449
333.079
332.759
332.508
332.333
332.243
332.239
332.338
332.554
332.904
333.376
333.963
334.649
335.433
336.301
337.227
338.198
339.206
340.207
341.17
342.08
342.922
343.668
344.291
344.776
345.126
345.31
345.313
345.113
344.715
344.122
343.35
342.383
341.231
339.896
338.414
336.757
334.965
333.087
331.098
329.039
326.907
324.745
322.544
320.323
318.085
315.833
313.618
311.403
309.231
307.08
304.951
302.882
300.818
298.793
296.83
294.852
292.947
291.048
289.211
287.425
285.72
284.072
282.498
280.946
279.453
277.993
276.581
275.239
273.93
272.687
271.487
270.314
269.168
268.063
266.973
265.949
264.959
263.99
263.033
262.1
261.198
260.318
259.483
258.701
257.953
257.226
256.535
255.865
255.225
254.592
253.99
253.38
252.814
252.285
251.784
251.276
250.751
250.204
249.618
248.971
248.141
247.961
247.609
247.143
246.962
246.723
246.453
246.163
245.865
245.563
245.26
244.974
244.704
244.432
244.157
243.884
243.609
243.346
243.098
242.861
242.623
242.393
242.174
241.958
241.74
241.517
241.289
241.056
240.814
240.529
240.384
240.21
240.01
239.869
239.717
239.595
239.474
239.362
239.25
239.146
239.043
238.939
238.831
238.721
238.608
238.49
238.369
238.245
238.118
237.995
237.871
237.744
237.657
237.564
237.491
237.414
237.376
237.333
237.315
237.3
237.281
237.259
237.23
237.192
237.146
237.093
237.036
236.972
236.905
236.849
236.796
236.763
236.725
236.724
236.729
236.74
236.76
236.788
236.817
236.839
236.86
236.861
236.863
236.853
236.84
236.823
236.812
236.812
236.818
236.832
236.855
236.888
236.933
236.985
237.039
237.094
237.139
237.185
237.246
237.245
237.259
237.281
237.296
237.316
237.345
237.381
237.428
237.483
237.546
237.615
237.691
237.771
237.845
237.915
237.996
238.028
238.072
238.122
238.158
238.2
238.275
346.872
347.017
347.084
346.7
345.699
344.395
343.125
341.994
341.021
340.216
339.519
338.73
337.967
337.298
336.702
336.187
335.749
335.368
335.053
334.818
334.621
334.483
334.408
334.405
334.488
334.67
334.963
335.372
335.889
336.501
337.194
337.962
338.796
339.661
340.54
341.426
342.269
343.033
343.7
344.257
344.68
344.928
344.985
344.847
344.508
343.948
343.133
342.075
340.795
339.328
337.645
335.78
333.724
331.551
329.209
326.766
324.292
321.716
319.12
316.487
313.878
311.275
308.696
306.152
303.625
301.2
298.804
296.504
294.258
292.06
289.967
287.877
285.864
283.931
281.991
280.147
278.321
276.565
274.879
273.282
271.746
270.294
268.86
267.505
266.182
264.913
263.713
262.547
261.442
260.379
259.337
258.321
257.34
256.373
255.474
254.607
253.755
252.915
252.096
251.306
250.532
249.804
249.122
248.466
247.834
247.233
246.652
246.093
245.542
245.014
244.48
243.986
243.52
243.078
242.625
242.157
241.673
241.148
240.576
239.857
239.686
239.379
239.025
238.815
238.596
238.356
238.097
237.834
237.565
237.293
237.038
236.794
236.548
236.301
236.056
235.807
235.572
235.347
235.132
234.917
234.711
234.514
234.319
234.122
233.92
233.714
233.501
233.282
233.026
232.889
232.731
232.552
232.419
232.279
232.167
232.057
231.955
231.853
231.758
231.664
231.568
231.469
231.367
231.261
231.152
231.039
230.924
230.806
230.69
230.575
230.456
230.374
230.287
230.22
230.148
230.112
230.072
230.055
230.039
230.022
230
229.973
229.937
229.893
229.843
229.789
229.729
229.665
229.612
229.561
229.53
229.493
229.489
229.494
229.504
229.524
229.55
229.577
229.599
229.621
229.621
229.627
229.618
229.608
229.593
229.586
229.586
229.593
229.608
229.63
229.664
229.707
229.759
229.812
229.867
229.913
229.961
230.022
230.028
230.044
230.067
230.085
230.108
230.138
230.175
230.222
230.278
230.341
230.412
230.489
230.571
230.646
230.72
230.801
230.838
230.885
230.937
230.977
231.023
231.102
346.827
346.951
346.753
345.984
344.808
343.553
342.434
341.515
340.819
340.268
339.681
339.1
338.575
338.119
337.72
337.376
337.08
336.824
336.615
336.475
336.366
336.312
336.312
336.381
336.535
336.783
337.129
337.576
338.118
338.735
339.409
340.131
340.892
341.65
342.379
343.075
343.685
344.164
344.491
344.642
344.593
344.313
343.769
342.961
341.884
340.534
338.862
336.898
334.68
332.291
329.649
326.846
323.862
320.807
317.685
314.47
311.303
308.088
304.885
301.766
298.689
295.753
292.853
290.105
287.369
284.859
282.39
280.1
277.892
275.766
273.789
271.797
269.939
268.164
266.407
264.765
263.147
261.611
260.158
258.806
257.504
256.309
255.109
254.002
252.907
251.875
250.898
249.955
249.065
248.215
247.373
246.555
245.761
244.985
244.267
243.578
242.893
242.22
241.56
240.926
240.298
239.716
239.171
238.647
238.148
237.674
237.217
236.774
236.337
235.918
235.491
235.1
234.729
234.372
234.001
233.619
233.227
232.795
232.33
231.756
231.599
231.367
231.137
230.925
230.757
230.571
230.365
230.157
229.943
229.726
229.522
229.323
229.124
228.925
228.726
228.523
228.335
228.151
227.974
227.799
227.632
227.473
227.314
227.153
226.988
226.82
226.642
226.46
226.249
226.131
226.001
225.858
225.745
225.629
225.539
225.451
225.37
225.29
225.215
225.14
225.063
224.984
224.901
224.814
224.723
224.63
224.532
224.433
224.334
224.237
224.136
224.068
223.997
223.944
223.886
223.861
223.832
223.823
223.815
223.807
223.792
223.775
223.748
223.713
223.673
223.63
223.58
223.527
223.482
223.441
223.416
223.389
223.389
223.397
223.412
223.436
223.466
223.495
223.522
223.548
223.555
223.57
223.563
223.562
223.553
223.552
223.557
223.568
223.587
223.613
223.649
223.696
223.75
223.806
223.863
223.913
223.964
224.028
224.042
224.064
224.091
224.114
224.141
224.175
224.215
224.264
224.322
224.388
224.461
224.541
224.626
224.705
224.782
224.866
224.908
224.959
225.013
225.058
225.109
225.194
346.813
346.806
346.299
345.302
344.087
342.944
342.016
341.331
340.849
340.412
339.985
339.6
339.267
338.98
338.726
338.503
338.312
338.155
338.036
337.974
337.943
337.958
338.022
338.153
338.363
338.659
339.037
339.5
340.041
340.632
341.249
341.878
342.509
343.089
343.583
343.991
344.246
344.303
344.11
343.66
342.915
341.848
340.398
338.57
336.374
333.86
330.927
327.664
324.133
320.483
316.627
312.632
308.607
304.45
300.625
296.589
292.614
288.864
285.011
281.549
278.003
274.91
271.755
268.981
266.166
263.745
261.346
259.231
257.197
255.308
253.612
251.889
250.375
248.922
247.544
246.272
245.031
243.877
242.813
241.855
240.928
240.138
239.298
238.56
237.804
237.117
236.467
235.846
235.271
234.718
234.17
233.636
233.106
232.587
232.111
231.657
231.19
230.734
230.282
229.848
229.41
229.017
228.649
228.291
227.96
227.644
227.339
227.04
226.745
226.46
226.168
225.907
225.654
225.405
225.143
224.87
224.597
224.285
223.949
223.547
223.399
223.286
223.169
223.001
222.894
222.779
222.642
222.509
222.367
222.224
222.086
221.951
221.815
221.681
221.543
221.403
221.274
221.146
221.022
220.901
220.788
220.678
220.567
220.456
220.34
220.222
220.092
219.96
219.807
219.716
219.628
219.532
219.451
219.368
219.309
219.253
219.203
219.154
219.108
219.063
219.014
218.965
218.909
218.849
218.786
218.721
218.65
218.578
218.504
218.434
218.359
218.312
218.266
218.232
218.198
218.189
218.18
218.185
218.193
218.198
218.199
218.197
218.185
218.168
218.14
218.117
218.084
218.047
218.016
217.991
217.979
217.968
217.975
217.992
218.017
218.049
218.088
218.125
218.161
218.197
218.213
218.241
218.242
218.253
218.254
218.262
218.276
218.296
218.323
218.356
218.399
218.451
218.511
218.572
218.634
218.69
218.749
218.817
218.842
218.872
218.906
218.937
218.971
219.01
219.056
219.11
219.172
219.242
219.32
219.404
219.493
219.577
219.661
219.748
219.797
219.854
219.912
219.964
220.02
220.113
346.801
346.639
345.859
344.717
343.538
342.549
341.813
341.32
340.955
340.65
340.381
340.157
339.963
339.791
339.643
339.517
339.414
339.339
339.302
339.306
339.334
339.405
339.523
339.701
339.949
340.27
340.656
341.102
341.603
342.121
342.623
343.088
343.503
343.8
343.927
343.868
343.567
342.949
341.937
340.523
338.67
336.369
333.528
330.189
326.399
322.305
317.731
312.843
307.778
302.545
297.543
292.307
287.426
282.202
277.882
273.297
268.531
264.55
260.263
256.698
252.906
249.886
246.718
244.105
241.383
239.163
236.963
235.153
233.411
231.897
230.547
229.246
228.14
227.092
226.195
225.328
224.561
223.837
223.246
222.733
222.277
221.927
221.544
221.205
220.916
220.628
220.415
220.165
220.006
219.803
219.639
219.455
219.278
219.072
218.912
218.742
218.548
218.365
218.177
217.997
217.805
217.644
217.487
217.331
217.195
217.066
216.939
216.812
216.684
216.563
216.429
216.322
216.213
216.096
215.967
215.818
215.682
215.508
215.327
215.106
214.994
215.009
214.988
214.911
214.875
214.839
214.787
214.741
214.691
214.635
214.58
214.522
214.462
214.403
214.341
214.274
214.218
214.158
214.099
214.041
213.993
213.944
213.893
213.841
213.783
213.726
213.654
213.582
213.497
213.445
213.408
213.365
213.325
213.287
213.267
213.251
213.239
213.228
213.222
213.213
213.201
213.187
213.168
213.143
213.112
213.085
213.047
213.011
212.969
212.933
212.893
212.871
212.855
212.849
212.845
212.857
212.873
212.898
212.929
212.953
212.977
212.995
213.003
213.011
212.999
213.004
212.991
212.975
212.964
212.961
212.967
212.973
212.994
213.026
213.065
213.111
213.162
213.212
213.261
213.309
213.34
213.383
213.398
213.422
213.438
213.46
213.487
213.519
213.557
213.601
213.653
213.714
213.783
213.852
213.923
213.988
214.056
214.131
214.17
214.211
214.254
214.295
214.338
214.386
214.44
214.5
214.569
214.646
214.73
214.82
214.915
215.006
215.097
215.189
215.248
215.312
215.376
215.436
215.499
215.601
346.794
346.424
345.439
344.249
343.158
342.324
341.751
341.384
341.139
340.946
340.807
340.7
340.606
340.526
340.459
340.409
340.381
340.375
340.396
340.451
340.529
340.643
340.798
341.002
341.263
341.58
341.935
342.32
342.726
343.102
343.403
343.594
343.655
343.478
342.989
342.155
340.913
339.197
336.912
334.027
330.517
326.491
321.768
316.504
310.806
304.789
298.703
292.201
285.854
279.073
273.454
267.309
261.964
256.166
251.487
246.748
241.646
237.755
233.432
230.083
226.492
223.773
220.944
218.694
216.385
214.504
212.723
211.273
209.936
208.832
207.835
207.009
206.218
205.583
205.069
204.519
204.209
203.744
203.614
203.359
203.358
203.249
203.333
203.213
203.397
203.376
203.609
203.637
203.892
203.976
204.205
204.321
204.53
204.634
204.835
204.935
205.088
205.19
205.314
205.416
205.506
205.613
205.688
205.768
205.853
205.938
206.015
206.095
206.156
206.234
206.283
206.355
206.397
206.452
206.46
206.448
206.459
206.442
206.45
206.393
206.374
206.48
206.583
206.614
206.659
206.704
206.764
206.81
206.872
206.907
206.95
206.975
206.999
207.022
207.051
207.065
207.094
207.107
207.124
207.137
207.164
207.183
207.2
207.212
207.221
207.233
207.228
207.23
207.213
207.216
207.231
207.247
207.26
207.274
207.299
207.328
207.363
207.396
207.436
207.467
207.502
207.526
207.553
207.567
207.576
207.595
207.593
207.599
207.597
207.602
207.6
207.611
207.63
207.657
207.685
207.726
207.771
207.823
207.879
207.929
207.98
208.024
208.057
208.094
208.107
208.138
208.152
208.162
208.177
208.198
208.227
208.256
208.295
208.345
208.403
208.467
208.533
208.599
208.665
208.73
208.779
208.839
208.874
208.914
208.949
208.988
209.031
209.078
209.131
209.189
209.253
209.326
209.406
209.486
209.568
209.644
209.724
209.808
209.866
209.919
209.974
210.028
210.083
210.142
210.205
210.275
210.352
210.437
210.529
210.627
210.731
210.829
210.93
211.028
211.101
211.173
211.244
211.314
211.385
211.499
346.724
346.164
345.066
343.888
342.913
342.214
341.773
341.52
341.362
341.269
341.223
341.195
341.178
341.169
341.167
341.175
341.201
341.248
341.316
341.407
341.518
341.656
341.827
342.03
342.271
342.543
342.818
343.078
343.305
343.437
343.391
343.102
342.523
341.541
340.044
337.97
335.273
331.963
327.883
323.02
317.367
311.265
304.586
297.388
290.01
282.042
275.123
267.42
260.432
252.572
246.887
240.419
235.12
229.48
224.662
220.392
215.694
212.11
208.276
205.313
202.472
200.12
197.991
196.123
194.487
192.954
191.782
190.632
189.828
189.025
188.421
187.987
187.407
187.214
186.816
186.608
186.601
186.257
186.488
186.298
186.602
186.573
186.924
186.924
187.339
187.472
187.913
188.12
188.57
188.845
189.271
189.593
190.006
190.345
190.759
191.079
191.46
191.794
192.165
192.505
192.846
193.196
193.499
193.811
194.123
194.428
194.718
195.009
195.277
195.554
195.807
196.067
196.278
196.497
196.663
196.799
196.956
197.118
197.324
197.438
197.543
197.757
197.985
198.124
198.275
198.417
198.582
198.734
198.906
199.044
199.186
199.304
199.423
199.536
199.658
199.764
199.879
199.975
200.073
200.168
200.271
200.364
200.456
200.538
200.623
200.705
200.777
200.855
200.912
200.975
201.05
201.129
201.202
201.272
201.349
201.429
201.514
201.598
201.688
201.765
201.848
201.918
201.993
202.055
202.11
202.175
202.219
202.268
202.313
202.361
202.403
202.453
202.51
202.575
202.64
202.715
202.793
202.876
202.961
203.041
203.121
203.195
203.259
203.325
203.372
203.43
203.476
203.517
203.561
203.61
203.665
203.721
203.784
203.856
203.935
204.019
204.104
204.19
204.275
204.36
204.431
204.511
204.568
204.629
204.685
204.744
204.806
204.872
204.942
205.017
205.097
205.184
205.277
205.371
205.466
205.556
205.65
205.745
205.824
205.892
205.961
206.03
206.099
206.171
206.246
206.327
206.415
206.51
206.612
206.72
206.833
206.942
207.053
207.159
207.248
207.329
207.409
207.49
207.572
207.699
346.562
345.898
344.756
343.626
342.764
342.18
341.849
341.693
341.606
341.586
341.601
341.632
341.671
341.714
341.761
341.814
341.88
341.962
342.058
342.167
342.291
342.432
342.59
342.758
342.937
343.11
343.23
343.267
343.169
342.847
342.189
341.083
339.453
337.207
334.204
330.348
325.652
320.388
314.106
307.068
299.277
290.981
283
274.292
265.858
256.373
249.286
241.051
234.221
226.285
220.96
214.689
209.939
204.934
200.501
196.916
193.219
189.987
187.227
184.657
182.831
180.849
179.605
177.984
177.191
175.864
175.437
174.419
174.25
173.526
173.427
173.109
172.849
172.959
172.519
172.706
172.655
172.61
172.922
172.747
173.186
173.155
173.594
173.628
174.125
174.277
174.759
175.003
175.492
175.801
176.279
176.646
177.128
177.538
178.029
178.431
178.908
179.347
179.835
180.301
180.784
181.268
181.72
182.184
182.645
183.099
183.546
183.987
184.419
184.846
185.269
185.689
186.049
186.412
186.712
187.002
187.31
187.653
188.031
188.366
188.622
188.935
189.267
189.516
189.773
190.024
190.291
190.554
190.833
191.08
191.324
191.537
191.756
191.967
192.184
192.385
192.593
192.774
192.959
193.138
193.323
193.493
193.664
193.821
193.983
194.143
194.294
194.449
194.586
194.716
194.854
194.997
195.135
195.264
195.397
195.532
195.671
195.808
195.95
196.079
196.213
196.334
196.46
196.571
196.678
196.791
196.885
196.983
197.076
197.172
197.26
197.354
197.453
197.558
197.664
197.776
197.891
198.007
198.125
198.238
198.351
198.457
198.555
198.654
198.737
198.827
198.909
198.983
199.06
199.14
199.224
199.309
199.399
199.496
199.6
199.707
199.814
199.922
200.029
200.136
200.231
200.334
200.415
200.5
200.58
200.662
200.747
200.833
200.923
201.017
201.115
201.219
201.327
201.437
201.548
201.653
201.762
201.871
201.974
202.058
202.144
202.23
202.315
202.402
202.492
202.586
202.686
202.793
202.907
203.026
203.149
203.27
203.394
203.509
203.616
203.707
203.798
203.892
203.986
204.128
346.322
345.632
344.495
343.432
342.672
342.203
341.969
341.879
341.847
341.874
341.936
342.011
342.088
342.166
342.245
342.328
342.417
342.515
342.62
342.729
342.841
342.957
343.068
343.157
343.209
343.201
343.047
342.672
341.989
340.881
339.223
336.867
333.684
329.687
324.692
318.617
311.565
304.223
295.917
286.993
277.622
267.367
258.906
249.191
240.567
230.615
223.824
215.7
209.68
202.488
197.78
192.084
188.26
183.923
180.571
177.389
175.026
172.272
170.775
168.532
167.779
166.006
165.718
164.184
164.301
163.102
163.405
162.483
162.894
162.198
162.651
162.226
162.496
162.559
162.386
162.78
162.51
162.914
163.079
163.018
163.516
163.379
163.862
163.853
164.349
164.42
164.872
165.033
165.479
165.685
166.125
166.397
166.846
167.181
167.639
167.982
168.438
168.838
169.313
169.774
170.265
170.756
171.241
171.737
172.234
172.734
173.238
173.738
174.244
174.746
175.255
175.762
176.21
176.669
177.052
177.461
177.894
178.367
178.875
179.378
179.794
180.175
180.589
180.947
181.297
181.643
182.004
182.367
182.743
183.091
183.438
183.745
184.06
184.368
184.68
184.978
185.279
185.549
185.823
186.089
186.358
186.606
186.857
187.092
187.33
187.57
187.799
188.031
188.25
188.45
188.653
188.86
189.065
189.256
189.447
189.639
189.834
190.026
190.222
190.405
190.592
190.766
190.945
191.107
191.268
191.433
191.579
191.729
191.872
192.018
192.154
192.294
192.438
192.587
192.735
192.887
193.041
193.192
193.345
193.493
193.641
193.782
193.917
194.051
194.171
194.296
194.417
194.527
194.639
194.753
194.869
194.986
195.104
195.229
195.359
195.492
195.624
195.755
195.887
196.018
196.139
196.267
196.375
196.485
196.591
196.699
196.808
196.918
197.03
197.145
197.262
197.385
197.511
197.638
197.766
197.889
198.015
198.14
198.267
198.37
198.474
198.579
198.682
198.786
198.892
199.001
199.115
199.236
199.363
199.494
199.63
199.764
199.9
200.028
200.154
200.256
200.361
200.468
200.574
200.735
346.041
345.354
344.254
343.279
342.621
342.257
342.108
342.06
342.067
342.131
342.227
342.329
342.429
342.527
342.622
342.716
342.812
342.908
343.002
343.089
343.163
343.218
343.235
343.178
343.008
342.656
342
340.924
339.287
336.971
333.861
329.775
324.531
318.405
311.202
302.964
293.693
284.093
274.661
264.366
254.166
242.634
234.177
224.155
216.155
206.79
200.537
193.001
188.038
181.923
177.99
173.191
170.474
166.708
164.777
161.788
160.953
158.574
158.31
156.365
156.527
154.969
155.438
154.162
154.95
153.994
154.83
154.107
154.958
154.395
155.24
154.807
155.553
155.327
155.829
156.067
155.993
156.595
156.466
156.833
157.292
157.046
157.588
157.542
158.036
158.015
158.455
158.507
158.907
158.972
159.347
159.469
159.84
160.007
160.368
160.549
160.897
161.139
161.499
161.813
162.185
162.556
162.939
163.337
163.738
164.16
164.596
165.045
165.511
165.988
166.479
166.972
167.419
167.896
168.289
168.737
169.225
169.754
170.318
170.888
171.389
171.802
172.259
172.691
173.11
173.528
173.96
174.397
174.847
175.271
175.702
176.09
176.487
176.877
177.273
177.657
178.044
178.396
178.754
179.099
179.447
179.769
180.095
180.406
180.716
181.03
181.335
181.642
181.938
182.209
182.476
182.746
183.017
183.271
183.522
183.77
184.021
184.269
184.52
184.756
184.998
185.226
185.459
185.673
185.888
186.105
186.304
186.507
186.702
186.898
187.086
187.273
187.462
187.656
187.847
188.041
188.236
188.423
188.612
188.796
188.981
189.159
189.331
189.502
189.662
189.824
189.984
190.132
190.282
190.431
190.581
190.73
190.881
191.035
191.193
191.353
191.51
191.667
191.824
191.981
192.129
192.285
192.42
192.559
192.693
192.827
192.962
193.097
193.233
193.371
193.51
193.653
193.798
193.944
194.09
194.232
194.377
194.521
194.67
194.795
194.919
195.044
195.166
195.289
195.412
195.538
195.668
195.804
195.945
196.09
196.239
196.387
196.538
196.679
196.824
196.94
197.059
197.181
197.301
197.481
345.758
345.065
344.021
343.149
342.608
342.335
342.248
342.226
342.265
342.358
342.474
342.589
342.698
342.801
342.897
342.986
343.069
343.145
343.207
343.244
343.245
343.189
343.039
342.717
342.14
341.183
339.692
337.536
334.512
330.526
325.554
319.328
311.715
303.291
294.33
284.325
273.314
261.466
251.742
240.539
230.399
218.645
210.441
200.701
193.744
185.539
180.113
173.623
169.578
164.741
161.608
158.091
156.203
153.19
152.44
149.814
150.084
148.066
148.747
147.169
147.976
146.742
147.825
146.837
148.14
147.462
148.755
148.228
149.474
149.056
150.215
149.864
150.918
150.619
151.573
151.496
152.04
152.62
152.419
153.034
153.423
153.227
153.855
153.795
154.318
154.268
154.764
154.762
155.161
155.145
155.504
155.537
155.865
155.908
156.205
156.244
156.518
156.613
156.868
157.01
157.247
157.443
157.668
157.903
158.126
158.378
158.638
158.92
159.226
159.551
159.895
160.241
160.571
160.919
161.207
161.573
161.999
162.471
162.983
163.523
164.018
164.395
164.813
165.241
165.67
166.107
166.56
167.02
167.497
167.958
168.429
168.866
169.311
169.751
170.199
170.637
171.079
171.491
171.907
172.311
172.718
173.099
173.484
173.856
174.227
174.604
174.976
175.351
175.713
176.054
176.382
176.711
177.04
177.356
177.664
177.967
178.273
178.574
178.879
179.167
179.462
179.741
180.027
180.292
180.559
180.827
181.079
181.336
181.58
181.828
182.066
182.301
182.536
182.774
183.009
183.244
183.479
183.704
183.93
184.151
184.373
184.587
184.798
185.006
185.209
185.407
185.606
185.794
185.982
186.168
186.353
186.536
186.718
186.903
187.09
187.278
187.461
187.645
187.829
188.013
188.19
188.373
188.538
188.705
188.869
189.031
189.193
189.354
189.514
189.677
189.839
190.003
190.168
190.334
190.5
190.662
190.826
190.991
191.161
191.311
191.456
191.602
191.746
191.889
192.03
192.174
192.32
192.473
192.629
192.788
192.952
193.115
193.281
193.438
193.6
193.732
193.867
194.004
194.14
194.341
345.506
344.775
343.802
343.041
342.619
342.424
342.376
342.378
342.443
342.554
342.677
342.793
342.899
342.992
343.074
343.141
343.193
343.227
343.231
343.186
343.062
342.811
342.35
341.552
340.291
338.372
335.642
331.991
327.171
321.108
313.991
305.666
295.831
285.008
274.976
263.581
251.53
238.076
228.325
216.697
207.231
196.191
188.632
179.838
174.111
167.407
163.008
157.815
154.509
150.992
148.416
146.452
144.668
143.063
142.692
140.853
141.704
140.073
141.237
140.204
141.551
140.617
142.244
141.573
143.3
142.766
144.472
144.041
145.654
145.283
146.756
146.444
147.78
147.512
148.728
148.553
149.482
149.899
149.975
150.721
150.865
151.012
151.746
151.638
152.231
152.209
152.765
152.738
153.179
153.146
153.532
153.542
153.866
153.854
154.139
154.124
154.388
154.422
154.64
154.696
154.885
154.965
155.114
155.259
155.356
155.492
155.612
155.755
155.915
156.084
156.269
156.425
156.581
156.707
156.806
157.009
157.273
157.574
157.912
158.273
158.646
158.879
159.157
159.464
159.793
160.142
160.517
160.905
161.322
161.728
162.159
162.575
163.001
163.425
163.862
164.295
164.735
165.158
165.583
166.002
166.427
166.832
167.242
167.644
168.051
168.466
168.884
169.305
169.715
170.109
170.486
170.861
171.234
171.603
171.961
172.313
172.665
173.013
173.364
173.698
174.04
174.366
174.698
175.009
175.326
175.641
175.943
176.248
176.541
176.836
177.122
177.405
177.683
177.965
178.24
178.517
178.79
179.051
179.314
179.571
179.829
180.079
180.329
180.575
180.817
181.052
181.289
181.518
181.744
181.967
182.186
182.404
182.619
182.835
183.05
183.266
183.477
183.687
183.898
184.11
184.315
184.526
184.721
184.918
185.112
185.303
185.493
185.681
185.866
186.053
186.24
186.426
186.611
186.797
186.984
187.167
187.352
187.537
187.728
187.905
188.071
188.24
188.406
188.569
188.73
188.892
189.057
189.226
189.399
189.573
189.751
189.93
190.111
190.285
190.465
190.614
190.766
190.92
191.072
191.295
345.279
344.507
343.609
342.967
342.644
342.516
342.492
342.52
342.603
342.719
342.839
342.946
343.037
343.107
343.156
343.185
343.187
343.155
343.067
342.884
342.537
341.934
340.929
339.35
337.05
333.757
329.399
323.914
317.034
308.665
299.168
289.437
277.806
264.519
253.763
241.24
228.998
215.055
205.327
193.92
185.617
176.089
169.695
162.494
157.91
152.741
149.094
145.225
142.454
140.092
138.368
137.443
135.859
136.22
135.248
135.494
135.481
134.724
136.309
135.439
137.395
136.518
138.655
137.979
140.067
139.544
141.578
141.153
143.072
142.733
144.478
144.143
145.724
145.456
146.871
146.705
147.883
147.911
148.584
149.385
149.208
149.932
150.591
150.466
151.153