/*--------------------------------*- C++ -*----------------------------------*\
| =========                 |                                                 |
| \\      /  F ield         | OpenFOAM: The Open Source CFD Toolbox           |
|  \\    /   O peration     | Version:  2312                                  |
|   \\  /    A nd           | Website:  www.openfoam.com                      |
|    \\/     M anipulation  |                                                 |
\*---------------------------------------------------------------------------*/
FoamFile
{
    version     2.0;
    format      ascii;
    arch        "LSB;label=32;scalar=64";
    class       volScalarField;
    location    "0.003";
    object      thermo:psiGasEff;
}
// * * * * * * * * * * * * * * * * * * * * * * * * * * * * * * * * * * * * * //

dimensions      [-2 4 2 0 0 0 0];

internalField   nonuniform List<scalar> 
48128
(
0.00818437
0.00818635
0.00820305
0.00820912
0.00821487
0.00822276
0.00823071
0.00825359
0.00830291
0.00837375
0.00849677
0.00863753
0.00877437
0.0088953
0.00899469
0.00906681
0.00911802
0.00914988
0.00915709
0.00913994
0.0091044
0.00904768
0.00896817
0.00886425
0.00873418
0.00857649
0.00839257
0.00818063
0.00794181
0.00767936
0.00739782
0.00710014
0.00678839
0.0064664
0.00613821
0.00580782
0.00548175
0.00516013
0.00484613
0.00454303
0.00425116
0.00397349
0.00370599
0.00345595
0.00321851
0.00299905
0.00279072
0.00259859
0.00241799
0.00225401
0.00210098
0.0019624
0.00183376
0.0017181
0.00161049
0.00151372
0.0014252
0.00134463
0.00127126
0.00120447
0.00114383
0.00108867
0.0010384
0.000992573
0.000950604
0.000912439
0.000877427
0.000845456
0.000816373
0.000789631
0.000765535
0.000743404
0.000723225
0.000705255
0.000688458
0.000673872
0.000660046
0.000648132
0.000636664
0.000626726
0.000616863
0.000608398
0.000600014
0.000592941
0.000586057
0.000580252
0.000574497
0.000569424
0.000564332
0.000559898
0.000555492
0.000551782
0.000548154
0.00054497
0.000541858
0.00053894
0.000536263
0.000534013
0.000532096
0.000530363
0.000528804
0.000527207
0.000525537
0.000523846
0.000522169
0.000520495
0.000518824
0.000517154
0.000515591
0.000514083
0.000512691
0.000511178
0.000509534
0.000507904
0.000506255
0.000504997
0.000504724
0.000504971
0.000506419
0.000508422
0.000504552
0.000504241
0.00050399
0.000500854
0.000498579
0.00049649
0.000494581
0.000493123
0.000491899
0.000490706
0.000489465
0.000488224
0.000486992
0.000486048
0.000485194
0.000484507
0.0004838
0.000483063
0.000482285
0.000481672
0.000481049
0.000480429
0.000479779
0.000479313
0.000478888
0.000478785
0.000478761
0.000479005
0.000479336
0.000478579
0.000478512
0.000478444
0.00047798
0.00047756
0.000476935
0.000476301
0.000475621
0.000474966
0.000474279
0.000473645
0.000473031
0.000472561
0.000472203
0.000471889
0.000471764
0.000471821
0.000471939
0.00047214
0.000472401
0.000472736
0.000473126
0.000473139
0.00047323
0.000473216
0.000473097
0.000472771
0.000472365
0.000471801
0.000471178
0.000470578
0.000470059
0.000469637
0.000469389
0.000469324
0.000469409
0.000469588
0.000469891
0.000470258
0.000470577
0.000470863
0.000471059
0.000471149
0.000471046
0.00047084
0.000470568
0.000470195
0.000469736
0.000469292
0.000468953
0.000468663
0.000468613
0.000468654
0.000468813
0.000469054
0.000469373
0.00046966
0.000469909
0.000470112
0.000470161
0.000470146
0.000470024
0.000469791
0.000469478
0.000469164
0.000468846
0.000468641
0.000468481
0.000468328
0.000468698
0.000468879
0.000469066
0.000469364
0.000469623
0.000469855
0.000469988
0.000470019
0.000469986
0.000469896
0.000469728
0.00046949
0.000469202
0.000468982
0.00046877
0.000468603
0.00046887
0.000468938
0.000469102
0.000469412
0.000469675
0.000470018
0.00818214
0.00818248
0.00820117
0.00820712
0.00820594
0.00821032
0.00821514
0.00823
0.00828209
0.00835809
0.00846929
0.0085922
0.00870902
0.00881038
0.00888658
0.00894836
0.0089914
0.00901671
0.00902022
0.00900163
0.00896673
0.00891285
0.00883831
0.00874129
0.00861955
0.00847085
0.00829605
0.00809695
0.007872
0.00762431
0.00735549
0.00706968
0.00677016
0.00645976
0.00614179
0.00582053
0.0055016
0.00518582
0.00487633
0.00457609
0.00428594
0.00400931
0.00374215
0.0034908
0.00325142
0.00302939
0.00281894
0.00262419
0.0024408
0.00227339
0.00211732
0.00197544
0.00184389
0.00172506
0.00161506
0.0015156
0.00142449
0.00134153
0.00126601
0.00119722
0.0011347
0.00107776
0.00102583
0.000978447
0.000935077
0.000895568
0.000859347
0.000826383
0.00079643
0.000768797
0.000743801
0.000720895
0.000699996
0.000681304
0.000663872
0.000648615
0.000634195
0.000621652
0.000609613
0.000599048
0.00058864
0.000579596
0.000570731
0.000563136
0.000555807
0.000549488
0.000543275
0.000537708
0.000532166
0.000527254
0.000522441
0.000518279
0.000514242
0.000510622
0.000507075
0.000503716
0.000500625
0.000497967
0.000495608
0.000493439
0.000491437
0.000489397
0.000487294
0.000485199
0.00048313
0.000481087
0.000479047
0.000477041
0.000475129
0.000473295
0.00047158
0.000469754
0.000467813
0.000465899
0.000463996
0.00046248
0.000461864
0.000461692
0.000462587
0.000463982
0.00046006
0.000459328
0.000458573
0.00045554
0.000453081
0.000450989
0.000449015
0.000447436
0.000446067
0.000444738
0.000443369
0.000442008
0.000440663
0.000439581
0.00043858
0.000437733
0.000436866
0.000435976
0.000435061
0.000434294
0.000433525
0.000432764
0.000431985
0.000431369
0.000430796
0.000430512
0.000430274
0.000430261
0.000430312
0.00042941
0.000429097
0.000428768
0.000428165
0.000427534
0.00042679
0.00042601
0.00042521
0.000424438
0.00042365
0.000422922
0.000422205
0.000421641
0.000421181
0.000420755
0.000420506
0.000420413
0.000420377
0.000420412
0.000420501
0.000420663
0.000420859
0.00042075
0.000420711
0.000420588
0.000420354
0.000419971
0.00041951
0.000418911
0.00041827
0.000417642
0.000417114
0.000416647
0.000416377
0.000416262
0.000416283
0.000416388
0.000416604
0.00041688
0.000417091
0.000417307
0.000417427
0.000417464
0.000417317
0.00041709
0.000416806
0.000416437
0.000415995
0.000415571
0.000415245
0.000414967
0.000414905
0.000414925
0.000415047
0.00041525
0.000415513
0.000415762
0.000415971
0.000416142
0.000416172
0.000416149
0.000416028
0.000415814
0.000415531
0.000415255
0.000414975
0.000414798
0.000414665
0.000414554
0.00041488
0.000415049
0.000415227
0.000415494
0.000415732
0.000415948
0.000416076
0.000416115
0.000416098
0.000416033
0.000415901
0.000415711
0.000415479
0.000415309
0.000415145
0.00041504
0.000415294
0.000415373
0.00041555
0.00041585
0.00041611
0.000416457
0.00817767
0.00818304
0.0082027
0.00820249
0.0082004
0.0081979
0.00819912
0.0082273
0.0082828
0.00836264
0.00846774
0.00857584
0.00868907
0.00879496
0.00888574
0.00895223
0.00899772
0.00902669
0.00903447
0.00902132
0.00899225
0.00894484
0.00887692
0.00878585
0.00866889
0.00852689
0.00835749
0.00816363
0.00794328
0.00770049
0.00743598
0.00715216
0.00685344
0.00654347
0.00622389
0.00590094
0.00557919
0.00526027
0.0049469
0.00464228
0.00434718
0.00406577
0.00379371
0.00353709
0.00329234
0.00306506
0.00284998
0.00265061
0.00246267
0.00229071
0.00213045
0.00198472
0.00184971
0.0017278
0.00161503
0.00151282
0.00141954
0.00133456
0.00125725
0.00118688
0.00112295
0.00106477
0.00101177
0.000963464
0.000919343
0.000879229
0.000842484
0.000809105
0.000778679
0.00075071
0.000725422
0.000702294
0.000681277
0.000662417
0.000644893
0.000629521
0.000615021
0.000602423
0.000590325
0.000579666
0.000569196
0.000560082
0.000551179
0.000543552
0.000536237
0.000529908
0.000523685
0.0005181
0.00051254
0.0005076
0.000502775
0.000498595
0.000494539
0.0004909
0.000487319
0.000483923
0.0004808
0.000478118
0.000475715
0.000473502
0.000471453
0.000469363
0.000467214
0.000465076
0.000462966
0.000460883
0.000458806
0.000456763
0.000454813
0.000452936
0.000451181
0.00044932
0.000447339
0.000445388
0.000443451
0.000441926
0.000441226
0.000440982
0.000441629
0.000442921
0.000439311
0.000438238
0.000437311
0.000434463
0.000431941
0.000429818
0.00042785
0.000426255
0.000424841
0.000423483
0.000422093
0.000420711
0.000419353
0.000418241
0.000417207
0.000416321
0.00041542
0.000414497
0.000413555
0.00041275
0.000411947
0.000411153
0.000410346
0.000409693
0.000409087
0.000408747
0.00040846
0.000408361
0.000408358
0.000407468
0.000407055
0.000406673
0.000406036
0.000405361
0.000404589
0.000403776
0.00040295
0.00040215
0.000401335
0.000400583
0.000399837
0.000399245
0.000398749
0.000398291
0.000398001
0.000397857
0.00039777
0.000397751
0.000397785
0.000397889
0.000398014
0.000397862
0.000397766
0.0003976
0.000397326
0.000396919
0.000396427
0.000395828
0.00039518
0.000394548
0.00039401
0.00039354
0.00039325
0.000393111
0.000393102
0.000393168
0.000393343
0.000393568
0.000393751
0.000393907
0.000393996
0.000393986
0.000393831
0.000393597
0.000393302
0.000392931
0.000392493
0.000392074
0.000391752
0.000391477
0.00039141
0.000391415
0.000391523
0.000391706
0.000391946
0.000392164
0.00039235
0.000392501
0.000392518
0.000392487
0.000392363
0.000392155
0.000391881
0.000391617
0.000391353
0.000391185
0.000391065
0.000390966
0.000391266
0.000391438
0.000391604
0.000391854
0.000392082
0.000392285
0.000392403
0.000392442
0.000392429
0.000392371
0.000392253
0.00039208
0.000391869
0.000391717
0.000391579
0.000391487
0.000391735
0.000391831
0.000392007
0.000392298
0.000392557
0.0003929
0.00817185
0.00819138
0.00820301
0.00820283
0.0081892
0.0081826
0.00819646
0.00823682
0.00830383
0.00839116
0.00849808
0.00862097
0.00873474
0.00883432
0.00892107
0.00898617
0.00903214
0.00906312
0.0090738
0.00906497
0.00904026
0.00899739
0.00893343
0.00884596
0.00873385
0.00859693
0.00843167
0.00824189
0.00802497
0.00778438
0.00752138
0.00723757
0.00693847
0.0066276
0.00630519
0.0059793
0.00565362
0.00533074
0.00501243
0.00470266
0.00440176
0.00411533
0.00383675
0.00357446
0.00332381
0.00309161
0.00287099
0.00266648
0.00247331
0.00229716
0.00213252
0.00198327
0.00184468
0.00171996
0.00160452
0.00149986
0.0014049
0.0013184
0.00123976
0.00116836
0.00110352
0.00104461
0.000991015
0.00094228
0.000897879
0.00085768
0.000820795
0.000787477
0.000757005
0.000729141
0.000703957
0.000680938
0.000660174
0.000641423
0.000624108
0.000608914
0.000594599
0.000582244
0.000570336
0.000559838
0.000549525
0.000540568
0.000531813
0.000524369
0.000517261
0.000511131
0.000505083
0.000499678
0.000494281
0.000489502
0.000484828
0.000480806
0.000476885
0.00047339
0.000469932
0.000466658
0.000463654
0.000461098
0.000458795
0.00045668
0.000454727
0.000452725
0.000450668
0.000448619
0.000446599
0.0004446
0.000442613
0.000440654
0.00043879
0.000436979
0.000435294
0.000433502
0.000431595
0.000429703
0.000427838
0.000426416
0.000425737
0.00042553
0.000426007
0.000427243
0.000424199
0.000422831
0.000421727
0.000419198
0.00041672
0.000414614
0.000412722
0.000411174
0.000409772
0.000408445
0.000407091
0.000405747
0.000404433
0.000403347
0.00040233
0.00040146
0.000400574
0.000399671
0.000398756
0.000397964
0.000397174
0.000396399
0.000395614
0.000394974
0.000394385
0.00039404
0.000393755
0.000393619
0.000393602
0.0003928
0.000392331
0.000391928
0.000391317
0.000390646
0.000389886
0.000389086
0.000388273
0.000387486
0.000386681
0.000385942
0.000385207
0.000384619
0.000384123
0.000383668
0.000383376
0.000383216
0.000383114
0.000383081
0.000383099
0.000383175
0.000383283
0.000383127
0.000383008
0.000382827
0.000382548
0.000382142
0.000381648
0.000381058
0.00038042
0.000379799
0.000379269
0.000378806
0.000378514
0.00037837
0.000378349
0.000378398
0.000378551
0.000378754
0.000378924
0.000379059
0.000379125
0.000379093
0.000378944
0.000378708
0.000378412
0.000378043
0.000377615
0.000377204
0.00037689
0.000376617
0.000376554
0.000376549
0.000376654
0.000376826
0.000377053
0.000377257
0.00037743
0.00037757
0.00037758
0.000377546
0.000377424
0.000377221
0.000376955
0.0003767
0.000376447
0.000376286
0.000376178
0.000376091
0.000376362
0.000376543
0.000376706
0.000376944
0.000377166
0.000377362
0.000377474
0.000377513
0.000377502
0.00037745
0.000377341
0.00037718
0.000376984
0.000376842
0.000376723
0.000376638
0.000376876
0.000376987
0.000377162
0.000377444
0.000377703
0.000378046
0.00816902
0.00819778
0.00820236
0.00819373
0.00817651
0.00818086
0.00820974
0.00826605
0.00834461
0.00844284
0.00855825
0.00867574
0.00878696
0.00888458
0.00896724
0.0090311
0.00907741
0.009109
0.00912173
0.00911609
0.00909449
0.00905453
0.00899368
0.00891027
0.0088023
0.00866893
0.00850818
0.00832082
0.00810613
0.00786691
0.00760451
0.00731982
0.00701962
0.00670738
0.00638107
0.00605126
0.00572071
0.00539285
0.00506823
0.00475226
0.00444432
0.00415313
0.00386544
0.00359658
0.00333849
0.00310088
0.00287351
0.00266328
0.00246442
0.00228472
0.00211588
0.00196348
0.0018215
0.00169434
0.00157642
0.00147039
0.00137436
0.00128705
0.00120789
0.0011361
0.00107117
0.00101217
0.0009587
0.000910261
0.000866314
0.000826699
0.000790287
0.000757665
0.00072771
0.000700587
0.000676052
0.000653621
0.000633586
0.000615292
0.000598573
0.000583919
0.000570111
0.000558323
0.000546894
0.000536838
0.000526923
0.000518371
0.000509996
0.000502965
0.000496259
0.000490513
0.000484802
0.00047974
0.000474653
0.000470186
0.000465797
0.000462063
0.000458396
0.000455164
0.000451942
0.000448914
0.000446144
0.000443821
0.000441712
0.000439792
0.000438016
0.000436183
0.000434302
0.000432432
0.000430586
0.000428752
0.000426933
0.000425139
0.000423436
0.000421767
0.000420215
0.000418555
0.000416792
0.000415026
0.000413306
0.00041207
0.000411478
0.000411367
0.000411724
0.000412885
0.000410519
0.000408926
0.000407629
0.000405473
0.000403135
0.000401109
0.000399342
0.000397881
0.000396526
0.000395268
0.00039399
0.000392724
0.000391497
0.000390476
0.000389511
0.000388689
0.00038785
0.000387002
0.000386148
0.000385401
0.000384652
0.000383928
0.000383195
0.000382602
0.000382063
0.000381742
0.000381489
0.000381342
0.000381331
0.000380655
0.000380158
0.00037975
0.000379189
0.000378551
0.000377829
0.000377068
0.000376292
0.00037554
0.000374769
0.000374065
0.000373364
0.000372803
0.000372326
0.000371897
0.000371624
0.000371469
0.000371373
0.000371348
0.000371368
0.000371435
0.000371547
0.00037141
0.000371287
0.000371109
0.000370842
0.000370452
0.000369976
0.000369409
0.000368794
0.000368197
0.000367686
0.000367242
0.000366961
0.000366823
0.000366804
0.000366848
0.000366993
0.000367188
0.000367355
0.000367486
0.00036754
0.000367504
0.000367364
0.000367137
0.000366846
0.000366487
0.000366077
0.000365681
0.00036538
0.000365114
0.000365064
0.000365052
0.000365162
0.000365326
0.000365548
0.000365748
0.000365915
0.000366047
0.000366056
0.000366024
0.000365909
0.000365716
0.000365461
0.000365216
0.000364976
0.000364825
0.000364729
0.000364655
0.000364902
0.000365093
0.00036526
0.000365489
0.000365709
0.000365902
0.000366009
0.000366051
0.000366045
0.000365998
0.000365897
0.00036575
0.000365568
0.000365435
0.000365335
0.000365257
0.000365481
0.000365608
0.000365786
0.000366059
0.000366318
0.000366663
0.00815246
0.00819477
0.00818717
0.00817647
0.00817262
0.00819111
0.0082383
0.00830986
0.00839959
0.00850527
0.00862253
0.00873694
0.00884424
0.00893874
0.00901807
0.00908024
0.00912623
0.00915755
0.00917155
0.00916827
0.00914864
0.0091116
0.00905414
0.00897473
0.00887065
0.00874124
0.00858409
0.00839833
0.00818524
0.00794685
0.00768461
0.00739803
0.00709578
0.00678148
0.00644945
0.00611419
0.00577809
0.00544284
0.00510993
0.00478564
0.00446804
0.00416989
0.0038751
0.00359815
0.003331
0.00308686
0.00285149
0.00263496
0.00242995
0.00224663
0.00207375
0.00191893
0.00177412
0.00164552
0.00152514
0.00141991
0.0013237
0.00123614
0.00115782
0.00108636
0.00102246
0.000964176
0.000911777
0.000864487
0.000821915
0.000783664
0.000748509
0.000717312
0.000688543
0.000662839
0.000639547
0.000618303
0.00059956
0.000582179
0.00056656
0.000552904
0.000540034
0.000529199
0.000518618
0.000509352
0.000500147
0.000492317
0.000484684
0.00047836
0.000472291
0.000467122
0.000461923
0.000457385
0.00045277
0.000448783
0.000444826
0.00044152
0.000438244
0.000435404
0.000432523
0.000429865
0.000427434
0.000425434
0.000423599
0.000421954
0.000420421
0.000418818
0.000417188
0.000415573
0.000413971
0.00041237
0.000410787
0.000409226
0.000407746
0.000406278
0.000404913
0.000403432
0.000401875
0.000400294
0.000398788
0.000397811
0.00039736
0.000397382
0.000397653
0.00039873
0.000397049
0.000395322
0.000393878
0.00039209
0.000390008
0.000388119
0.000386512
0.000385164
0.000383884
0.000382728
0.000381554
0.000380408
0.000379306
0.000378383
0.000377499
0.000376752
0.000375984
0.000375221
0.000374458
0.000373783
0.000373101
0.000372453
0.000371801
0.000371282
0.000370822
0.000370547
0.00037035
0.000370216
0.000370224
0.000369693
0.0003692
0.000368805
0.000368306
0.000367722
0.000367058
0.000366355
0.000365636
0.000364937
0.000364215
0.000363564
0.000362916
0.000362399
0.000361957
0.000361572
0.000361335
0.000361199
0.000361127
0.000361123
0.000361161
0.000361231
0.000361362
0.000361263
0.000361148
0.000360985
0.000360742
0.000360383
0.000359939
0.000359405
0.000358825
0.00035827
0.000357785
0.000357374
0.000357114
0.000356991
0.000356986
0.000357034
0.000357183
0.000357381
0.000357553
0.000357689
0.000357745
0.000357718
0.000357595
0.000357382
0.000357103
0.000356761
0.000356378
0.000356006
0.000355724
0.000355474
0.000355437
0.000355429
0.000355552
0.000355712
0.000355936
0.000356138
0.000356304
0.000356434
0.000356448
0.000356424
0.000356322
0.000356142
0.000355901
0.000355671
0.000355447
0.00035531
0.000355231
0.000355169
0.000355399
0.000355602
0.000355779
0.000356003
0.000356223
0.000356416
0.000356524
0.000356571
0.000356572
0.000356532
0.000356441
0.000356308
0.000356143
0.000356021
0.000355941
0.000355871
0.000356083
0.000356227
0.00035641
0.000356675
0.000356937
0.000357287
0.00812998
0.00816666
0.00816431
0.00816323
0.00817504
0.00821294
0.0082773
0.00835946
0.0084568
0.00857131
0.00868831
0.00879957
0.00890248
0.00899295
0.0090688
0.00912896
0.00917418
0.00920487
0.00921955
0.00921861
0.00920115
0.00916737
0.009114
0.00903836
0.008938
0.00881224
0.0086581
0.00847321
0.00826086
0.00802273
0.0077603
0.00747038
0.00716424
0.00684764
0.00650679
0.00616242
0.00581984
0.00547436
0.00513179
0.00479696
0.00446793
0.00416105
0.00385562
0.00356994
0.00329258
0.00304058
0.00279664
0.00257394
0.00236347
0.00217648
0.00199892
0.00184382
0.00169698
0.00156981
0.00144697
0.00134526
0.00125087
0.0011634
0.00108768
0.00101809
0.000956476
0.000899905
0.0008497
0.000804466
0.000764229
0.000728237
0.000695158
0.000666101
0.000639132
0.000615456
0.000593857
0.000574393
0.000557511
0.000541488
0.00052755
0.000515297
0.000503837
0.000494323
0.00048495
0.000476794
0.000468651
0.000461825
0.000455269
0.000449911
0.000444723
0.000440345
0.000435848
0.00043207
0.000428113
0.000424813
0.000421459
0.000418762
0.000416034
0.000413757
0.000411317
0.000409172
0.000407182
0.000405599
0.000404111
0.000402821
0.000401604
0.000400301
0.000399004
0.000397717
0.00039642
0.000395109
0.000393818
0.000392545
0.00039134
0.000390119
0.000388987
0.000387718
0.000386417
0.000385074
0.00038386
0.000383208
0.000382947
0.000383116
0.000383312
0.000384314
0.000383216
0.000381536
0.000379992
0.000378552
0.000376805
0.000375121
0.000373694
0.000372481
0.000371295
0.000370273
0.000369225
0.000368237
0.000367293
0.000366493
0.000365715
0.000365066
0.000364384
0.000363738
0.000363094
0.000362512
0.000361914
0.000361367
0.000360819
0.0003604
0.00036004
0.00035983
0.000359708
0.000359604
0.000359644
0.000359263
0.000358814
0.00035845
0.00035802
0.00035751
0.000356921
0.000356295
0.000355646
0.000355017
0.000354358
0.000353779
0.0003532
0.000352743
0.000352346
0.000352025
0.000351836
0.000351731
0.000351698
0.000351729
0.000351796
0.00035188
0.000352041
0.000351996
0.0003519
0.000351761
0.000351555
0.000351237
0.000350837
0.000350348
0.000349812
0.000349317
0.000348864
0.000348503
0.000348271
0.00034817
0.000348192
0.000348254
0.000348416
0.000348623
0.000348809
0.000348961
0.000349027
0.000349019
0.000348916
0.000348726
0.000348468
0.000348152
0.000347804
0.000347466
0.000347208
0.000346987
0.000346959
0.000346972
0.000347107
0.000347273
0.000347501
0.000347711
0.000347883
0.000348017
0.000348042
0.000348031
0.000347948
0.000347785
0.000347564
0.000347353
0.000347152
0.000347032
0.000346974
0.000346928
0.000347145
0.000347362
0.000347554
0.00034778
0.000348003
0.000348199
0.00034831
0.000348366
0.000348377
0.000348348
0.000348268
0.000348152
0.000348006
0.000347899
0.000347839
0.000347782
0.000347982
0.000348146
0.000348339
0.000348598
0.000348863
0.000349221
0.00809222
0.00813407
0.00814197
0.00815493
0.00818605
0.00824262
0.0083182
0.00840762
0.00851865
0.0086367
0.00875144
0.00885949
0.00895786
0.00904398
0.00911649
0.00917479
0.00921901
0.00924894
0.00926431
0.00926643
0.00925176
0.00922137
0.00917181
0.00909987
0.0090027
0.00888013
0.00872866
0.00854358
0.00833086
0.00809189
0.00782914
0.00753344
0.00721792
0.00689974
0.00654859
0.00619072
0.00583342
0.00548314
0.00512577
0.0047784
0.00443465
0.00411564
0.0037959
0.00349955
0.00321238
0.00295188
0.00269951
0.00247357
0.00226043
0.00207326
0.00188992
0.00173847
0.00159174
0.0014694
0.00134726
0.00124936
0.00115918
0.00107463
0.00100281
0.000936782
0.000878567
0.000825154
0.000778067
0.000735833
0.00069862
0.000665516
0.000634987
0.000608513
0.000583701
0.000562501
0.000542704
0.000525444
0.000510583
0.000496133
0.000484165
0.000473308
0.000463498
0.000455366
0.000447333
0.000440387
0.000433486
0.000427795
0.000422267
0.000418069
0.000413833
0.000410421
0.000406703
0.000403928
0.000400691
0.000398289
0.000395635
0.000393701
0.000391618
0.000390067
0.000388151
0.000386691
0.000385218
0.000384159
0.000383101
0.000382254
0.000381446
0.000380517
0.000379657
0.00037876
0.000377815
0.000376847
0.000375903
0.000374971
0.00037409
0.000373158
0.000372308
0.000371285
0.00037029
0.000369231
0.000368408
0.000368127
0.000368101
0.00036841
0.000368532
0.000369445
0.000368821
0.000367363
0.000365791
0.000364641
0.000363281
0.000361899
0.000360653
0.000359599
0.000358521
0.000357662
0.000356757
0.000355959
0.000355201
0.000354541
0.000353886
0.000353357
0.000352774
0.00035227
0.000351763
0.000351294
0.000350795
0.000350368
0.000349946
0.00034965
0.000349404
0.000349276
0.000349239
0.000349185
0.000349266
0.000349034
0.000348668
0.000348347
0.000347992
0.000347572
0.000347075
0.00034654
0.000345976
0.000345433
0.000344848
0.000344358
0.000343856
0.000343482
0.000343133
0.000342894
0.000342766
0.000342697
0.00034272
0.000342794
0.000342901
0.000343013
0.00034321
0.000343224
0.000343161
0.000343059
0.000342897
0.000342627
0.000342279
0.000341847
0.00034137
0.000340944
0.000340537
0.000340236
0.000340037
0.000339967
0.00034003
0.00034011
0.00034029
0.000340516
0.000340724
0.000340899
0.000340983
0.000340996
0.000340924
0.000340764
0.000340536
0.000340254
0.00033995
0.000339652
0.000339426
0.000339239
0.00033923
0.000339268
0.000339417
0.000339599
0.000339835
0.000340059
0.000340241
0.000340386
0.000340427
0.000340433
0.000340373
0.000340236
0.000340039
0.000339852
0.000339677
0.000339581
0.000339549
0.000339521
0.00033973
0.000339963
0.000340175
0.000340407
0.000340635
0.000340838
0.000340957
0.000341026
0.00034105
0.000341034
0.000340968
0.000340872
0.00034075
0.000340659
0.000340623
0.000340582
0.000340772
0.000340957
0.000341163
0.000341419
0.00034169
0.000342057
0.00806127
0.00810218
0.00812396
0.00815434
0.00820418
0.00827368
0.00835694
0.00846006
0.00857945
0.00869659
0.00880938
0.00891395
0.00900808
0.0090903
0.00915971
0.00921604
0.00925919
0.00928898
0.00930581
0.00931106
0.00929967
0.00927217
0.00922615
0.00915778
0.00906296
0.00894293
0.00879371
0.00860702
0.00839216
0.00814921
0.00788578
0.00758466
0.00725204
0.00692754
0.00656373
0.006193
0.00581801
0.0054531
0.00507601
0.00471404
0.00435497
0.00402067
0.00368611
0.00338046
0.00308705
0.00282069
0.00255603
0.00233634
0.0021241
0.00194359
0.00175794
0.00161306
0.00147054
0.00135502
0.00123848
0.00114258
0.00105949
0.000980807
0.000914194
0.000852893
0.000799014
0.000749988
0.000706535
0.000668043
0.000634134
0.00060429
0.00057664
0.000552762
0.000530297
0.000511499
0.000493379
0.000478478
0.000465186
0.000452344
0.000442152
0.000432378
0.000423993
0.00041703
0.000409993
0.000404156
0.000398249
0.000393502
0.000388651
0.000385605
0.000381995
0.00037951
0.000376354
0.000374548
0.000371907
0.000370351
0.000368369
0.000367118
0.00036565
0.000364781
0.000363413
0.000362701
0.00036181
0.000361325
0.000360748
0.000360395
0.000360017
0.000359527
0.000359169
0.000358703
0.000358155
0.000357589
0.000357045
0.00035651
0.000355994
0.000355416
0.000354877
0.000354149
0.000353512
0.00035278
0.000352449
0.00035254
0.00035279
0.000353176
0.000353374
0.000354073
0.000353817
0.000352628
0.000351212
0.000350361
0.000349385
0.000348368
0.000347333
0.000346451
0.00034551
0.000344816
0.000344071
0.000343481
0.000342923
0.000342418
0.00034191
0.000341507
0.000341042
0.000340689
0.000340335
0.000339998
0.000339612
0.000339319
0.000339035
0.000338886
0.000338758
0.000338732
0.00033878
0.000338806
0.000338924
0.000338836
0.000338582
0.00033832
0.000338045
0.000337731
0.000337337
0.000336905
0.000336437
0.000335993
0.000335495
0.000335105
0.000334694
0.000334409
0.000334123
0.000333976
0.000333918
0.000333896
0.000333985
0.000334109
0.000334261
0.00033442
0.000334652
0.000334725
0.000334711
0.000334658
0.00033454
0.000334328
0.000334038
0.000333678
0.000333275
0.000332921
0.000332574
0.000332338
0.000332183
0.000332153
0.000332262
0.000332366
0.000332567
0.000332817
0.000333057
0.000333259
0.000333365
0.000333407
0.000333376
0.000333256
0.000333063
0.00033282
0.000332568
0.000332319
0.00033213
0.000331982
0.000332006
0.000332065
0.000332236
0.000332439
0.000332687
0.000332929
0.000333126
0.000333286
0.00033335
0.000333378
0.000333343
0.000333238
0.000333072
0.000332913
0.000332769
0.000332704
0.000332698
0.000332692
0.000332901
0.00033315
0.000333384
0.000333629
0.000333865
0.000334078
0.000334209
0.000334293
0.000334334
0.000334334
0.000334286
0.000334212
0.000334116
0.000334046
0.000334037
0.000334013
0.000334199
0.000334406
0.000334627
0.000334884
0.000335161
0.000335542
0.00803895
0.00807922
0.00811277
0.00816003
0.00822376
0.0083044
0.00839634
0.0085134
0.00863359
0.00874986
0.00886038
0.00896143
0.00905182
0.00913065
0.00919738
0.00925179
0.00929413
0.00932498
0.00934421
0.00935148
0.00934317
0.00931848
0.0092758
0.00921074
0.00911701
0.00899794
0.0088511
0.0086593
0.00844162
0.00819324
0.00792274
0.00760796
0.00726361
0.00692574
0.00653953
0.00615076
0.00575555
0.0053706
0.00497196
0.00459392
0.00422278
0.00387142
0.00351944
0.00321462
0.00292067
0.00266008
0.00238427
0.00217549
0.00196956
0.00180094
0.00162297
0.00148524
0.00134962
0.0012413
0.00113507
0.00104146
0.000966213
0.000895583
0.000834982
0.000779167
0.000729756
0.000685209
0.000646002
0.000610943
0.000580384
0.000553269
0.000528587
0.000506736
0.000486513
0.000469436
0.000452873
0.000439681
0.000427464
0.000415898
0.000407091
0.000398147
0.000390693
0.000384487
0.000377772
0.000373029
0.000367515
0.00036349
0.000358941
0.00035665
0.000353138
0.000351313
0.000348428
0.000347159
0.000344908
0.000343839
0.00034232
0.000341446
0.000340368
0.000339826
0.000338915
0.000338725
0.000338281
0.000338224
0.000338005
0.000338036
0.000338002
0.000337902
0.000337994
0.000337947
0.000337816
0.000337671
0.000337535
0.000337415
0.00033727
0.000337075
0.000336832
0.000336449
0.000336203
0.000335844
0.000336071
0.000336523
0.000337014
0.000337436
0.000337726
0.000338264
0.000338278
0.000337406
0.000336337
0.000335816
0.000335202
0.000334539
0.000333761
0.000333058
0.00033227
0.000331742
0.000331173
0.000330802
0.000330451
0.000330114
0.000329765
0.000329497
0.000329168
0.000328973
0.000328778
0.000328581
0.000328327
0.000328176
0.000328041
0.000328049
0.000328051
0.000328139
0.000328271
0.000328387
0.000328547
0.000328583
0.00032847
0.000328293
0.000328101
0.000327894
0.000327617
0.000327298
0.000326941
0.000326601
0.000326205
0.000325918
0.000325612
0.000325419
0.000325211
0.000325163
0.00032518
0.000325219
0.000325374
0.000325554
0.000325757
0.000325972
0.000326239
0.000326379
0.000326422
0.00032642
0.000326359
0.000326214
0.000325987
0.000325709
0.00032539
0.000325113
0.000324839
0.000324668
0.000324565
0.000324592
0.000324736
0.000324881
0.000325108
0.000325387
0.00032566
0.000325892
0.000326025
0.000326106
0.000326119
0.000326045
0.000325896
0.0003257
0.000325503
0.00032531
0.000325165
0.000325063
0.000325123
0.000325207
0.000325404
0.000325632
0.000325897
0.000326159
0.000326376
0.000326556
0.000326647
0.000326702
0.000326697
0.000326625
0.000326498
0.000326372
0.000326265
0.000326234
0.000326258
0.000326277
0.000326491
0.000326757
0.000327016
0.000327277
0.000327523
0.000327749
0.000327896
0.000328
0.00032806
0.000328079
0.000328051
0.000328004
0.000327938
0.000327893
0.000327912
0.000327907
0.000328096
0.000328323
0.000328563
0.000328823
0.000329108
0.000329505
0.00802917
0.00806839
0.00811093
0.00816999
0.0082447
0.00833635
0.00843678
0.00856118
0.00868029
0.00879572
0.00890342
0.00900116
0.00908825
0.00916412
0.00922862
0.00928188
0.00932444
0.00935676
0.00937776
0.00938676
0.00938137
0.00935927
0.00931944
0.00925727
0.00916283
0.00904121
0.00889864
0.00869828
0.00847257
0.00821341
0.00793346
0.00759787
0.00723141
0.00687741
0.00646222
0.00605187
0.00563579
0.00522479
0.00480707
0.00441395
0.0040392
0.00368431
0.00330918
0.00301882
0.00272847
0.00248549
0.00221259
0.00201434
0.00181669
0.0016637
0.00150157
0.00137231
0.00124674
0.00114487
0.00104972
0.000961324
0.000891871
0.000828006
0.000773802
0.000723327
0.000678685
0.000638187
0.000601765
0.000570252
0.000541227
0.000517055
0.000493687
0.000474327
0.000455071
0.00043962
0.000424057
0.000412006
0.000400094
0.000389203
0.000381309
0.000372965
0.000366362
0.000359721
0.000353269
0.000349044
0.000343572
0.000340141
0.000335847
0.000333564
0.000330021
0.000328309
0.000325556
0.000324283
0.000322214
0.000321239
0.0003199
0.000319133
0.000318142
0.000317683
0.000316942
0.000317007
0.000316755
0.000316888
0.000316804
0.000316995
0.000317116
0.000317216