/*--------------------------------*- C++ -*----------------------------------*\
| =========                 |                                                 |
| \\      /  F ield         | OpenFOAM: The Open Source CFD Toolbox           |
|  \\    /   O peration     | Version:  2312                                  |
|   \\  /    A nd           | Website:  www.openfoam.com                      |
|    \\/     M anipulation  |                                                 |
\*---------------------------------------------------------------------------*/
FoamFile
{
    version     2.0;
    format      ascii;
    arch        "LSB;label=32;scalar=64";
    class       volScalarField;
    location    "0.003";
    object      thermo:psiLiqEff;
}
// * * * * * * * * * * * * * * * * * * * * * * * * * * * * * * * * * * * * * //

dimensions      [-2 4 2 0 0 0 0];

internalField   nonuniform List<scalar> 
48128
(
4.15015e-13
4.14975e-13
4.14909e-13
4.14871e-13
4.14922e-13
4.15178e-13
4.15967e-13
4.16997e-13
4.17911e-13
4.18816e-13
4.1961e-13
4.20532e-13
4.2166e-13
4.22915e-13
4.2414e-13
4.25282e-13
4.26376e-13
4.27443e-13
4.28469e-13
4.2944e-13
4.30405e-13
4.31345e-13
4.32238e-13
4.33068e-13
4.33815e-13
4.34455e-13
4.34972e-13
4.35344e-13
4.35555e-13
4.35623e-13
4.35549e-13
4.35269e-13
4.348e-13
4.3417e-13
4.33396e-13
4.32491e-13
4.31472e-13
4.30378e-13
4.29207e-13
4.27982e-13
4.26734e-13
4.25489e-13
4.24254e-13
4.23008e-13
4.2182e-13
4.2071e-13
4.19705e-13
4.18777e-13
4.17953e-13
4.17243e-13
4.16672e-13
4.16239e-13
4.15959e-13
4.15825e-13
4.15839e-13
4.16001e-13
4.16304e-13
4.16753e-13
4.17331e-13
4.18029e-13
4.18832e-13
4.19722e-13
4.20693e-13
4.21743e-13
4.22874e-13
4.24072e-13
4.25342e-13
4.26666e-13
4.28037e-13
4.29483e-13
4.30977e-13
4.32534e-13
4.34157e-13
4.35798e-13
4.37504e-13
4.39197e-13
4.4095e-13
4.4267e-13
4.44418e-13
4.46087e-13
4.47759e-13
4.4937e-13
4.51005e-13
4.52606e-13
4.54232e-13
4.55808e-13
4.57359e-13
4.58851e-13
4.60294e-13
4.61675e-13
4.63052e-13
4.64387e-13
4.65694e-13
4.66964e-13
4.68167e-13
4.69318e-13
4.70453e-13
4.71589e-13
4.72696e-13
4.73767e-13
4.74804e-13
4.75773e-13
4.76657e-13
4.77485e-13
4.78285e-13
4.79036e-13
4.79754e-13
4.80426e-13
4.81087e-13
4.81708e-13
4.82339e-13
4.82903e-13
4.83393e-13
4.83851e-13
4.84322e-13
4.84837e-13
4.85413e-13
4.86049e-13
4.8684e-13
4.87906e-13
4.87711e-13
4.87919e-13
4.88422e-13
4.88161e-13
4.88221e-13
4.88324e-13
4.88475e-13
4.88666e-13
4.88877e-13
4.89099e-13
4.89293e-13
4.89466e-13
4.89649e-13
4.89841e-13
4.90039e-13
4.9024e-13
4.90428e-13
4.9058e-13
4.90723e-13
4.90872e-13
4.91015e-13
4.91144e-13
4.91269e-13
4.91401e-13
4.91545e-13
4.917e-13
4.9184e-13
4.92e-13
4.92214e-13
4.92126e-13
4.92136e-13
4.92171e-13
4.92094e-13
4.92045e-13
4.91956e-13
4.91865e-13
4.91769e-13
4.91682e-13
4.91592e-13
4.91515e-13
4.91435e-13
4.91398e-13
4.9136e-13
4.91336e-13
4.91328e-13
4.91335e-13
4.91345e-13
4.91358e-13
4.91369e-13
4.91393e-13
4.91387e-13
4.91352e-13
4.91316e-13
4.91261e-13
4.91188e-13
4.9108e-13
4.90961e-13
4.90822e-13
4.9068e-13
4.90539e-13
4.90438e-13
4.90336e-13
4.90301e-13
4.90265e-13
4.90264e-13
4.9027e-13
4.9029e-13
4.90315e-13
4.90312e-13
4.90303e-13
4.90272e-13
4.90222e-13
4.90132e-13
4.90025e-13
4.89909e-13
4.8978e-13
4.89641e-13
4.8951e-13
4.89409e-13
4.89315e-13
4.89276e-13
4.8923e-13
4.89219e-13
4.89218e-13
4.89219e-13
4.89208e-13
4.89184e-13
4.89142e-13
4.89082e-13
4.89004e-13
4.88904e-13
4.8879e-13
4.88664e-13
4.88549e-13
4.88435e-13
4.88347e-13
4.88271e-13
4.88181e-13
4.88199e-13
4.8818e-13
4.88149e-13
4.88132e-13
4.88103e-13
4.88059e-13
4.87998e-13
4.8792e-13
4.87827e-13
4.87725e-13
4.87614e-13
4.87497e-13
4.87378e-13
4.87275e-13
4.87184e-13
4.87089e-13
4.87071e-13
4.87028e-13
4.86984e-13
4.86967e-13
4.86936e-13
4.86868e-13
4.1527e-13
4.15213e-13
4.1511e-13
4.15024e-13
4.15029e-13
4.15508e-13
4.16438e-13
4.17774e-13
4.19117e-13
4.2032e-13
4.21715e-13
4.23539e-13
4.25597e-13
4.27546e-13
4.29297e-13
4.30887e-13
4.32348e-13
4.33689e-13
4.34895e-13
4.35957e-13
4.36935e-13
4.37811e-13
4.38566e-13
4.39181e-13
4.3964e-13
4.39925e-13
4.40035e-13
4.4002e-13
4.39773e-13
4.39307e-13
4.38659e-13
4.37814e-13
4.36788e-13
4.35603e-13
4.34284e-13
4.32855e-13
4.3136e-13
4.29846e-13
4.28315e-13
4.26795e-13
4.25317e-13
4.23905e-13
4.22574e-13
4.21321e-13
4.20193e-13
4.19212e-13
4.18393e-13
4.1772e-13
4.17206e-13
4.16874e-13
4.16742e-13
4.16821e-13
4.17082e-13
4.17527e-13
4.18166e-13
4.18996e-13
4.1999e-13
4.21144e-13
4.22445e-13
4.23886e-13
4.2545e-13
4.27133e-13
4.28927e-13
4.30826e-13
4.32828e-13
4.349e-13
4.37056e-13
4.39271e-13
4.41529e-13
4.43845e-13
4.46188e-13
4.48579e-13
4.51027e-13
4.53473e-13
4.55991e-13
4.58482e-13
4.61038e-13
4.63554e-13
4.66081e-13
4.68529e-13
4.7096e-13
4.73324e-13
4.75695e-13
4.78029e-13
4.80373e-13
4.82676e-13
4.84921e-13
4.87122e-13
4.89247e-13
4.91314e-13
4.9335e-13
4.9536e-13
4.97313e-13
4.99249e-13
5.01098e-13
5.02895e-13
5.0466e-13
5.06423e-13
5.08162e-13
5.09854e-13
5.11516e-13
5.13104e-13
5.14596e-13
5.16013e-13
5.174e-13
5.18719e-13
5.20003e-13
5.21217e-13
5.22428e-13
5.23572e-13
5.24734e-13
5.25815e-13
5.26808e-13
5.27749e-13
5.2869e-13
5.29674e-13
5.30732e-13
5.31867e-13
5.33181e-13
5.34956e-13
5.35179e-13
5.35813e-13
5.3688e-13
5.36978e-13
5.37295e-13
5.37715e-13
5.38192e-13
5.38708e-13
5.39243e-13
5.39786e-13
5.40294e-13
5.40767e-13
5.41248e-13
5.4174e-13
5.42236e-13
5.42737e-13
5.43223e-13
5.43667e-13
5.44088e-13
5.44515e-13
5.44929e-13
5.45322e-13
5.45705e-13
5.46095e-13
5.46497e-13
5.46918e-13
5.47345e-13
5.47806e-13
5.48366e-13
5.48581e-13
5.48873e-13
5.49235e-13
5.49427e-13
5.49657e-13
5.49814e-13
5.49976e-13
5.50115e-13
5.50256e-13
5.50381e-13
5.50505e-13
5.50633e-13
5.50774e-13
5.50924e-13
5.51084e-13
5.5126e-13
5.5145e-13
5.51645e-13
5.51848e-13
5.52046e-13
5.52251e-13
5.52443e-13
5.52549e-13
5.52669e-13
5.52751e-13
5.52841e-13
5.52839e-13
5.52837e-13
5.52807e-13
5.52763e-13
5.52731e-13
5.52706e-13
5.52709e-13
5.52734e-13
5.52779e-13
5.52843e-13
5.52921e-13
5.53014e-13
5.53108e-13
5.53203e-13
5.53241e-13
5.53272e-13
5.53274e-13
5.53243e-13
5.53184e-13
5.53108e-13
5.53013e-13
5.52901e-13
5.52794e-13
5.52716e-13
5.52639e-13
5.52618e-13
5.52588e-13
5.52599e-13
5.52614e-13
5.5264e-13
5.52635e-13
5.52621e-13
5.52586e-13
5.52534e-13
5.5246e-13
5.52364e-13
5.52244e-13
5.52108e-13
5.51976e-13
5.51845e-13
5.51741e-13
5.51644e-13
5.51507e-13
5.51529e-13
5.51501e-13
5.51447e-13
5.51423e-13
5.5138e-13
5.51315e-13
5.51231e-13
5.51128e-13
5.51006e-13
5.50872e-13
5.50724e-13
5.50564e-13
5.50399e-13
5.5025e-13
5.50117e-13
5.49949e-13
5.49909e-13
5.49838e-13
5.49742e-13
5.4969e-13
5.4962e-13
5.49487e-13
4.15512e-13
4.15422e-13
4.15278e-13
4.15151e-13
4.15366e-13
4.16226e-13
4.17686e-13
4.1925e-13
4.20714e-13
4.22278e-13
4.2399e-13
4.25705e-13
4.27303e-13
4.28786e-13
4.30136e-13
4.31349e-13
4.32441e-13
4.3344e-13
4.34316e-13
4.35053e-13
4.35708e-13
4.36259e-13
4.36694e-13
4.36999e-13
4.37166e-13
4.37193e-13
4.37073e-13
4.36773e-13
4.36274e-13
4.35587e-13
4.34739e-13
4.33736e-13
4.32599e-13
4.31367e-13
4.30053e-13
4.2867e-13
4.27263e-13
4.25871e-13
4.24509e-13
4.23198e-13
4.21969e-13
4.20849e-13
4.19853e-13
4.18983e-13
4.18269e-13
4.17737e-13
4.17399e-13
4.17259e-13
4.17321e-13
4.17581e-13
4.18062e-13
4.18765e-13
4.1968e-13
4.20785e-13
4.22104e-13
4.23623e-13
4.25299e-13
4.27141e-13
4.29123e-13
4.31243e-13
4.33472e-13
4.35808e-13
4.38242e-13
4.40768e-13
4.43382e-13
4.46035e-13
4.48756e-13
4.51505e-13
4.54292e-13
4.57121e-13
4.59954e-13
4.62827e-13
4.65724e-13
4.68596e-13
4.71539e-13
4.7443e-13
4.7738e-13
4.80274e-13
4.83153e-13
4.85945e-13
4.88696e-13
4.91365e-13
4.94031e-13
4.96648e-13
4.99255e-13
5.01816e-13
5.04297e-13
5.06738e-13
5.09087e-13
5.1138e-13
5.13636e-13
5.15865e-13
5.1803e-13
5.20183e-13
5.22235e-13
5.24234e-13
5.26203e-13
5.28164e-13
5.30096e-13
5.31977e-13
5.33828e-13
5.35599e-13
5.37269e-13
5.38869e-13
5.40435e-13
5.41932e-13
5.43392e-13
5.44785e-13
5.46173e-13
5.47494e-13
5.48836e-13
5.50089e-13
5.51258e-13
5.52367e-13
5.53486e-13
5.54648e-13
5.55875e-13
5.57187e-13
5.58668e-13
5.60622e-13
5.60991e-13
5.61791e-13
5.62978e-13
5.63274e-13
5.6377e-13
5.64358e-13
5.64997e-13
5.65667e-13
5.66348e-13
5.67035e-13
5.67683e-13
5.68291e-13
5.68906e-13
5.69531e-13
5.70155e-13
5.70786e-13
5.71393e-13
5.71962e-13
5.72503e-13
5.73051e-13
5.73581e-13
5.74089e-13
5.74586e-13
5.7509e-13
5.75607e-13
5.76138e-13
5.76679e-13
5.7725e-13
5.7793e-13
5.78251e-13
5.78652e-13
5.79129e-13
5.79435e-13
5.7978e-13
5.80048e-13
5.80319e-13
5.80563e-13
5.8081e-13
5.81038e-13
5.81261e-13
5.81488e-13
5.81725e-13
5.81967e-13
5.82219e-13
5.82483e-13
5.8276e-13
5.83041e-13
5.8333e-13
5.83611e-13
5.83896e-13
5.84187e-13
5.84374e-13
5.84581e-13
5.84736e-13
5.84904e-13
5.8497e-13
5.85049e-13
5.85068e-13
5.85082e-13
5.85104e-13
5.85137e-13
5.85188e-13
5.85264e-13
5.85359e-13
5.85471e-13
5.85597e-13
5.85739e-13
5.85887e-13
5.86014e-13
5.86122e-13
5.86184e-13
5.86253e-13
5.86243e-13
5.86216e-13
5.86171e-13
5.86105e-13
5.8602e-13
5.85934e-13
5.8587e-13
5.85808e-13
5.85801e-13
5.8579e-13
5.85809e-13
5.85838e-13
5.85879e-13
5.85898e-13
5.85894e-13
5.85872e-13
5.85831e-13
5.85769e-13
5.85679e-13
5.85564e-13
5.8543e-13
5.85295e-13
5.85158e-13
5.85048e-13
5.84941e-13
5.84792e-13
5.84804e-13
5.84774e-13
5.84719e-13
5.84689e-13
5.84642e-13
5.84574e-13
5.84484e-13
5.84373e-13
5.84239e-13
5.84091e-13
5.83925e-13
5.83746e-13
5.83559e-13
5.83386e-13
5.83227e-13
5.83036e-13
5.82972e-13
5.82876e-13
5.82762e-13
5.82689e-13
5.82597e-13
5.82433e-13
4.15679e-13
4.15539e-13
4.15386e-13
4.15416e-13
4.16088e-13
4.17497e-13
4.19134e-13
4.20686e-13
4.22146e-13
4.23524e-13
4.24797e-13
4.26044e-13
4.2726e-13
4.28415e-13
4.29482e-13
4.30419e-13
4.31229e-13
4.31938e-13
4.32537e-13
4.33017e-13
4.33434e-13
4.33761e-13
4.33989e-13
4.34107e-13
4.34112e-13
4.33983e-13
4.337e-13
4.33245e-13
4.32631e-13
4.31872e-13
4.30985e-13
4.29979e-13
4.28869e-13
4.27691e-13
4.26462e-13
4.25195e-13
4.23944e-13
4.22747e-13
4.21622e-13
4.20587e-13
4.19674e-13
4.18914e-13
4.18325e-13
4.179e-13
4.17677e-13
4.17675e-13
4.17916e-13
4.18398e-13
4.19119e-13
4.20062e-13
4.21248e-13
4.2267e-13
4.24331e-13
4.26189e-13
4.28285e-13
4.30577e-13
4.33005e-13
4.35607e-13
4.38332e-13
4.41192e-13
4.44129e-13
4.4716e-13
4.5026e-13
4.53428e-13
4.56661e-13
4.59887e-13
4.63158e-13
4.66412e-13
4.69678e-13
4.72958e-13
4.7619e-13
4.79457e-13
4.82706e-13
4.85898e-13
4.89159e-13
4.9234e-13
4.95552e-13
4.98701e-13
5.01799e-13
5.04794e-13
5.07723e-13
5.10551e-13
5.13373e-13
5.16115e-13
5.18825e-13
5.21474e-13
5.24019e-13
5.26521e-13
5.28921e-13
5.31261e-13
5.33565e-13
5.35838e-13
5.38046e-13
5.40244e-13
5.42325e-13
5.44351e-13
5.4635e-13
5.48336e-13
5.5029e-13
5.52189e-13
5.54057e-13
5.55839e-13
5.57519e-13
5.59137e-13
5.60716e-13
5.62228e-13
5.63699e-13
5.65113e-13
5.66518e-13
5.67862e-13
5.69229e-13
5.70503e-13
5.717e-13
5.72838e-13
5.73996e-13
5.75197e-13
5.76456e-13
5.77808e-13
5.79311e-13
5.81248e-13
5.81669e-13
5.82498e-13
5.83596e-13
5.84022e-13
5.84589e-13
5.85231e-13
5.85919e-13
5.86629e-13
5.8735e-13
5.88077e-13
5.88762e-13
5.89412e-13
5.90068e-13
5.90733e-13
5.91394e-13
5.92063e-13
5.92702e-13
5.93308e-13
5.93886e-13
5.9447e-13
5.95032e-13
5.95572e-13
5.96102e-13
5.9664e-13
5.97192e-13
5.97755e-13
5.98333e-13
5.98936e-13
5.99644e-13
6.00006e-13
6.0044e-13
6.00942e-13
6.01294e-13
6.01676e-13
6.01981e-13
6.02288e-13
6.02568e-13
6.0285e-13
6.03114e-13
6.03372e-13
6.03635e-13
6.03908e-13
6.04185e-13
6.04473e-13
6.04771e-13
6.0508e-13
6.05395e-13
6.05716e-13
6.06031e-13
6.06346e-13
6.06671e-13
6.06891e-13
6.0713e-13
6.07315e-13
6.07514e-13
6.0761e-13
6.07721e-13
6.07766e-13
6.07806e-13
6.07853e-13
6.0791e-13
6.07983e-13
6.08082e-13
6.082e-13
6.08335e-13
6.08481e-13
6.08646e-13
6.08819e-13
6.08963e-13
6.09099e-13
6.09183e-13
6.09282e-13
6.09285e-13
6.09272e-13
6.09243e-13
6.0919e-13
6.09118e-13
6.09045e-13
6.08989e-13
6.08933e-13
6.08932e-13
6.08927e-13
6.08951e-13
6.08984e-13
6.0903e-13
6.09058e-13
6.09058e-13
6.09041e-13
6.09005e-13
6.08948e-13
6.08861e-13
6.08747e-13
6.08613e-13
6.08475e-13
6.08334e-13
6.08217e-13
6.08101e-13
6.07943e-13
6.07944e-13
6.0791e-13
6.07853e-13
6.07816e-13
6.07764e-13
6.07691e-13
6.07596e-13
6.07478e-13
6.07336e-13
6.07177e-13
6.06998e-13
6.06805e-13
6.06601e-13
6.06412e-13
6.06233e-13
6.06027e-13
6.05945e-13
6.05833e-13
6.05706e-13
6.05615e-13
6.05507e-13
6.05317e-13
4.15798e-13
4.15623e-13
4.15543e-13
4.16003e-13
4.17209e-13
4.18789e-13
4.20339e-13
4.21729e-13
4.22932e-13
4.23933e-13
4.24803e-13
4.25793e-13
4.26754e-13
4.27601e-13
4.28357e-13
4.29013e-13
4.29574e-13
4.30062e-13
4.30466e-13
4.30768e-13
4.31021e-13
4.312e-13
4.31296e-13
4.313e-13
4.31194e-13
4.30958e-13
4.30582e-13
4.30057e-13
4.29394e-13
4.28613e-13
4.27732e-13
4.2676e-13
4.2571e-13
4.24626e-13
4.23529e-13
4.2243e-13
4.21389e-13
4.20451e-13
4.19635e-13
4.18955e-13
4.18442e-13
4.18141e-13
4.18071e-13
4.18238e-13
4.1865e-13
4.19331e-13
4.20328e-13
4.21628e-13
4.23212e-13
4.25042e-13
4.2716e-13
4.29532e-13
4.32179e-13
4.35012e-13
4.38106e-13
4.41382e-13
4.4475e-13
4.4831e-13
4.51958e-13
4.55718e-13
4.59507e-13
4.63349e-13
4.6722e-13
4.71103e-13
4.75023e-13
4.78848e-13
4.82689e-13
4.86433e-13
4.90146e-13
4.93835e-13
4.97401e-13
5.01011e-13
5.04539e-13
5.07976e-13
5.11469e-13
5.14837e-13
5.18214e-13
5.21505e-13
5.24704e-13
5.27771e-13
5.30754e-13
5.33606e-13
5.36452e-13
5.39169e-13
5.4185e-13
5.44446e-13
5.46923e-13
5.49353e-13
5.51674e-13
5.53926e-13
5.56152e-13
5.58341e-13
5.60469e-13
5.62582e-13
5.64563e-13
5.66486e-13
5.68388e-13
5.70276e-13
5.72129e-13
5.73926e-13
5.75699e-13
5.77379e-13
5.78959e-13
5.80487e-13
5.81968e-13
5.83383e-13
5.84757e-13
5.86085e-13
5.87402e-13
5.88666e-13
5.89953e-13
5.91148e-13
5.92279e-13
5.93356e-13
5.94464e-13
5.95612e-13
5.96807e-13
5.98106e-13
5.99527e-13
6.01324e-13
6.01755e-13
6.02527e-13
6.03418e-13
6.03948e-13
6.04503e-13
6.05113e-13
6.05769e-13
6.06441e-13
6.07128e-13
6.07822e-13
6.08477e-13
6.09105e-13
6.09737e-13
6.10375e-13
6.1101e-13
6.11654e-13
6.12263e-13
6.12848e-13
6.13409e-13
6.13971e-13
6.14509e-13
6.15026e-13
6.15538e-13
6.16057e-13
6.16589e-13
6.17131e-13
6.17694e-13
6.18276e-13
6.18954e-13
6.19318e-13
6.1974e-13
6.20215e-13
6.2057e-13
6.20944e-13
6.21243e-13
6.21539e-13
6.21812e-13
6.22086e-13
6.22341e-13
6.22594e-13
6.22852e-13
6.23119e-13
6.23393e-13
6.23678e-13
6.23973e-13
6.24277e-13
6.2459e-13
6.24908e-13
6.25223e-13
6.25535e-13
6.25858e-13
6.26079e-13
6.26316e-13
6.26498e-13
6.26694e-13
6.26792e-13
6.26902e-13
6.26949e-13
6.26993e-13
6.27039e-13
6.27099e-13
6.27172e-13
6.27271e-13
6.27391e-13
6.27526e-13
6.27673e-13
6.27837e-13
6.28013e-13
6.28158e-13
6.28297e-13
6.28383e-13
6.28484e-13
6.28493e-13
6.28481e-13
6.28452e-13
6.284e-13
6.28327e-13
6.28255e-13
6.28195e-13
6.28134e-13
6.28133e-13
6.28117e-13
6.28141e-13
6.28168e-13
6.28209e-13
6.2823e-13
6.28228e-13
6.2821e-13
6.28169e-13
6.28108e-13
6.28017e-13
6.27897e-13
6.27756e-13
6.27611e-13
6.27462e-13
6.27335e-13
6.27205e-13
6.27037e-13
6.27023e-13
6.26978e-13
6.26915e-13
6.26866e-13
6.26805e-13
6.26723e-13
6.2662e-13
6.26493e-13
6.26341e-13
6.26169e-13
6.25976e-13
6.25767e-13
6.25546e-13
6.2534e-13
6.25141e-13
6.24921e-13
6.24822e-13
6.24694e-13
6.24554e-13
6.24446e-13
6.24322e-13
6.24107e-13
4.15851e-13
4.15703e-13
4.1594e-13
4.16865e-13
4.18287e-13
4.19814e-13
4.21187e-13
4.2232e-13
4.23182e-13
4.23869e-13
4.246e-13
4.25328e-13
4.25988e-13
4.26562e-13
4.27066e-13
4.27502e-13
4.27878e-13
4.28202e-13
4.28468e-13
4.28647e-13
4.28785e-13
4.28854e-13
4.28854e-13
4.28766e-13
4.28571e-13
4.28255e-13
4.27815e-13
4.27249e-13
4.26564e-13
4.25786e-13
4.24941e-13
4.24039e-13
4.23092e-13
4.22153e-13
4.21254e-13
4.204e-13
4.19653e-13
4.19068e-13
4.18671e-13
4.18488e-13
4.18547e-13
4.18887e-13
4.19551e-13
4.20538e-13
4.21864e-13
4.23536e-13
4.25626e-13
4.28108e-13
4.30945e-13
4.34043e-13
4.37522e-13
4.41275e-13
4.4534e-13
4.49581e-13
4.53999e-13
4.58642e-13
4.63308e-13
4.68143e-13
4.73061e-13
4.77952e-13
4.82875e-13
4.87669e-13
4.92499e-13
4.97165e-13
5.01898e-13
5.06321e-13
5.10748e-13
5.14923e-13
5.19015e-13
5.23016e-13
5.26794e-13
5.30654e-13
5.34307e-13
5.37846e-13
5.41393e-13
5.4475e-13
5.48101e-13
5.51318e-13
5.54399e-13
5.57294e-13
5.60112e-13
5.62723e-13
5.6537e-13
5.67835e-13
5.70295e-13
5.72632e-13
5.74861e-13
5.77029e-13
5.79092e-13
5.81076e-13
5.83052e-13
5.84987e-13
5.86877e-13
5.88737e-13
5.90467e-13
5.92139e-13
5.93808e-13
5.95459e-13
5.97085e-13
5.98657e-13
6.00221e-13
6.0168e-13
6.03049e-13
6.04375e-13
6.05641e-13
6.06849e-13
6.08018e-13
6.09156e-13
6.10282e-13
6.11367e-13
6.12474e-13
6.13492e-13
6.14464e-13
6.15399e-13
6.16374e-13
6.17383e-13
6.18421e-13
6.19568e-13
6.20809e-13
6.22347e-13
6.22769e-13
6.23394e-13
6.24012e-13
6.24587e-13
6.25041e-13
6.25546e-13
6.26105e-13
6.26669e-13
6.27254e-13
6.27846e-13
6.28405e-13
6.2895e-13
6.29496e-13
6.30043e-13
6.30592e-13
6.3115e-13
6.31673e-13
6.32182e-13
6.32673e-13
6.33158e-13
6.33621e-13
6.34066e-13
6.34509e-13
6.34959e-13
6.35421e-13
6.35891e-13
6.36391e-13
6.36903e-13
6.37497e-13
6.37829e-13
6.38197e-13
6.386e-13
6.38919e-13
6.39248e-13
6.39504e-13
6.39753e-13
6.39983e-13
6.40211e-13
6.40424e-13
6.40636e-13
6.40856e-13
6.4108e-13
6.41317e-13
6.41567e-13
6.41825e-13
6.42092e-13
6.42371e-13
6.42654e-13
6.42939e-13
6.43216e-13
6.43506e-13
6.43701e-13
6.43905e-13
6.44059e-13
6.44224e-13
6.44298e-13
6.4438e-13
6.44406e-13
6.44429e-13
6.44454e-13
6.44495e-13
6.44546e-13
6.44624e-13
6.44724e-13
6.4484e-13
6.44963e-13
6.45106e-13
6.45261e-13
6.4539e-13
6.45509e-13
6.45579e-13
6.45658e-13
6.45658e-13
6.45636e-13
6.45592e-13
6.45524e-13
6.45437e-13
6.45352e-13
6.45274e-13
6.45198e-13
6.4518e-13
6.45136e-13
6.45155e-13
6.45159e-13
6.45185e-13
6.45188e-13
6.45174e-13
6.45141e-13
6.45086e-13
6.45011e-13
6.44907e-13
6.44773e-13
6.44617e-13
6.44457e-13
6.44292e-13
6.44149e-13
6.44e-13
6.43816e-13
6.43778e-13
6.43714e-13
6.43637e-13
6.4357e-13
6.43493e-13
6.43396e-13
6.43279e-13
6.43138e-13
6.42972e-13
6.42783e-13
6.42573e-13
6.42346e-13
6.42103e-13
6.41878e-13
6.41656e-13
6.41418e-13
6.41298e-13
6.41152e-13
6.40998e-13
6.40869e-13
6.40725e-13
6.40482e-13
4.15868e-13
4.15876e-13
4.16486e-13
4.17688e-13
4.19163e-13
4.2056e-13
4.21702e-13
4.22548e-13
4.23146e-13
4.23689e-13
4.24221e-13
4.24702e-13
4.25119e-13
4.25479e-13
4.25797e-13
4.26079e-13
4.26319e-13
4.26517e-13
4.26667e-13
4.26745e-13
4.26784e-13
4.26766e-13
4.26685e-13
4.2652e-13
4.26255e-13
4.25883e-13
4.25407e-13
4.24827e-13
4.24151e-13
4.23415e-13
4.22649e-13
4.21871e-13
4.21094e-13
4.20383e-13
4.19778e-13
4.1928e-13
4.18969e-13
4.18899e-13
4.19135e-13
4.19684e-13
4.20595e-13
4.21909e-13
4.23705e-13
4.25993e-13
4.28775e-13
4.32003e-13
4.35832e-13
4.40173e-13
4.44969e-13
4.50037e-13
4.55518e-13
4.61339e-13
4.67356e-13
4.73737e-13
4.79767e-13
4.86295e-13
4.92902e-13
4.99301e-13
5.06051e-13
5.12274e-13
5.18809e-13
5.24647e-13
5.30739e-13
5.36212e-13
5.41883e-13
5.46858e-13
5.51879e-13
5.56381e-13
5.60782e-13
5.6493e-13
5.6871e-13
5.72599e-13
5.76061e-13
5.79425e-13
5.82651e-13
5.8566e-13
5.88628e-13
5.91413e-13
5.94004e-13
5.96358e-13
5.98652e-13
6.00621e-13
6.0273e-13
6.04596e-13
6.06518e-13
6.08274e-13
6.09947e-13
6.11554e-13
6.13048e-13
6.14493e-13
6.1593e-13
6.17338e-13
6.18743e-13
6.20123e-13
6.21395e-13
6.22612e-13
6.23871e-13
6.25102e-13
6.26331e-13
6.27514e-13
6.28711e-13
6.29791e-13
6.30805e-13
6.31792e-13
6.32712e-13
6.3359e-13
6.3444e-13
6.35276e-13
6.36101e-13
6.36902e-13
6.37724e-13
6.38463e-13
6.39176e-13
6.39883e-13
6.40628e-13
6.41407e-13
6.42186e-13
6.43081e-13
6.44043e-13
6.45203e-13
6.4563e-13
6.45957e-13
6.46296e-13
6.46781e-13
6.47093e-13
6.47426e-13
6.47826e-13
6.48212e-13
6.48628e-13
6.49045e-13
6.49447e-13
6.49843e-13
6.5024e-13
6.50634e-13
6.51038e-13
6.51451e-13
6.51831e-13
6.52207e-13
6.52574e-13
6.52932e-13
6.53267e-13
6.53591e-13
6.53919e-13
6.54249e-13
6.54595e-13
6.54944e-13
6.55331e-13
6.55726e-13
6.56183e-13
6.56454e-13
6.56716e-13
6.57005e-13
6.57247e-13
6.57494e-13
6.57672e-13
6.57839e-13
6.57991e-13
6.58138e-13
6.58274e-13
6.58409e-13
6.58557e-13
6.58704e-13
6.58873e-13
6.59054e-13
6.59244e-13
6.59441e-13
6.59654e-13
6.5987e-13
6.60094e-13
6.60306e-13
6.60532e-13
6.60675e-13
6.60816e-13
6.60917e-13
6.61021e-13
6.61049e-13
6.61076e-13
6.61061e-13
6.61035e-13
6.61022e-13
6.61016e-13
6.61023e-13
6.6106e-13
6.61113e-13
6.61196e-13
6.61265e-13
6.61366e-13
6.6148e-13
6.61573e-13
6.61648e-13
6.61684e-13
6.6172e-13
6.61698e-13
6.61646e-13
6.6157e-13
6.61471e-13
6.61355e-13
6.61241e-13
6.61132e-13
6.61025e-13
6.60974e-13
6.6089e-13
6.60888e-13
6.60855e-13
6.60852e-13
6.60826e-13
6.60784e-13
6.60724e-13
6.60642e-13
6.60542e-13
6.60413e-13
6.60255e-13
6.60075e-13
6.5989e-13
6.59701e-13
6.59533e-13
6.59356e-13
6.59149e-13
6.59076e-13
6.58984e-13
6.58883e-13
6.58789e-13
6.58688e-13
6.58569e-13
6.58431e-13
6.5827e-13
6.58083e-13
6.57872e-13
6.57638e-13
6.57387e-13
6.57119e-13
6.56869e-13
6.56619e-13
6.56359e-13
6.56211e-13
6.56042e-13
6.55869e-13
6.55714e-13
6.55546e-13
6.5527e-13
4.15883e-13
4.16077e-13
4.17015e-13
4.18396e-13
4.19834e-13
4.21046e-13
4.21952e-13
4.22562e-13
4.23014e-13
4.23392e-13
4.23727e-13
4.24006e-13
4.24249e-13
4.24463e-13
4.24647e-13
4.24806e-13
4.24934e-13
4.25029e-13
4.25075e-13
4.2507e-13
4.25035e-13
4.24946e-13
4.24798e-13
4.24576e-13
4.24266e-13
4.23865e-13
4.23385e-13
4.22831e-13
4.22211e-13
4.21572e-13
4.20954e-13
4.20384e-13
4.19875e-13
4.19513e-13
4.19358e-13
4.19429e-13
4.19797e-13
4.20554e-13
4.21799e-13
4.2355e-13
4.25868e-13
4.28781e-13
4.32434e-13
4.36806e-13
4.41879e-13
4.47493e-13
4.53935e-13
4.61027e-13
4.68616e-13
4.76722e-13
4.84736e-13
4.93421e-13
5.01801e-13
5.1109e-13
5.19036e-13
5.27744e-13
5.37111e-13
5.45196e-13
5.54177e-13
5.61873e-13
5.70299e-13
5.77191e-13
5.84604e-13
5.90861e-13
5.97526e-13
6.03071e-13
6.08672e-13
6.13356e-13
6.17936e-13
6.21969e-13
6.25611e-13
6.29162e-13
6.32213e-13
6.35131e-13
6.37649e-13
6.40103e-13
6.42289e-13
6.44367e-13
6.46075e-13
6.47562e-13
6.4889e-13
6.49914e-13
6.51036e-13
6.52036e-13
6.52888e-13
6.5374e-13
6.54373e-13
6.55117e-13
6.55589e-13
6.56193e-13
6.56683e-13
6.57236e-13
6.57766e-13
6.58383e-13
6.58866e-13
6.59377e-13
6.59961e-13
6.60517e-13
6.61085e-13
6.61631e-13
6.62214e-13
6.62704e-13
6.63184e-13
6.63659e-13
6.64074e-13
6.6447e-13
6.64859e-13
6.65246e-13
6.65639e-13
6.66011e-13
6.66424e-13
6.66754e-13
6.67092e-13
6.67452e-13
6.67851e-13
6.68311e-13
6.68732e-13
6.69273e-13
6.69835e-13
6.70525e-13
6.70873e-13
6.70827e-13
6.70892e-13
6.71134e-13
6.71245e-13
6.71358e-13
6.71521e-13
6.71665e-13
6.71821e-13
6.71997e-13
6.72168e-13
6.7235e-13
6.72538e-13
6.72724e-13
6.72918e-13
6.73128e-13
6.73303e-13
6.73492e-13
6.73677e-13
6.73859e-13
6.74012e-13
6.74165e-13
6.74328e-13
6.74492e-13
6.74675e-13
6.74853e-13
6.75081e-13
6.75307e-13
6.75578e-13
6.75744e-13
6.75859e-13
6.75996e-13
6.76121e-13
6.76243e-13
6.76307e-13
6.76357e-13
6.76395e-13
6.76428e-13
6.76449e-13
6.76477e-13
6.76516e-13
6.76559e-13
6.76622e-13
6.76701e-13
6.76797e-13
6.76883e-13
6.77005e-13
6.7712e-13
6.77251e-13
6.77367e-13
6.77495e-13
6.77563e-13
6.77614e-13
6.77635e-13
6.77648e-13
6.77609e-13
6.77559e-13
6.77478e-13
6.7738e-13
6.77305e-13
6.77226e-13
6.77169e-13
6.77145e-13
6.77119e-13
6.77156e-13
6.77142e-13
6.77183e-13
6.77235e-13
6.77267e-13
6.77279e-13
6.77259e-13
6.77239e-13
6.77173e-13
6.77073e-13
6.76947e-13
6.76801e-13
6.76641e-13
6.76481e-13
6.76326e-13
6.76173e-13
6.76074e-13
6.75939e-13
6.7589e-13
6.75815e-13
6.75763e-13
6.75694e-13
6.75609e-13
6.75508e-13
6.75387e-13
6.75248e-13
6.75084e-13
6.74891e-13
6.74675e-13
6.74455e-13
6.74232e-13
6.74028e-13
6.73814e-13
6.73577e-13
6.73455e-13
6.73325e-13
6.73189e-13
6.7306e-13
6.72925e-13
6.72774e-13
6.72607e-13
6.72417e-13
6.72202e-13
6.71962e-13
6.71699e-13
6.71417e-13
6.71118e-13
6.70836e-13
6.70552e-13
6.70264e-13
6.7008e-13
6.69881e-13
6.69684e-13
6.69496e-13
6.693e-13
6.68983e-13
4.15891e-13
4.16335e-13
4.17522e-13
4.18966e-13
4.20298e-13
4.21323e-13
4.22029e-13
4.22482e-13
4.22786e-13
4.23024e-13
4.23197e-13
4.23331e-13
4.23447e-13
4.23547e-13
4.23631e-13
4.23693e-13
4.23727e-13
4.23735e-13
4.23709e-13
4.23641e-13
4.23543e-13
4.23402e-13
4.23208e-13
4.22955e-13
4.22632e-13
4.2224e-13
4.21801e-13
4.21327e-13
4.20828e-13
4.20366e-13
4.19998e-13
4.19765e-13
4.1969e-13
4.19907e-13
4.20505e-13
4.2153e-13
4.23066e-13
4.25206e-13
4.2809e-13
4.31788e-13
4.36373e-13
4.41755e-13
4.48239e-13
4.55695e-13
4.6405e-13
4.73212e-13
4.82855e-13
4.93599e-13
5.0456e-13
5.16821e-13
5.27443e-13
5.39569e-13
5.50579e-13
5.63042e-13
5.73517e-13
5.84534e-13
5.96877e-13
6.06645e-13
6.17881e-13
6.26874e-13
6.36815e-13
6.44555e-13
6.52806e-13
6.59524e-13
6.66562e-13
6.72409e-13
6.78038e-13
6.82693e-13
6.8704e-13
6.90673e-13
6.93987e-13
6.96756e-13
6.9943e-13
7.01591e-13
7.03347e-13
7.05241e-13
7.0631e-13
7.07921e-13
7.08376e-13
7.09261e-13
7.09268e-13
7.09648e-13
7.09355e-13
7.09773e-13
7.09128e-13
7.09203e-13
7.08391e-13
7.08295e-13
7.07408e-13
7.07118e-13
7.06324e-13
7.05921e-13
7.052e-13
7.04842e-13
7.0415e-13
7.03805e-13
7.03282e-13
7.02933e-13
7.02509e-13
7.02159e-13
7.01849e-13
7.01486e-13
7.01231e-13
7.00957e-13
7.00667e-13
7.00378e-13
7.00117e-13
6.99845e-13
6.99638e-13
6.99371e-13
6.99208e-13
6.98964e-13
6.98819e-13
6.98636e-13
6.98609e-13
6.98647e-13
6.98612e-13
6.98667e-13
6.9864e-13
6.98834e-13
6.98899e-13
6.98539e-13
6.98191e-13
6.98086e-13
6.97935e-13
6.97781e-13
6.97581e-13
6.97426e-13
6.97215e-13
6.97099e-13
6.96954e-13
6.9687e-13
6.96787e-13
6.9671e-13
6.96613e-13
6.96566e-13
6.96469e-13
6.96423e-13
6.96367e-13
6.96322e-13
6.96233e-13
6.96169e-13
6.96111e-13
6.96071e-13
6.96039e-13
6.96e-13
6.96018e-13
6.9601e-13
6.96067e-13
6.96059e-13
6.96007e-13
6.95953e-13
6.95911e-13
6.95861e-13
6.95779e-13
6.95681e-13
6.95565e-13
6.95454e-13
6.95318e-13
6.95215e-13
6.95098e-13
6.95019e-13
6.94928e-13
6.94879e-13
6.94852e-13
6.94787e-13
6.94794e-13
6.94774e-13
6.94779e-13
6.94764e-13
6.94769e-13
6.94733e-13
6.9467e-13
6.9458e-13
6.94486e-13
6.94348e-13
6.94198e-13
6.94024e-13
6.93836e-13
6.9367e-13
6.93501e-13
6.93355e-13
6.93244e-13
6.93121e-13
6.93076e-13
6.92975e-13
6.92929e-13
6.92894e-13
6.92844e-13
6.92774e-13
6.92679e-13
6.92582e-13
6.9245e-13
6.92284e-13
6.92092e-13
6.91881e-13
6.91662e-13
6.91441e-13
6.91224e-13
6.91009e-13
6.90846e-13
6.90647e-13
6.90532e-13
6.90398e-13
6.90284e-13
6.90156e-13
6.90013e-13
6.89857e-13
6.89683e-13
6.89492e-13
6.8928e-13
6.8904e-13
6.88778e-13
6.88513e-13
6.88245e-13
6.87995e-13
6.87733e-13
6.87457e-13
6.87268e-13
6.87094e-13
6.86913e-13
6.86737e-13
6.86558e-13
6.86365e-13
6.86159e-13
6.85931e-13
6.8568e-13
6.85403e-13
6.85102e-13
6.84784e-13
6.84447e-13
6.84126e-13
6.838e-13
6.83481e-13
6.83248e-13
6.83014e-13
6.82785e-13
6.82558e-13
6.82327e-13
6.81961e-13
4.15974e-13
4.16648e-13
4.17974e-13
4.19406e-13
4.20598e-13
4.21458e-13
4.22002e-13
4.22314e-13
4.2251e-13
4.22625e-13
4.22682e-13
4.22716e-13
4.22738e-13
4.22749e-13
4.22751e-13
4.22741e-13
4.22708e-13
4.22651e-13
4.22567e-13
4.22454e-13
4.22317e-13
4.22146e-13
4.21935e-13
4.21684e-13
4.21388e-13
4.21053e-13
4.20715e-13
4.20396e-13
4.20118e-13
4.19957e-13
4.20013e-13
4.20366e-13
4.21078e-13
4.22288e-13
4.24147e-13
4.2675e-13
4.30183e-13
4.34473e-13
4.39879e-13
4.46502e-13
4.54456e-13
4.63366e-13
4.73527e-13
4.84989e-13
4.97329e-13
5.11381e-13
5.24243e-13
5.39344e-13
5.53817e-13
5.71054e-13
5.84205e-13
5.99923e-13
6.13444e-13
6.28523e-13
6.42005e-13
6.54445e-13
6.68699e-13
6.80001e-13
6.92519e-13
7.02515e-13
7.12375e-13
7.20745e-13
7.28497e-13
7.35437e-13
7.41625e-13
7.47515e-13
7.52086e-13
7.56624e-13
7.59828e-13
7.63054e-13
7.65501e-13
7.67271e-13
7.69643e-13
7.70435e-13
7.72077e-13
7.7294e-13
7.72967e-13
7.74398e-13
7.73436e-13
7.74225e-13
7.72962e-13
7.73081e-13
7.71633e-13
7.71631e-13
7.69922e-13
7.69377e-13
7.67571e-13
7.66723e-13
7.64895e-13
7.6378e-13
7.62059e-13
7.60768e-13
7.59111e-13
7.57762e-13
7.56115e-13
7.54851e-13
7.53346e-13
7.52036e-13
7.50583e-13
7.49255e-13
7.47933e-13
7.46576e-13
7.45407e-13
7.44206e-13
7.4301e-13
7.41847e-13
7.40741e-13
7.39636e-13
7.38619e-13
7.37573e-13
7.36619e-13
7.35644e-13
7.34853e-13
7.34035e-13
7.33412e-13
7.32907e-13
7.32322e-13
7.31719e-13
7.30958e-13
7.30535e-13
7.30147e-13
7.29355e-13
7.28517e-13
7.28004e-13
7.27448e-13
7.26929e-13
7.26327e-13
7.25768e-13
7.25142e-13
7.24637e-13
7.24121e-13
7.23694e-13
7.23263e-13
7.22851e-13
7.22411e-13
7.22028e-13
7.2161e-13
7.21264e-13
7.2091e-13
7.2057e-13
7.202e-13
7.19864e-13
7.19534e-13
7.1924e-13
7.18936e-13
7.18639e-13
7.18382e-13
7.18103e-13
7.17901e-13
7.17675e-13
7.17407e-13
7.17126e-13
7.16867e-13
7.16616e-13
7.16342e-13
7.16057e-13
7.15754e-13
7.15458e-13
7.1514e-13
7.14864e-13
7.1457e-13
7.14323e-13
7.14057e-13
7.1384e-13
7.13645e-13
7.13415e-13
7.1326e-13
7.13088e-13
7.12929e-13
7.12761e-13
7.12612e-13
7.12436e-13
7.12234e-13
7.12008e-13
7.11779e-13
7.11516e-13
7.11241e-13
7.10951e-13
7.10651e-13
7.10372e-13
7.10091e-13
7.09834e-13
7.09611e-13
7.09379e-13
7.09215e-13
7.09013e-13
7.08852e-13
7.0871e-13
7.08556e-13
7.08385e-13
7.08195e-13
7.08002e-13
7.07783e-13
7.07533e-13
7.07257e-13
7.06966e-13
7.0667e-13
7.06373e-13
7.06079e-13
7.05787e-13
7.05543e-13
7.05265e-13
7.0507e-13
7.04859e-13
7.04667e-13
7.04463e-13
7.04248e-13
7.04022e-13
7.03781e-13
7.03525e-13
7.03251e-13
7.02953e-13
7.02634e-13
7.02311e-13
7.01987e-13
7.0168e-13
7.0136e-13
7.01036e-13
7.00765e-13
7.00536e-13
7.003e-13
7.00066e-13
6.99831e-13
6.99586e-13
6.99331e-13
6.99057e-13
6.9876e-13
6.98437e-13
6.98092e-13
6.97729e-13
6.97347e-13
6.9698e-13
6.96605e-13
6.96248e-13
6.95951e-13
6.9568e-13
6.9541e-13
6.95138e-13
6.94864e-13
6.94439e-13
4.16169e-13
4.16968e-13
4.1835e-13
4.19726e-13
4.20781e-13
4.21499e-13
4.21907e-13
4.221e-13
4.22208e-13
4.22232e-13
4.22214e-13
4.22175e-13
4.22127e-13
4.22074e-13
4.22016e-13
4.2195e-13
4.21869e-13
4.21768e-13
4.2165e-13
4.21515e-13
4.21363e-13
4.21189e-13
4.20995e-13
4.20789e-13
4.20569e-13
4.20357e-13
4.2021e-13
4.20165e-13
4.20285e-13
4.20679e-13
4.21488e-13
4.22855e-13
4.24885e-13
4.27716e-13
4.31559e-13
4.36598e-13
4.42893e-13
4.5017e-13
4.59175e-13
4.697e-13
4.81929e-13
4.9567e-13
5.09649e-13
5.25832e-13
5.42515e-13