/*--------------------------------*- C++ -*----------------------------------*\
| =========                 |                                                 |
| \\      /  F ield         | OpenFOAM: The Open Source CFD Toolbox           |
|  \\    /   O peration     | Version:  2312                                  |
|   \\  /    A nd           | Website:  www.openfoam.com                      |
|    \\/     M anipulation  |                                                 |
\*---------------------------------------------------------------------------*/
FoamFile
{
    version     2.0;
    format      ascii;
    arch        "LSB;label=32;scalar=64";
    class       volVectorField;
    location    "0.003";
    object      U;
}
// * * * * * * * * * * * * * * * * * * * * * * * * * * * * * * * * * * * * * //

dimensions      [0 1 -1 0 0 0 0];

internalField   nonuniform List<vector> 
48128
(
(2.9501 -1.10438 0)
(6.7162 -0.530987 0)
(7.94642 0.0640277 0)
(7.51146 -0.102817 0)
(7.27748 -0.843631 0)
(6.06623 -0.410011 0)
(0.169952 1.52005 0)
(-10.3104 2.45977 0)
(-26.187 4.42627 0)
(-45.9959 5.64099 0)
(-64.6842 4.9408 0)
(-81.3687 4.36105 0)
(-96.1189 3.5825 0)
(-108.904 2.79316 0)
(-119.939 2.21657 0)
(-129.498 2.17609 0)
(-137.981 1.98508 0)
(-145.664 1.91041 0)
(-152.564 1.83219 0)
(-158.718 1.77254 0)
(-164.453 1.7269 0)
(-169.721 1.67711 0)
(-174.469 1.62247 0)
(-178.663 1.55355 0)
(-182.255 1.47298 0)
(-185.192 1.39136 0)
(-187.439 1.33913 0)
(-188.973 1.31872 0)
(-189.787 1.25374 0)
(-190.017 1.15338 0)
(-189.487 0.892088 0)
(-187.965 0.746239 0)
(-185.601 0.612828 0)
(-182.467 0.458552 0)
(-178.533 0.288727 0)
(-173.759 0.139447 0)
(-168.271 -0.0807113 0)
(-162.229 -0.255986 0)
(-155.528 -0.482253 0)
(-148.206 -0.681193 0)
(-140.369 -0.8849 0)
(-132.056 -1.07397 0)
(-123.213 -1.37426 0)
(-113.671 -1.58093 0)
(-103.779 -1.77111 0)
(-93.6279 -1.85058 0)
(-83.3898 -2.06501 0)
(-72.6948 -2.25823 0)
(-61.6846 -2.50403 0)
(-50.4043 -2.57218 0)
(-39.1031 -2.7458 0)
(-27.7395 -2.74295 0)
(-16.3399 -2.90252 0)
(-5.17165 -2.97059 0)
(5.70866 -2.70966 0)
(16.7245 -2.87331 0)
(27.6258 -2.83117 0)
(38.6081 -2.93218 0)
(49.4307 -2.91543 0)
(60.0677 -2.90344 0)
(70.4489 -2.8675 0)
(80.5619 -2.82382 0)
(90.4289 -2.78901 0)
(100.064 -2.74237 0)
(109.52 -2.72169 0)
(118.704 -2.65286 0)
(127.671 -2.595 0)
(136.36 -2.55007 0)
(144.697 -2.55404 0)
(152.846 -2.51613 0)
(160.708 -2.43779 0)
(168.385 -2.39008 0)
(175.932 -2.3126 0)
(183.155 -2.22572 0)
(190.322 -2.16864 0)
(197.141 -2.06703 0)
(203.907 -2.00885 0)
(210.316 -1.89979 0)
(216.596 -1.81436 0)
(222.432 -1.69562 0)
(228.09 -1.61604 0)
(233.379 -1.5199 0)
(238.576 -1.46335 0)
(243.51 -1.38415 0)
(248.378 -1.33398 0)
(252.977 -1.24094 0)
(257.376 -1.18282 0)
(261.526 -1.09852 0)
(265.456 -1.04155 0)
(269.145 -0.974891 0)
(272.741 -0.936974 0)
(276.181 -0.877414 0)
(279.495 -0.839739 0)
(282.679 -0.782862 0)
(285.671 -0.732761 0)
(288.504 -0.690407 0)
(291.261 -0.662631 0)
(293.982 -0.62948 0)
(296.619 -0.589937 0)
(299.138 -0.556854 0)
(301.565 -0.516258 0)
(303.816 -0.475601 0)
(305.873 -0.438746 0)
(307.773 -0.411839 0)
(309.598 -0.38411 0)
(311.292 -0.361721 0)
(312.904 -0.337494 0)
(314.402 -0.321881 0)
(315.867 -0.300405 0)
(317.237 -0.289375 0)
(318.619 -0.272038 0)
(319.867 -0.250004 0)
(320.966 -0.234223 0)
(321.997 -0.21999 0)
(323.042 -0.224076 0)
(324.164 -0.218445 0)
(325.407 -0.21087 0)
(326.765 -0.17966 0)
(328.412 -0.210727 0)
(330.617 -0.161698 0)
(330.46 -0.0863063 0)
(330.986 -0.0572927 0)
(332.114 -0.113673 0)
(331.793 -0.0580761 0)
(331.989 -0.0992156 0)
(332.288 -0.112819 0)
(332.676 -0.115159 0)
(333.141 -0.108395 0)
(333.642 -0.10715 0)
(334.162 -0.106089 0)
(334.629 -0.100895 0)
(335.059 -0.0959317 0)
(335.506 -0.0960523 0)
(335.972 -0.0888034 0)
(336.45 -0.0851516 0)
(336.934 -0.0793845 0)
(337.395 -0.0721041 0)
(337.795 -0.0674029 0)
(338.168 -0.0617112 0)
(338.55 -0.0573914 0)
(338.917 -0.0535718 0)
(339.25 -0.0504879 0)
(339.571 -0.0471514 0)
(339.902 -0.0440154 0)
(340.251 -0.041842 0)
(340.622 -0.0330573 0)
(340.975 -0.0225767 0)
(341.371 -0.0195659 0)
(341.91 -0.0144031 0)
(341.89 0.0135607 0)
(342 0.0214406 0)
(342.225 0.0104689 0)
(342.18 0.0268639 0)
(342.213 0.0184115 0)
(342.162 0.0229215 0)
(342.112 0.0222212 0)
(342.051 0.0203449 0)
(341.992 0.0190349 0)
(341.926 0.0166202 0)
(341.874 0.0165556 0)
(341.819 0.01396 0)
(341.825 0.00905845 0)
(341.84 0.0110333 0)
(341.876 0.00967293 0)
(341.937 0.0135762 0)
(342.025 0.0148091 0)
(342.124 0.0159967 0)
(342.233 0.0176639 0)
(342.34 0.0200586 0)
(342.459 0.018869 0)
(342.561 0.0254516 0)
(342.546 0.0216031 0)
(342.545 0.0220837 0)
(342.512 0.0205968 0)
(342.442 0.0221383 0)
(342.308 0.0220363 0)
(342.152 0.0236506 0)
(341.955 0.0224834 0)
(341.745 0.0213421 0)
(341.555 0.0195888 0)
(341.402 0.0174209 0)
(341.28 0.0164184 0)
(341.229 0.00633224 0)
(341.229 0.00859895 0)
(341.253 0.00709854 0)
(341.299 0.00649935 0)
(341.37 0.00667245 0)
(341.445 0.00841044 0)
(341.506 0.00724769 0)
(341.508 0.0156566 0)
(341.482 0.014867 0)
(341.429 0.0178798 0)
(341.314 0.0139004 0)
(341.163 0.0163059 0)
(340.994 0.0156411 0)
(340.8 0.0148578 0)
(340.586 0.0141453 0)
(340.383 0.0119021 0)
(340.233 0.00991377 0)
(340.091 0.00854114 0)
(340.043 0.00775695 0)
(339.981 0.00810747 0)
(339.989 0.00642165 0)
(340.005 0.0073633 0)
(340.032 0.00878511 0)
(340.023 0.0110086 0)
(339.993 0.0116057 0)
(339.933 0.0142566 0)
(339.842 0.0140622 0)
(339.72 0.015872 0)
(339.563 0.0146941 0)
(339.375 0.015626 0)
(339.167 0.0146987 0)
(338.971 0.013365 0)
(338.782 0.0117382 0)
(338.638 0.00959954 0)
(338.511 0.00947172 0)
(338.352 0.00794986 0)
(338.4 0.00452008 0)
(338.372 0.00739121 0)
(338.317 0.00973167 0)
(338.298 0.00851246 0)
(338.254 0.0102757 0)
(338.183 0.0123827 0)
(338.083 0.0127491 0)
(337.956 0.0129899 0)
(337.802 0.013715 0)
(337.631 0.0128325 0)
(337.439 0.013275 0)
(337.234 0.0124347 0)
(337.022 0.0118452 0)
(336.833 0.0092187 0)
(336.669 0.00914174 0)
(336.481 0.00802585 0)
(336.46 0.00503236 0)
(336.394 0.00583472 0)
(336.313 0.00797169 0)
(336.289 0.00678028 0)
(336.238 0.0084458 0)
(336.117 0.0104738 0)
(5.39011 -5.11541 0)
(9.18805 -2.4213 0)
(10.8453 -0.0838907 0)
(9.32274 0.493147 0)
(5.54906 1.53014 0)
(-4.98252 4.85798 0)
(-20.8406 8.86518 0)
(-41.9541 12.8331 0)
(-63.0627 15.4313 0)
(-81.6333 15.3238 0)
(-98.0151 13.2862 0)
(-112.522 11.2476 0)
(-125.073 9.62789 0)
(-135.612 8.47082 0)
(-144.3 7.89188 0)
(-151.654 6.83581 0)
(-157.998 6.12628 0)
(-163.512 5.57945 0)
(-168.234 5.15396 0)
(-172.199 4.78431 0)
(-175.733 4.50149 0)
(-178.791 4.21519 0)
(-181.331 3.93671 0)
(-183.326 3.64624 0)
(-184.739 3.35887 0)
(-185.548 3.10099 0)
(-185.803 2.87408 0)
(-185.439 2.52737 0)
(-184.173 2.25678 0)
(-182.018 1.91572 0)
(-179.046 1.46515 0)
(-175.258 1.03514 0)
(-170.707 0.651909 0)
(-165.404 0.230236 0)
(-159.359 -0.257358 0)
(-152.659 -0.608277 0)
(-145.34 -1.03421 0)
(-137.486 -1.44288 0)
(-129.04 -1.92812 0)
(-120.03 -2.36794 0)
(-110.546 -2.79969 0)
(-100.668 -3.15501 0)
(-90.4046 -3.77046 0)
(-79.5729 -4.24792 0)
(-68.411 -4.70038 0)
(-56.9932 -4.88232 0)
(-45.4757 -5.29889 0)
(-33.5724 -5.69605 0)
(-21.3816 -6.20824 0)
(-9.08463 -6.37144 0)
(3.21423 -6.72236 0)
(15.4777 -6.82447 0)
(27.7157 -7.10892 0)
(39.8138 -7.16955 0)
(51.9843 -7.16952 0)
(64.1837 -7.4675 0)
(76.1203 -7.49479 0)
(87.7893 -7.58951 0)
(99.1845 -7.55172 0)
(110.329 -7.51259 0)
(121.161 -7.40806 0)
(131.682 -7.29354 0)
(141.912 -7.18848 0)
(151.868 -7.06726 0)
(161.598 -6.98585 0)
(170.994 -6.79329 0)
(180.153 -6.67122 0)
(189.017 -6.42815 0)
(197.581 -6.21314 0)
(205.95 -6.04164 0)
(214.007 -5.84534 0)
(221.836 -5.7275 0)
(229.493 -5.53544 0)
(236.785 -5.34769 0)
(243.999 -5.20126 0)
(250.848 -4.97816 0)
(257.624 -4.83692 0)
(264.054 -4.59823 0)
(270.335 -4.40007 0)
(276.212 -4.15089 0)
(281.901 -3.9739 0)
(287.255 -3.76488 0)
(292.487 -3.63212 0)
(297.494 -3.45457 0)
(302.379 -3.32821 0)
(307.061 -3.12491 0)
(311.496 -2.98794 0)
(315.746 -2.80627 0)
(319.748 -2.67716 0)
(323.565 -2.52844 0)
(327.239 -2.42983 0)
(330.808 -2.2952 0)
(334.212 -2.20017 0)
(337.53 -2.07499 0)
(340.66 -1.96708 0)
(343.647 -1.87199 0)
(346.559 -1.79666 0)
(349.414 -1.71162 0)
(352.208 -1.62063 0)
(354.877 -1.54151 0)
(357.477 -1.45214 0)
(359.916 -1.3686 0)
(362.194 -1.29214 0)
(364.318 -1.23004 0)
(366.385 -1.16516 0)
(368.313 -1.1114 0)
(370.176 -1.05487 0)
(371.912 -1.01229 0)
(373.629 -0.959688 0)
(375.234 -0.923546 0)
(376.852 -0.878935 0)
(378.343 -0.834007 0)
(379.71 -0.796585 0)
(380.998 -0.764721 0)
(382.286 -0.752005 0)
(383.626 -0.7272 0)
(385.056 -0.663303 0)
(386.575 -0.641801 0)
(388.305 -0.55275 0)
(390.638 -0.738013 0)
(390.934 -0.41495 0)
(391.751 -0.330637 0)
(393.142 -0.538943 0)
(393.292 -0.410736 0)
(393.725 -0.44213 0)
(394.287 -0.452868 0)
(394.921 -0.451101 0)
(395.603 -0.421462 0)
(396.303 -0.410029 0)
(397.012 -0.399879 0)
(397.674 -0.386045 0)
(398.29 -0.3736 0)
(398.914 -0.36337 0)
(399.549 -0.3414 0)
(400.187 -0.327558 0)
(400.83 -0.310315 0)
(401.447 -0.294777 0)
(402.018 -0.283046 0)
(402.557 -0.268868 0)
(403.103 -0.253491 0)
(403.628 -0.242379 0)
(404.123 -0.231726 0)
(404.599 -0.220803 0)
(405.079 -0.207521 0)
(405.568 -0.197013 0)
(406.073 -0.171088 0)
(406.58 -0.164551 0)
(407.122 -0.133231 0)
(407.785 -0.175699 0)
(408.04 -0.103222 0)
(408.387 -0.0804432 0)
(408.826 -0.117202 0)
(409.068 -0.0835348 0)
(409.358 -0.098739 0)
(409.568 -0.0898268 0)
(409.784 -0.0874128 0)
(409.975 -0.087883 0)
(410.171 -0.0838282 0)
(410.347 -0.0829193 0)
(410.521 -0.0794986 0)
(410.702 -0.0745395 0)
(410.897 -0.0758205 0)
(411.101 -0.0668274 0)
(411.317 -0.0637934 0)
(411.549 -0.0518239 0)
(411.798 -0.043244 0)
(412.053 -0.03872 0)
(412.315 -0.0308963 0)
(412.571 -0.0259446 0)
(412.831 -0.018439 0)
(413.094 -0.0157069 0)
(413.246 -0.0121354 0)
(413.419 -0.0076263 0)
(413.538 -0.00849167 0)
(413.669 -0.0102582 0)
(413.689 -0.00938182 0)
(413.717 -0.0122486 0)
(413.696 -0.0131652 0)
(413.666 -0.0143856 0)
(413.639 -0.0165086 0)
(413.639 -0.016627 0)
(413.655 -0.0149392 0)
(413.702 -0.0169228 0)
(413.772 -0.0102937 0)
(413.864 -0.0042291 0)
(413.973 -0.00124637 0)
(414.1 0.00360923 0)
(414.234 0.00618622 0)
(414.345 0.00795315 0)
(414.437 0.01737 0)
(414.482 0.0155899 0)
(414.53 0.0144668 0)
(414.506 0.0103751 0)
(414.46 0.0131809 0)
(414.397 0.012068 0)
(414.312 0.0104257 0)
(414.208 0.00968486 0)
(414.104 0.00778783 0)
(414.031 0.00695363 0)
(413.959 0.00625969 0)
(413.949 0.00857102 0)
(413.936 0.0122306 0)
(413.956 0.0119291 0)
(413.985 0.0168901 0)
(414.027 0.0176856 0)
(414.044 0.0253423 0)
(414.039 0.025152 0)
(414.013 0.0271311 0)
(413.967 0.0249883 0)
(413.897 0.0252911 0)
(413.8 0.0214327 0)
(413.677 0.0219187 0)
(413.535 0.0201153 0)
(413.395 0.0191114 0)
(413.255 0.0171816 0)
(413.145 0.0172515 0)
(413.041 0.0162773 0)
(412.896 0.0269657 0)
(412.92 0.017201 0)
(412.892 0.0208707 0)
(412.837 0.028269 0)
(412.813 0.0262706 0)
(412.77 0.0284553 0)
(412.707 0.0325371 0)
(412.623 0.0309554 0)
(412.519 0.0299115 0)
(412.394 0.0293729 0)
(412.254 0.0275716 0)
(412.096 0.0265577 0)
(411.923 0.025634 0)
(411.741 0.0244321 0)
(411.569 0.0232758 0)
(411.412 0.0199421 0)
(411.223 0.0321624 0)
(411.172 0.0194878 0)
(411.087 0.0203189 0)
(410.985 0.0299689 0)
(410.933 0.0274518 0)
(410.861 0.0292203 0)
(410.723 0.0323664 0)
(5.74461 -9.40625 0)
(8.75156 -4.6807 0)
(9.70744 0.206014 0)
(5.75315 3.43732 0)
(-5.65889 8.24201 0)
(-23.5457 14.4277 0)
(-44.4842 20.9806 0)
(-64.2921 25.0326 0)
(-81.3411 25.4274 0)
(-95.7977 23.8452 0)
(-108.105 20.8029 0)
(-118.706 18.219 0)
(-127.685 15.6093 0)
(-135.493 13.3219 0)
(-142.273 11.4333 0)
(-147.971 9.91331 0)
(-152.768 8.69704 0)
(-156.912 7.82404 0)
(-160.385 7.13553 0)
(-163.188 6.53784 0)
(-165.641 6.07444 0)
(-167.651 5.61582 0)
(-169.181 5.17543 0)
(-170.199 4.75126 0)
(-170.694 4.35409 0)
(-170.631 3.83486 0)
(-169.839 3.37707 0)
(-168.264 2.78422 0)
(-165.92 2.21992 0)
(-162.8 1.62166 0)
(-158.944 0.957324 0)
(-154.324 0.255665 0)
(-148.948 -0.404383 0)
(-142.872 -1.10573 0)
(-136.05 -1.91708 0)
(-128.44 -2.56076 0)
(-120.178 -3.23212 0)
(-111.37 -3.89994 0)
(-101.976 -4.68546 0)
(-92.0015 -5.40594 0)
(-81.5272 -6.11808 0)
(-70.6621 -6.66528 0)
(-59.4539 -7.61432 0)
(-47.7099 -8.355 0)
(-35.6048 -9.1005 0)
(-23.2761 -9.40716 0)
(-10.8094 -10.105 0)
(2.00177 -10.7311 0)
(15.0137 -11.533 0)
(28.0118 -11.7409 0)
(40.9345 -12.2763 0)
(53.8247 -12.4268 0)
(66.6104 -12.8717 0)
(79.2233 -12.911 0)
(91.8022 -13.1029 0)
(104.3 -13.438 0)
(116.465 -13.3951 0)
(128.365 -13.4398 0)
(139.937 -13.3226 0)
(151.215 -13.2138 0)
(162.121 -12.9837 0)
(172.681 -12.7544 0)
(182.907 -12.5315 0)
(192.814 -12.2884 0)
(202.461 -12.0908 0)
(211.696 -11.725 0)
(220.674 -11.472 0)
(229.306 -11.0783 0)
(237.59 -10.7588 0)
(245.644 -10.4523 0)
(253.335 -10.0844 0)
(260.785 -9.83435 0)
(268.026 -9.45869 0)
(274.878 -9.11646 0)
(281.66 -8.82883 0)
(288.064 -8.43601 0)
(294.395 -8.16843 0)
(300.395 -7.75962 0)
(306.226 -7.41665 0)
(311.693 -7.00523 0)
(316.966 -6.70202 0)
(321.941 -6.34851 0)
(326.79 -6.1119 0)
(331.451 -5.80662 0)
(335.959 -5.5803 0)
(340.306 -5.25031 0)
(344.379 -5.01836 0)
(348.312 -4.72763 0)
(351.996 -4.51398 0)
(355.527 -4.2671 0)
(358.918 -4.09352 0)
(362.222 -3.87354 0)
(365.367 -3.71118 0)
(368.449 -3.51392 0)
(371.347 -3.34432 0)
(374.12 -3.18559 0)
(376.832 -3.04903 0)
(379.488 -2.90444 0)
(382.087 -2.75708 0)
(384.571 -2.62698 0)
(386.997 -2.48773 0)
(389.278 -2.36305 0)
(391.414 -2.24647 0)
(393.424 -2.14505 0)
(395.38 -2.03944 0)
(397.214 -1.95248 0)
(398.987 -1.86092 0)
(400.651 -1.78818 0)
(402.294 -1.70075 0)
(403.837 -1.6344 0)
(405.392 -1.56222 0)
(406.828 -1.49851 0)
(408.158 -1.44056 0)
(409.414 -1.38386 0)
(410.679 -1.34926 0)
(411.988 -1.28551 0)
(413.367 -1.17632 0)
(414.833 -1.12857 0)
(416.464 -0.948442 0)
(418.621 -1.30682 0)
(419.007 -0.841805 0)
(419.857 -0.703564 0)
(421.134 -0.985197 0)
(421.433 -0.896083 0)
(421.955 -0.864445 0)
(422.579 -0.860859 0)
(423.258 -0.84628 0)
(423.969 -0.790934 0)
(424.69 -0.766624 0)
(425.416 -0.744627 0)
(426.098 -0.723932 0)
(426.736 -0.701358 0)
(427.38 -0.676283 0)
(428.033 -0.637222 0)
(428.683 -0.610737 0)
(429.339 -0.580925 0)
(429.965 -0.557941 0)
(430.556 -0.539168 0)
(431.116 -0.515464 0)
(431.683 -0.487211 0)
(432.227 -0.468364 0)
(432.746 -0.449253 0)
(433.247 -0.429331 0)
(433.75 -0.404445 0)
(434.26 -0.380597 0)
(434.779 -0.340139 0)
(435.304 -0.329052 0)
(435.853 -0.276143 0)
(436.509 -0.344823 0)
(436.812 -0.255788 0)
(437.194 -0.221491 0)
(437.655 -0.256982 0)
(437.952 -0.239326 0)
(438.291 -0.240665 0)
(438.557 -0.234984 0)
(438.828 -0.227661 0)
(439.074 -0.224537 0)
(439.323 -0.213745 0)
(439.552 -0.209698 0)
(439.776 -0.199748 0)
(440.004 -0.190301 0)
(440.243 -0.17853 0)
(440.486 -0.165881 0)
(440.739 -0.15498 0)
(441.004 -0.134814 0)
(441.281 -0.117441 0)
(441.563 -0.108129 0)
(441.851 -0.09353 0)
(442.133 -0.0842493 0)
(442.418 -0.0688318 0)
(442.71 -0.0777889 0)
(442.902 -0.0588526 0)
(443.116 -0.0552603 0)
(443.276 -0.0559094 0)
(443.45 -0.0639143 0)
(443.522 -0.0636693 0)
(443.609 -0.0699675 0)
(443.634 -0.0704882 0)
(443.653 -0.0715597 0)
(443.678 -0.0696329 0)
(443.714 -0.0664281 0)
(443.767 -0.0561776 0)
(443.844 -0.0489321 0)
(443.939 -0.0384091 0)
(444.051 -0.0236877 0)
(444.175 -0.0135296 0)
(444.317 -0.00668147 0)
(444.468 -0.00244016 0)
(444.589 0.000852071 0)
(444.705 0.0104918 0)
(444.775 0.0107465 0)
(444.861 0.00166189 0)
(444.861 -0.00205676 0)
(444.85 -0.00129761 0)
(444.823 -0.00329424 0)
(444.776 -0.00738579 0)
(444.711 -0.00947522 0)
(444.645 -0.00819457 0)
(444.596 -0.00544635 0)
(444.549 -0.000708704 0)
(444.55 0.00578004 0)
(444.55 0.0132945 0)
(444.572 0.0179076 0)
(444.603 0.0261759 0)
(444.646 0.0285691 0)
(444.672 0.0375776 0)
(444.676 0.0372992 0)
(444.662 0.0373515 0)
(444.631 0.0330446 0)
(444.581 0.0300224 0)
(444.505 0.0243248 0)
(444.407 0.0236462 0)
(444.29 0.0213278 0)
(444.172 0.0214049 0)
(444.053 0.0198296 0)
(443.956 0.0232118 0)
(443.86 0.0232508 0)
(443.725 0.0480432 0)
(443.736 0.0331597 0)
(443.707 0.0358093 0)
(443.655 0.0482147 0)
(443.626 0.0471539 0)
(443.583 0.0485923 0)
(443.522 0.0533695 0)
(443.444 0.049348 0)
(443.349 0.0465614 0)
(443.236 0.0442154 0)
(443.109 0.041761 0)
(442.965 0.0381916 0)
(442.806 0.0375206 0)
(442.639 0.0361756 0)
(442.477 0.0379045 0)
(442.322 0.0328732 0)
(442.139 0.0582676 0)
(442.074 0.0378739 0)
(441.981 0.0382955 0)
(441.873 0.0560315 0)
(441.808 0.0526498 0)
(441.729 0.0533874 0)
(441.585 0.056867 0)
(4.24831 -13.2177 0)
(7.16613 -6.0403 0)
(5.44783 2.01174 0)
(-4.48683 10.054 0)
(-22.0446 17.6252 0)
(-41.8993 26.2761 0)
(-60.1302 31.9728 0)
(-75.7335 34.0197 0)
(-88.7524 33.1697 0)
(-99.5264 30.4656 0)
(-108.436 26.8455 0)
(-116.327 23.0931 0)
(-123.277 19.4469 0)
(-129.162 16.3556 0)
(-134.227 13.9025 0)
(-138.475 12.001 0)
(-142.055 10.5153 0)
(-145.179 9.42145 0)
(-147.775 8.57519 0)
(-149.795 7.81079 0)
(-151.549 7.20586 0)
(-152.905 6.6123 0)
(-153.835 6.04694 0)
(-154.312 5.48546 0)
(-154.25 4.82134 0)
(-153.562 4.17436 0)
(-152.167 3.45072 0)
(-149.97 2.62358 0)
(-147.017 1.81237 0)
(-143.297 0.957368 0)
(-138.824 0.0317715 0)
(-133.546 -0.961955 0)
(-127.429 -1.90167 0)
(-120.563 -2.8875 0)
(-112.928 -4.06377 0)
(-104.418 -5.06362 0)
(-95.2097 -6.03101 0)
(-85.4334 -6.98971 0)
(-75.0673 -8.1198 0)
(-64.0831 -9.17026 0)
(-52.5496 -10.22 0)
(-40.6226 -10.9696 0)
(-28.3518 -12.282 0)
(-15.58 -13.3111 0)
(-2.44071 -14.4097 0)
(10.902 -14.8619 0)
(24.3897 -15.8872 0)
(38.1797 -16.7296 0)
(52.052 -17.8179 0)
(65.8823 -18.0243 0)
(79.5107 -18.7243 0)
(93.0689 -18.8583 0)
(106.443 -19.4269 0)
(119.559 -19.386 0)
(132.552 -19.7129 0)
(145.346 -19.9881 0)
(157.694 -19.8179 0)
(169.742 -19.8095 0)
(181.385 -19.5492 0)
(192.69 -19.3455 0)
(203.539 -18.9289 0)
(214.003 -18.5635 0)
(224.076 -18.1788 0)
(233.772 -17.7808 0)
(243.177 -17.4124 0)
(252.09 -16.85 0)
(260.724 -16.4333 0)
(268.958 -15.8377 0)
(276.82 -15.357 0)
(284.429 -14.8595 0)
(291.594 -14.2929 0)
(298.517 -13.8839 0)
(305.197 -13.299 0)
(311.464 -12.7977 0)
(317.681 -12.3531 0)
(323.501 -11.787 0)
(329.25 -11.3755 0)
(334.687 -10.7963 0)
(339.933 -10.3053 0)
(344.849 -9.73749 0)
(349.567 -9.30844 0)
(354.015 -8.81891 0)
(358.356 -8.47142 0)
(362.516 -8.03419 0)
(366.515 -7.70006 0)
(370.37 -7.24425 0)
(373.95 -6.92177 0)
(377.415 -6.52563 0)
(380.649 -6.23362 0)
(383.747 -5.89448 0)
(386.728 -5.64873 0)
(389.635 -5.34722 0)
(392.4 -5.12271 0)
(395.121 -4.85427 0)
(397.664 -4.6307 0)
(400.1 -4.41224 0)
(402.49 -4.21701 0)
(404.83 -4.0129 0)
(407.117 -3.81188 0)
(409.304 -3.63441 0)
(411.446 -3.4486 0)
(413.457 -3.28973 0)
(415.342 -3.14179 0)
(417.128 -3.00706 0)
(418.863 -2.86607 0)
(420.496 -2.75024 0)
(422.071 -2.62854 0)
(423.56 -2.52869 0)
(425.026 -2.40948 0)
(426.407 -2.31657 0)
(427.801 -2.21689 0)
(429.086 -2.14066 0)
(430.282 -2.06449 0)
(431.416 -1.98823 0)
(432.567 -1.93144 0)
(433.759 -1.82827 0)
(435.005 -1.66655 0)
(436.342 -1.58494 0)
(437.804 -1.34063 0)
(439.7 -1.78827 0)
(440.093 -1.28689 0)
(440.876 -1.10096 0)
(441.921 -1.42737 0)
(442.308 -1.38092 0)
(442.834 -1.31884 0)
(443.433 -1.28979 0)
(444.077 -1.25077 0)
(444.742 -1.16859 0)
(445.414 -1.13078 0)
(446.091 -1.09564 0)
(446.727 -1.06847 0)
(447.328 -1.03588 0)
(447.935 -0.996006 0)
(448.547 -0.938714 0)
(449.155 -0.898784 0)
(449.77 -0.855273 0)
(450.354 -0.825694 0)
(450.91 -0.800551 0)
(451.441 -0.767814 0)
(451.977 -0.726892 0)
(452.491 -0.701063 0)
(452.985 -0.6738 0)
(453.463 -0.645102 0)
(453.943 -0.607566 0)
(454.429 -0.570897 0)
(454.92 -0.513775 0)
(455.418 -0.497358 0)
(455.932 -0.424319 0)
(456.536 -0.514354 0)
(456.835 -0.416585 0)
(457.198 -0.366928 0)
(457.622 -0.408245 0)
(457.92 -0.396864 0)
(458.246 -0.394938 0)
(458.509 -0.391069 0)
(458.775 -0.379548 0)
(459.018 -0.373239 0)
(459.263 -0.356289 0)
(459.49 -0.348444 0)
(459.712 -0.332613 0)
(459.938 -0.315324 0)
(460.172 -0.293431 0)
(460.411 -0.274055 0)
(460.658 -0.254926 0)
(460.916 -0.224055 0)
(461.183 -0.197607 0)
(461.455 -0.182474 0)
(461.733 -0.160203 0)
(462.007 -0.146545 0)
(462.281 -0.126156 0)
(462.564 -0.142857 0)
(462.758 -0.116206 0)
(462.97 -0.11309 0)
(463.133 -0.114787 0)
(463.309 -0.12758 0)
(463.395 -0.129381 0)
(463.493 -0.137934 0)
(463.534 -0.138661 0)
(463.569 -0.139108 0)
(463.608 -0.131537 0)
(463.656 -0.122539 0)
(463.718 -0.105596 0)
(463.801 -0.0886794 0)
(463.9 -0.0712033 0)
(464.014 -0.049261 0)
(464.138 -0.0314819 0)
(464.277 -0.0208885 0)
(464.426 -0.0152233 0)
(464.547 -0.0107708 0)
(464.665 -0.000775568 0)
(464.74 -0.000963759 0)
(464.829 -0.016808 0)
(464.849 -0.0214042 0)
(464.845 -0.0224737 0)
(464.831 -0.0264858 0)
(464.798 -0.0332693 0)
(464.749 -0.0363636 0)
(464.699 -0.0303313 0)
(464.661 -0.0226376 0)
(464.628 -0.0111754 0)
(464.633 0.00236766 0)
(464.634 0.0126286 0)
(464.657 0.0237971 0)
(464.688 0.0349944 0)
(464.728 0.0391828 0)
(464.754 0.0475159 0)
(464.759 0.0487614 0)
(464.749 0.0460986 0)
(464.723 0.0393209 0)
(464.68 0.0321221 0)
(464.614 0.025219 0)
(464.526 0.0232927 0)
(464.422 0.0197054 0)
(464.315 0.0213294 0)
(464.206 0.0200368 0)
(464.116 0.0281906 0)
(464.025 0.0306622 0)
(463.897 0.0667584 0)
(463.898 0.0520459 0)
(463.869 0.0528441 0)
(463.818 0.0680966 0)
(463.784 0.0697146 0)
(463.738 0.070146 0)
(463.676 0.074191 0)
(463.6 0.0678363 0)
(463.508 0.0631858 0)
(463.4 0.058741 0)
(463.278 0.0557899 0)
(463.142 0.0489937 0)
(462.991 0.0487461 0)
(462.831 0.047013 0)
(462.676 0.0529645 0)
(462.523 0.0477049 0)
(462.346 0.0825502 0)
(462.273 0.0603358 0)
(462.175 0.0592984 0)
(462.065 0.0831067 0)
(461.992 0.0803951 0)
(461.906 0.0800385 0)
(461.757 0.0830757 0)
(1.84285 -16.1653 0)
(3.46566 -5.58153 0)
(-4.0756 7.37164 0)
(-18.7333 18.5221 0)
(-37.0539 28.9524 0)
(-53.7288 36.6435 0)
(-68.2018 40.5386 0)
(-80.2254 41.186 0)
(-90.0139 39.2285 0)
(-97.8603 35.5199 0)
(-104.363 30.6375 0)
(-110.274 26.0486 0)
(-115.433 22.0104 0)
(-119.814 18.5775 0)
(-123.615 15.7973 0)
(-126.873 13.6401 0)
(-129.651 11.9573 0)
(-132.081 10.6838 0)
(-134.081 9.70609 0)
(-135.543 8.80067 0)
(-136.785 8.06442 0)
(-137.648 7.35027 0)
(-138.111 6.63737 0)
(-138.078 5.8417 0)
(-137.463 5.03865 0)
(-136.198 4.15386 0)
(-134.197 3.16601 0)
(-131.384 2.05286 0)
(-127.752 0.953542 0)
(-123.313 -0.188292 0)
(-118.084 -1.41548 0)
(-112 -2.76787 0)
(-104.981 -4.05631 0)
(-97.1677 -5.35331 0)
(-88.5784 -6.95535 0)
(-79.0112 -8.37146 0)
(-68.6859 -9.68057 0)
(-57.7718 -10.9601 0)
(-46.2445 -12.4831 0)
(-34.0348 -13.9068 0)
(-21.1975 -15.3534 0)
(-7.99531 -16.343 0)
(5.56922 -17.9537 0)
(19.5731 -19.2494 0)
(33.8792 -20.7042 0)
(48.4923 -21.2686 0)
(63.1826 -22.6166 0)
(78.1715 -23.5959 0)
(93.1112 -24.9215 0)
(107.952 -25.0574 0)
(122.529 -25.9575 0)
(136.977 -26.0175 0)
(151.152 -26.6997 0)
(164.902 -26.4486 0)
(178.385 -26.8915 0)
(191.522 -27.0053 0)
(204.027 -26.5885 0)
(216.213 -26.5315 0)
(227.864 -26.0295 0)
(239.083 -25.6899 0)
(249.734 -24.9958 0)
(259.886 -24.4491 0)
(269.608 -23.8384 0)
(278.825 -23.2462 0)
(287.774 -22.6554 0)
(296.095 -21.8648 0)
(304.131 -21.2428 0)
(311.693 -20.4116 0)
(318.841 -19.7444 0)
(325.727 -19.0356 0)
(332.139 -18.2792 0)
(338.351 -17.702 0)
(344.301 -16.9028 0)
(349.827 -16.2447 0)
(355.33 -15.6338 0)
(360.421 -14.8989 0)
(365.446 -14.335 0)
(370.175 -13.5913 0)
(374.706 -12.9609 0)
(378.927 -12.2505 0)
(382.967 -11.705 0)
(386.753 -11.095 0)
(390.464 -10.6329 0)
(393.961 -10.0562 0)
(397.315 -9.6119 0)
(400.532 -9.03214 0)
(403.503 -8.63363 0)
(406.385 -8.13535 0)
(409.066 -7.77773 0)
(411.629 -7.35138 0)
(414.104 -7.03974 0)
(416.517 -6.66137 0)
(418.812 -6.38213 0)
(421.078 -6.04175 0)
(423.175 -5.77451 0)
(425.183 -5.49904 0)
(427.16 -5.24703 0)
(429.096 -4.98561 0)
(430.988 -4.7366 0)
(432.797 -4.51725 0)
(434.575 -4.29018 0)
(436.237 -4.107 0)
(437.795 -3.93583 0)
(439.283 -3.77296 0)
(440.721 -3.60241 0)
(442.075 -3.46306 0)
(443.381 -3.31632 0)
(444.621 -3.19286 0)
(445.841 -3.04597 0)
(446.992 -2.93098 0)
(448.156 -2.80544 0)
(449.223 -2.72306 0)
(450.222 -2.63297 0)
(451.173 -2.54238 0)
(452.15 -2.46143 0)
(453.164 -2.3137 0)
(454.217 -2.10065 0)
(455.363 -1.97355 0)
(456.598 -1.70007 0)
(458.174 -2.15989 0)
(458.532 -1.71118 0)
(459.186 -1.51644 0)
(459.941 -1.82626 0)
(460.378 -1.84301 0)
(460.841 -1.76232 0)
(461.353 -1.70044 0)
(461.903 -1.63388 0)
(462.465 -1.5251 0)
(463.037 -1.47562 0)
(463.615 -1.42682 0)
(464.158 -1.39524 0)
(464.679 -1.35318 0)
(465.203 -1.2981 0)
(465.73 -1.22289 0)
(466.254 -1.16999 0)
(466.786 -1.11219 0)
(467.284 -1.07839 0)
(467.767 -1.04716 0)
(468.23 -1.0062 0)
(468.695 -0.953141 0)
(469.141 -0.921429 0)
(469.571 -0.886891 0)
(469.99 -0.849289 0)
(470.411 -0.799552 0)
(470.839 -0.74869 0)
(471.268 -0.676753 0)
(471.708 -0.65137 0)
(472.156 -0.566115 0)
(472.678 -0.660592 0)
(472.947 -0.569504 0)
(473.264 -0.511542 0)
(473.623 -0.547336 0)
(473.895 -0.545907 0)
(474.183 -0.543659 0)
(474.415 -0.541575 0)
(474.648 -0.526726 0)
(474.863 -0.517723 0)
(475.079 -0.494718 0)
(475.278 -0.483647 0)
(475.474 -0.461552 0)
(475.674 -0.437204 0)
(475.88 -0.403995 0)
(476.092 -0.378355 0)
(476.312 -0.350347 0)
(476.541 -0.308082 0)
(476.777 -0.273824 0)
(477.021 -0.251859 0)
(477.268 -0.221815 0)
(477.515 -0.20404 0)
(477.759 -0.179144 0)
(478.012 -0.202358 0)
(478.189 -0.170194 0)
(478.378 -0.168223 0)
(478.524 -0.171793 0)
(478.682 -0.189854 0)
(478.761 -0.1946 0)
(478.85 -0.20667 0)
(478.886 -0.207796 0)
(478.92 -0.209083 0)
(478.955 -0.193888 0)
(479 -0.180323 0)
(479.054 -0.154937 0)
(479.129 -0.12766 0)
(479.219 -0.103959 0)
(479.321 -0.0727814 0)
(479.431 -0.0487302 0)
(479.556 -0.0319289 0)
(479.69 -0.0257102 0)
(479.8 -0.019872 0)
(479.906 -0.0131962 0)
(479.974 -0.0149988 0)
(480.052 -0.0335284 0)
(480.072 -0.0426246 0)
(480.068 -0.0447832 0)
(480.054 -0.0513541 0)
(480.023 -0.060463 0)
(479.977 -0.0637147 0)
(479.933 -0.052991 0)
(479.897 -0.0408194 0)
(479.863 -0.0228017 0)
(479.868 -0.00184324 0)
(479.86 0.0132145 0)
(479.88 0.0296811 0)
(479.903 0.0448906 0)
(479.936 0.0510887 0)
(479.954 0.0592658 0)
(479.953 0.0603502 0)
(479.941 0.0549414 0)
(479.913 0.0455226 0)
(479.87 0.0339937 0)
(479.805 0.0256328 0)
(479.72 0.0225127 0)
(479.62 0.0170886 0)
(479.517 0.0201513 0)
(479.412 0.0195564 0)
(479.324 0.0329832 0)
(479.232 0.0392725 0)
(479.11 0.0871424 0)
(479.1 0.0716956 0)
(479.064 0.0717645 0)
(479.013 0.0887445 0)
(478.97 0.0940587 0)
(478.918 0.0936438 0)
(478.852 0.096078 0)
(478.774 0.0872162 0)
(478.681 0.0805627 0)
(478.573 0.073738 0)
(478.453 0.0701237 0)
(478.319 0.0601134 0)
(478.172 0.0596285 0)
(478.016 0.0578401 0)
(477.864 0.0681317 0)
(477.711 0.0639907 0)
(477.539 0.10661 0)
(477.457 0.0851924 0)
(477.355 0.0826735 0)
(477.242 0.111415 0)
(477.16 0.110466 0)
(477.068 0.109196 0)
(476.912 0.11113 0)
(-1.76666 -16.51 0)
(-4.76586 -2.02147 0)
(-15.9449 14.4143 0)
(-31.1743 28.4331 0)
(-46.5452 38.5327 0)
(-59.9284 44.6998 0)
(-71.173 47.2869 0)
(-80.3538 46.758 0)
(-87.6024 43.5951 0)
(-93.2503 38.5746 0)
(-98.0035 33.268 0)
(-102.286 28.3255 0)
(-106.026 23.9453 0)
(-109.305 20.264 0)
(-112.205 17.29 0)
(-114.719 14.9515 0)
(-116.862 13.1106 0)
(-118.699 11.6788 0)
(-120.163 10.5641 0)
(-121.098 9.53197 0)
(-121.844 8.66118 0)
(-122.2 7.79088 0)
(-122.112 6.87541 0)
(-121.496 5.92843 0)
(-120.269 4.88931 0)
(-118.331 3.73907 0)
(-115.628 2.44511 0)
(-112.072 0.994513 0)
(-107.604 -0.443887 0)
(-102.273 -1.9126 0)
(-96.1056 -3.47485 0)
(-89.0366 -5.25499 0)
(-80.9076 -6.96886 0)
(-71.9198 -8.59413 0)
(-62.1742 -10.688 0)
(-51.3059 -12.6002 0)
(-39.5966 -14.3091 0)
(-27.2649 -15.8925 0)
(-14.3038 -17.8241 0)
(-0.605576 -19.6132 0)
(13.7881 -21.4531 0)
(28.6603 -22.6667 0)
(43.8586 -24.7012 0)
(59.678 -26.2982 0)
(75.7928 -28.1774 0)
(92.2627 -28.8037 0)
(108.724 -30.5327 0)
(125.451 -31.5731 0)
(141.947 -33.1062 0)
(158.125 -32.9788 0)
(173.989 -34.1139 0)
(189.58 -33.9412 0)
(204.669 -34.7032 0)
(219.215 -34.0891 0)
(232.96 -34.4831 0)
(246.409 -34.4121 0)
(259.041 -33.6204 0)
(271.182 -33.4409 0)
(282.801 -32.6497 0)
(293.63 -32.0378 0)
(303.972 -31.0168 0)
(313.454 -30.1986 0)
(322.611 -29.3009 0)
(330.986 -28.442 0)
(339.242 -27.5974 0)
(346.62 -26.5288 0)
(353.765 -25.6607 0)
(360.308 -24.556 0)
(366.401 -23.6777 0)
(372.246 -22.7154 0)
(377.551 -21.747 0)
(382.778 -20.9982 0)
(387.667 -19.9765 0)
(392.165 -19.1685 0)
(396.652 -18.3768 0)
(400.71 -17.4793 0)
(404.73 -16.7662 0)
(408.459 -15.8595 0)
(412.002 -15.1077 0)
(415.235 -14.2714 0)
(418.346 -13.6239 0)
(421.196 -12.9025 0)
(424.034 -12.3562 0)
(426.683 -11.665 0)
(429.264 -11.1396 0)
(431.721 -10.4543 0)
(433.995 -10.0142 0)
(436.199 -9.42443 0)
(438.245 -9.02697 0)
(440.192 -8.52358 0)
(442.086 -8.16387 0)
(443.931 -7.71794 0)
(445.69 -7.40105 0)
(447.411 -6.98714 0)
(448.982 -6.69395 0)
(450.487 -6.36455 0)
(451.981 -6.0642 0)
(453.442 -5.75237 0)
(454.877 -5.46585 0)
(456.247 -5.21501 0)
(457.607 -4.95522 0)
(458.864 -4.76107 0)
(460.045 -4.57272 0)
(461.183 -4.38724 0)
(462.267 -4.19582 0)
(463.289 -4.04084 0)
(464.274 -3.87563 0)
(465.217 -3.73437 0)
(466.142 -3.56522 0)
(467.014 -3.43617 0)
(467.9 -3.28803 0)
(468.7 -3.20672 0)
(469.458 -3.10669 0)
(470.186 -3.01026 0)
(470.946 -2.9004 0)
(471.736 -2.70526 0)
(472.551 -2.44255 0)
(473.454 -2.26149 0)
(474.42 -1.99509 0)
(475.631 -2.40972 0)
(475.935 -2.07913 0)
(476.414 -1.91311 0)
(476.871 -2.16269 0)
(477.313 -2.24592 0)
(477.652 -2.16097 0)
(478.03 -2.06391 0)
(478.45 -1.97207 0)
(478.873 -1.83705 0)
(479.309 -1.7798 0)
(479.751 -1.71654 0)
(480.168 -1.68276 0)
(480.575 -1.63164 0)
(480.983 -1.56158 0)
(481.391 -1.47002 0)
(481.799 -1.4062 0)
(482.215 -1.33388 0)
(482.599 -1.29949 0)
(482.979 -1.26169 0)
(483.344 -1.21378 0)
(483.71 -1.14979 0)
(484.058 -1.11398 0)
(484.395 -1.07337 0)
(484.729 -1.02745 0)
(485.065 -0.965462 0)
(485.407 -0.90041 0)
(485.747 -0.816375 0)
(486.103 -0.779827 0)
(486.461 -0.690235 0)
(486.877 -0.776554 0)
(487.095 -0.704609 0)
(487.342 -0.642433 0)
(487.617 -0.668081 0)
(487.836 -0.676343 0)
(488.065 -0.677242 0)
(488.244 -0.677471 0)
(488.424 -0.660544 0)