/*--------------------------------*- C++ -*----------------------------------*\
| =========                 |                                                 |
| \\      /  F ield         | OpenFOAM: The Open Source CFD Toolbox           |
|  \\    /   O peration     | Version:  2312                                  |
|   \\  /    A nd           | Website:  www.openfoam.com                      |
|    \\/     M anipulation  |                                                 |
\*---------------------------------------------------------------------------*/
FoamFile
{
    version     2.0;
    format      ascii;
    arch        "LSB;label=32;scalar=64";
    class       volScalarField;
    location    "0.006";
    object      alphat;
}
// * * * * * * * * * * * * * * * * * * * * * * * * * * * * * * * * * * * * * //

dimensions      [1 -1 -1 0 0 0 0];

internalField   nonuniform List<scalar> 
48128
(
8.89438e-09
2.35321e-08
3.32728e-08
3.11691e-08
3.01753e-08
2.54517e-08
2.15363e-08
2.27223e-07
1.03548e-06
2.52824e-06
4.12343e-06
5.59068e-06
6.91047e-06
8.09345e-06
9.16963e-06
1.01754e-05
1.11344e-05
1.20647e-05
1.29869e-05
1.39168e-05
1.48606e-05
1.58261e-05
1.68207e-05
1.78548e-05
1.89405e-05
2.00927e-05
2.13237e-05
2.26552e-05
2.41039e-05
2.56947e-05
2.74096e-05
2.92554e-05
3.12581e-05
3.34311e-05
3.5783e-05
3.83354e-05
4.11522e-05
4.41866e-05
4.74681e-05
5.09517e-05
5.46714e-05
5.86176e-05
6.28994e-05
6.73202e-05
7.19286e-05
7.65572e-05
8.15208e-05
8.65245e-05
9.15878e-05
9.63041e-05
0.000101154
0.000105617
0.000110297
0.000114576
0.000119502
0.000125697
0.000131543
0.000137308
0.000142726
0.000147943
0.000152883
0.000157561
0.000162048
0.000166311
0.000170405
0.000174223
0.000177817
0.00018117
0.000175816
0.000169117
0.00016298
0.000157391
0.000152224
0.000147385
0.000142869
0.000138584
0.00013458
0.000130765
0.00012722
0.000123852
0.000120788
0.000117834
0.000115181
0.000112559
0.000110144
0.00010775
0.000105574
0.000103461
0.000101564
9.97154e-05
9.80426e-05
9.63916e-05
9.48894e-05
9.34197e-05
9.20716e-05
9.07794e-05
8.95563e-05
8.83762e-05
8.72473e-05
8.62068e-05
8.52115e-05
8.43099e-05
8.34723e-05
8.27018e-05
8.19676e-05
8.12973e-05
8.06707e-05
8.00938e-05
7.95362e-05
7.90128e-05
7.85093e-05
7.80705e-05
7.76839e-05
7.73188e-05
7.69767e-05
7.6595e-05
7.61215e-05
7.56208e-05
7.49426e-05
7.44105e-05
7.46051e-05
7.43365e-05
7.40456e-05
7.41506e-05
7.4106e-05
7.40112e-05
7.38869e-05
7.37203e-05
7.35475e-05
7.33982e-05
7.32776e-05
7.31746e-05
7.3076e-05
7.29562e-05
7.28359e-05
7.27114e-05
7.26034e-05
7.25138e-05
7.24317e-05
7.2337e-05
7.22502e-05
7.21728e-05
7.20999e-05
7.20155e-05
7.19265e-05
7.18097e-05
7.16892e-05
7.15307e-05
7.1399e-05
7.13996e-05
7.13099e-05
7.12021e-05
7.11537e-05
7.10859e-05
7.10408e-05
7.09894e-05
7.09402e-05
7.08874e-05
7.08377e-05
7.07848e-05
7.07286e-05
7.06625e-05
7.05911e-05
7.05194e-05
7.04342e-05
7.03371e-05
7.02437e-05
7.01478e-05
7.0057e-05
6.99587e-05
6.98707e-05
6.98278e-05
6.97707e-05
6.97253e-05
6.96852e-05
6.96672e-05
6.96498e-05
6.96448e-05
6.96372e-05
6.96194e-05
6.95912e-05
6.9547e-05
6.94979e-05
6.94313e-05
6.9362e-05
6.92909e-05
6.92162e-05
6.91464e-05
6.90881e-05
6.90372e-05
6.89963e-05
6.89613e-05
6.89461e-05
6.89332e-05
6.89198e-05
6.89109e-05
6.89041e-05
6.88897e-05
6.88629e-05
6.88275e-05
6.87767e-05
6.87216e-05
6.86651e-05
6.86078e-05
6.85516e-05
6.85052e-05
6.84637e-05
6.84274e-05
6.84024e-05
6.83805e-05
6.83647e-05
6.83546e-05
6.83455e-05
6.83303e-05
6.83124e-05
6.82812e-05
6.82521e-05
6.82169e-05
6.81379e-05
6.80973e-05
6.80576e-05
6.80088e-05
6.79676e-05
6.79306e-05
6.79013e-05
6.78785e-05
6.78578e-05
6.78377e-05
6.78212e-05
6.78071e-05
6.77941e-05
6.77707e-05
6.77479e-05
6.77172e-05
6.76511e-05
6.76178e-05
6.75771e-05
6.75274e-05
6.7485e-05
6.74322e-05
1.60274e-07
1.32196e-07
7.53741e-08
6.21886e-08
1.18781e-07
2.74148e-07
7.08312e-07
1.96309e-06
4.44587e-06
8.45277e-06
1.38238e-05
1.97785e-05
2.63726e-05
3.33037e-05
4.04074e-05
4.75442e-05
5.47479e-05
6.2098e-05
6.9726e-05
7.77909e-05
8.6284e-05
9.54496e-05
0.000105272
0.000115935
0.000127462
0.00013998
0.000153483
0.000168181
0.00018382
0.000201675
0.000221171
0.000241684
0.000263522
0.000286888
0.000311271
0.000333961
0.000358467
0.000384455
0.000411999
0.000440565
0.000470351
0.000501252
0.000534108
0.000566979
0.000600202
0.000632786
0.000667811
0.000703482
0.000740586
0.00077462
0.000810542
0.000843604
0.000878125
0.000909646
0.000939838
0.000968647
0.00099446
0.00101884
0.00104123
0.00106168
0.00108011
0.00109683
0.00111204
0.00112565
0.00113805
0.00114851
0.00115746
0.00116471
0.00117072
0.00117737
0.00118253
0.00118609
0.00118891
0.00118932
0.00118938
0.00118678
0.00118406
0.00117882
0.0011736
0.00116619
0.00115942
0.0011508
0.00114301
0.00113396
0.00112549
0.00111524
0.00110547
0.00109452
0.00108423
0.00107314
0.00106283
0.00105183
0.00104142
0.00103062
0.00102021
0.0010097
0.000999368
0.000989002
0.000978527
0.000968374
0.000958211
0.000948517
0.000938916
0.000929872
0.000920913
0.000912474
0.000904172
0.000896357
0.000888627
0.000881164
0.000873888
0.000866988
0.000860451
0.000854192
0.000848257
0.000842323
0.000835438
0.000828317
0.000819952
0.000812771
0.000809004
0.000802561
0.000796793
0.000793544
0.00079012
0.00078673
0.00078365
0.000780266
0.00077679
0.000773441
0.000770277
0.000767202
0.000764274
0.000761164
0.000758051
0.000754905
0.000751813
0.000748864
0.000746046
0.00074319
0.000740404
0.000737706
0.00073514
0.000732485
0.000729913
0.000726748
0.000722666
0.000718598
0.000714603
0.000710205
0.000706009
0.000701918
0.000697578
0.000693727
0.000690003
0.000686487
0.000683176
0.00067995
0.000676933
0.000674036
0.000671205
0.000668597
0.000665948
0.000663384
0.000660769
0.000658132
0.000655496
0.000652854
0.000650232
0.000647625
0.00064491
0.000642409
0.000639949
0.000637654
0.000635347
0.000633352
0.000631335
0.000629668
0.000628045
0.000626517
0.000625114
0.000623771
0.000622439
0.000621173
0.000619797
0.000618361
0.000616862
0.00061528
0.000613799
0.000612093
0.000610558
0.000608952
0.000607694
0.000606413
0.000605233
0.000604138
0.000603154
0.000602264
0.000601484
0.000600666
0.000599914
0.000598979
0.000598195
0.000597281
0.000596313
0.000595216
0.000594175
0.00059311
0.00059215
0.000591195
0.000590319
0.000589531
0.000588831
0.000588228
0.000587682
0.000587163
0.000586666
0.000586104
0.000585556
0.000584876
0.000584149
0.000583427
0.000582654
0.000581853
0.000581087
0.00058038
0.000579708
0.000579097
0.000578551
0.000578093
0.000577688
0.000577329
0.000577031
0.00057664
0.000576254
0.00057584
0.000575328
0.000574802
0.000574191
0.00057327
3.22603e-07
4.14443e-07
3.71075e-07
4.64103e-07
1.05619e-06
2.12789e-06
4.69255e-06
1.00773e-05
1.9932e-05
3.56867e-05
5.63026e-05
7.95648e-05
0.000103827
0.000127831
0.00015084
0.000172661
0.000193577
0.00021407
0.000234038
0.000254644
0.00027544
0.000297318
0.000319997
0.000343938
0.000369128
0.000395736
0.000423866
0.000454001
0.000485506
0.000519228
0.000554716
0.000591751
0.00063015
0.000669699
0.000710551
0.000751299
0.000794173
0.000838945
0.00088582
0.00093393
0.000983546
0.00103394
0.00108702
0.00113972
0.00119291
0.00124412
0.00129852
0.0013531
0.00140971
0.00146141
0.00151522
0.00156471
0.00161564
0.00166217
0.00170838
0.00175221
0.00179245
0.00183079
0.00186614
0.00189871
0.00192838
0.00195559
0.00198062
0.0020034
0.0020243
0.00204242
0.00205827
0.00207166
0.00208195
0.00209193
0.0020989
0.00210363
0.00210726
0.00210745
0.00210715
0.00210335
0.00209913
0.00209133
0.00208356
0.00207261
0.00206253
0.00204966
0.00203799
0.00202392
0.0020104
0.00199422
0.00197879
0.0019616
0.00194537
0.0019278
0.00191131
0.00189363
0.00187674
0.00185918
0.0018421
0.00182477
0.00180748
0.00178995
0.00177223
0.00175489
0.00173751
0.0017208
0.00170419
0.00168835
0.00167253
0.00165746
0.0016425
0.00162827
0.00161402
0.00160018
0.00158648
0.00157351
0.00156096
0.00154899
0.00153723
0.00152556
0.00151185
0.00149804
0.00148217
0.00146752
0.00145929
0.00144691
0.00143516
0.00142731
0.00141981
0.00141199
0.00140467
0.00139659
0.00138851
0.00138055
0.00137297
0.00136551
0.0013584
0.00135089
0.0013435
0.00133594
0.00132863
0.00132145
0.00131461
0.00130759
0.00130085
0.00129413
0.00128777
0.00128113
0.00127477
0.0012678
0.00126103
0.00125396
0.00124709
0.00124158
0.00123543
0.00122936
0.00122401
0.00121895
0.00121432
0.00120988
0.00120572
0.00120161
0.00119773
0.00119384
0.00119009
0.00118619
0.0011822
0.00117825
0.00117406
0.00116963
0.00116517
0.00116067
0.00115612
0.00115155
0.00114701
0.00114299
0.00113899
0.00113517
0.00113176
0.00112856
0.00112575
0.00112324
0.00112093
0.00111876
0.00111658
0.00111424
0.00111176
0.00110906
0.00110609
0.00110304
0.00109982
0.00109655
0.00109336
0.00109021
0.0010872
0.0010845
0.00108212
0.00107998
0.00107803
0.00107632
0.00107484
0.00107344
0.00107198
0.00107042
0.00106863
0.00106666
0.00106461
0.00106242
0.00106014
0.00105784
0.00105561
0.00105343
0.00105157
0.00104984
0.00104834
0.00104707
0.001046
0.00104496
0.00104402
0.00104295
0.00104189
0.00104059
0.00103895
0.00103746
0.00103585
0.00103415
0.00103249
0.00103081
0.0010293
0.00102799
0.00102682
0.00102578
0.00102491
0.00102418
0.00102357
0.00102293
0.00102233
0.00102146
0.00102031
0.00101937
0.00101816
0.00101683
0.00101551
0.00101362
4.81519e-07
8.51265e-07
1.15533e-06
2.12798e-06
3.9698e-06
7.8638e-06
1.65403e-05
3.33231e-05
6.13513e-05
9.88351e-05
0.000142816
0.000187364
0.000229373
0.000267928
0.000303078
0.000335933
0.000365999
0.000395255
0.000423657
0.00045263
0.000481678
0.000511827
0.000542854
0.000575287
0.00060913
0.000644552
0.000681701
0.000720681
0.000761078
0.000803313
0.000847154
0.000892489
0.000938827
0.000986502
0.00103595
0.00108585
0.00113747
0.00119061
0.00124553
0.00130145
0.00135884
0.00141616
0.00147632
0.0015355
0.0015953
0.0016526
0.00171289
0.00177283
0.0018343
0.00189121
0.00194969
0.00200372
0.00205913
0.00211016
0.00216177
0.00221039
0.00225631
0.00230024
0.00234077
0.00237871
0.00241396
0.00244695
0.00247781
0.00250638
0.00253289
0.00255649
0.00257789
0.00259696
0.00261254
0.00262799
0.00263982
0.00264979
0.00265785
0.00266257
0.00266629
0.0026665
0.00266599
0.0026617
0.00265735
0.00264986
0.00264315
0.00263361
0.00262523
0.00261361
0.00260187
0.00258734
0.00257334
0.00255774
0.00254289
0.00252664
0.00251125
0.0024945
0.00247838
0.0024614
0.00244476
0.00242764
0.0024103
0.00239232
0.00237411
0.00235612
0.00233804
0.0023206
0.00230331
0.0022867
0.00227009
0.00225412
0.00223825
0.00222306
0.00220774
0.00219278
0.0021778
0.00216369
0.00214999
0.002137
0.00212407
0.00211082
0.00209489
0.00207858
0.00205995
0.00204106
0.0020318
0.00201853
0.0020049
0.00199599
0.00198798
0.00197915
0.00197055
0.00196083
0.00195113
0.00194136
0.00193205
0.00192282
0.001914
0.00190451
0.00189518
0.00188547
0.00187611
0.0018668
0.00185798
0.00184878
0.00183996
0.00183104
0.00182261
0.00181369
0.00180514
0.00179562
0.00178636
0.0017767
0.0017671
0.0017593
0.00175089
0.00174237
0.00173481
0.00172758
0.00172097
0.00171455
0.00170852
0.00170252
0.00169681
0.00169104
0.00168549
0.00167965
0.0016737
0.00166777
0.00166153
0.0016549
0.00164828
0.00164154
0.00163474
0.00162795
0.00162114
0.00161514
0.00160908
0.00160338
0.00159811
0.00159324
0.00158887
0.00158484
0.00158118
0.00157757
0.00157401
0.00157017
0.00156619
0.00156183
0.00155716
0.00155231
0.0015473
0.00154219
0.00153732
0.00153246
0.00152791
0.00152366
0.00151991
0.00151643
0.00151327
0.00151041
0.00150788
0.00150542
0.00150289
0.00150025
0.00149721
0.00149402
0.00149062
0.00148708
0.00148344
0.00147984
0.00147633
0.00147294
0.00147001
0.00146724
0.00146485
0.00146268
0.00146084
0.00145901
0.00145735
0.0014555
0.00145368
0.00145147
0.0014488
0.0014463
0.00144378
0.00144113
0.00143851
0.00143593
0.00143362
0.00143155
0.00142972
0.00142803
0.00142661
0.00142534
0.00142429
0.00142315
0.0014221
0.00142066
0.00141881
0.00141725
0.00141539
0.00141338
0.00141138
0.00140856
6.34388e-07
2.07152e-06
3.3653e-06
5.50325e-06
1.02699e-05
2.07346e-05
4.14933e-05
7.81448e-05
0.0001292
0.000188562
0.000248945
0.000305699
0.000357561
0.000404808
0.00044761
0.000486527
0.000522877
0.000557827
0.000591793
0.000626035
0.000660286
0.000695419
0.000731386
0.000768627
0.00080717
0.000847099
0.000888488
0.000931379
0.000975396
0.00102061
0.0010667
0.00111411
0.0011624
0.00121181
0.00126317
0.00131503
0.0013683
0.00142251
0.00147798
0.00153414
0.00159164
0.00164806
0.00170655
0.0017629
0.00181956
0.00187371
0.00193064
0.00198664
0.00204331
0.00209633
0.00214178
0.00217654
0.00221037
0.00224696
0.00229224
0.00232483
0.00236625
0.00240391
0.0024393
0.00247913
0.00251597
0.00256058
0.00259815
0.00264199
0.00267707
0.00271749
0.0027547
0.00279068
0.00283034
0.00286477
0.00288184
0.00289718
0.00290936
0.00291904
0.00292708
0.00293203
0.00293605
0.00293691
0.00293762
0.00293598
0.00293489
0.0029315
0.00292924
0.0029233
0.0029164
0.00290695
0.0028977
0.00288723
0.0028772
0.00286595
0.00285528
0.00284328
0.00283172
0.00281917
0.00280675
0.00279364
0.00278007
0.00276551
0.00275073
0.0027359
0.00272099
0.00270657
0.00269233
0.00267858
0.00266485
0.00265154
0.00263838
0.00262568
0.00261285
0.00260028
0.00258761
0.0025757
0.00256418
0.0025534
0.00254254
0.00253073
0.00251616
0.00250078
0.00248329
0.00246377
0.00245569
0.00244518
0.00243333
0.00242572
0.00241959
0.00241245
0.00240508
0.00239651
0.00238796
0.00237913
0.00237068
0.00236229
0.00235421
0.00234531
0.00233655
0.00232723
0.00231825
0.00230924
0.00230073
0.00229172
0.0022831
0.00227425
0.00226594
0.00225697
0.00224833
0.00223851
0.0022289
0.00221884
0.00220854
0.00220036
0.00219179
0.00218287
0.00217492
0.00216734
0.00216042
0.00215369
0.00214737
0.00214103
0.00213502
0.00212883
0.00212292
0.00211654
0.00211006
0.00210348
0.00209653
0.00208907
0.00208161
0.00207391
0.00206614
0.00205837
0.00205046
0.00204359
0.00203663
0.00203011
0.00202403
0.00201845
0.00201345
0.00200885
0.00200469
0.00200055
0.00199642
0.00199194
0.00198725
0.00198202
0.00197644
0.00197059
0.00196453
0.00195831
0.00195239
0.00194649
0.00194103
0.00193586
0.00193128
0.00192707
0.00192326
0.00191979
0.0019167
0.00191367
0.00191052
0.00190727
0.00190344
0.00189943
0.00189518
0.00189071
0.00188614
0.00188158
0.00187722
0.00187297
0.00186933
0.00186584
0.00186285
0.0018601
0.00185779
0.00185544
0.00185333
0.00185094
0.0018486
0.00184579
0.00184239
0.00183912
0.00183589
0.00183251
0.00182916
0.00182588
0.00182298
0.00182035
0.00181804
0.00181589
0.00181411
0.00181247
0.00181116
0.00180966
0.00180831
0.0018065
0.00180414
0.00180209
0.00179973
0.00179719
0.00179464
0.0017911
7.85204e-07
5.45499e-06
7.10605e-06
1.15295e-05
2.18519e-05
4.34898e-05
8.26799e-05
0.000141086
0.000209689
0.000281681
0.000351074
0.000414946
0.000473211
0.000525712
0.00057255
0.000615677
0.000656074
0.000694589
0.000731949
0.000769134
0.000806179
0.000843701
0.000881816
0.00092083
0.000960831
0.00100179
0.00104371
0.00108669
0.00113033
0.00117428
0.00121875
0.00126438
0.00131054
0.00135751
0.00140567
0.00145386
0.001503
0.00155262
0.00160265
0.0016529
0.00170413
0.00175348
0.00179092
0.00180421
0.00181361
0.00183168
0.00185089
0.001869
0.00188497
0.00191258
0.00194063
0.00196607
0.00200067
0.00202577
0.0020803
0.00210505
0.00213386
0.00217557
0.00219939
0.00224205
0.00226867
0.00231261
0.00234207
0.00238361
0.00241246
0.00245033
0.00248417
0.00251927
0.00255744
0.00259053
0.00262915
0.00266493
0.00269872
0.00273582
0.00276643
0.00280004
0.00283181
0.00286467
0.00289583
0.00293075
0.00296032
0.00299458
0.00301996
0.00302083
0.00302005
0.00301715
0.00301416
0.00301039
0.00300682
0.00300223
0.00299789
0.0029922
0.00298688
0.00298049
0.00297399
0.00296658
0.00295853
0.00294926
0.00293977
0.00292995
0.00292011
0.00291055
0.00290116
0.00289203
0.00288295
0.00287406
0.00286536
0.00285687
0.00284824
0.00283967
0.002831
0.00282284
0.00281505
0.00280797
0.00280066
0.00279172
0.00278039
0.00276791
0.00275384
0.00273642
0.00273037
0.00272433
0.00271649
0.00271131
0.0027079
0.00270383
0.00269917
0.0026934
0.00268763
0.00268135
0.00267537
0.00266936
0.00266352
0.00265687
0.00265031
0.0026431
0.00263618
0.00262914
0.00262251
0.00261538
0.00260861
0.00260149
0.00259488
0.00258748
0.00258032
0.00257197
0.00256365
0.00255493
0.00254567
0.00253858
0.00253149
0.00252384
0.00251702
0.0025106
0.0025048
0.00249921
0.00249399
0.00248871
0.00248376
0.00247852
0.00247356
0.00246801
0.00246234
0.00245644
0.00245013
0.00244323
0.00243627
0.00242898
0.0024216
0.00241417
0.00240648
0.00239991
0.00239331
0.00238718
0.00238141
0.00237623
0.00237161
0.00236749
0.00236378
0.00236012
0.00235636
0.00235222
0.00234779
0.0023427
0.0023372
0.00233138
0.00232525
0.00231892
0.00231289
0.00230686
0.00230135
0.0022961
0.00229154
0.00228741
0.00228371
0.00228036
0.00227739
0.00227449
0.0022714
0.00226822
0.0022643
0.00226017
0.00225577
0.00225105
0.00224624
0.0022414
0.00223683
0.00223236
0.00222858
0.00222492
0.00222187
0.00221906
0.00221677
0.0022144
0.0022123
0.00220984
0.00220742
0.00220452
0.00220091
0.00219732
0.00219385
0.00219017
0.00218656
0.002183
0.00217992
0.00217713
0.00217472
0.00217248
0.00217067
0.002169
0.00216774
0.00216623
0.00216485
0.00216303
0.00216053
0.00215828
0.00215574
0.002153
0.00215021
0.0021464
1.0054e-06
9.4954e-06
1.2442e-05
2.13008e-05
4.07851e-05
7.76687e-05
0.000136882
0.000210002
0.00028908
0.000368307
0.000442629
0.000510793
0.000573072
0.0006278
0.000677458
0.000723243
0.000765972
0.00080647
0.000845493
0.000883774
0.000921631
0.000959456
0.00099743
0.00103583
0.00107478
0.00111414
0.00115385
0.0011941
0.00123442
0.00127458
0.00131464
0.00135528
0.00139574
0.0014366
0.00147826
0.00151942
0.00156081
0.00158832
0.00159613
0.00159842
0.00159856
0.00160427
0.00161041
0.00161287
0.00161457
0.00163145
0.00164756
0.00166316
0.00167947
0.00169705
0.00173496
0.00175407
0.00179204
0.0018059
0.00185842
0.00187695
0.00188751
0.00192803
0.00194231
0.0019777
0.00199462
0.0020316
0.00205237
0.00208629
0.0021071
0.00213695
0.00216317
0.00219244
0.00222244
0.00225057
0.00228409
0.00231575
0.00234861
0.0023828
0.00241612
0.00244782
0.00248151
0.00251481
0.00254911
0.00258477
0.00261972
0.00265557
0.0026897
0.00272317
0.0027532
0.00278468
0.00281604
0.00284568
0.00287705
0.00290306
0.00293196
0.00295933
0.0029745
0.00297592
0.00297689
0.00297657
0.00297552
0.00297312
0.0029704
0.00296708
0.00296379
0.00296066
0.00295752
0.00295449
0.00295138
0.0029483
0.00294519
0.00294196
0.0029386
0.0029351
0.00293153
0.00292816
0.00292511
0.0029226
0.0029196
0.00291442
0.00290761
0.00289939
0.00289031
0.00287704
0.0028738
0.00287231
0.00286987
0.00286762
0.00286724
0.00286683
0.00286568
0.00286362
0.0028615
0.00285863
0.00285598
0.00285312
0.00285032
0.00284685
0.00284342
0.00283932
0.00283543
0.00283129
0.00282744
0.0028232
0.00281923
0.00281486
0.00281089
0.00280609
0.00280144
0.00279567
0.0027898
0.00278357
0.0027766
0.00277158
0.00276698
0.00276173
0.00275712
0.00275287
0.00274918
0.00274571
0.00274253
0.00273932
0.00273637
0.00273307
0.00273
0.00272626
0.00272244
0.00271821
0.0027136
0.00270833
0.00270296
0.00269714
0.00269127
0.00268528
0.00267889
0.00267361
0.00266846
0.00266371
0.00265922
0.00265537
0.00265202
0.00264924
0.0026468
0.00264442
0.00264187
0.00263891
0.00263562
0.00263155
0.00262704
0.0026222
0.00261694
0.00261148
0.00260622
0.00260096
0.00259624
0.00259183
0.0025881
0.0025848
0.00258196
0.00257944
0.00257729
0.0025752
0.0025729
0.00257045
0.00256724
0.00256369
0.00255986
0.00255568
0.00255137
0.00254698
0.00254292
0.0025389
0.00253566
0.00253248
0.00252996
0.00252768
0.00252598
0.00252416
0.00252261
0.00252065
0.00251866
0.00251624
0.00251303
0.0025097
0.00250654
0.00250313
0.00249981
0.00249651
0.00249377
0.0024913
0.00248926
0.00248738
0.00248599
0.00248471
0.0024839
0.0024828
0.00248178
0.00248038
0.00247819
0.00247613
0.00247385
0.00247133
0.00246872
0.00246523
1.28417e-06
1.43983e-05
2.05537e-05
3.59769e-05
6.74593e-05
0.000121562
0.000195097
0.000276727
0.000362111
0.00044499
0.00052193
0.000593067
0.000656377
0.000712648
0.00076398
0.000811155
0.000854938
0.00089614
0.000935416
0.000973283
0.00101032
0.00104677
0.00108284
0.00111876
0.00115471
0.00119047
0.00122595
0.00126136
0.00129632
0.00133051
0.0013641
0.0013977
0.00143053
0.00146308
0.00146237
0.00144839
0.00143341
0.00142924
0.00142845
0.00142219
0.00141434
0.00141995
0.00142581
0.00143168
0.00143855
0.00145561
0.0014841
0.00149659
0.00151606
0.00151923
0.00156449
0.00157706
0.00160793
0.00161487
0.00164487
0.00166235
0.00166025
0.00168996
0.00169663
0.00172074
0.0017312
0.00175536
0.00177072
0.0017951
0.00181424
0.00183687
0.00185965
0.00188316
0.00190762
0.00193219
0.00195784
0.00198473
0.00200926
0.00203522
0.00206388
0.00208436
0.00211563
0.00213849
0.00217302
0.00219735
0.00223481
0.00225816
0.00229686
0.00231817
0.00235984
0.00238612
0.00242887
0.00245633
0.00249838
0.00252608
0.00256638
0.00259664
0.00263564
0.00266414
0.00270085
0.00272464
0.00275734
0.00278344
0.00281436
0.0028389
0.00286628
0.00287709
0.00288167
0.00288602
0.00288999
0.00289373
0.00289715
0.00290022
0.00290311
0.00290574
0.00290815
0.00291071
0.00291349
0.00291636
0.00291833
0.00291797
0.00291689
0.00291411
0.00291126
0.00290408
0.0029041
0.00290727
0.00291065
0.00291204
0.00291491
0.00291835
0.00292129
0.00292345
0.00292553
0.00292661
0.00292783
0.00292857
0.00292931
0.0029296
0.00292982
0.00292942
0.00292914
0.00292842
0.00292788
0.00292711
0.00292652
0.00292546
0.00292465
0.00292304
0.00292153
0.00291901
0.00291631
0.00291323
0.00290941
0.00290704
0.00290551
0.00290336
0.00290164
0.00290013
0.00289914
0.00289837
0.00289784
0.00289728
0.00289692
0.00289617
0.00289556
0.0028943
0.00289301
0.00289108
0.00288888
0.00288598
0.00288294
0.00287939
0.00287582
0.00287201
0.00286776
0.00286453
0.00286156
0.00285888
0.00285642
0.00285457
0.00285314
0.00285232
0.00285175
0.0028512
0.00285048
0.00284933
0.00284787
0.0028455
0.00284274
0.00283957
0.00283601
0.00283215
0.00282842
0.00282468
0.00282151
0.00281864
0.00281639
0.00281455
0.0028132
0.00281213
0.00281138
0.00281067
0.00280977
0.00280866
0.00280682
0.00280452
0.0028019
0.00279892
0.00279581
0.00279254
0.00278964
0.00278673
0.00278465
0.00278256
0.00278114
0.00277995
0.00277939
0.00277864
0.00277817
0.00277724
0.00277621
0.00277485
0.00277262
0.00277011
0.00276782
0.00276525
0.0027628
0.0027603
0.00275845
0.0027568
0.00275563
0.00275459
0.00275408
0.00275364
0.0027537
0.00275344
0.00275322
0.00275269
0.00275126
0.00274984
0.00274825
0.00274643
0.00274446
0.00274194
1.60983e-06
1.94089e-05
3.14944e-05
5.59438e-05
0.000100817
0.000169807
0.000250837
0.000337997
0.000426527
0.000511028
0.000589389
0.000661575
0.000724975
0.000782106
0.000834154
0.000881752
0.000925603
0.000966417
0.00100474
0.00104097
0.0010758
0.0011095
0.0011422
0.00117408
0.00120544
0.00123602
0.00126564
0.00129472
0.00132283
0.00134951
0.00137528
0.00137003
0.00133878
0.00132021
0.00130787
0.00128687
0.00126825
0.00126525
0.00126642
0.00126388
0.0012594
0.0012713
0.00128621
0.00129577
0.00130667
0.00131059
0.00135386
0.00135625
0.00137342
0.00136334
0.00139903
0.00140396
0.001419
0.00142773
0.00143053
0.00145587
0.00145618
0.00147065
0.00147552
0.00148994
0.00150435
0.00151687
0.00153458
0.0015505
0.00157221
0.00158655
0.00160922
0.00162573
0.00165017
0.00166935
0.00169087
0.00171703
0.00173125
0.00175612
0.00177803
0.00179219
0.00182188
0.0018339
0.00186878
0.00188358
0.00191872
0.00193515
0.00196885
0.00198123
0.00201867
0.00203997
0.00207553
0.00209771
0.00213143
0.00215483
0.00218731
0.00221281
0.00224564
0.00227471
0.00230875
0.00233475
0.00236894
0.00240013
0.00243516
0.00246625
0.00250041
0.00253357
0.00256015
0.00258976
0.00261794
0.00264467
0.00266899
0.00269422
0.00271849
0.00274345
0.00276983
0.0027804
0.00279031
0.00279974
0.00280764
0.00281363
0.00281918
0.00282322
0.0028269
0.00282789
0.00283242
0.00284075
0.00284962
0.00285579
0.00286268
0.00287024
0.00287788
0.0028848
0.00289176
0.00289746
0.0029031
0.00290805
0.00291287
0.00291744
0.00292179
0.00292559
0.0029294
0.0029326
0.00293583
0.0029389
0.00294213
0.00294479
0.00294756
0.00294952
0.0029516
0.00295281
0.00295377
0.00295428
0.0029543
0.00295503
0.00295686
0.00295828
0.00295985
0.00296147
0.00296355
0.00296585
0.00296831
0.00297075
0.00297334
0.00297551
0.00297774
0.00297936
0.00298099
0.0029818
0.00298243
0.00298242
0.00298218
0.00298144
0.00298069
0.00297956
0.00297808
0.00297742
0.00297708
0.00297694
0.00297702
0.00297763
0.00297858
0.00298005
0.00298174
0.00298342
0.00298497
0.00298606
0.00298688
0.00298674
0.00298617
0.00298529
0.00298399
0.00298228
0.00298065
0.00297901
0.00297794
0.00297712
0.00297682
0.00297692
0.00297754
0.00297837
0.00297946
0.00298059
0.00298155
0.00298227
0.00298223
0.00298176
0.00298091
0.00297967
0.00297832
0.00297673
0.00297554
0.00297428
0.00297385
0.00297336
0.00297353
0.00297389
0.00297491
0.0029757
0.00297676
0.0029773
0.00297774
0.00297792
0.00297718
0.002976
0.00297508
0.00297386
0.0029728
0.00297162
0.00297112
0.00297076
0.00297092
0.00297117
0.00297197
0.00297278
0.00297411
0.00297512
0.0029761
0.00297687
0.00297664
0.00297629
0.00297587
0.00297516
0.00297427
0.00297338
2.14582e-06
2.55571e-05
4.52032e-05
8.01617e-05
0.000138464
0.000216014
0.000301979
0.000392088
0.000481806
0.000566632
0.000645672
0.000717351
0.000780593
0.000837908
0.000889956
0.000937235
0.000980312
0.00101973
0.00105599
0.00108951
0.00112093
0.00115058
0.00117856
0.00120502
0.00123042
0.00125436
0.0012769
0.00129867
0.00131137
0.0012731
0.00124775
0.00122255
0.00118579
0.00116749
0.00115713
0.00113887
0.00112606
0.00113605
0.0011388
0.00114078
0.00114051
0.00115128
0.00118326
0.0011882
0.0011995
0.00118561
0.00122691
0.00121642
0.00123284
0.00121969
0.00123901
0.00124061
0.00124845
0.00125967
0.00124543
0.00126973
0.00127744
0.00127293
0.00128288
0.00128372
0.00130242
0.00130419
0.00132466
0.0013286
0.00135323
0.00135695
0.00138335
0.00138984
0.00142077
0.00143
0.00145597
0.00147945
0.00149093
0.00152147
0.0015317
0.00156019
0.00158129
0.00159867
0.0016295
0.00164283
0.00167286
0.00168924
0.00171328
0.00172746
0.00175529
0.00177629
0.00180068
0.00182071
0.0018421
0.00186156
0.00188169
0.00190155
0.00192287
0.00194707
0.00196921
0.0019921
0.00201742
0.00204449
0.00207346
0.00209969
0.00213037
0.00215838
0.00218669
0.00221593
0.00224522
0.00227413
0.0023033
0.00233164
0.0023623
0.00239044
0.00242361
0.00245283
0.00247684
0.0024983
0.00251294
0.00253339
0.00255748
0.00259336
0.00263435
0.00264835
0.00266048
0.00267506
0.00268984
0.00270223
0.00271454
0.00272717
0.00274038
0.00275287
0.0027655
0.0027765
0.00278751
0.00279742
0.00280711
0.00281652
0.0028258
0.00283442
0.00284311
0.00285087
0.00285856
0.00286602
0.00287362
0.00288055
0.00288748
0.0028935
0.0028997
0.00290513
0.00291036
0.00291501
0.00291944
0.0029239
0.00292932
0.00293462
0.0029399
0.00294508
0.00295056
0.00295618
0.00296195
0.00296768
0.00297351
0.00297886
0.00298424
0.00298903
0.00299386
0.00299777
0.0030015
0.00300478
0.00300768
0.00301015
0.0030126
0.00301456
0.0030163
0.00301853
0.00302118
0.00302393
0.00302685
0.00303019
0.00303383
0.00303785
0.00304205
0.00304622
0.0030503
0.00305396
0.00305736
0.00305978
0.00306182
0.00306359
0.00306491
0.00306578
0.00306667
0.00306752
0.00306897
0.00307053
0.00307255
0.00307493
0.00307784
0.00308089
0.00308414
0.00308741
0.00309055
0.00309344
0.00309556
0.00309735
0.00309867
0.00309959
0.00310042
0.00310096
0.00310189
0.0031027
0.0031043
0.00310581
0.00310795
0.00311023
0.00311314
0.00311583
0.00311877
0.00312114
0.00312344
0.00312554
0.00312672
0.00312733
0.00312819
0.00312875
0.00312951
0.00313008
0.00313134
0.00313266
0.00313452
0.00313644
0.00313893
0.00314135
0.00314428
0.00314691
0.00314947
0.00315189
0.00315324
0.00315438
0.00315552
0.00315632
0.00315692
0.00315825
2.80428e-06
3.38534e-05
6.11e-05
0.000107266
0.000174931
0.000257986
0.000347194
0.000438442
0.000528058
0.000612333
0.000691287
0.000761765
0.000824623
0.000881631
0.000933115
0.000979382
0.00102084
0.00105792
0.00109109
0.00112077
0.00114751
0.00117179
0.00119369
0.0012134
0.00123149
0.00124768
0.00125522
0.00121996
0.00117184
0.00112515
0.0010991
0.00108101
0.0010475
0.00103987
0.00103593
0.00102143
0.00101155
0.00102985
0.00104226
0.00105215
0.00105857
0.00105479
0.00109687
0.00108639
0.001097
0.00107497
0.00110377
0.0010908
0.00111067
0.00109951
0.00109664
0.00108852
0.0010853
0.00108633
0.00107306
0.00107213
0.0010891
0.00107334
0.00109049
0.00107527
0.00109436
0.00108316
0.00110756
0.0010969
0.00112701
0.00112029
0.00113577
0.00113914
0.00113904
0.00114408
0.00114742
0.00115426
0.00116153
0.0011678
0.00117734
0.00118525
0.00119697
0.00120894
0.00122294
0.00123589
0.00125137
0.00126756
0.00128548
0.00130277
0.00132283
0.00134271
0.00136571
0.00138791
0.00141336
0.00143831
0.00146568
0.0014938
0.00152331
0.00155395
0.00158578
0.001618
0.00165137
0.00168537
0.00172082
0.00175472
0.00179009
0.00182405
0.00185854
0.00189257
0.00192062
0.00194328
0.00196803
0.00199111
0.00201785
0.00204212
0.00207102
0.00209677
0.00211845
0.00213846
0.00215283
0.00217857
0.00220986
0.00224775
0.00228846
0.00234087
0.00237823
0.00238779
0.0024014
0.00242127
0.00243709
0.00245493
0.00247329
0.00249702
0.0025205
0.002544
0.00256671
0.0025843
0.00260444
0.0026248
0.00264145
0.00265609
0.0026707
0.00268397
0.00269723
0.0027099
0.00272275
0.00273471
0.00274667
0.00275761
0.00276876
0.00277916
0.00278951
0.00279913
0.0028086
0.00281767
0.00282736
0.00283691
0.00284653
0.00285574
0.00286514
0.00287447
0.00288398
0.00289332
0.0029028
0.00291167
0.00292058
0.00292888
0.00293725
0.00294461
0.00295189
0.00295876
0.00296522
0.00297124
0.00297726
0.00298271
0.00298803
0.00299353
0.00299948
0.00300538
0.00301149
0.00301781
0.00302434
0.00303114
0.00303806
0.00304494
0.00305177
0.0030582
0.00306442
0.00306967
0.00307464
0.00307934
0.00308356
0.00308735
0.00309109
0.00309475
0.00309897
0.00310321
0.0031078
0.00311271
0.00311813
0.00312362
0.00312927
0.0031349
0.00314042
0.00314571
0.0031503
0.00315459
0.0031584
0.0031618
0.00316513
0.00316813
0.00317148
0.00317469
0.0031786
0.00318242
0.00318678
0.00319124