/*--------------------------------*- C++ -*----------------------------------*\
| =========                 |                                                 |
| \\      /  F ield         | OpenFOAM: The Open Source CFD Toolbox           |
|  \\    /   O peration     | Version:  2312                                  |
|   \\  /    A nd           | Website:  www.openfoam.com                      |
|    \\/     M anipulation  |                                                 |
\*---------------------------------------------------------------------------*/
FoamFile
{
    version     2.0;
    format      ascii;
    arch        "LSB;label=32;scalar=64";
    class       volScalarField;
    location    "0.006";
    object      cSound;
}
// * * * * * * * * * * * * * * * * * * * * * * * * * * * * * * * * * * * * * //

dimensions      [0 1 -1 0 0 0 0];

internalField   nonuniform List<scalar> 
48128
(
372.824
372.818
372.813
372.812
372.806
372.787
372.712
372.516
372.208
371.796
371.409
370.994
370.514
369.977
369.447
368.955
368.484
368.027
367.589
367.177
366.768
366.371
365.996
365.648
365.336
365.069
364.854
364.7
364.614
364.587
364.621
364.742
364.94
365.207
365.534
365.918
366.35
366.816
367.317
367.844
368.383
368.923
369.462
370.006
370.528
371.018
371.465
371.88
372.252
372.576
372.839
373.042
373.175
373.239
373.236
373.166
373.032
372.835
372.581
372.274
371.921
371.529
371.102
370.642
370.15
369.629
369.08
368.505
367.914
367.294
366.656
366.007
365.331
364.65
363.943
363.243
362.523
361.82
361.113
360.437
359.766
359.127
358.491
357.862
357.216
356.591
355.977
355.393
354.833
354.3
353.777
353.276
352.784
352.311
351.855
351.414
350.981
350.551
350.139
349.745
349.367
349.015
348.693
348.389
348.095
347.821
347.563
347.32
347.08
346.855
346.626
346.423
346.248
346.084
345.914
345.73
345.523
345.296
345.014
344.636
344.708
344.635
344.46
344.554
344.533
344.497
344.442
344.373
344.296
344.215
344.144
344.08
344.013
343.943
343.871
343.797
343.73
343.675
343.624
343.572
343.522
343.479
343.439
343.397
343.351
343.3
343.254
343.2
343.127
343.158
343.155
343.141
343.169
343.184
343.214
343.244
343.277
343.306
343.338
343.365
343.393
343.407
343.42
343.43
343.431
343.429
343.425
343.419
343.414
343.403
343.404
343.415
343.426
343.444
343.469
343.506
343.548
343.599
343.65
343.701
343.738
343.775
343.79
343.805
343.806
343.803
343.796
343.787
343.787
343.79
343.799
343.815
343.845
343.881
343.921
343.965
344.013
344.058
344.095
344.128
344.142
344.159
344.163
344.163
344.162
344.165
344.173
344.187
344.208
344.235
344.269
344.31
344.354
344.396
344.436
344.468
344.497
344.529
344.524
344.532
344.543
344.548
344.558
344.573
344.593
344.62
344.651
344.686
344.725
344.766
344.808
344.846
344.879
344.913
344.921
344.936
344.951
344.956
344.966
344.989
372.812
372.806
372.798
372.804
372.815
372.777
372.615
372.232
371.684
371.116
370.479
369.685
368.804
367.97
367.223
366.548
365.931
365.367
364.862
364.419
364.014
363.652
363.341
363.087
362.899
362.783
362.739
362.747
362.851
363.045
363.315
363.667
364.095
364.592
365.146
365.75
366.384
367.03
367.686
368.343
368.986
369.603
370.188
370.74
371.24
371.678
372.046
372.352
372.587
372.744
372.812
372.786
372.679
372.489
372.211
371.847
371.411
370.906
370.34
369.717
369.042
368.319
367.551
366.743
365.897
365.025
364.127
363.204
362.272
361.324
360.374
359.424
358.456
357.496
356.514
355.547
354.566
353.608
352.653
351.733
350.828
349.956
349.097
348.251
347.395
346.558
345.744
344.955
344.202
343.476
342.77
342.081
341.415
340.76
340.13
339.515
338.914
338.316
337.734
337.174
336.629
336.11
335.623
335.16
334.707
334.28
333.868
333.479
333.093
332.727
332.357
332.015
331.702
331.406
331.109
330.8
330.468
330.113
329.704
329.153
329.088
328.894
328.569
328.542
328.447
328.32
328.175
328.017
327.852
327.685
327.528
327.382
327.234
327.082
326.93
326.776
326.627
326.491
326.363
326.233
326.107
325.989
325.875
325.761
325.645
325.523
325.4
325.266
325.103
325.042
324.957
324.85
324.794
324.725
324.678
324.628
324.586
324.543
324.505
324.468
324.431
324.39
324.347
324.301
324.25
324.194
324.137
324.077
324.018
323.957
323.897
323.865
323.827
323.801
323.773
323.772
323.771
323.781
323.793
323.806
323.813
323.815
323.81
323.798
323.781
323.759
323.732
323.706
323.679
323.667
323.658
323.654
323.663
323.678
323.698
323.724
323.755
323.785
323.808
323.83
323.836
323.846
323.843
323.839
323.832
323.833
323.836
323.846
323.86
323.881
323.908
323.942
323.982
324.02
324.058
324.089
324.119
324.16
324.156
324.165
324.182
324.19
324.203
324.222
324.246
324.275
324.309
324.346
324.388
324.433
324.481
324.526
324.566
324.618
324.631
324.653
324.682
324.696
324.716
324.753
372.797
372.799
372.8
372.814
372.795
372.612
372.191
371.609
370.965
370.242
369.484
368.746
368.061
367.427
366.853
366.339
365.879
365.459
365.092
364.785
364.512
364.284
364.104
363.979
363.91
363.9
363.952
364.079
364.289
364.578
364.935
365.359
365.841
366.365
366.927
367.52
368.127
368.73
369.323
369.899
370.441
370.939
371.382
371.772
372.093
372.335
372.493
372.564
372.545
372.438
372.233
371.93
371.535
371.058
370.488
369.831
369.109
368.319
367.474
366.577
365.64
364.663
363.653
362.613
361.544
360.467
359.375
358.273
357.17
356.058
354.961
353.873
352.775
351.7
350.607
349.54
348.468
347.424
346.393
345.4
344.431
343.498
342.586
341.686
340.783
339.903
339.052
338.228
337.443
336.685
335.948
335.228
334.534
333.849
333.193
332.552
331.923
331.301
330.695
330.111
329.539
328.995
328.483
327.991
327.511
327.055
326.616
326.198
325.783
325.389
324.99
324.621
324.278
323.953
323.624
323.283
322.924
322.541
322.11
321.544
321.441
321.213
320.875
320.794
320.655
320.49
320.31
320.12
319.926
319.731
319.547
319.373
319.198
319.02
318.843
318.663
318.491
318.33
318.177
318.022
317.872
317.729
317.591
317.453
317.312
317.168
317.023
316.869
316.686
316.602
316.495
316.366
316.284
316.19
316.117
316.041
315.973
315.904
315.84
315.779
315.718
315.654
315.589
315.522
315.451
315.377
315.302
315.224
315.147
315.07
314.99
314.937
314.879
314.835
314.787
314.767
314.743
314.738
314.734
314.729
314.721
314.709
314.69
314.667
314.638
314.606
314.568
314.53
314.498
314.469
314.452
314.432
314.434
314.44
314.449
314.465
314.486
314.507
314.523
314.539
314.541
314.545
314.54
314.533
314.522
314.517
314.517
314.523
314.533
314.549
314.572
314.601
314.636
314.671
314.707
314.737
314.766
314.807
314.806
314.815
314.831
314.841
314.856
314.875
314.898
314.927
314.961
314.999
315.041
315.087
315.136
315.182
315.226
315.279
315.299
315.326
315.358
315.378
315.402
315.445
372.779
372.796
372.809
372.793
372.622
372.203
371.633
370.967
370.302
369.686
369.13
368.592
368.071
367.577
367.122
366.723
366.379
366.08
365.828
365.626
365.453
365.317
365.222
365.174
365.173
365.23
365.351
365.545
365.806
366.13
366.508
366.94
367.417
367.926
368.459
369.01
369.558
370.083
370.58
371.041
371.45
371.793
372.062
372.256
372.361
372.371
372.271
372.068
371.76
371.353
370.839
370.225
369.511
368.718
367.828
366.86
365.84
364.755
363.628
362.456
361.262
360.042
358.805
357.553
356.286
355.034
353.777
352.532
351.302
350.074
348.882
347.709
346.538
345.405
344.256
343.145
342.04
340.969
339.922
338.917
337.943
337.008
336.1
335.207
334.318
333.453
332.627
331.827
331.068
330.337
329.626
328.933
328.264
327.605
326.976
326.363
325.761
325.166
324.588
324.031
323.485
322.966
322.477
322.005
321.546
321.109
320.689
320.286
319.888
319.509
319.124
318.769
318.438
318.123
317.801
317.468
317.119
316.746
316.332
315.799
315.686
315.462
315.166
315.054
314.903
314.732
314.549
314.359
314.166
313.97
313.786
313.611
313.435
313.256
313.078
312.898
312.727
312.565
312.409
312.253
312.102
311.957
311.816
311.676
311.532
311.386
311.238
311.084
310.904
310.815
310.706
310.579
310.49
310.392
310.314
310.233
310.159
310.085
310.015
309.948
309.88
309.81
309.739
309.667
309.591
309.514
309.434
309.353
309.273
309.192
309.108
309.05
308.987
308.937
308.884
308.856
308.825
308.813
308.803
308.791
308.776
308.759
308.736
308.708
308.675
308.639
308.599
308.556
308.522
308.488
308.467
308.441
308.44
308.442
308.447
308.459
308.474
308.491
308.504
308.516
308.516
308.518
308.512
308.504
308.494
308.486
308.486
308.49
308.499
308.512
308.533
308.561
308.594
308.627
308.661
308.69
308.719
308.759
308.761
308.771
308.787
308.799
308.815
308.835
308.859
308.889
308.923
308.961
309.004
309.05
309.099
309.146
309.192
309.246
309.269
309.299
309.334
309.357
309.385
309.432
372.762
372.799
372.798
372.649
372.269
371.735
371.101
370.48
369.942
369.5
369.12
368.692
368.278
367.914
367.59
367.309
367.07
366.864
366.693
366.566
366.46
366.386
366.347
366.347
366.394
366.497
366.659
366.885
367.17
367.507
367.888
368.311
368.768
369.242
369.724
370.209
370.671
371.089
371.454
371.762
371.997
372.14
372.18
372.114
371.94
371.648
371.219
370.661
369.982
369.198
368.293
367.285
366.172
364.993
363.718
362.382
361.021
359.597
358.155
356.684
355.218
353.748
352.284
350.833
349.384
347.984
346.595
345.245
343.933
342.633
341.395
340.183
338.984
337.845
336.688
335.587
334.502
333.459
332.448
331.486
330.559
329.676
328.823
327.992
327.164
326.365
325.606
324.876
324.185
323.521
322.874
322.246
321.64
321.046
320.483
319.936
319.397
318.865
318.349
317.852
317.363
316.901
316.465
316.042
315.633
315.244
314.872
314.512
314.158
313.82
313.477
313.161
312.866
312.584
312.292
311.991
311.677
311.336
310.964
310.494
310.383
310.184
309.955
309.822
309.681
309.527
309.361
309.19
309.015
308.838
308.672
308.511
308.349
308.186
308.023
307.858
307.702
307.553
307.409
307.265
307.127
306.994
306.864
306.733
306.599
306.465
306.326
306.184
306.019
305.934
305.834
305.721
305.636
305.546
305.473
305.4
305.331
305.262
305.197
305.134
305.069
305.004
304.937
304.868
304.797
304.724
304.649
304.572
304.497
304.421
304.342
304.286
304.227
304.18
304.129
304.102
304.072
304.059
304.048
304.036
304.021
304.004
303.981
303.954
303.923
303.889
303.85
303.81
303.776
303.745
303.724
303.7
303.698
303.699
303.705
303.715
303.73
303.746
303.758
303.771
303.771
303.775
303.769
303.763
303.753
303.749
303.749
303.754
303.763
303.777
303.799
303.826
303.859
303.892
303.926
303.956
303.986
304.025
304.03
304.043
304.06
304.075
304.093
304.115
304.141
304.172
304.208
304.248
304.291
304.338
304.388
304.436
304.485
304.539
304.565
304.599
304.635
304.663
304.693
304.744
372.759
372.8
372.701
372.378
371.892
371.299
370.707
370.206
369.822
369.52
369.2
368.883
368.597
368.349
368.132
367.945
367.784
367.647
367.534
367.459
367.402
367.374
367.376
367.415
367.502
367.64
367.831
368.077
368.375
368.715
369.085
369.481
369.899
370.315
370.715
371.098
371.434
371.7
371.883
371.973
371.957
371.818
371.536
371.112
370.542
369.825
368.933
367.881
366.689
365.395
363.955
362.415
360.774
359.087
357.353
355.56
353.783
351.968
350.149
348.365
346.594
344.891
343.198
341.584
339.975
338.481
337.012
335.618
334.294
332.988
331.777
330.594
329.44
328.371
327.279
326.27
325.283
324.349
323.454
322.617
321.812
321.064
320.337
319.638
318.932
318.257
317.619
317.01
316.435
315.887
315.351
314.832
314.33
313.844
313.385
312.94
312.501
312.064
311.641
311.233
310.828
310.451
310.094
309.748
309.416
309.102
308.8
308.508
308.221
307.946
307.666
307.413
307.174
306.943
306.701
306.451
306.193
305.907
305.598
305.216
305.112
304.958
304.807
304.668
304.559
304.437
304.303
304.167
304.025
303.882
303.747
303.615
303.481
303.348
303.213
303.077
302.949
302.824
302.704
302.584
302.47
302.36
302.251
302.141
302.029
301.916
301.798
301.678
301.539
301.466
301.384
301.293
301.221
301.146
301.087
301.028
300.973
300.918
300.865
300.814
300.761
300.707
300.651
300.593
300.533
300.472
300.408
300.343
300.278
300.214
300.147
300.1
300.051
300.012
299.971
299.95
299.927
299.919
299.913
299.906
299.896
299.885
299.867
299.845
299.819
299.792
299.76
299.726
299.698
299.672
299.657
299.639
299.64
299.644
299.653
299.667
299.685
299.702
299.718
299.733
299.736
299.746
299.742
299.741
299.735
299.736
299.739
299.747
299.76
299.777
299.8
299.831
299.865
299.901
299.937
299.968
300.001
300.041
300.051
300.067
300.087
300.106
300.128
300.153
300.183
300.216
300.255
300.297
300.343
300.392
300.444
300.494
300.545
300.6
300.631
300.667
300.707
300.738
300.773
300.829
372.784
372.776
372.535
372.098
371.54
370.964
370.468
370.095
369.831
369.59
369.356
369.145
368.963
368.806
368.668
368.547
368.444
368.36
368.297
368.265
368.249
368.259
368.296
368.37
368.487
368.651
368.86
369.114
369.412
369.736
370.075
370.421
370.769
371.089
371.364
371.592
371.74
371.78
371.685
371.454
371.066
370.504
369.737
368.762
367.586
366.232
364.645
362.869
360.934
358.918
356.77
354.525
352.254
349.897
347.708
345.385
343.088
340.9
338.641
336.593
334.481
332.614
330.697
328.999
327.274
325.77
324.295
322.945
321.678
320.455
319.371
318.312
317.32
316.423
315.508
314.699
313.916
313.195
312.519
311.904
311.316
310.798
310.281
309.804
309.293
308.819
308.375
307.956
307.567
307.195
306.832
306.483
306.139
305.807
305.497
305.196
304.892
304.588
304.294
304.008
303.72
303.459
303.21
302.967
302.739
302.522
302.313
302.109
301.909
301.718
301.521
301.349
301.185
301.021
300.848
300.667
300.484
300.274
300.046
299.772
299.672
299.594
299.516
299.403
299.332
299.256
299.165
299.077
298.982
298.886
298.795
298.703
298.611
298.519
298.424
298.327
298.237
298.149
298.062
297.977
297.897
297.819
297.741
297.662
297.58
297.499
297.409
297.321
297.218
297.162
297.108
297.046
296.996
296.944
296.906
296.868
296.833
296.799
296.766
296.733
296.698
296.663
296.625
296.584
296.541
296.498
296.451
296.404
296.356
296.309
296.259
296.227
296.193
296.169
296.142
296.133
296.122
296.124
296.128
296.13
296.129
296.128
296.12
296.109
296.092
296.077
296.056
296.032
296.013
295.999
295.992
295.985
295.991
296.002
296.018
296.039
296.063
296.086
296.108
296.128
296.139
296.156
296.157
296.164
296.165
296.172
296.182
296.196
296.214
296.237
296.265
296.3
296.339
296.379
296.419
296.455
296.492
296.535
296.552
296.573
296.597
296.622
296.648
296.679
296.713
296.751
296.793
296.84
296.889
296.942
296.997
297.05
297.105
297.163
297.198
297.239
297.281
297.318
297.357
297.42
372.807
372.732
372.361
371.832
371.257
370.744
370.349
370.08
369.879
369.71
369.561
369.437
369.33
369.236
369.156
369.088
369.033
368.993
368.973
368.977
368.994
369.035
369.102
369.201
369.339
369.516
369.729
369.975
370.25
370.535
370.813
371.071
371.303
371.473
371.551
371.531
371.382
371.061
370.53
369.782
368.795
367.564
366.036
364.229
362.164
359.918
357.39
354.664
351.807
348.829
345.95
342.908
340.047
336.966
334.389
331.636
328.756
326.33
323.704
321.494
319.131
317.205
315.174
313.494
311.745
310.293
308.871
307.645
306.504
305.46
304.561
303.702
302.95
302.258
301.624
301.046
300.536
300.077
299.689
299.345
299.058
298.798
298.573
298.359
298.131
297.909
297.746
297.567
297.441
297.292
297.173
297.046
296.928
296.795
296.69
296.572
296.453
296.321
296.205
296.081
295.953
295.841
295.731
295.619
295.519
295.423
295.329
295.236
295.143
295.058
294.965
294.894
294.822
294.746
294.662
294.562
294.469
294.35
294.223
294.069
293.989
293.998
293.983
293.929
293.906
293.881
293.846
293.816
293.783
293.745
293.709
293.669
293.628
293.586
293.541
293.493
293.452
293.409
293.366
293.323
293.286
293.249
293.21
293.17
293.126
293.084
293.032
292.983
292.924
292.894
292.873
292.847
292.826
292.803
292.792
292.782
292.774
292.766
292.759
292.751
292.74
292.729
292.714
292.696
292.675
292.657
292.632
292.609
292.582
292.559
292.532
292.518
292.505
292.499
292.493
292.499
292.506
292.521
292.539
292.554
292.569
292.581
292.588
292.591
292.585
292.589
292.581
292.571
292.566
292.567
292.572
292.578
292.594
292.616
292.642
292.673
292.705
292.737
292.768
292.798
292.818
292.845
292.856
292.872
292.883
292.899
292.918
292.941
292.967
292.998
293.033
293.075
293.121
293.167
293.213
293.254
293.298
293.346
293.372
293.4
293.431
293.462
293.496
293.533
293.573
293.617
293.665
293.716
293.771
293.829
293.889
293.947
294.006
294.067
294.109
294.155
294.202
294.245
294.29
294.36
372.825
372.652
372.183
371.605
371.054
370.617
370.308
370.108
369.97
369.862
369.783
369.722
369.67
369.625
369.588
369.561
369.547
369.544
369.556
369.588
369.632
369.697
369.784
369.897
370.042
370.217
370.414
370.626
370.851
371.061
371.231
371.343
371.387
371.303
371.054
370.62
369.967
369.057
367.836
366.285
364.386
362.193
359.603
356.691
353.503
350.11
346.633
342.88
339.152
335.126
331.752
328.02
324.731
321.129
318.2
315.196
311.936
309.435
306.639
304.439
302.071
300.214
298.291
296.745
295.182
293.887
292.668
291.633
290.702
289.903
289.196
288.598
288.058
287.572
287.228
286.802
286.588
286.291
286.205
286.033
286.053
285.955
286.042
285.966
286.073
286.032
286.184
286.193
286.354
286.401
286.551
286.629
286.774
286.848
286.994
287.067
287.186
287.256
287.354
287.424
287.487
287.56
287.608
287.659
287.712
287.764
287.809
287.857
287.893
287.943
287.975
288.026
288.058
288.099
288.112
288.103
288.112
288.101
288.104
288.063
288.045
288.118
288.188
288.209
288.238
288.27
288.311
288.345
288.391
288.415
288.446
288.464
288.482
288.496
288.514
288.522
288.539
288.546
288.555
288.562
288.577
288.587
288.594
288.598
288.6
288.604
288.597
288.597
288.586
288.59
288.605
288.621
288.635
288.65
288.671
288.693
288.718
288.74
288.766
288.785
288.807
288.822
288.838
288.847
288.852
288.866
288.866
288.872
288.872
288.877
288.877
288.885
288.898
288.915
288.932
288.958
288.985
289.019
289.054
289.088
289.12
289.15
289.175
289.196
289.209
289.231
289.24
289.25
289.262
289.279
289.301
289.322
289.352
289.387
289.428
289.471
289.515
289.559
289.601
289.642
289.674
289.714
289.738
289.765
289.79
289.817
289.848
289.881
289.919
289.96
290.004
290.055
290.109
290.163
290.218
290.268
290.32
290.374
290.411
290.448
290.487
290.527
290.569
290.614
290.662
290.713
290.769
290.827
290.889
290.952
291.019
291.082
291.147
291.213
291.264
291.316
291.368
291.419
291.47
291.549
372.803
372.539
372.009
371.423
370.921
370.552
370.315
370.174
370.083
370.028
370
369.982
369.97
369.964
369.962
369.967
369.981
370.007
370.045
370.096
370.158
370.236
370.331
370.444
370.578
370.73
370.884
371.031
371.161
371.24
371.225
371.082
370.783
370.27
369.48
368.379
366.937
365.152
362.935
360.272
357.147
353.742
349.971
345.863
341.582
336.904
332.778
328.127
323.814
318.896
315.304
311.16
307.713
303.994
300.807
297.937
294.744
292.306
289.671
287.606
285.601
283.883
282.347
280.984
279.814
278.708
277.855
277.006
276.401
275.819
275.327
275.025
274.599
274.362
274.217
273.893
273.952
273.685
273.871
273.751
273.988
273.973
274.239
274.232
274.527
274.609
274.923
275.066
275.381
275.575
275.877
276.105
276.404
276.646
276.95
277.19
277.479
277.729
278.007
278.253
278.497
278.748
278.963
279.184
279.404
279.617
279.816
280.017
280.203
280.396
280.575
280.76
280.913
281.073
281.198
281.296
281.41
281.528
281.674
281.754
281.824
281.975
282.134
282.232
282.338
282.438
282.555
282.665
282.789
282.888
282.99
283.075
283.16
283.24
283.324
283.397
283.476
283.542
283.609
283.673
283.742
283.805
283.867
283.919
283.974
284.028
284.075
284.127
284.167
284.214
284.271
284.331
284.389
284.443
284.502
284.561
284.623
284.681
284.743
284.795
284.851
284.898
284.948
284.99
285.028
285.074
285.106
285.142
285.175
285.211
285.242
285.278
285.319
285.363
285.407
285.456
285.508
285.563
285.62
285.674
285.727
285.778
285.825
285.865
285.903
285.945
285.976
286.006
286.039
286.076
286.117
286.157
286.204
286.256
286.312
286.371
286.429
286.487
286.544
286.598
286.646
286.7
286.738
286.78
286.82
286.862
286.906
286.953
287.003
287.057
287.113
287.174
287.239
287.303
287.368
287.428
287.49
287.552
287.604
287.65
287.699
287.749
287.801
287.856
287.913
287.974
288.038
288.105
288.174
288.246
288.319
288.39
288.462
288.533
288.596
288.654
288.712
288.772
288.831
288.921
372.731
372.415
371.857
371.287
370.839
370.529
370.349
370.26
370.207
370.193
370.197
370.21
370.229
370.25
370.274
370.303
370.339
370.384
370.437
370.498
370.567
370.646
370.735
370.83
370.931
371.03
371.102
371.13
371.087
370.925
370.584
370.003
369.14
367.944
366.335
364.255
361.701
358.803
355.312
351.352
346.918
342.134
337.45
332.272
327.152
321.319
316.862
311.606
307.153
301.892
298.333
294.073
290.802
287.291
284.186
281.639
278.959
276.636
274.618
272.725
271.333
269.803
268.859
267.633
267.03
266.027
265.692
264.918
264.761
264.259
264.07
263.968
263.626
263.674
263.497
263.454
263.556
263.377
263.691
263.575
263.912
263.914
264.254
264.253
264.624
264.739
265.106
265.285
265.646
265.879
266.234
266.505
266.865
267.167
267.539
267.851
268.219
268.562
268.937
269.285
269.641
270.003
270.337
270.68
271.019
271.351
271.673
271.992
272.305
272.615
272.924
273.231
273.498
273.768
273.992
274.209
274.438
274.692
274.97
275.214
275.396
275.622
275.861
276.04
276.225
276.405
276.6
276.792
276.996
277.175
277.355
277.51
277.67
277.822
277.977
278.121
278.268
278.396
278.527
278.653
278.783
278.903
279.022
279.131
279.243
279.352
279.456
279.563
279.66
279.756
279.859
279.964
280.07
280.168
280.268
280.368
280.47
280.568
280.669
280.759
280.852
280.936
281.023
281.1
281.175
281.256
281.323
281.394
281.463
281.533
281.598
281.666
281.737
281.812
281.885
281.963
282.041
282.121
282.201
282.279
282.356
282.43
282.501
282.565
282.629
282.693
282.751
282.805
282.861
282.92
282.982
283.044
283.11
283.181
283.255
283.332
283.407
283.481
283.554
283.625
283.689
283.76
283.816
283.875
283.931
283.99
284.051
284.113
284.178
284.245
284.315
284.389
284.466
284.542
284.619
284.69
284.763
284.835
284.904
284.961
285.021
285.084
285.147
285.214
285.282
285.353
285.426
285.504
285.583
285.663
285.745
285.824
285.904
285.982
286.058
286.123
286.19
286.259
286.327
286.429
372.616
372.288
371.726
371.184
370.787
370.537
370.407
370.353
370.332
370.342
370.371
370.407
370.446
370.486
370.528
370.572
370.62
370.674
370.732
370.793
370.856
370.922
370.986
371.039
371.073
371.076
371.002
370.81
370.455
369.872
368.994
367.737
366.029
363.868
361.146
357.803
353.875
349.721
344.964
339.77
334.233
328.071
322.868
316.799
311.283
304.818
300.294
294.807
290.647
285.603
282.262
278.167
275.37
272.157
269.678
267.283
265.466
263.382
262.215
260.485
259.849
258.425
258.197
257.012
257.075
256.124
256.357
255.624
255.947
255.432
255.685
255.508
255.532
255.681
255.466
255.779
255.689
255.829
256.102
255.978
256.379
256.321
256.692
256.651
257.048
257.115
257.475
257.597
257.938
258.104
258.441
258.645
258.99
259.242
259.598
259.873
260.235
260.558
260.932
261.288
261.664
262.042
262.413
262.794
263.173
263.551
263.929
264.305
264.684
265.062
265.444
265.826
266.166
266.516
266.808
267.121
267.451
267.811
268.194
268.571
268.88
269.162
269.468
269.732
269.989
270.245
270.513
270.783
271.065
271.322
271.582
271.811
272.045
272.272
272.502
272.719
272.938
273.134
273.333
273.525
273.72
273.9
274.08
274.248
274.418
274.587
274.75
274.915
275.072
275.219
275.371
275.526
275.681
275.826
275.971
276.114
276.258
276.399
276.541
276.671
276.804
276.928
277.055
277.17
277.285
277.403
277.509
277.618
277.724
277.831
277.932
278.035
278.14
278.248
278.353
278.46
278.568
278.674
278.78
278.884
278.987
279.087
279.185
279.274
279.366
279.456
279.542
279.622
279.704
279.787
279.873
279.959
280.047
280.138
280.233
280.329
280.423
280.515
280.606
280.695
280.779
280.868
280.943
281.021
281.096
281.173
281.252
281.331
281.412
281.496
281.581
281.669
281.76
281.85
281.94
282.024
282.11
282.194
282.28
282.35
282.424
282.499
282.576
282.655
282.735
282.818
282.903
282.991
283.081
283.171
283.263
283.351
283.441
283.528
283.617
283.69
283.767
283.846
283.924
284.04
372.476
372.15
371.601
371.1
370.755
370.56
370.475
370.446
370.445
370.474
370.521
370.572
370.623
370.673
370.723
370.774
370.825
370.878
370.931
370.98
371.023
371.057
371.071
371.046
370.962
370.782
370.44
369.873
369.005
367.769
366.1
363.891
361.034
357.659
353.641
348.985
343.662
338.049
332.441
326.198
319.899
312.622
307.144
300.53
295.121
288.676
284.263
278.885
275.242
270.73
267.737
264.128
261.992
259.103
257.583
255.203
254.509
252.642
252.401
250.842
250.922
249.645
250.021
249
249.598
248.804
249.49
248.905
249.597
249.157
249.782
249.46
250.008
249.974
250.155
250.527
250.339
250.813
250.932
250.974
251.428
251.266
251.693
251.625
252.044
252.04
252.392
252.429
252.743
252.804
253.094
253.181
253.47
253.594
253.881
254.034
254.316
254.52
254.808
255.059
255.352
255.644
255.944
256.26
256.575
256.906
257.245
257.595
257.956
258.326
258.705
259.087
259.434
259.805
260.112
260.463
260.845
261.256
261.694
262.135
262.517
262.831
263.179
263.505
263.822
264.139
264.467
264.799
265.143
265.465
265.794
266.089
266.391
266.685
266.983
267.269
267.558
267.82
268.086
268.342
268.6
268.839
269.079
269.307
269.535
269.763
269.985
270.208
270.424
270.625
270.827
271.031
271.236
271.431
271.622
271.809
271.998
272.182
272.368
272.54
272.716
272.88
273.049
273.204
273.36
273.518
273.664
273.813
273.958
274.104
274.244
274.383
274.523
274.665
274.804
274.943
275.083
275.216
275.35
275.482
275.613
275.74
275.867
275.984
276.106
276.222
276.338
276.446
276.556
276.666
276.778
276.889
277
277.114
277.231
277.348
277.461
277.573
277.684
277.793
277.897
278.006
278.102
278.2
278.297
278.394
278.492
278.59
278.689
278.79
278.892
278.995
279.101
279.206
279.31
279.409
279.509
279.608
279.71
279.796
279.884
279.974
280.065
280.158
280.251
280.347
280.445
280.545
280.647
280.748
280.85
280.949
281.049
281.147
281.249
281.332
281.42
281.51
281.599
281.731
372.333
372.003
371.479
371.029
370.744
370.597
370.546
370.53
370.547
370.591
370.647
370.705
370.761
370.814
370.864
370.912
370.957
370.999
371.034
371.057
371.062
371.037
370.962
370.796
370.495
369.991
369.201
368.051
366.428
364.276
361.568
358.145
353.909
349.154
344.001
338.158
331.609
324.409
318.366
311.256
304.657
296.829
291.217
284.414
279.432
273.446
269.4
264.51
261.377
257.616
255.066
252.326
250.712
248.393
247.676
245.472
245.725
244.082
244.615
243.306
243.951
242.929
243.784
242.968
244.014
243.43
244.521
244.097
245.116
244.776
245.695
245.399
246.254
246.04
246.738
246.899
247.043
247.655
247.519
247.965
248.375
248.155
248.66
248.613
249.049
249.008
249.401
249.396
249.723
249.721
250
250.013
250.272
250.3
250.542
250.583
250.808
250.891
251.099
251.213
251.403
251.557
251.735
251.929
252.106
252.309
252.517
252.743
252.988
253.246
253.519
253.792
254.054
254.329
254.56
254.853
255.194
255.57
255.978
256.406
256.795
257.089
257.416
257.748
258.082
258.422
258.774
259.132
259.503
259.862
260.229
260.568
260.913
261.253
261.597
261.933
262.27
262.584
262.9
263.207
263.515
263.804
264.095
264.375
264.653
264.935
265.211
265.49
265.76
266.016
266.266
266.518
266.771
267.014
267.252
267.484
267.717
267.944
268.173
268.388
268.606
268.813
269.023
269.218
269.415
269.613
269.8
269.991
270.175
270.361
270.54
270.717
270.893
271.071
271.244
271.417
271.588
271.751
271.914
272.074
272.234
272.39
272.546
272.694
272.846
272.99
273.137
273.276
273.414
273.553
273.69
273.828
273.964
274.102
274.242
274.38
274.515
274.648
274.779
274.91
275.036
275.166
275.284
275.404
275.523
275.641
275.759
275.877
275.995
276.115
276.235
276.356
276.476
276.597
276.717
276.832
276.948
277.062
277.181
277.284
277.387
277.493
277.599
277.707
277.815
277.925
278.036
278.149
278.264
278.377
278.491
278.602
278.713
278.822
278.937
279.032
279.131
279.233
279.335
279.483
372.202
371.852
371.363
370.969
370.747
370.64
370.61
370.607
370.637
370.691
370.751
370.809
370.863
370.911
370.954
370.989
371.018
371.037
371.042
371.021
370.959
370.83
370.59
370.17
369.503
368.481
367.018
365.049
362.43
359.105
355.157
350.474
344.853
338.556
332.581
325.669
318.201
309.649
303.283
295.508
288.999
281.209
275.743
269.224
264.901
259.728
256.234
252.198
249.445
246.608
244.425
242.764
241.227
240.038
239.481
237.996
238.713
237.355
238.349
237.42
238.576
237.79
239.105
238.523
239.963
239.509
240.957
240.617
241.95
241.637
242.842
242.579
243.672
243.449
244.433
244.305
245.01
245.592
245.464
246.056
246.423
246.285
246.882
246.849
247.317
247.286
247.741
247.735
248.104
248.084
248.389
248.382
248.644
248.633
248.866
248.864
249.081
249.111
249.289
249.334
249.486
249.544
249.663
249.783
249.86
249.973
250.07
250.188
250.317
250.454
250.6
250.729
250.851
250.95
251.032
251.198
251.412
251.657
251.931
252.223
252.523
252.709
252.931
253.176
253.438
253.717
254.015
254.324
254.656
254.979
255.322
255.652
255.989
256.324
256.667
257.007
257.35
257.679
258.01
258.336
258.665
258.979
259.296
259.605
259.917
260.234
260.552
260.872
261.185
261.485
261.776
262.068
262.357
262.645
262.924
263.198
263.47
263.737
264.006
264.26
264.518
264.763
265.013
265.245
265.483
265.719
265.946
266.176
266.399
266.623
266.841
267.057
267.268
267.481
267.688
267.895
268.097
268.289
268.482
268.671
268.861
269.045
269.232
269.41
269.592
269.766
269.943
270.113
270.282
270.449
270.613
270.778
270.94
271.102
271.265
271.426
271.583
271.737
271.891
272.043
272.192
272.344
272.485
272.627
272.77
272.91
273.05
273.188
273.326
273.465
273.604
273.742
273.88
274.017
274.154
274.285
274.417
274.548
274.683
274.805
274.925
275.047
275.17
275.294
275.417
275.541
275.666
275.794
275.922
276.048
276.173
276.297
276.42
276.543
276.67
276.779
276.89
277.005
277.119
277.284
372.083
371.709
371.258
370.926
370.756
370.684
370.669
370.679
370.718
370.774
370.833
370.887
370.932
370.968
370.993
371.008
371.01
370.994
370.949
370.855
370.675
370.358
369.827
368.989
367.76
365.99
363.628
360.629
356.829
352.149
346.758
341.124
334.259
326.247
319.584
311.65
303.697
294.371
287.667
279.587
273.545
266.412
261.53
255.87
252.264
248.048
245.071
241.889
239.518
237.445
236.003
235.058
233.737
234.015
232.93
233.451
233.417
232.737
234.148
233.293
234.998
234.277
236.047
235.451
237.238
236.808
238.538
238.2
239.799
239.494
240.944
240.664
241.959
241.73
242.896
242.76
243.715
244.067
244.243
244.921
245.079
245.258
245.912
245.855
246.409
246.403
246.909
246.895