/*--------------------------------*- C++ -*----------------------------------*\
| =========                 |                                                 |
| \\      /  F ield         | OpenFOAM: The Open Source CFD Toolbox           |
|  \\    /   O peration     | Version:  2312                                  |
|   \\  /    A nd           | Website:  www.openfoam.com                      |
|    \\/     M anipulation  |                                                 |
\*---------------------------------------------------------------------------*/
FoamFile
{
    version     2.0;
    format      ascii;
    arch        "LSB;label=32;scalar=64";
    class       volScalarField;
    location    "0.006";
    object      k;
}
// * * * * * * * * * * * * * * * * * * * * * * * * * * * * * * * * * * * * * //

dimensions      [0 2 -2 0 0 0 0];

internalField   nonuniform List<scalar> 
48128
(
0.530242
1.40313
1.98762
1.86311
1.80505
1.5245
1.29258
13.6991
63.0742
156.526
261.242
362.816
458.505
547.221
629.719
707.354
781.503
853.042
922.588
990.87
1058.41
1125.12
1190.96
1255.99
1320.32
1384.18
1447.87
1511.79
1576.19
1642.02
1707.37
1772.08
1836.76
1901.46
1966.04
2031.27
2101.79
2172.74
2245.65
2318
2390.74
2464.12
2541.12
2614.89
2684.69
2746.04
2810.1
2867.21
2914.48
2940.15
2962.43
2964.64
2970.27
2959.59
2970.55
3032.58
3076.85
3116.09
3141
3158.48
3167.29
3168.76
3166.05
3158.8
3148.71
3133.74
3115.48
3093.35
3064.73
3034.27
3002.21
2969.36
2937.26
2903.68
2871.08
2836.94
2803.52
2768.87
2734.65
2699.31
2665.34
2630.35
2598.04
2565.47
2536.38
2506.78
2479.24
2451.34
2425.3
2399
2374.85
2350.7
2328.42
2306.6
2286.22
2266.63
2248.21
2230.92
2214.39
2199.09
2184.43
2170.89
2157.74
2145.4
2133.62
2122.56
2112.07
2102.11
2092.72
2083.73
2075.46
2067.83
2060.52
2053.38
2046.79
2040.28
2033.66
2027.7
2020.42
2020.8
2019.02
2014.3
2011.87
2008.39
2004.12
1999.49
1994.8
1990.15
1985.9
1982.39
1979.29
1976.46
1973.82
1971.23
1968.82
1966.67
1964.81
1963.15
1961.49
1959.84
1958.31
1956.92
1955.51
1954.12
1952.76
1951.4
1950.07
1948.43
1948.31
1947.55
1946.12
1944.76
1943.13
1941.38
1939.45
1937.37
1935.18
1932.93
1930.64
1928.37
1926.06
1923.87
1921.79
1919.9
1918.05
1916.34
1914.9
1913.6
1912.53
1911.41
1910.74
1910
1909.15
1908.21
1907.19
1906.01
1904.66
1903.1
1901.31
1899.35
1897.31
1895.28
1893.4
1891.68
1890.27
1889.09
1888.14
1887.43
1886.89
1886.34
1885.72
1885.05
1884.22
1883.17
1881.9
1880.46
1878.83
1877.05
1875.24
1873.35
1871.79
1870.26
1869.12
1868.13
1867.4
1866.75
1866.09
1865.38
1864.59
1863.65
1862.54
1861.26
1859.77
1858.15
1856.45
1854.72
1853.18
1851.37
1850.08
1849.23
1848.32
1847.51
1846.75
1845.95
1845.08
1844.09
1842.94
1841.64
1840.21
1838.67
1837
1835.27
1833.63
1831.75
1830.33
1829.27
1828.12
1827.23
1826.35
1825.08
3.42829
1.66201
0.818279
0.696964
1.43021
4.71736
16.0825
51.2175
122.763
229.86
353.237
479.423
609.72
740.899
873.118
1006.26
1141.93
1281.74
1427.34
1580.85
1741.76
1912.91
2092.95
2284.05
2485.33
2697.96
2921.34
3157.48
3401.46
3662.44
3933.19
4209.01
4490.63
4777.2
5062.51
5341.33
5625.74
5913.19
6202.68
6488.61
6769.43
7044.06
7316.74
7571.15
7804.58
8011.44
8219.9
8415.69
8596.73
8720.17
8834.11
8899.89
8959.41
8981.43
8986.28
8985.88
8956.12
8902
8824.38
8728.77
8616.38
8490.57
8354.94
8210.91
8061.86
7905.55
7744.67
7579.31
7411.06
7249.04
7085.14
6919.9
6757.03
6592.14
6431.09
6269.17
6111.21
5953.9
5800.6
5648.85
5502.84
5359.34
5222.13
5088.59
4961.12
4836.33
4716.42
4599.57
4487.79
4379.56
4276.45
4177.15
4082.27
3991.24
3904.38
3821.05
3741.3
3664.78
3591.1
3520.96
3453.44
3389.7
3328.33
3270.69
3215.31
3163.17
3113.23
3066.1
3020.97
2977.98
2936.86
2897.97
2861.08
2826.25
2792.9
2760.83
2728.45
2696.44
2662.99
2631.71
2608.27
2583.4
2557.5
2538.82
2519.99
2501.89
2484.89
2468.01
2451.36
2435.23
2419.81
2405.01
2390.71
2376.69
2362.87
2349.48
2336.4
2323.96
2312.04
2300.5
2289.31
2278.58
2268.35
2258.3
2248.58
2238.76
2228.81
2218.73
2208.41
2199.93
2191.36
2182.61
2175.05
2167.79
2161.1
2154.87
2148.98
2143.38
2138.13
2132.97
2128.1
2123.15
2118.24
2113.37
2108.42
2103.4
2098.38
2093.4
2088.5
2083.59
2078.81
2074.54
2070.61
2066.63
2063.37
2060.17
2057.47
2055.11
2052.95
2050.96
2048.94
2046.81
2044.48
2041.87
2039.03
2036
2032.82
2029.61
2026.31
2023.31
2020.31
2017.76
2015.52
2013.53
2011.77
2010.24
2008.99
2007.78
2006.51
2005.1
2003.43
2001.58
1999.51
1997.25
1994.87
1992.49
1990.17
1987.94
1986.01
1984.22
1982.71
1981.45
1980.41
1979.45
1978.48
1977.41
1976.23
1974.79
1973.01
1971.2
1969.33
1967.39
1965.44
1963.54
1961.8
1960.28
1958.91
1957.71
1956.67
1955.79
1954.99
1954.15
1953.23
1952.07
1950.63
1949.14
1947.49
1945.7
1943.83
1941.29
6.90728
3.84539
2.03747
2.59919
9.38779
27.8208
72.109
161.735
309.485
508.486
738.621
977.035
1216.51
1453.61
1686.92
1916.33
2143.71
2371.41
2602.25
2841.09
3086.19
3342.43
3608.21
3886.11
4175.81
4478.76
4794.7
5125.25
5463.25
5813.14
6172.54
6541.1
6915.59
7295.32
7682.23
8068.96
8455.88
8843.3
9232.96
9618.26
9993.24
10350.5
10702.7
11032.2
11336.4
11593.7
11842.5
12068.2
12276.1
12408.6
12515.9
12564.2
12592.2
12573.7
12525.1
12450.4
12340.1
12203.3
12041.3
11859.6
11658.8
11443.2
11216.6
10981.1
10740.5
10493.3
10242.2
9988.56
9730.53
9478.44
9223.94
8970.5
8721.96
8474.83
8234.16
7997.59
7766.54
7540.62
7320.79
7106.49
6899.73
6699.03
6506.26
6319.42
6139.8
5965.5
5797.76
5635.41
5479.86
5329.87
5186.74
5049.12
4917.53
4791.36
4670.71
4554.83
4443.56
4336.64
4233.6
4135.11
4040.3
3950.23
3863.35
3781.24
3702.07
3627.14
3554.91
3486.54
3420.6
3357.76
3297.2
3239.79
3184.61
3132.46
3082.06
3033.9
2985.32
2938.29
2890.34
2842.94
2804.86
2765.72
2725.2
2691.73
2660.46
2630.25
2601.56
2573.39
2545.89
2519.27
2493.57
2468.82
2444.96
2421.58
2398.78
2376.51
2354.89
2333.93
2313.82
2294.16
2275.19
2256.72
2239.02
2221.62
2204.86
2188.09
2171.71
2155.54
2139.18
2124.72
2110.33
2095.74
2082.47
2069.62
2057.59
2046.07
2035.1
2024.52
2014.41
2004.59
1995.17
1985.85
1976.7
1967.76
1958.83
1949.9
1941.04
1932.31
1923.62
1915.15
1906.63
1898.91
1891.32
1884.08
1877.2
1870.78
1864.88
1859.4
1854.25
1849.44
1844.72
1840.03
1835.28
1830.44
1825.49
1820.43
1815.28
1810.11
1804.96
1800
1795.19
1790.71
1786.52
1782.65
1779.07
1775.78
1772.8
1770.04
1767.3
1764.53
1761.62
1758.59
1755.42
1752.13
1748.74
1745.36
1742.04
1738.81
1735.81
1733.01
1730.44
1728.17
1726.17
1724.29
1722.52
1720.73
1718.9
1716.97
1714.71
1712.4
1710.11
1707.71
1705.28
1702.92
1700.67
1698.6
1696.71
1694.99
1693.46
1692.13
1690.94
1689.8
1688.62
1687.37
1685.82
1684.21
1682.53
1680.69
1678.73
1676.03
10.3158
6.79161
5.25588
12.4992
35.7201
86.0793
189.431
369.538
628.683
940.183
1270.31
1590.43
1896.67
2190.31
2473.23
2749.03
3021.92
3294.79
3570.42
3854.93
4147.2
4451.57
4768.26
5099.79
5447.31
5811.21
6190.85
6587.23
6995.44
7416.59
7851.35
8300.91
8759.42
9224.38
9703.46
10184.2
10659.7
11129
11598.7
12063.9
12516.1
12935.4
13341.7
13717.1
14064.8
14348.4
14607.1
14830
15025.2
15138
15207.7
15209.9
15179.1
15097
14972.4
14811.3
14612.7
14387.1
14137.3
13868.7
13583
13284.4
12977.5
12663.2
12345.9
12025.2
11703.1
11383.6
11061.4
10749
10435.5
10127.4
9825.48
9529.93
9241.59
8962.51
8689.56
8425.83
8169.55
7922.11
7683.18
7453.1
7231.65
7017.17
6809.88
6610.1
6417.64
6232.69
6055.25
5884.96
5722.13
5565.96
5416.46
5273.31
5136.02
5004.17
4877.23
4755.04
4637.4
4524.61
4416.2
4312.81
4213.21
4118.69
4027.55
3940.84
3857.21
3777.77
3701.03
3627.77
3556.96
3489.68
3424.77
3363.4
3303.81
3246.85
3189.42
3134.15
3078.18
3021.23
2975.66
2929.26
2880.97
2839.8
2801.5
2764.26
2728.51
2693.51
2659.43
2626.44
2594.51
2563.76
2534.1
2505.04
2476.75
2449.09
2422.25
2396.15
2371.07
2346.51
2322.77
2299.58
2277.28
2255.36
2234.2
2213.11
2192.53
2172.38
2152
2133.6
2115.52
2097.18
2080.18
2063.66
2047.99
2032.87
2018.37
2004.33
1990.8
1977.63
1964.98
1952.49
1940.28
1928.36
1916.58
1904.86
1893.3
1881.95
1870.67
1859.71
1848.64
1838.52
1828.39
1818.79
1809.42
1800.64
1792.3
1784.45
1777.06
1769.98
1763.15
1756.41
1749.76
1743.04
1736.37
1729.64
1722.92
1716.14
1709.62
1703.11
1696.95
1690.88
1685.26
1679.92
1674.9
1670.16
1665.75
1661.58
1657.55
1653.55
1649.5
1645.38
1641.22
1637.01
1632.75
1628.53
1624.35
1620.29
1616.49
1612.82
1609.42
1606.26
1603.37
1600.63
1598.05
1595.5
1592.99
1590.46
1587.68
1584.85
1582.09
1579.26
1576.4
1573.59
1570.91
1568.38
1566.02
1563.81
1561.79
1559.97
1558.31
1556.74
1555.21
1553.64
1551.86
1550.05
1548.21
1546.24
1544.16
1541.25
13.6015
13.0377
16.0872
37.0212
87.4258
188.765
374.961
658.828
1017.2
1390.83
1750.59
2095.39
2428.21
2750.28
3063.67
3371.24
3676.7
3982.78
4292.55
4612.6
4943.01
5287.63
5648.42
6028.31
6428.27
6848.32
7288.67
7750.58
8229.87
8723.85
9233.8
9764.18
10308
10855.6
11419.7
11990
12550.2
13092.4
13628.4
14156.8
14670.6
15134.9
15570.8
15962.6
16320
16598.2
16828.1
17006.9
17139.3
17188
17174.5
17096.4
16964.9
16781.5
16544.3
16268.2
15962.3
15631.7
15284.2
14920.9
14555.5
14183.5
13809.3
13431.6
13055
12680.8
12309.5
11945.7
11584.9
11236.7
10890.3
10554.4
10224.8
9907.25
9596.43
9299.87
9009.4
8731.7
8461.95
8203.69
7954.3
7715.68
7485.9
7263.96
7048.68
6842.69
6643.86
6454.3
6271.84
6097.65
5930.59
5770.81
5617.52
5470.93
5329.8
5194.31
5063.54
4937.5
4816.16
4699.5
4587.52
4480.29
4377.09
4278.81
4184.07
4093.46
4006.15
3922.87
3842.44
3765.5
3691
3619.99
3551.26
3486.33
3423.01
3362.38
3301.3
3242.56
3183.18
3121.58
3072.63
3023.35
2972.01
2927.1
2885.24
2844.47
2805.01
2766.5
2729.01
2692.62
2657.32
2623.32
2590.45
2558.26
2526.92
2496.26
2466.45
2437.46
2409.56
2382.24
2355.79
2329.91
2304.99
2280.5
2256.78
2233.22
2210.18
2187.7
2164.91
2144.14
2123.96
2103.51
2084.29
2065.63
2047.8
2030.55
2013.92
1997.77
1982.17
1966.91
1952.25
1937.75
1923.6
1909.77
1896.15
1882.65
1869.36
1856.32
1843.4
1830.83
1818.13
1806.47
1794.72
1783.59
1772.61
1762.29
1752.33
1742.89
1733.95
1725.33
1717.01
1708.81
1700.8
1692.71
1684.8
1676.85
1668.99
1661.04
1653.46
1645.83
1638.65
1631.5
1624.77
1618.39
1612.34
1606.55
1601.09
1595.86
1590.84
1585.85
1580.9
1575.87
1570.95
1565.97
1561
1556.07
1551.24
1546.54
1542.09
1537.76
1533.69
1529.86
1526.27
1522.84
1519.6
1516.41
1513.31
1510.25
1507
1503.69
1500.52
1497.29
1494.04
1490.86
1487.82
1484.92
1482.18
1479.58
1477.16
1474.92
1472.86
1470.9
1469.01
1467.14
1465.11
1463.06
1461.03
1458.91
1456.68
1453.56
16.8204
27.972
37.8001
78.8444
168.283
337.26
612.472
979.7
1369.85
1750.14
2119.69
2478.72
2828.54
3170.02
3505.18
3836.66
4167.63
4500.71
4839.47
5190.04
5554.15
5935.57
6337.3
6762.17
7211.98
7686.9
8186.87
8714.8
9266.31
9833.79
10418.3
11027.9
11655.8
12282.7
12922
13572.2
14209.5
14812
15394
15958.2
16503.5
16979.6
17408.4
17775.6
18089.6
18305.8
18441.2
18507.1
18496.8
18415.3
18250.7
18039.6
17769
17457.8
17081.8
16674.4
16258.7
15820.9
15379.2
14928.3
14483.8
14036
13595.6
13164.3
12737.8
12326.7
11926.3
11540
11168.9
10812.2
10467.3
10140.2
9817.56
9515.93
9216.81
8938.61
8664.07
8406.5
8154.38
7917.3
7686.23
7467.96
7256.67
7051.81
6851.3
6661.13
6475.85
6301.08
6131.13
5970.18
5814.74
5666.5
5523.67
5387.54
5255.57
5128.99
5006.24
4887.8
4773.42
4663.07
4557.1
4455.1
4356.89
4263.01
4172.45
4085.38
4001.51
3921.1
3843.42
3768.76
3696.38
3626.99
3559.62
3496.03
3433.68
3373.77
3313.58
3255.64
3197.05
3135.47
3086.32
3037.65
2987.39
2941.59
2898.98
2857.76
2817.59
2778.54
2740.38
2703.24
2667.07
2632.19
2598.35
2565.26
2532.99
2501.42
2470.64
2440.69
2411.77
2383.51
2356.07
2329.2
2303.29
2277.79
2253.05
2228.53
2204.48
2181.04
2157.22
2135.35
2114.27
2092.94
2072.67
2053.02
2034.15
2015.9
1998.22
1981.04
1964.38
1948.06
1932.34
1916.77
1901.61
1886.73
1872.14
1857.67
1843.45
1829.49
1815.68
1802.24
1788.62
1776.08
1763.43
1751.46
1739.52
1728.32
1717.36
1707.03
1697.08
1687.53
1678.26
1669.13
1660.24
1651.25
1642.56
1633.8
1625.17
1616.47
1608.18
1599.83
1591.96
1584.07
1576.65
1569.58
1562.82
1556.3
1550.11
1544.15
1538.4
1532.73
1527.12
1521.44
1515.95
1510.41
1504.91
1499.48
1494.18
1489
1484.08
1479.26
1474.69
1470.37
1466.27
1462.34
1458.58
1454.92
1451.34
1447.88
1444.25
1440.57
1437.05
1433.5
1429.95
1426.49
1423.17
1419.99
1416.96
1414.07
1411.34
1408.79
1406.42
1404.14
1401.95
1399.84
1397.59
1395.3
1393.11
1390.84
1388.48
1385.18
21.5175
51.429
70.6306
139.546
279.355
520.851
868.025
1259
1646.57
2026.9
2399.29
2764.85
3124.29
3478.54
3829.52
4179.33
4530.45
4886.08
5249.71
5626.72
6020.97
6435.89
6874.86
7341.48
7839.22
8367.62
8925.47
9518.08
10140.8
10781.4
11438.2
12121
12828.2
13527.1
14227
14935.9
15631.2
16271.5
16868.3
17426.9
17950.9
18374.1
18723.6
18985.3
19158.9
19230.3
19199.2
19089.8
18886.1
18616.5
18242.3
17806.2
17296
16764.9
16187.6
15589
15027.3
14458.5
13897.8
13365.1
12845.2
12363.5
11883.7
11446.1
11005.8
10607.1
10225.2
9868.06
9540.41
9224.79
8934.99
8663.61
8398.46
8162.02
7922.72
7710.04
7495.05
7301.84
7107.27
6932.44
6756.15
6596.01
6435.75
6285.01
6132.63
5991.47
5849.11
5717.58
5585.78
5462.59
5340.97
5225.7
5111.65
5002.44
4894.05
4790.25
4688.27
4589.64
4493.45
4400.07
4310.12
4222.95
4139.01
4058.31
3980.31
3904.72
3831.8
3761.23
3693.05
3626.96
3562.85
3500.75
3440.33
3383.12
3326.58
3272.12
3217.75
3165.24
3111.96
3055.54
3009.26
2964.41
2918.93
2875.41
2834.84
2796.28
2758.29
2721.66
2685.46
2650.18
2615.61
2582.2
2549.61
2517.92
2486.81
2456.44
2426.65
2397.65
2369.47
2342.06
2315.3
2289.12
2263.77
2238.82
2214.58
2190.55
2166.95
2143.9
2120.45
2098.69
2077.85
2056.82
2036.65
2017.09
1998.2
1979.98
1962.2
1945
1928.18
1911.77
1895.83
1880.09
1864.77
1849.62
1834.89
1820.2
1805.8
1791.64
1777.65
1764
1750.14
1737.33
1724.43
1712.22
1699.94
1688.42
1677.08
1666.39
1655.98
1646.04
1636.28
1626.74
1617.42
1608
1598.95
1589.78
1580.81
1571.77
1563.12
1554.41
1546.16
1537.95
1530.19
1522.73
1515.57
1508.63
1502.01
1495.63
1489.43
1483.38
1477.37
1471.35
1465.44
1459.61
1453.79
1448.06
1442.48
1437
1431.78
1426.67
1421.79
1417.16
1412.73
1408.49
1404.38
1400.42
1396.52
1392.79
1388.91
1384.98
1381.21
1377.46
1373.73
1370.08
1366.58
1363.22
1360
1356.92
1353.98
1351.22
1348.62
1346.14
1343.73
1341.46
1339.04
1336.59
1334.28
1331.91
1329.45
1326.05
27.4165
82.3746
116.047
219.678
414.594
718.194
1095
1478.71
1859.57
2234.63
2604.64
2970.87
3334.17
3695.93
4057.51
4420.48
4787.07
5160.73
5544.94
5944.16
6364.36
6808.66
7281.34
7786.59
8329.65
8909.68
9522.7
10176.2
10867.6
11578.5
12302.8
13048.5
13822
14578.3
15316.4
16049.1
16759.7
17387
17938.3
18415.6
18829.6
19112.8
19294.5
19352.4
19289.8
19118.1
18770
18310.3
17740.6
17139.7
16443.6
15727.3
14967
14212.2
13483.9
12769
12075.6
11461.5
10838.3
10307.1
9767.93
9318.57
8861.65
8483.72
8102.84
7785.18
7480.32
7210.5
6967.82
6737.1
6538.49
6349.52
6174.58
6023.46
5869.27
5743.32
5614.35
5508.82
5400.16
5309.39
5215.16
5134.61
5050.59
4975.87
4897.54
4826.86
4753.25
4686.16
4617.1
4552.63
4487.04
4423.14
4357.6
4292.99
4226.96
4162.66
4097.76
4033.89
3970.4
3907.2
3846.12
3784.73
3724.9
3666.1
3608.56
3551.82
3496.76
3442.46
3389.98
3338.2
3287.83
3238.34
3190.51
3144.29
3098.52
3054.27
3010.67
2968.09
2924.39
2878.26
2837.46
2799.89
2762.12
2724.36
2688.71
2655.74
2622.7
2591.24
2559.54
2528.79
2498.23
2468.7
2439.67
2411.67
2383.81
2356.76
2329.89
2303.78
2278.17
2253.41
2229
2205.18
2181.9
2159.08
2136.81
2114.77
2093.03
2071.69
2050.02
2029.54
2010.11
1990.59
1971.65
1953.22
1935.31
1918.14
1901.2
1884.95
1868.84
1853.27
1837.92
1822.92
1808.23
1793.61
1779.51
1765.35
1751.51
1737.87
1724.38
1711.16
1697.76
1685.28
1672.77
1660.85
1648.87
1637.56
1626.4
1615.84
1605.51
1595.63
1585.89
1576.44
1567.12
1557.78
1548.74
1539.62
1530.72
1521.74
1513.07
1504.41
1496.15
1487.97
1480.16
1472.62
1465.38
1458.34
1451.59
1445.08
1438.74
1432.58
1426.43
1420.37
1414.3
1408.4
1402.5
1396.68
1391.02
1385.45
1380.13
1374.93
1369.91
1365.16
1360.59
1356.21
1351.95
1347.85
1343.79
1339.95
1335.97
1331.94
1328.05
1324.22
1320.43
1316.71
1313.15
1309.71
1306.41
1303.25
1300.22
1297.35
1294.64
1292.06
1289.53
1287.18
1284.69
1282.14
1279.78
1277.37
1274.89
1271.46
34.3214
118.84
173.52
315.772
561.239
902.873
1274.69
1647.72
2017.84
2383.8
2747.24
3109.5
3472.02
3836.42
4203.49
4574.6
4952.01
5338.95
5738.94
6155.86
6597.2
7067.21
7570.45
8110.87
8696.25
9325.8
9990.35
10700
11454.7
12229.7
13012.5
13803.5
14616.7
15397.4
16129.9
16828.5
17482
18003.6
18421.6
18723.1
18930.5
18939.5
18774.3
18452
17963.4
17384.6
16630.7
15783.3
14859.3
13948
13020.3
12142
11280.1
10500.6
9782.59
9135.1
8475.46
7942.95
7396.99
6960.7
6513.04
6161.78
5803.21
5525.85
5244.47
5023.45
4808.39
4631.95
4470.4
4325.79
4205.85
4090.66
3993.84
3908.87
3827.62
3765.73
3702.79
3659.21
3613.6
3581.83
3548.59
3524.64
3498.96
3480.21
3459.69
3444.06
3426.75
3412.33
3396.73
3381.73
3365.89
3350.1
3333.51
3316.74
3298.76
3280.04
3260.19
3239.3
3217.25
3193.97
3170.03
3144.67
3117.9
3089.78
3060.65
3030.73
3000.39
2969.68
2939.14
2908.36
2877.83
2846.71
2816.24
2785.63
2755.3
2725.49
2696.55
2667.24
2636.5
2604.17
2572.84
2545.07
2516.93
2488.42
2460.75
2435.47
2410.2
2386.09
2361.66
2337.74
2313.64
2290.25
2267.03
2244.67
2222.2
2200.33
2178.37
2156.96
2135.74
2115.25
2094.86
2075
2055.33
2036.15
2017.24
1998.64
1980.09
1961.79
1943.28
1925.37
1908.39
1891.55
1874.89
1858.68
1842.79
1827.6
1812.51
1798.07
1783.63
1769.72
1755.86
1742.41
1729.11
1715.91
1703.08
1690.28
1677.66
1665.28
1652.96
1640.87
1628.62
1617.06
1605.54
1594.48
1583.37
1572.81
1562.35
1552.41
1542.65
1533.33
1524.11
1515.2
1506.33
1497.59
1488.91
1480.34
1471.89
1463.37
1455.08
1446.84
1438.94
1431.12
1423.58
1416.3
1409.3
1402.47
1395.88
1389.55
1383.35
1377.36
1371.36
1365.49
1359.59
1353.83
1348.1
1342.44
1336.91
1331.48
1326.26
1321.16
1316.22
1311.52
1307
1302.67
1298.43
1294.37
1290.33
1286.55
1282.62
1278.64
1274.79
1271.03
1267.3
1263.65
1260.14
1256.75
1253.48
1250.36
1247.35
1244.49
1241.77
1239.2
1236.66
1234.34
1231.85
1229.33
1227
1224.63
1222.2
1218.85
45.7864
159.112
239.78
420.693
706.356
1053.04
1413.01
1772.54
2128.9
2482.8
2836.22
3190.67
3548.18
3910.59
4278.46
4652.93
5036.26
5431.6
5842.29
6272.64
6731.08
7223.64
7754.79
8327.27
8951.92
9628.23
10342.1
11101.5
11908.6
12734.4
13555.3
14357.1
15168.3
15916.8
16559.4
17139.8
17647.1
17971.1
18104.1
18049.9
17842.1
17477.2
16860
16094.9
15172
14197.6
13155.7
12075.9
11077.8
10090.3
9221
8410.84
7652.27
6995.93
6368.79
5861.54
5338.15
4930.12
4515.58
4198.93
3878.46
3636.47
3391.21
3209
3024.5
2887.16
2751.32
2648.69
2551.73
2473.5
2407.03
2347.73
2302.45
2260.09
2229.71
2204.41
2183.96
2173.54
2163.6
2161.5
2162.13
2165.58
2170.97
2179.39
2189.43
2201.73
2214.43
2228.28
2241.23
2254.46
2266.59
2279.51
2292.19
2305.64
2317.61
2329.69
2340.71
2350.65
2359.91
2366.41
2372.57
2375.94
2378.18
2378.1
2377.21
2375.15
2371.9
2367.47
2362.05
2355.63
2348.42
2339.93
2330.47
2319.74
2308.19
2296.26
2284.36
2271.83
2258.17
2241.92
2224.25
2208.03
2191.6
2174.81
2157.9
2142.15
2126.76
2111.77
2096.54
2081.13
2065.45
2049.95
2034.35
2019.13
2003.8
1988.64
1973.32
1958.13
1942.92
1928.07
1913.19
1898.61
1884.02
1869.7
1855.5
1841.54
1827.47
1813.47
1799.26
1785.2
1771.72
1758.51
1745.22
1732.25
1719.4
1707.06
1694.77
1682.95
1671.09
1659.6
1648.12
1636.96
1625.84
1614.84
1603.98
1593.3
1582.6
1572.15
1561.68
1551.37
1540.93
1530.91
1520.94
1511.31
1501.62
1492.34
1483.1
1474.28
1465.58
1457.3
1449.06
1441.15
1433.21
1425.47
1417.65
1410.03
1402.42
1394.77
1387.28
1379.81
1372.63
1365.5
1358.59
1351.89
1345.44
1339.14
1333.02
1327.15
1321.4
1315.85
1310.28
1304.85
1299.4
1294.05
1288.74
1283.47
1278.32
1273.24
1268.34
1263.57
1258.9
1254.45
1250.16
1246.07
1242.05
1238.19
1234.37
1230.81
1227.09
1223.34
1219.69
1216.14
1212.62
1209.18
1205.84
1202.64
1199.53
1196.57
1193.7
1190.96
1188.36
1185.9
1183.48
1181.27
1178.91
1176.5
1174.3
1172.07
1169.77
1166.63
60.012
201.267
310.305
526.761
829.197
1170.12
1515.17
1858.51
2198.98
2538.33
2878.86
3221.93
3570.92
3927.4
4291.73
4664.91
5049.28
5448.29
5865.51
6305.88
6778.32
7291.16
7848.8
8451.66
9112.75
9833.69
10594.2
11391.3
12228.4
13082.5
13907
14653.9
15393.8
16040.3
16515.7
16836.6
17029.6
16994
16749.3
16295.3
15629.3
14840.5
13836.8
12732.5
11603
10470.5
9464.45
8433.6
7561.66
6675.83
5961.94
5302.21
4710.11
4220.08
3746.65
3390.72
3032.58
2756.86
2488.91
2284.16
2088.16
1939.27
1795.76
1688.52
1584.2
1507.96
1431.29
1377
1321.67
1282.99
1244.05
1216.71
1194.04
1172.84
1162.16
1149.91
1147.09
1145.69
1147.47
1152.21
1159.23
1169.18
1181.37
1196.33
1213.1
1232.16
1252.36
1274.17
1296.65
1320.3
1344.23
1369.26
1394.47
1420.81
1446.68
1473.37
1499.47
1525.8
1551.83
1575.75
1599.47
1620.49
1641.39
1660.62
1679.27
1696.01
1712.03
1726
1739.67
1751.02
1762.27
1771.04
1778.73
1784.78
1789.83
1794.75
1799.91
1804.25
1808.83
1809.35
1807.96
1805.62
1802.49
1798.43
1793.74
1788.91
1784.08
1779.39
1774.33
1768.89
1762.88
1756.51
1749.87
1743.09
1736.05
1728.78
1721.11
1713.17
1705.01
1696.76
1688.35
1679.95
1671.45
1662.92
1654.46
1645.99
1637.39
1628.66
1619.63
1610.45
1601.46
1592.6
1583.62
1574.67
1565.68
1556.98
1548.25
1539.79
1531.25
1522.91
1514.51
1506.33
1498.08
1489.93
1481.79
1473.8
1465.74
1457.79
1449.82
1441.87
1433.81
1425.94
1418.09
1410.41
1402.66
1395.17
1387.62
1380.42
1373.26
1366.46
1359.66
1353.17
1346.62
1340.23
1333.76
1327.47
1321.12
1314.73
1308.42
1302.1
1296
1289.91
1283.95
1278.17
1272.57
1267.11
1261.78
1256.65
1251.63
1246.81
1241.95
1237.23
1232.48
1227.81
1223.17
1218.54
1214
1209.51
1205.15
1200.91
1196.73
1192.74
1188.88
1185.2
1181.6
1178.13
1174.71
1171.52
1168.2
1164.86
1161.56
1158.39
1155.23
1152.13
1149.12
1146.23
1143.41
1140.73
1138.12
1135.64
1133.27
1131.04
1128.85
1126.87
1124.74
1122.58
1120.58
1118.59
1116.52
1113.73
75.134
243.958
381.17
620.844
928.022
1257.13
1585.65
1910.71
2233.28
2555.53
2880.93
3212.5
3551.42
3899.03
4255.96
4623.3
5003.9
5402.12
5822.32
6269.85
6753.91
7285.76
7870.42
8504.47
9200.27
9958.32
10756.2
11576.9
12412.1
13241.2
14019
14658.4
15223.6
15647.8
15815.7
15767.2
15570.1
15206.1
14554.6
13704.7
12661.4
11554.8
10427.9
9266.39
8216.54
7141.94
6282.55
5411.91
4733.89
4055.98
3537.2
3059.2
2661.92
2333.24
2035.24
1807.9
1599.41
1437.13
1286.77
1172.49
1065.52
985.729
910.467
855.052
801.718
763.1
724.378
696.764
668.58
648.728
627.841
614.895
601.306
591.712
584.917
577.474
575.687
573.331
574.053
575.914
578.7
583.352
589.591
597.732
607.221
618.442
630.86
644.842
659.906
676.489
694.097
713.289
733.49
755.243
777.913
801.943
826.813
852.863
879.563
906.788
934.396
961.696
989.322
1016.01
1042.96
1068.67
1094.5
1118.7
1143.09
1165.44
1187.81
1207.97
1227.16
1245.16
1263.13
1281.06
1299.18
1316.83
1333.65
1348.95
1360.39
1369.68
1378.05
1385.4
1391.3
1396.96
1402.01
1407.28
1411.69
1416.15
1419.53
1422.57
1424.88
1427.23
1428.84
1430.42
1430.98
1430.86
1430.38
1429.56
1428.32
1426.78
1424.97
1422.94
1420.76
1418.43
1415.84
1412.98
1409.66
1405.99
1402.11
1398.12
1393.91
1389.52
1384.97
1380.38
1375.73
1371.12
1366.41
1361.71
1356.92
1352.19
1347.37
1342.53
1337.67
1332.83
1327.92
1322.97
1317.96
1312.88
1307.67
1302.42
1297.15
1291.88
1286.53
1281.23
1275.85
1270.66
1265.46
1260.53
1255.58
1250.87
1246.11
1241.44
1236.71
1232.09
1227.4
1222.64
1217.87
1213.06
1208.36
1203.64
1198.97
1194.41
1189.97
1185.63
1181.38
1177.29
1173.27
1169.43
1165.56
1161.81
1158.02
1154.29
1150.55
1146.81
1143.12
1139.45
1135.86
1132.35
1128.87
1125.54
1122.3
1119.24
1116.23
1113.33
1110.5
1107.85
1105.11
1102.34
1099.58
1096.93
1094.28
1091.68
1089.14
1086.7
1084.31
1082.05
1079.83
1077.72
1075.72
1073.84
1072
1070.34
1068.57
1066.77
1065.09
1063.44
1061.7
1059.38
90.2981
282.142
444.253
697.983
1002.47
1317.05
1628.01
1933.23
2236.3
2543.96
2855.3
3171.69
3496.31
3830.99
4176.54
4534.2
4907.56
5302.46
5724.25
6178.76
6675.03
7227.22
7842.05
8508.17
9232.44
10022.3
10842.7
11656
12447.5
13192
13848.7
14279.8
14570.9
14681.3
14504.9
14112.9
13526.4
12813.6
11839.4
10726.3
9559.57
8359.38
7315.97
6256.27
5389.32
4515
3845.93
3206.75
2730.86
2288.54
1955.91
1653.63
1422.64
1227.06
1063.82
938.169
828.948
746.552
673.298
618.329
568.316
531.283
496.725
471.325
446.64
428.363
409.979
396.162
382.165
371.565
360.536
352.735
344.273
338.834
333.011
328.456
325.205
321.458
319.667
318.397
317.002
317.087
317.64
319.002
321.019
323.912
327.46
331.86
336.919
342.861
349.53
357.181
365.645
375.208
385.681
397.335
409.946
423.779
438.61
454.589
471.526
489.436
508.304
527.87
548.263
569.368
591.194
613.586
636.486
659.655
683.101
706.48
729.62
752.773
776.536
800.776
825.326
850.07
873.8
897.021
916.618
933.999
950.143
965.903
980.268
994.565
1007.94
1021.56
1034.24
1047.07
1058.72
1070.13
1080.38
1090.66
1099.88
1109
1117.06
1124.63
1131.33
1137.8
1143.55
1148.94
1153.87
1158.59
1162.83
1167.05
1170.72
1174.17
1176.75
1178.74
1180.13
1181.35
1182.06
1182.54
1182.52
1182.39
1182.06
1181.63
1180.99
1180.25
1179.36
1178.4
1177.27
1176.06
1174.75
1173.37
1171.86
1170.24
1168.48
1166.58
1164.48
1162.21
1159.8
1157.27
1154.62
1151.84
1148.95
1146.07
1143.14
1140.37
1137.56
1134.91
1132.24
1129.59
1126.89
1124.21
1121.48
1118.65
1115.73
1112.73
1109.71
1106.65
1103.55
1100.49
1097.46
1094.5
1091.58
1088.77
1086.01
1083.4
1080.76
1078.2
1075.62
1073.05
1070.45
1067.83
1065.2
1062.57
1059.95
1057.39
1054.81
1052.33
1049.91
1047.64
1045.42
1043.27
1041.18
1039.25
1037.26
1035.23
1033.18
1031.2
1029.22
1027.27
1025.34
1023.49
1021.67
1019.95
1018.25
1016.65
1015.12
1013.71
1012.34
1011.12
1009.82
1008.5
1007.24
1006.03
1004.72
1003.03
103.887
313.012
496.002
756.603
1053.84
1352.54
1644.63
1931.23
2219.43
2509.19
2802.48
3101.31
3409.3
3728.62
4060.4
4406.14
4770.48
5161.25
5585.2
6049.26
6561.97
7137.32
7782.29
8485.24
9235.98
10041.8
10862
11631.8
12316.9
12900.3
13364.9
13511.7
13462.3
13283.1
12797.3
12078.1
11160.9
10125.4
9001.49
7823.07
6737.77
5630.19
4748.73
3901.84
3248.9
2635.1
2176.45
1772.04
1478.09
1226.36
1039.58
876.411
761.3
659.024
583.533
521.686
472.192
435.583
404.415
380.695
358.96
342.193
325.962
313.487
301.036
291.288
281.368
273.329
265.121
258.377
251.399
245.741
239.833
235.318
230.352
226.972
223.549
219.996
217.203
214.666
212.248
210.424
208.547
207.436
206.298
205.834
205.43
205.537
205.821
206.433
207.335
208.63
210.275
212.376
214.894
217.947
221.458
225.54
230.137
235.358
241.141
247.589
254.702
262.437
270.889
280.078
290.08
300.915
312.584
325.076
338.375
352.491
367.427
383.339
400.532
418.944
438.365
458.606
479.422
500.721
520.956
540.105
558.65
577.373
595.505
613.82
631.669
649.781
667.474
685.489
702.686
720.014
736.131
752.356
767.456
782.388
796.409
810.271
823.136
835.865
847.814
859.421
870.433
881.264
891.416
901.495
910.821
919.773
927.844
935.286
941.844
948.158
953.77
959.181
963.822
968.356
972.312
976.316
979.805
983.347
986.431
989.501
992.137
994.729
997.039
999.307
1001.3
1003.19
1004.82
1006.29
1007.45
1008.33
1008.95
1009.41
1009.58
1009.5
1009.25
1008.9
1008.45
1008
1007.51
1007.1
1006.68
1006.24
1005.76
1005.23
1004.64
1003.93
1003.07
1002.06
1000.96
999.732
998.42
997.043
995.642
994.232
992.845
991.501
990.194
988.995
987.778
986.609
985.408
984.192
982.927
981.606
980.229
978.806
977.36
975.902
974.412
972.956
971.522
970.205
968.93
967.698
966.513
965.452
964.364
963.215
962.029
960.874
959.71
958.537
957.362
956.241
955.114
954.067
953.011
952.035
951.112
950.285
949.495
948.83
948.115
947.368
946.658
945.99
945.209
944.287
116.254
336.675
535.409
797.543
1083.8
1365.91
1641.14
1913.67
2183.16
2452.91
2726.59
3006.54
3296.47
3599.07
3916.06
4249.35
4604.85
4992.9
5422.56
5902.35
6435.97
7038.96
7722.53
8465.78
9233.69
10035.5
10822.7
11497.8
12016.7
12377.5
12577.1
12429.5
12076
11582.5
10810.6
9835.81
8684.55
7455.19
6349.2
5259.62
4354.27
3471.56
2814.44
2231.3
1805.68
1442.53
1177.05
960.772
803.289
678.05
583.025
505.287
451.409
401.487
369.355
339.331
319.349
302.937
288.675
277.664
266.321
256.834
247.057
239.285
231.229
224.734
218.093
212.56
206.818
201.874
196.768
192.434
187.946
184.238
180.319
177.383
174.385
171.563
169.105
166.627
164.304
162.328
160.294
158.608
156.879
155.552
154.195
153.159
152.089
151.292
150.474
149.926
149.412
149.111
148.961
149.05
149.266
149.665
150.235
151.015
151.985
153.192
154.634
156.3
158.237
160.455
163.006
165.915
169.203
172.889
177.007
181.6
186.729
192.521
199.117
206.545
214.802
223.853
233.656
244.111
254.979
266.129
277.701
289.791
302.4
315.581
329.285
343.605
358.486
374.059
390.106
406.61
423.336
440.365
457.349
474.542
491.372
508.353
524.694
541.102
557.017
572.787
588.097
603.324
617.978
632.508
646.352
659.768
672.451
684.66
695.888
706.847
716.945
726.919
735.933
744.875
752.94
761.075
768.457
775.907
782.689
789.532
795.845
802.169
808.093
814.022
819.579
825.035
830.152
835.078
839.627
843.831
847.668
851.216
854.339
857.134
859.517
861.807
863.831
865.872
867.8
869.747
871.689
873.586
875.437
877.182
878.89
880.406
881.729
882.785
883.737
884.447
885.042
885.453
885.81
886.086
886.355
886.61
886.889
887.214
887.542
887.894
888.181
888.462
888.648
888.748
888.732
888.652
888.502
888.294
888.015
887.716
887.403
887.167
886.957
886.769
886.612
886.547
886.475
886.328
886.13
885.921
885.688
885.421
885.129
884.841
884.535
884.261
883.97
883.723
883.51
883.374
883.266
883.261
883.226
883.156
883.093
883.076
882.895
882.912
126.359
351.773
562.215
821.619
1094.25
1362.13
1624.56
1880.02
2130.22
2379.42
2632.58
2892.92
3164.17
3449.79
3752.52
4074.88
4424.14
4813.96
5254.47
5755.87
6323.47
6967.32
7695.84
8483.64
9252.87
10021.3
10730.9
11252.3
11543
11623.3
11545.8
11153.3
10475.2
9638.17
8594.12
7421.38
6221.02
5009.1
4058.41
3196.98
2548.88
1977.14
1566.65
1229.59
992.369
804.942
668.584
563.553
483.369
421.638
372.23
335.071
306.539
283.211
267.887
253.367
244.172
234.506
226.526
218.935
211.111
204.402
197.489
191.718
185.907
181.181
176.326
172.212
167.971
164.363
160.636
157.449
154.178
151.429
148.588
146.271
143.846
141.914
140.033
138.061
136.183
134.608
132.987
131.488
129.954
128.701
127.433
126.35
125.247
124.285
123.302
122.449
121.576
120.838
120.089
119.503
118.929
118.472
118.036
117.679
117.386
117.127