/*--------------------------------*- C++ -*----------------------------------*\
| =========                 |                                                 |
| \\      /  F ield         | OpenFOAM: The Open Source CFD Toolbox           |
|  \\    /   O peration     | Version:  2312                                  |
|   \\  /    A nd           | Website:  www.openfoam.com                      |
|    \\/     M anipulation  |                                                 |
\*---------------------------------------------------------------------------*/
FoamFile
{
    version     2.0;
    format      ascii;
    arch        "LSB;label=32;scalar=64";
    class       volScalarField;
    location    "0.006";
    object      nut;
}
// * * * * * * * * * * * * * * * * * * * * * * * * * * * * * * * * * * * * * //

dimensions      [0 2 -1 0 0 0 0];

internalField   nonuniform List<scalar> 
48128
(
2.52598e-07
6.68332e-07
9.45825e-07
8.86306e-07
8.58368e-07
7.2449e-07
6.13664e-07
6.48463e-06
2.96224e-05
7.25483e-05
0.000119049
0.000162551
0.000202255
0.000238166
0.000270956
0.000301485
0.000330417
0.000358211
0.000385301
0.000412057
0.000438671
0.00046523
0.000491806
0.000518541
0.000545581
0.000573136
0.000601371
0.000630574
0.000660918
0.000692786
0.000725467
0.000758888
0.000793322
0.000828772
0.000865124
0.000902571
0.000942503
0.000983212
0.00102507
0.00106697
0.00110918
0.00115153
0.00119519
0.0012372
0.00127762
0.0013145
0.00135197
0.00138634
0.00141705
0.00143991
0.00146119
0.00147524
0.00148979
0.0014983
0.00151307
0.00154278
0.00156615
0.00158718
0.00160314
0.00161622
0.00162609
0.00163322
0.00163861
0.00164217
0.00164449
0.00164495
0.00164407
0.0016417
0.00156323
0.00147646
0.00139849
0.00132868
0.00126503
0.00120723
0.00115396
0.00110527
0.00106013
0.00101873
0.000980329
0.000945045
0.000912592
0.000882434
0.000854925
0.000828875
0.000804871
0.000782112
0.00076127
0.000741566
0.000723622
0.000706593
0.000690961
0.000676048
0.000662316
0.000649264
0.000637205
0.000625844
0.000615172
0.000605096
0.000595597
0.000586833
0.000578524
0.000570913
0.000563795
0.000557194
0.000550903
0.000545095
0.000539623
0.000534528
0.000529648
0.000525072
0.000520693
0.000516725
0.000513084
0.000509618
0.000506292
0.000502911
0.000499378
0.000495903
0.000491777
0.000488737
0.000488234
0.000486212
0.000483937
0.000483229
0.0004818
0.000480114
0.000478309
0.000476438
0.000474633
0.000472989
0.000471522
0.000470177
0.000468863
0.000467545
0.000466268
0.000465042
0.00046392
0.000462918
0.000461953
0.000460982
0.000460063
0.000459215
0.00045839
0.000457566
0.000456729
0.000455871
0.000455031
0.000454071
0.000453301
0.000452984
0.000452379
0.000451655
0.000451163
0.000450563
0.000450023
0.000449442
0.000448858
0.000448256
0.000447661
0.000447064
0.000446457
0.000445832
0.000445222
0.000444635
0.000444034
0.000443442
0.0004429
0.00044238
0.00044192
0.000441441
0.000441071
0.000440819
0.00044052
0.00044025
0.000439976
0.000439765
0.000439524
0.000439293
0.000439018
0.000438696
0.000438312
0.000437898
0.000437475
0.000437039
0.000436644
0.000436278
0.000435943
0.000435658
0.000435437
0.000435253
0.000435098
0.000434946
0.000434837
0.000434707
0.000434549
0.000434376
0.000434184
0.000433946
0.000433661
0.000433344
0.000433018
0.000432706
0.000432426
0.000432171
0.000431962
0.000431805
0.000431668
0.000431551
0.000431443
0.000431334
0.000431223
0.000431104
0.00043096
0.000430777
0.000430569
0.000430318
0.000430094
0.000429847
0.000429507
0.00042934
0.00042919
0.000429025
0.000428895
0.000428786
0.000428689
0.000428593
0.000428485
0.000428362
0.000428229
0.000428085
0.000427924
0.000427724
0.000427524
0.000427298
0.000427008
0.000426848
0.000426685
0.000426517
0.00042638
0.000426229
4.55224e-06
3.7544e-06
2.14272e-06
1.7684e-06
3.37763e-06
7.80055e-06
2.01648e-05
5.59102e-05
0.000126849
0.000241873
0.000397464
0.000571547
0.000765453
0.000970056
0.00117967
0.00139032
0.00160216
0.00181705
0.0020379
0.0022686
0.00250869
0.00276418
0.0030334
0.00332008
0.00362297
0.00394327
0.00427848
0.00463199
0.00499364
0.005395
0.00581599
0.00623717
0.00666343
0.00709618
0.00751946
0.00786742
0.00822516
0.00858055
0.00893339
0.00927149
0.0095969
0.00990921
0.010218
0.0104928
0.0107358
0.0109392
0.0111483
0.0113411
0.0115225
0.0116367
0.0117531
0.0118145
0.0118781
0.0118957
0.0118842
0.0118547
0.0117861
0.0117029
0.0116015
0.0114846
0.0113544
0.0112153
0.0110704
0.0109202
0.0107684
0.0106102
0.0104495
0.0102852
0.0101244
0.00997821
0.00983128
0.00968321
0.00953776
0.00938757
0.00924169
0.00909
0.00894285
0.00879063
0.00864272
0.00849051
0.00834535
0.00819755
0.00805794
0.00791979
0.0077899
0.0076567
0.00752961
0.0074003
0.00727752
0.0071546
0.00703874
0.00692363
0.0068142
0.00670661
0.00660324
0.00650253
0.00640542
0.00631147
0.00621908
0.00613041
0.00604336
0.00596006
0.00587821
0.00580092
0.00572508
0.00565341
0.00558319
0.0055169
0.00545213
0.00539022
0.00533026
0.00527257
0.00521711
0.005164
0.00511305
0.00506448
0.00501479
0.00496592
0.0049146
0.00487092
0.00482669
0.00478155
0.00473853
0.00470305
0.00466865
0.00463604
0.00460573
0.00457564
0.00454609
0.00451751
0.00448999
0.00446323
0.00443745
0.00441192
0.00438683
0.00436234
0.00433818
0.00431493
0.00429246
0.0042705
0.00424904
0.00422826
0.00420828
0.00418854
0.00416948
0.00414849
0.00412248
0.00409758
0.00407304
0.00404296
0.00401659
0.00399056
0.0039624
0.00393687
0.00391177
0.00388772
0.00386487
0.00384263
0.0038216
0.00380154
0.00378194
0.00376421
0.00374672
0.00372985
0.00371342
0.00369755
0.00368191
0.00366654
0.00365152
0.0036369
0.00362182
0.00360692
0.00359255
0.00357885
0.00356461
0.00355181
0.00353858
0.00352679
0.00351512
0.0035041
0.00349402
0.00348472
0.00347594
0.00346821
0.00346046
0.00345267
0.00344494
0.00343696
0.00342928
0.00342051
0.00341234
0.00340352
0.00339594
0.00338803
0.0033805
0.00337317
0.00336621
0.00335982
0.00335436
0.00334888
0.00334449
0.00333943
0.00333549
0.00333114
0.0033267
0.00332159
0.00331666
0.0033115
0.00330642
0.00330121
0.00329613
0.00329122
0.0032866
0.00328254
0.00327878
0.00327549
0.00327248
0.00326935
0.0032675
0.00326445
0.00326127
0.00325838
0.00325514
0.00325171
0.00324818
0.00324467
0.00324118
0.00323787
0.00323471
0.00323188
0.00322917
0.00322693
0.00322504
0.00322298
0.00322192
0.00322015
0.00321826
0.00321661
0.00321439
0.00321093
9.16226e-06
1.17732e-05
1.0552e-05
1.31962e-05
3.00322e-05
6.04989e-05
0.000133355
0.000286504
0.00056759
0.00101899
0.00161432
0.0022912
0.00300395
0.00371454
0.0043989
0.0050471
0.00566587
0.00626873
0.00684977
0.00744144
0.00803043
0.00864029
0.0092598
0.00989842
0.0105509
0.0112187
0.0118985
0.0126009
0.0133007
0.0140175
0.0147314
0.0154311
0.0161079
0.0167524
0.0173628
0.0179064
0.0184372
0.0189448
0.0194313
0.0198788
0.0202901
0.0206574
0.0210058
0.0212905
0.0215205
0.021672
0.0218224
0.0219357
0.0220289
0.0220199
0.0220055
0.0219151
0.0218222
0.0216713
0.0215032
0.0213094
0.0210761
0.0208292
0.0205611
0.0202774
0.0199814
0.0196794
0.0193756
0.0190707
0.0187683
0.0184636
0.0181602
0.0178578
0.0175537
0.0172651
0.0169754
0.0166901
0.0164136
0.0161374
0.0158706
0.0156044
0.0153452
0.0150849
0.0148322
0.0145774
0.0143337
0.0140889
0.0138564
0.0136263
0.0134081
0.0131879
0.0129774
0.0127656
0.0125636
0.0123621
0.0121709
0.0119815
0.0118002
0.0116224
0.0114506
0.0112829
0.0111198
0.0109615
0.0108058
0.0106555
0.0105078
0.0103655
0.0102254
0.0100918
0.00996002
0.00983435
0.00971054
0.00959262
0.00947655
0.00936495
0.00925573
0.00915079
0.00904831
0.00895041
0.00885412
0.00876301
0.00866784
0.00857634
0.00848066
0.00839462
0.00831049
0.00822395
0.00813982
0.0080666
0.00799728
0.00792951
0.00786591
0.00780162
0.00773911
0.00767784
0.00761884
0.00756096
0.00750542
0.00744987
0.00739581
0.00734224
0.0072902
0.00723899
0.00718984
0.00714088
0.00709372
0.00704698
0.00700235
0.00695751
0.00691462
0.00687083
0.00682858
0.00678628
0.00674526
0.00670637
0.00666757
0.00662916
0.00659347
0.0065589
0.00652628
0.00649439
0.0064641
0.0064343
0.00640574
0.00637772
0.00635051
0.00632365
0.00629714
0.00627112
0.00624511
0.00621894
0.00619305
0.00616743
0.00614201
0.00611705
0.00609234
0.00606882
0.00604571
0.00602332
0.00600223
0.00598189
0.00596284
0.00594489
0.00592772
0.0059114
0.00589554
0.00587968
0.00586383
0.00584804
0.00583184
0.00581567
0.00579937
0.00578307
0.005767
0.00575107
0.00573554
0.00572093
0.00570726
0.00569435
0.00568214
0.00567072
0.00566014
0.00565011
0.00564032
0.00563035
0.0056205
0.00561017
0.00560005
0.00558964
0.00557916
0.00556852
0.00555812
0.00554785
0.00553833
0.00552929
0.00552097
0.0055133
0.00550635
0.00549966
0.00549348
0.00548712
0.00548121
0.00547441
0.00546782
0.00546131
0.00545433
0.00544732
0.00544039
0.00543332
0.00542666
0.0054205
0.00541482
0.00540957
0.00540486
0.00540058
0.00539672
0.00539307
0.00538971
0.00538542
0.00538137
0.00537758
0.005373
0.00536829
0.00536348
0.00535653
1.36722e-05
2.41973e-05
3.286e-05
6.05199e-05
0.000112795
0.000223217
0.000469371
0.000946269
0.00174596
0.00282257
0.00409816
0.00540725
0.00665373
0.00780588
0.00886233
0.00984833
0.0107473
0.0116171
0.012451
0.0132891
0.0141164
0.0149594
0.0158063
0.0166669
0.017536
0.0184136
0.0192942
0.0201785
0.0210436
0.0218966
0.0227231
0.0235124
0.0242499
0.0249402
0.0255845
0.0261561
0.026685
0.0271641
0.0275953
0.0279668
0.0282843
0.0285311
0.0287427
0.0288726
0.0289382
0.0289149
0.0288753
0.0287881
0.0286659
0.0284541
0.0282246
0.0279265
0.0276249
0.0272785
0.0269286
0.0265529
0.026161
0.0257611
0.025344
0.0249227
0.0245003
0.0240826
0.023672
0.0232683
0.0228731
0.0224843
0.0221029
0.0217331
0.0213645
0.0210182
0.0206743
0.0203421
0.0200191
0.0197045
0.0193987
0.0191014
0.018811
0.0185253
0.0182477
0.0179736
0.0177103
0.0174502
0.0172017
0.0169561
0.0167205
0.0164866
0.0162612
0.0160381
0.0158234
0.0156115
0.0154084
0.0152087
0.0150162
0.0148281
0.0146453
0.0144667
0.0142921
0.0141217
0.0139542
0.0137916
0.013632
0.0134776
0.0133258
0.0131799
0.0130361
0.0128978
0.0127616
0.012631
0.0125021
0.0123776
0.012255
0.0121372
0.0120214
0.0119108
0.0118011
0.0116963
0.0115863
0.01148
0.0113689
0.0112625
0.0111669
0.011068
0.0109684
0.0108827
0.0108015
0.0107205
0.0106433
0.0105648
0.0104883
0.0104127
0.0103396
0.0102676
0.0101983
0.0101283
0.0100603
0.00999213
0.00992605
0.00986048
0.00979766
0.0097344
0.00967357
0.00961259
0.00955442
0.00949538
0.00943898
0.00938064
0.00932444
0.00926789
0.0092124
0.00915982
0.00910751
0.00905508
0.00900627
0.0089584
0.00891321
0.00886867
0.0088262
0.00878417
0.00874368
0.00870371
0.00866493
0.00862627
0.00858818
0.00855058
0.00851319
0.00847534
0.00843813
0.00840104
0.00836427
0.00832821
0.00829231
0.00825837
0.00822448
0.008192
0.00816074
0.00813082
0.00810249
0.00807527
0.00804954
0.00802427
0.00799999
0.00797547
0.00795119
0.00792671
0.007902
0.00787709
0.00785233
0.00782739
0.00780356
0.00777954
0.00775658
0.00773425
0.00771351
0.00769358
0.00767468
0.00765669
0.00763993
0.00762368
0.00760787
0.00759202
0.00757599
0.00755971
0.00754338
0.00752693
0.00751049
0.00749414
0.0074781
0.00746243
0.00744792
0.00743389
0.0074211
0.00740877
0.00739762
0.00738664
0.00737655
0.00736622
0.0073566
0.00734555
0.00733464
0.00732399
0.00731326
0.00730246
0.00729177
0.00728111
0.00727112
0.0072617
0.00725309
0.00724487
0.00723757
0.00723065
0.00722452
0.00721841
0.00721303
0.00720616
0.00719959
0.0071935
0.0071866
0.00717961
0.00717254
0.00716252
1.80105e-05
5.89132e-05
9.57238e-05
0.000156418
0.000291413
0.000587921
0.00117672
0.00221986
0.00368205
0.00539861
0.00716836
0.00885245
0.0104087
0.0118377
0.0131387
0.0143211
0.0154208
0.0164712
0.0174788
0.0184787
0.0194616
0.0204487
0.0214324
0.02242
0.0234053
0.0243844
0.0253502
0.0262975
0.0272055
0.0280709
0.0288771
0.0296265
0.03031
0.0309295
0.03149
0.0319692
0.0323866
0.0327318
0.0330042
0.0332047
0.0333388
0.0333859
0.0333608
0.0332389
0.0330425
0.0327701
0.0324695
0.0321203
0.0317245
0.0312745
0.0306746
0.029947
0.0292039
0.0285417
0.0279898
0.0273173
0.0267812
0.0262267
0.0256792
0.0252083
0.0247401
0.0243759
0.0239736
0.0236578
0.0232898
0.0230021
0.0227086
0.0224378
0.0222213
0.0219843
0.0216473
0.0213209
0.021
0.0206964
0.0203983
0.0201168
0.0198403
0.0195771
0.0193205
0.019075
0.0188379
0.0186092
0.0183899
0.018175
0.0179656
0.0177612
0.0175623
0.0173688
0.0171808
0.0169978
0.0168211
0.0166491
0.0164823
0.0163204
0.016162
0.0160075
0.0158553
0.0157064
0.0155599
0.0154168
0.0152766
0.0151403
0.0150066
0.0148775
0.0147505
0.0146275
0.0145067
0.01439
0.0142751
0.0141637
0.0140538
0.0139477
0.0138431
0.0137433
0.0136439
0.0135478
0.0134469
0.0133486
0.0132454
0.0131405
0.0130547
0.012965
0.0128719
0.0127917
0.0127165
0.0126406
0.0125676
0.0124932
0.0124207
0.0123484
0.0122782
0.0122088
0.0121418
0.0120737
0.0120074
0.0119404
0.0118754
0.0118105
0.0117484
0.0116854
0.0116248
0.0115635
0.0115052
0.0114455
0.0113883
0.0113288
0.0112712
0.0112131
0.011155
0.0111008
0.0110469
0.0109923
0.0109412
0.0108909
0.0108433
0.0107961
0.0107511
0.0107062
0.0106629
0.0106198
0.0105781
0.010536
0.0104946
0.0104534
0.0104125
0.0103708
0.0103299
0.0102888
0.010248
0.0102078
0.0101676
0.0101298
0.0100917
0.0100553
0.0100199
0.00998621
0.00995404
0.00992315
0.0098939
0.00986507
0.00983712
0.00980891
0.00978079
0.00975228
0.00972363
0.0096944
0.00966542
0.00963608
0.00960809
0.00957986
0.00955312
0.00952669
0.00950213
0.00947862
0.00945631
0.00943495
0.00941493
0.00939542
0.00937628
0.00935721
0.00933773
0.00931792
0.0092982
0.00927812
0.0092582
0.00923824
0.00921894
0.00919996
0.00918248
0.0091654
0.00914996
0.00913483
0.00912127
0.00910769
0.00909532
0.00908246
0.00907062
0.00905708
0.00904353
0.00903018
0.00901699
0.0090037
0.00899055
0.00897756
0.00896549
0.00895404
0.00894364
0.00893363
0.00892482
0.00891631
0.00890898
0.00890135
0.00889483
0.00888655
0.00887848
0.00887095
0.00886264
0.00885422
0.00884572
0.00883388
2.22712e-05
0.000155126
0.000201934
0.000327214
0.000619448
0.0012325
0.00234615
0.00401526
0.00599332
0.00809456
0.010149
0.0120642
0.0138316
0.0154377
0.0168779
0.0182027
0.0194381
0.0206072
0.0217263
0.022822
0.0238928
0.024953
0.0259991
0.0270342
0.0280525
0.0290465
0.0300061
0.0309243
0.0317832
0.0325668
0.0332732
0.033908
0.0344619
0.0349392
0.0353232
0.035612
0.0358252
0.0359506
0.035977
0.0359219
0.0357873
0.0355637
0.0349935
0.0339351
0.0327758
0.0318081
0.0308202
0.0298347
0.0288053
0.0280062
0.0271947
0.0263922
0.025707
0.0249527
0.0245527
0.023853
0.0232299
0.0227712
0.0221651
0.0217761
0.0212692
0.0209528
0.0205362
0.0202567
0.0198961
0.0196459
0.0193823
0.0191632
0.0189879
0.018796
0.0186721
0.0185388
0.0184161
0.0183411
0.018233
0.0181773
0.0181129
0.0180846
0.0180466
0.0180526
0.0180244
0.0180441
0.0180066
0.0178505
0.0176939
0.0175443
0.0173963
0.0172559
0.0171178
0.0169863
0.0168576
0.0167337
0.0166133
0.0164975
0.0163828
0.0162709
0.0161597
0.0160503
0.0159422
0.0158359
0.0157319
0.0156301
0.0155304
0.0154341
0.0153394
0.0152469
0.0151565
0.0150685
0.0149821
0.0148973
0.0148138
0.0147322
0.0146519
0.0145754
0.0144988
0.0144239
0.0143454
0.0142684
0.0141867
0.0140989
0.0140329
0.013964
0.0138911
0.0138263
0.0137669
0.0137073
0.0136494
0.0135906
0.013533
0.013475
0.0134186
0.0133627
0.0133084
0.0132532
0.0131992
0.0131443
0.0130909
0.0130372
0.0129858
0.0129336
0.0128832
0.012832
0.0127832
0.0127329
0.0126846
0.0126339
0.0125847
0.0125347
0.0124838
0.0124372
0.012391
0.0123436
0.0122991
0.0122552
0.0122137
0.0121725
0.012133
0.0120935
0.0120554
0.0120171
0.0119802
0.0119425
0.0119055
0.0118683
0.0118314
0.0117934
0.0117562
0.0117184
0.011681
0.0116438
0.0116063
0.0115712
0.0115358
0.0115021
0.0114688
0.0114374
0.0114072
0.0113785
0.0113511
0.0113244
0.0112981
0.0112717
0.011245
0.0112179
0.0111905
0.0111625
0.0111344
0.0111059
0.0110787
0.0110511
0.0110251
0.0109992
0.0109753
0.0109525
0.0109309
0.0109101
0.0108907
0.0108717
0.010853
0.0108344
0.0108152
0.0107955
0.0107761
0.0107559
0.0107361
0.010716
0.0106968
0.0106777
0.0106604
0.0106432
0.0106279
0.0106128
0.0105995
0.010586
0.0105739
0.010561
0.0105493
0.0105359
0.0105223
0.0105087
0.0104955
0.0104819
0.0104687
0.0104556
0.0104436
0.0104321
0.0104219
0.010412
0.0104035
0.0103952
0.0103884
0.010381
0.0103749
0.0103671
0.0103592
0.0103519
0.0103438
0.0103356
0.0103273
0.0103159
2.84823e-05
0.000269588
0.000352995
0.000603724
0.00115534
0.002202
0.0038907
0.00599231
0.00829044
0.0106265
0.0128493
0.014914
0.0168216
0.0185137
0.020055
0.0214746
0.0227937
0.024034
0.0252135
0.0263522
0.0274549
0.0285308
0.0295778
0.0305964
0.0315817
0.0325232
0.0334073
0.0342271
0.0349669
0.035614
0.0361632
0.0366148
0.0369644
0.0372312
0.0373769
0.0374136
0.0373655
0.0368943
0.0358894
0.0347318
0.0334915
0.0323899
0.0312369
0.0300285
0.0287816
0.0278476
0.0268573
0.0258863
0.0249189
0.0240302
0.0234035
0.0225838
0.021994
0.0211758
0.0207931
0.0201139
0.0193748
0.0189658
0.0183521
0.0179698
0.0174577
0.0171536
0.0167442
0.0164775
0.0161346
0.0158993
0.0156542
0.0154678
0.0153015
0.0151458
0.0150514
0.0149516
0.0148868
0.0148475
0.0148142
0.0147991
0.0147971
0.0148175
0.0148436
0.014894
0.0149383
0.0150044
0.0150557
0.0151264
0.015181
0.0152569
0.0153299
0.0154025
0.0154813
0.0155415
0.0156152
0.0156907
0.0157003
0.0156469
0.01559
0.0155346
0.0154772
0.0154204
0.0153629
0.0153056
0.0152496
0.0151944
0.0151405
0.0150882
0.0150363
0.0149847
0.0149339
0.0148833
0.0148337
0.014784
0.0147352
0.0146861
0.0146383
0.0145925
0.0145463
0.0145004
0.0144531
0.0144056
0.0143537
0.0142939
0.0142522
0.0142096
0.0141646
0.0141208
0.0140826
0.0140455
0.0140089
0.0139722
0.0139356
0.0138983
0.0138618
0.0138254
0.01379
0.0137539
0.0137184
0.013682
0.0136463
0.0136101
0.0135755
0.0135402
0.0135062
0.0134713
0.0134382
0.0134034
0.0133704
0.013335
0.0133006
0.0132651
0.0132281
0.0131949
0.0131625
0.0131286
0.0130968
0.0130653
0.0130355
0.0130062
0.0129779
0.0129498
0.0129223
0.0128947
0.012868
0.0128404
0.0128135
0.0127858
0.0127587
0.0127301
0.0127023
0.0126736
0.0126452
0.0126166
0.0125875
0.0125606
0.0125333
0.0125074
0.0124815
0.0124574
0.0124341
0.0124124
0.0123915
0.0123714
0.0123513
0.0123313
0.0123107
0.0122896
0.0122682
0.012246
0.0122236
0.0122007
0.0121787
0.0121563
0.0121353
0.0121145
0.0120955
0.0120773
0.0120603
0.0120439
0.0120288
0.012014
0.0119995
0.0119849
0.0119698
0.0119539
0.0119383
0.0119219
0.0119058
0.0118891
0.0118736
0.0118578
0.0118439
0.0118298
0.0118178
0.0118057
0.0117956
0.0117851
0.011776
0.011766
0.0117571
0.0117466
0.0117358
0.0117247
0.0117142
0.0117031
0.0116925
0.0116818
0.0116724
0.0116634
0.0116557
0.0116482
0.0116423
0.0116363
0.0116321
0.011627
0.0116233
0.0116179
0.0116124
0.0116072
0.0116014
0.0115954
0.0115892
0.0115812
3.63007e-05
0.00040798
0.00058216
0.00101857
0.00191082
0.00345049
0.00555707
0.00791839
0.0104237
0.0128916
0.0152142
0.0173883
0.0193453
0.0210993
0.0227049
0.0241799
0.0255431
0.0268153
0.0280131
0.0291516
0.0302396
0.0312835
0.0322815
0.0332317
0.0341303
0.0349656
0.0357216
0.0363881
0.0369582
0.0374161
0.0377639
0.0379853
0.0380818
0.0381001
0.0371122
0.0357406
0.0343252
0.0331608
0.0320021
0.030706
0.0293434
0.0282885
0.0271698
0.0260704
0.0249601
0.0240629
0.0233004
0.0223236
0.0214481
0.020411
0.0199035
0.0190753
0.0184564
0.0176484
0.0170822
0.0164883
0.0157238
0.0152973
0.0147164
0.014327
0.0138578
0.0135375
0.0131778
0.0129234
0.0126546
0.0124466
0.0122521
0.0120997
0.011962
0.0118517
0.0117655
0.0116938
0.0116374
0.0115958
0.0115893
0.0115556
0.0115851
0.0115876
0.0116549
0.0116794
0.0117742
0.0118064
0.0119157
0.0119553
0.0120995
0.0121765
0.0123337
0.012422
0.0125785
0.0126727
0.0128263
0.0129387
0.0130917
0.0132005
0.0133449
0.0134336
0.0135644
0.0136688
0.013796
0.0138942
0.0140061
0.0140354
0.0140361
0.014035
0.0140318
0.014027
0.0140214
0.0140144
0.0140075
0.0139989
0.0139903
0.0139802
0.0139714
0.0139617
0.0139518
0.013941
0.0139312
0.0139185
0.0139016
0.0138776
0.0138619
0.0138497
0.0138349
0.0138167
0.0138031
0.0137918
0.0137803
0.0137692
0.013757
0.0137443
0.0137311
0.0137177
0.0137047
0.0136914
0.0136777
0.0136633
0.0136487
0.0136335
0.013619
0.0136042
0.0135899
0.0135747
0.0135606
0.0135451
0.0135308
0.0135143
0.0134986
0.013481
0.0134623
0.0134456
0.0134306
0.0134138
0.0133982
0.0133825
0.013368
0.013354
0.0133404
0.0133271
0.0133138
0.0133004
0.0132873
0.0132736
0.0132602
0.0132457
0.0132321
0.0132166
0.013202
0.0131861
0.0131707
0.0131545
0.0131377
0.0131226
0.0131073
0.0130928
0.0130781
0.0130648
0.0130519
0.0130404
0.0130293
0.0130191
0.0130085
0.0129982
0.0129872
0.0129757
0.0129637
0.0129509
0.0129379
0.0129242
0.012911
0.0128974
0.0128849
0.0128726
0.0128616
0.0128513
0.0128421
0.0128332
0.0128255
0.0128179
0.0128107
0.0128032
0.0127953
0.0127865
0.0127777
0.0127682
0.0127589
0.0127489
0.0127399
0.0127305
0.0127229
0.0127149
0.0127089
0.0127027
0.0126984
0.0126935
0.01269
0.0126856
0.012682
0.0126772
0.0126718
0.0126659
0.0126607
0.0126547
0.0126493
0.0126435
0.0126392
0.0126349
0.0126322
0.0126293
0.0126281
0.0126266
0.012627
0.0126265
0.0126271
0.0126264
0.0126252
0.0126242
0.0126228
0.0126211
0.0126191
0.0126173
4.54247e-05
0.000548819
0.00089074
0.00158294
0.00285729
0.00482722
0.00716037
0.00970209
0.0123243
0.0148616
0.0172473
0.0194708
0.021446
0.0232387
0.0248775
0.0263763
0.0277523
0.0290231
0.0302032
0.0313044
0.0323374
0.0333079
0.0342138
0.0350507
0.0358157
0.0364995
0.0370829
0.0375541
0.037913
0.0381379
0.0382527
0.0373858
0.0357325
0.0344331
0.0331848
0.031684
0.0302165
0.0291193
0.0280318
0.0268506
0.0255869
0.0246712
0.0237325
0.0227153
0.021699
0.0206058
0.0200659
0.019012
0.0181624
0.0170427
0.0164656
0.0156517
0.0149548
0.0142833
0.0135568
0.0131279
0.0125127
0.0120614
0.0115769
0.0112096
0.0108706
0.010556
0.0103002
0.0100684
0.00989256
0.00970259
0.00957361
0.00943824
0.00935463
0.00926878
0.00920164
0.00917232
0.00910224
0.00908877
0.00908453
0.00904814
0.00909886
0.00907279
0.00916411
0.0091643
0.00926673
0.00928619
0.00938858
0.00940567
0.00954195
0.00961194
0.00974554
0.00982521
0.00995323
0.0100425
0.0101713
0.0102742
0.0104101
0.0105347
0.0106781
0.0107914
0.0109413
0.011081
0.0112373
0.0113777
0.0115312
0.0116783
0.0117965
0.011927
0.0120495
0.0121647
0.0122691
0.0123777
0.0124818
0.0125883
0.0127013
0.012739
0.0127744
0.0128062
0.0128374
0.0128667
0.0128974
0.0129227
0.0129437
0.0129595
0.0129746
0.0129939
0.0130109
0.0130237
0.013038
0.0130547
0.0130719
0.0130884
0.0131045
0.0131186
0.0131317
0.0131439
0.0131559
0.0131675
0.0131782
0.0131878
0.0131967
0.0132045
0.0132124
0.0132199
0.0132274
0.0132338
0.0132407
0.0132463
0.0132527
0.0132574
0.0132622
0.0132649
0.0132669
0.0132687
0.0132727
0.0132751
0.0132777
0.0132797
0.0132826
0.0132856
0.0132887
0.013292
0.0132949
0.0132977
0.0133003
0.0133024
0.0133046
0.0133054
0.0133072
0.0133073
0.013308
0.0133074
0.0133072
0.0133057
0.0133038
0.0133028
0.0133016
0.0133008
0.0132996
0.0132992
0.0132989
0.0132996
0.0133006
0.0133022
0.0133036
0.0133051
0.013306
0.0133064
0.0133061
0.0133053
0.0133041
0.0133019
0.0133001
0.0132977
0.0132964
0.0132947
0.0132942
0.013294
0.0132948
0.0132957
0.0132976
0.0132995
0.0133017
0.0133036
0.0133052
0.0133059
0.0133065
0.0133062
0.0133062
0.0133052
0.0133053
0.0133045
0.0133057
0.013306
0.0133082
0.01331
0.0133138
0.0133166
0.0133209
0.0133241
0.0133281
0.0133311
0.0133335
0.0133348
0.0133371
0.0133385
0.0133405
0.0133418
0.0133447
0.0133473
0.0133515
0.0133554
0.0133608
0.0133658
0.0133726
0.0133785
0.0133854
0.0133912
0.0133963
0.0134014
0.0134064
0.0134108
0.0134148
0.0134222
6.04637e-05
0.000721474
0.00127707
0.00226793
0.0039275
0.00615094
0.00864047
0.0112918
0.0139693
0.016536
0.0189594
0.0211827
0.0231654
0.0249741
0.0266224
0.0281203
0.0294817
0.030721
0.0318503
0.0328795
0.0338195
0.0346769
0.0354493
0.0361305
0.0367188
0.0372053
0.0375811
0.0378231
0.0377258
0.0360928
0.0347859
0.0333895
0.0316227
0.0303623
0.029183
0.0277772
0.0264683
0.0256761
0.0246187
0.0235356
0.0223674
0.0214164
0.020768
0.0197
0.018727
0.0174233
0.0168646
0.0157496
0.0149916
0.0139691
0.01332
0.0125917
0.0119461
0.0114198
0.0106826
0.0103332
0.00990611
0.00942412
0.00908702
0.00871974
0.00850308
0.00820185
0.00804618
0.00781086
0.0077204
0.0075292
0.00747971
0.00733752
0.00733379
0.00723739
0.00722641
0.00721819
0.007164
0.00720449
0.0071675
0.00721786
0.00724363
0.00725999
0.00734002
0.0073486
0.00743267
0.00746293
0.00752669
0.00756368
0.00765609
0.00773095
0.00781424
0.00789061
0.00796624
0.00804314
0.00812039
0.00820191
0.00828926
0.00839435
0.00848798
0.0085921
0.00870503
0.00882905
0.00895995
0.00908193
0.00922211
0.00935008
0.00948094
0.00961431
0.00974689
0.00987743
0.0100093
0.0101378
0.0102757
0.0104021
0.0105494
0.0106774
0.0107841
0.010878
0.0109509
0.0110517
0.0111698
0.0113386
0.0115292
0.0116031
0.0116594
0.0117141
0.0117663
0.0118151
0.0118623
0.0119098
0.0119585
0.0120051
0.0120515
0.0120943
0.0121366
0.0121767
0.0122162
0.0122544
0.012292
0.0123276
0.0123625
0.0123953
0.0124279
0.0124593
0.0124904
0.0125202
0.01255
0.0125783
0.0126073
0.0126345
0.0126618
0.0126864
0.0127107
0.0127329
0.0127569
0.0127796
0.0128018
0.012823
0.0128444
0.0128656
0.0128867
0.0129075
0.0129279
0.0129477
0.0129673
0.0129863
0.0130053
0.0130229
0.0130412
0.0130581
0.0130753
0.0130914
0.0131077
0.0131224
0.0131368
0.0131512
0.0131655
0.0131796
0.0131931
0.013207
0.0132206
0.0132348
0.013249
0.0132638
0.0132783
0.0132929
0.0133071
0.0133208
0.0133337
0.0133464
0.0133584
0.0133694
0.0133805
0.0133908
0.0134021
0.0134126
0.013424
0.0134355
0.0134479
0.01346
0.0134729
0.0134857
0.0134989
0.0135117
0.0135242
0.013536
0.0135476
0.0135583
0.0135693
0.013579
0.0135898
0.0135995
0.0136109
0.0136213
0.0136333
0.0136447
0.0136579
0.0136702
0.0136838
0.0136962
0.0137095
0.0137219
0.0137338
0.0137442
0.0137557
0.0137661
0.0137773
0.0137875
0.0137992
0.0138104
0.013823
0.0138352
0.013849
0.0138619
0.0138768
0.0138906
0.0139054
0.0139192
0.0139322
0.013945
0.0139581
0.0139702
0.0139819
0.0140006
7.89568e-05
0.000954764
0.00172534
0.00303552
0.00496701
0.0073596
0.00995864
0.0126647
0.0153563
0.017924
0.0203585
0.0225574
0.0245377
0.0263451
0.0279836
0.0294585
0.0307793
0.0319571
0.0330019
0.0339225
0.0347296
0.0354314
0.0360269
0.0365105
0.0368773
0.0371253
0.0370628
0.03562
0.0337663
0.0319105
0.0306099
0.0294193
0.0277503
0.026781
0.0257527
0.0244377
0.0231955
0.0225628
0.0216935
0.020755
0.019726
0.0185168
0.0180052
0.0167727
0.015858
0.0145668
0.0139182
0.0129072
0.0123045
0.0114598
0.0107307
0.0100369
0.00943183
0.00893785
0.00836182
0.00792431
0.0076795
0.0072303
0.00704776
0.00667161
0.00654337
0.00624619
0.00618129
0.00593234
0.00592429
0.00573444
0.00567421
0.00556308
0.00544626
0.0053672
0.00528469
0.00523004
0.00518377
0.00514199
0.00512422
0.00510264
0.00510441
0.00511066
0.00512796
0.00514857
0.00517812
0.00521654
0.00526204
0.00531609
0.0053772
0.00544593
0.00552329
0.0056062
0.00569835
0.00579484
0.00590025
0.00601223
0.00612966
0.00625593
0.0063857
0.00652365
0.00666454
0.00681165
0.00696354
0.00711253
0.00726715
0.00741606
0.00756964
0.00772043
0.0078465
0.0079506
0.00806373
0.00817005
0.00829105
0.00840127
0.00852982
0.00864403
0.00874408
0.00883669
0.00891304
0.00903841
0.00918564
0.00935881
0.00954261
0.00977759
0.00994273
0.00998447
0.0100397
0.0101256
0.0101939
0.0102696
0.0103458
0.0104438
0.0105398
0.0106392
0.0107348
0.0108124
0.0109004
0.0109888
0.0110616
0.0111263
0.0111901
0.0112505
0.0113105
0.0113676
0.0114248
0.0114799
0.011535
0.0115881
0.0116419
0.0116934
0.0117453
0.0117938
0.011842
0.0118872
0.0119329
0.0119767
0.0120203
0.0120618
0.0121032
0.0121435
0.0121838
0.012223
0.012262
0.0122999
0.0123376
0.0123744
0.0124111
0.0124465
0.0124823
0.012517
0.0125518
0.0125852
0.0126191
0.0126508
0.0126826
0.0127133
0.012744
0.0127737
0.012803
0.0128318
0.0128601
0.0128885
0.0129168
0.0129454
0.0129738
0.0130023
0.0130306
0.0130582
0.0130854
0.0131123
0.0131385
0.0131636
0.0131886
0.0132126
0.0132373
0.013261
0.0132852
0.0133092
0.0133339
0.0133581
0.0133829
0.0134076
0.0134326
0.0134572
0.0134817
0.0135054
0.0135292
0.0135519
0.0135749
0.0135965
0.013619
0.0136403
0.0136629
0.0136845
0.0137073
0.0137294
0.0137531
0.0137758
0.0137998
0.0138225
0.0138462
0.0138691
0.0138916
0.0139125
0.0139343
0.0139551
0.0139766
0.0139969
0.0140186
0.0140395
0.0140619
0.0140836
0.0141067
0.0141289
0.0141529
0.0141757
0.0141997
0.0142226
0.0142449
0.0142666
0.0142889
0.01431
0.0143307
0.0143627
9.84235e-05
0.00122384
0.00221791
0.00379039
0.00592959
0.0084286
0.0110908
0.0138166
0.016491
0.0190343
0.0214572
0.0236416
0.0256195
0.0274138
0.029024
0.0304504
0.0316984
0.0327764
0.0336933
0.0344583
0.0350825
0.0355776
0.0359494
0.0361907
0.036301
0.0345465
0.032944
0.0313335
0.0295494
0.0279228
0.0269206
0.0259985
0.0244505
0.0237028
0.0228169
0.0217195
0.0205986
0.0198884
0.0193949
0.0183571
0.0173762
0.015944
0.0153346
0.0141233
0.0134154
0.0123319
0.0115178
0.0105591
0.00997529
0.0092718
0.00852655
0.00788953
0.0073592
0.00685686
0.00650919
0.0059733
0.00589024
0.00552077
0.00532626
0.00505513
0.00479683
0.00460165
0.00441605
0.00428113
0.00414984
0.00405947
0.00396547
0.00390296
0.00383657
0.00379288
0.00374473
0.0037179
0.00368766
0.00366839
0.00365444
0.00363818
0.00363663
0.00363362
0.00363725
0.003644
0.00365317
0.00366745
0.00368613
0.0037102
0.00373847
0.00377217
0.00381035
0.00385417
0.00390289
0.00395726
0.00401809
0.0040849
0.00415834
0.00423709
0.00432427
0.00441632
0.00451752
0.00462469
0.00473885
0.00486041
0.00498653
0.00511865
0.00525484
0.00539579
0.0055421
0.00568656
0.00583704
0.00598434
0.00613812
0.00628666
0.00644072
0.00658885
0.00673689
0.00688281
0.00703176
0.00718346
0.00733919
0.00749581
0.00765212
0.00780579
0.0079436
0.00807286
0.00819799
0.00831167
0.00839369
0.00848169
0.00856891
0.00867117
0.00877086
0.00888032
0.00898991
0.00909092
0.00919551
0.0093031
0.0094102
0.0095261
0.00963457
0.00973483
0.00983892
0.0099401
0.0100381
0.0101246
0.0102165
0.0103038
0.0103846
0.0104632
0.0105415
0.0106167
0.0106905
0.0107611
0.0108306
0.0108972
0.0109635
0.0110269
0.0110902
0.0111508
0.0112119
0.0112707
0.0113299
0.011387
0.0114444
0.0115001
0.0115559