/*--------------------------------*- C++ -*----------------------------------*\
| =========                 |                                                 |
| \\      /  F ield         | OpenFOAM: The Open Source CFD Toolbox           |
|  \\    /   O peration     | Version:  2312                                  |
|   \\  /    A nd           | Website:  www.openfoam.com                      |
|    \\/     M anipulation  |                                                 |
\*---------------------------------------------------------------------------*/
FoamFile
{
    version     2.0;
    format      ascii;
    arch        "LSB;label=32;scalar=64";
    class       volScalarField;
    location    "0.006";
    object      omega;
}
// * * * * * * * * * * * * * * * * * * * * * * * * * * * * * * * * * * * * * //

dimensions      [0 0 -1 0 0 0 0];

internalField   nonuniform List<scalar> 
48128
(
2.09915e+06
2.09944e+06
2.10147e+06
2.10211e+06
2.10288e+06
2.10424e+06
2.10633e+06
2.11255e+06
2.12927e+06
2.15755e+06
2.19441e+06
2.23201e+06
2.26697e+06
2.29764e+06
2.32406e+06
2.34623e+06
2.3652e+06
2.38139e+06
2.39446e+06
2.40469e+06
2.41275e+06
2.41843e+06
2.4216e+06
2.42217e+06
2.42002e+06
2.41509e+06
2.40761e+06
2.39748e+06
2.38485e+06
2.37017e+06
2.35348e+06
2.3351e+06
2.31527e+06
2.29431e+06
2.27255e+06
2.25054e+06
2.23001e+06
2.20984e+06
2.19072e+06
2.17251e+06
2.15541e+06
2.13986e+06
2.12613e+06
2.11354e+06
2.10132e+06
2.08903e+06
2.07852e+06
2.06819e+06
2.05672e+06
2.0419e+06
2.02741e+06
2.0096e+06
1.99374e+06
1.97531e+06
1.96327e+06
1.96565e+06
1.96459e+06
1.96329e+06
1.95928e+06
1.95424e+06
1.9478e+06
1.94019e+06
1.93216e+06
1.92355e+06
1.9147e+06
1.90507e+06
1.89498e+06
1.88424e+06
1.87215e+06
1.85982e+06
1.84733e+06
1.83488e+06
1.82278e+06
1.81056e+06
1.7987e+06
1.78666e+06
1.77487e+06
1.76295e+06
1.75114e+06
1.73918e+06
1.72756e+06
1.71578e+06
1.70473e+06
1.69373e+06
1.68375e+06
1.67375e+06
1.66435e+06
1.6549e+06
1.64597e+06
1.63703e+06
1.6287e+06
1.62044e+06
1.61274e+06
1.60523e+06
1.59816e+06
1.59137e+06
1.58496e+06
1.57896e+06
1.57322e+06
1.56788e+06
1.56276e+06
1.55798e+06
1.55334e+06
1.54895e+06
1.54474e+06
1.54076e+06
1.53697e+06
1.53335e+06
1.52993e+06
1.52665e+06
1.52362e+06
1.52078e+06
1.51804e+06
1.51536e+06
1.51285e+06
1.51042e+06
1.50808e+06
1.50604e+06
1.50372e+06
1.50399e+06
1.50283e+06
1.50117e+06
1.50024e+06
1.49863e+06
1.49683e+06
1.49494e+06
1.49304e+06
1.49123e+06
1.48957e+06
1.48817e+06
1.48691e+06
1.48573e+06
1.48462e+06
1.48357e+06
1.48259e+06
1.48172e+06
1.48095e+06
1.48025e+06
1.47955e+06
1.47887e+06
1.47823e+06
1.47764e+06
1.47705e+06
1.47648e+06
1.47593e+06
1.47543e+06
1.47495e+06
1.47441e+06
1.47439e+06
1.47403e+06
1.47353e+06
1.47305e+06
1.47244e+06
1.47178e+06
1.47104e+06
1.47025e+06
1.46941e+06
1.46855e+06
1.46768e+06
1.46682e+06
1.46594e+06
1.46512e+06
1.46436e+06
1.46366e+06
1.46301e+06
1.46243e+06
1.46195e+06
1.46153e+06
1.46121e+06
1.46087e+06
1.4607e+06
1.46046e+06
1.46018e+06
1.45987e+06
1.45951e+06
1.45907e+06
1.45856e+06
1.45796e+06
1.45727e+06
1.45652e+06
1.45575e+06
1.455e+06
1.45431e+06
1.45372e+06
1.45325e+06
1.45286e+06
1.45258e+06
1.45239e+06
1.45226e+06
1.45211e+06
1.45193e+06
1.45172e+06
1.45143e+06
1.45105e+06
1.45059e+06
1.45005e+06
1.44944e+06
1.44877e+06
1.44811e+06
1.44742e+06
1.44688e+06
1.44636e+06
1.44599e+06
1.44568e+06
1.44548e+06
1.4453e+06
1.44511e+06
1.44491e+06
1.44465e+06
1.44433e+06
1.44395e+06
1.44348e+06
1.44293e+06
1.44234e+06
1.44171e+06
1.44109e+06
1.44054e+06
1.43991e+06
1.43951e+06
1.43925e+06
1.43896e+06
1.43873e+06
1.43851e+06
1.43828e+06
1.43801e+06
1.43768e+06
1.43729e+06
1.43683e+06
1.43632e+06
1.43577e+06
1.43516e+06
1.43453e+06
1.43394e+06
1.43327e+06
1.43282e+06
1.43247e+06
1.4321e+06
1.43184e+06
1.43158e+06
1.4312e+06
753099
442683
381889
394122
423436
604747
797557
916069
967788
950335
888728
838817
796547
763769
740137
723762
712743
705396
700397
696838
694293
692035
689970
687949
685992
684193
682797
681667
681160
678858
676272
674827
673923
673208
673254
678918
683967
689138
694325
699845
705376
710860
716063
721554
726971
732363
737321
742055
746082
749368
751642
753304
754282
755012
756152
758002
759889
760667
760625
760044
758859
757055
754707
751901
748658
745088
741152
736917
732001
726488
720673
714629
708451
702220
695878
689678
683363
677300
671154
665313
659390
653772
648073
642516
636866
631647
626384
621539
616665
612131
607560
603318
599083
595120
591283
587625
584084
580654
577432
574343
571444
568736
566216
563823
561618
559516
557607
555766
554089
552479
550980
549631
548403
547298
546229
545136
544081
542989
541854
540290
540384
540285
539724
539825
539767
539662
539523
539381
539224
539065
538933
538850
538757
538697
538629
538582
538566
538586
538629
538696
538782
538894
539020
539162
539295
539448
539544
539685
539709
539950
540284
540515
540848
541200
541584
541992
542404
542828
543255
543675
544114
544479
544851
545208
545551
545891
546212
546538
546858
547186
547554
547967
548426
548859
549317
549785
550271
550752
551227
551690
552064
552452
552777
553019
553265
553476
553683
553904
554095
554376
554650
554983
555246
555554
555873
556194
556515
556807
557032
557245
557364
557516
557564
557624
557671
557767
557870
557997
558128
558282
558431
558603
558786
558939
559061
559154
559186
559251
559159
559083
559094
559064
559039
559061
559089
559124
559172
559217
559268
559318
559369
559365
559317
559319
559180
559005
558923
558794
558659
558547
753884
326622
193088
196965
312591
459857
540729
564514
545262
499009
457543
426429
404969
391330
383487
379690
378355
378292
379904
381793
384312
386842
389664
392599
395777
399222
402966
406736
410748
414708
419005
423892
429329
435479
442452
450619
458632
466793
475159
483845
492517
501054
509513
518175
526769
534962
542677
550162
557270
563520
568763
573315
577036
580203
582475
584266
585502
585872
585635
584869
583485
581480
578906
575811
572266
568320
563994
559340
554329
548993
543369
537474
531387
525167
518831
512522
506121
499880
493573
487499
481364
475484
469549
463768
457918
452347
446757
441452
436170
431145
426159
421411
416733
412253
407902
403695
399607
395623
391788
388073
384506
381093
377818
374686
371693
368823
366087
363461
360955
358545
356234
354044
351957
349980
348093
346216
344413
342605
340816
338662
337508
336301
334798
333689
332671
331703
330739
329853
328964
328122
327290
326521
325759
325051
324342
323676
323021
322412
321818
321272
320732
320239
319753
319313
318869
318461
318032
317632
317139
316821
316507
316140
315839
315543
315278
315051
314831
314644
314470
314311
314175
314035
313905
313782
313659
313543
313422
313309
313192
313084
312956
312897
312837
312797
312751
312742
312750
312773
312810
312860
312901
312948
312984
313000
313021
313022
313013
313001
312981
312985
312995
313010
313026
313057
313099
313149
313208
313274
313333
313396
313428
313465
313464
313460
313441
313434
313422
313420
313418
313423
313432
313455
313488
313526
313557
313594
313598
313635
313600
313551
313532
313496
313449
313421
313391
313366
313346
313332
313321
313323
313326
313327
313304
313323
313270
313191
313145
313077
312993
312894
754508
280677
159948
206530
316681
385630
403584
390521
360079
333095
309972
294129
285054
280598
279072
279137
281178
283617
286758
290081
293785
297577
301668
305983
310636
315594
320866
326448
332426
338710
345522
353044
361215
369859
379272
389363
399465
409695
420314
431365
442512
453378
464178
475092
486029
496230
505869
515145
524148
532014
538811
544639
549472
553439
556003
557803
558567
558482
557818
556471
554402
551620
548220
544227
539757
534824
529485
523790
517748
511413
504757
497856
490804
483642
476403
469207
461941
454828
447702
440764
433825
427106
420403
413844
407278
400939
394659
388619
382677
376962
371364
365972
360708
355630
350695
345909
341254
336719
332330
328070
323958
319998
316170
312498
308953
305542
302250
299087
296032
293091
290245
287521
284890
282383
279958
277597
275276
273010
270754
268257
266471
264660
262660
260947
259362
257849
256359
254952
253561
252234
250929
249694
248484
247330
246192
245102
244029
243005
242003
241053
240115
239226
238348
237522
236699
235923
235138
234398
233598
232931
232283
231603
230970
230360
229771
229220
228680
228175
227685
227217
226774
226342
225924
225524
225130
224754
224374
224013
223650
223303
222934
222625
222311
222020
221723
221459
221203
220977
220766
220578
220394
220227
220062
219894
219737
219579
219416
219249
219082
218921
218775
218623
218481
218354
218237
218131
218032
217950
217873
217801
217728
217652
217571
217487
217396
217307
217214
217127
217039
216956
216871
216805
216742
216692
216639
216597
216540
216520
216463
216391
216332
216264
216188
216119
216047
215979
215911
215851
215789
215744
215697
215663
215610
215598
215549
215479
215430
215365
215288
215183
755196
221304
168058
236682
300007
321072
318650
296787
276258
257627
244210
236702
233286
232332
233180
235404
238425
241802
245586
249618
253988
258581
263545
268881
274650
280848
287519
294727
302507
310779
319762
329576
340086
350978
362646
375048
387511
399990
412930
426348
440046
453330
466740
480239
493908
506505
518275
529474
540256
549586
557480
564168
569355
573520
575471
576578
576377
575429
573700
571074
567651
563392
558517
552986
546985
540491
533597
526358
518790
511018
503076
495025
486892
478694
470453
462293
454097
446017
437977
430076
422251
414616
407065
399667
392343
385260
378301
371603
365050
358733
352569
346613
340821
335220
329774
324493
319359
314363
309525
304830
300296
295917
291678
287603
283655
279848
276159
272612
269170
265856
262634
259541
256536
253675
250883
248186
245507
242915
240323
237555
235365
233193
230892
228828
226890
225026
223194
221440
219714
218055
216426
214870
213350
211887
210447
209059
207694
206381
205097
203865
202653
201488
200344
199249
198166
197129
196091
195103
194076
193152
192267
191363
190498
189666
188855
188081
187323
186600
185894
185212
184556
183917
183294
182694
182103
181534
180967
180422
179879
179356
178816
178332
177842
177378
176908
176472
176042
175639
175255
174892
174544
174210
173892
173571
173269
172971
172676
172377
172090
171801
171531
171255
170990
170741
170504
170276
170059
169855
169666
169478
169302
169123
168952
168781
168608
168438
168267
168103
167939
167779
167618
167475
167331
167204
167074
166960
166836
166748
166638
166519
166410
166297
166179
166065
165950
165838
165724
165619
165511
165418
165323
165244
165154
165097
165018
164927
164853
164770
164676
164544
755254
180318
187190
240957
271667
273638
261055
243994
228562
216212
208858
205461
204498
205342
207679
210774
214406
218405
222747
227414
232462
237870
243751
250134
257089
264641
272840
281811
291547
301958
313115
325231
338225
351546
365823
381114
396633
412008
427884
444248
461156
477443
493808
510163
526650
541570
555055
567396
578275
587763
594489
600197
603354
605800
605228
603905
601865
598641
594830
590043
584935
579083
572776
565814
558453
550647
542514
534096
525456
516690
507785
498854
489832
480840
471791
462901
453995
445210
436470
427891
419414
411147
403000
395049
387212
379674
372255
365154
358172
351470
344932
338628
332485
326567
320799
315224
309798
304530
299421
294462
289673
285033
280539
276208
272008
267948
264012
260219
256534
252983
249522
246195
242945
239858
236825
233902
230986
228171
225356
222391
219935
217535
215058
212753
210576
208484
206426
204445
202496
200611
198759
196980
195240
193558
191905
190305
188730
187210
185723
184289
182879
181516
180180
178891
177621
176392
175171
174000
172802
171690
170630
169557
168521
167522
166547
165611
164693
163809
162946
162107
161294
160500
159725
158973
158235
157518
156807
156121
155440
154781
154108
153491
152867
152274
151674
151111
150551
150022
149507
149017
148544
148082
147642
147198
146781
146365
145960
145550
145160
144767
144394
144017
143654
143308
142972
142647
142334
142033
141748
141469
141202
140932
140677
140426
140173
139929
139685
139449
139214
138986
138757
138546
138334
138139
137942
137763
137577
137423
137257
137084
136921
136759
136593
136434
136273
136117
135960
135811
135659
135522
135383
135260
135129
135027
134912
134787
134680
134568
134448
134277
755470
190769
200090
231141
241795
236535
223102
210103
198611
190740
186725
185386
185730
187890
190951
194617
198759
203299
208210
213520
219304
225577
232433
239946
248220
257282
267172
278086
290010
302730
316293
331042
347041
363326
380636
399212
418333
437022
456184
475748
496025
515192
533368
550793
567195
581919
593367
603568
610909
617856
620436
623114
622592
621606
618185
613530
608887
603071
596844
589859
582542
574627
566368
557687
548747
539699
530588
521403
512427
503405
494479
485679
476776
468144
459368
450910
442335
434060
425698
417683
409588
401857
394084
386590
379038
371861
364625
357785
350913
344387
337923
331718
325577
319707
313923
308360
302914
297634
292487
287482
282639
277928
273374
268973
264714
260580
256584
252716
248964
245331
241791
238372
235022
231839
228689
225657
222634
219722
216806
213766
211143
208621
206072
203629
201301
199088
196896
194791
192705
190683
188691
186772
184889
183069
181275
179538
177825
176167
174541
172971
171425
169926
168458
167033
165633
164271
162921
161620
160298
159053
157862
156667
155507
154386
153289
152233
151195
150196
149213
148259
147328
146419
145531
144662
143814
142983
142163
141368
140579
139815
139038
138316
137589
136896
136197
135535
134877
134252
133638
133052
132479
131920
131384
130842
130333
129820
129325
128826
128349
127868
127411
126951
126509
126082
125666
125261
124868
124490
124124
123770
123424
123085
122751
122431
122108
121797
121487
121187
120888
120600
120309
120040
119768
119515
119259
119022
118781
118569
118349
118125
117909
117700
117487
117283
117078
116880
116681
116491
116299
116121
115940
115777
115607
115464
115312
115152
115010
114865
114715
114500
755260
201908
199340
215673
216971
208143
197046
186744
178398
173340
171198
170855
172350
175168
178706
182816
187411
192455
197941
203905
210464
217644
225558
234312
244055
254813
266581
279657
294052
309453
325783
343515
362955
382631
403342
425490
448553
470412
491689
512531
533447
552442
568568
582986
594524
605901
612097
617474
619122
621020
618564
614567
608099
600672
592301
582943
574143
564935
555544
546247
536811
527719
518392
509399
500154
491524
482845
474434
466404
458287
450646
442998
435427
428231
420807
413966
406938
400424
393727
387490
381059
375061
368877
363036
357014
351292
345416
339870
334211
328868
323461
318227
312911
307805
302640
297694
292762
287960
283233
278588
274087
269655
265381
261212
257170
253213
249387
245638
242012
238461
235008
231638
228359
225208
222087
219086
216109
213248
210364
207403
204694
202162
199648
197178
194791
192560
190323
188192
186053
183988
181939
179965
178017
176145
174284
172488
170704
168980
167278
165641
164018
162448
160900
159400
157922
156483
155056
153674
152278
150945
149666
148399
147157
145954
144771
143638
142514
141438
140369
139339
138321
137334
136365
135411
134485
133570
132670
131795
130925
130082
129228
128426
127622
126852
126079
125342
124610
123910
123223
122561
121912
121281
120666
120054
119467
118881
118313
117743
117193
116644
116116
115592
115083
114590
114108
113638
113180
112739
112308
111892
111481
111084
110685
110305
109923
109554
109186
108830
108476
108135
107791
107470
107146
106843
106536
106250
105960
105698
105429
105159
104896
104643
104387
104142
103895
103658
103419
103192
102962
102747
102529
102329
102124
101943
101756
101562
101386
101209
101029
100771
755568
205843
194804
199485
196423
187038
178020
169832
163728
160400
159285
159701
161896
165088
168968
173436
178436
183955
190011
196645
204012
212178
221269
231404
242806
255505
269406
284921
302131
320670
340172
361228
384540
407963
431709
456049
480831
502933
522797
541036
557800
572825
583425
592169
597243
602461
600418
596680
590488
583975
575346
565761
555153
543997
533931
523185
512013
501687
490961
481185
470901
461741
452189
443785
435034
427361
419532
412478
405598
398880
392795
386596
380847
375316
369664
364630
359424
354833
350038
345688
341159
336948
332570
328453
324175
320030
315750
311614
307386
303296
299146
295175
291154
287263
283321
279499
275658
271875
268116
264375
260729
257092
253509
249944
246442
242967
239574
236216
232948
229719
226578
223465
220460
217522
214632
211825
209078
206399
203691
200946
198298
195867
193447
191068
188736
186558
184380
182306
180218
178200
176188
174244
172320
170470
168627
166845
165069
163351
161647
160005
158374
156796
155229
153715
152213
150757
149303
147893
146475
145106
143783
142489
141206
139964
138738
137562
136395
135275
134159
133085
132017
130985
129964
128963
127981
127019
126064
125140
124215
123321
122418
121558
120702
119878
119055
118263
117480
116725
115984
115269
114564
113881
113207
112547
111897
111260
110634
110012
109404
108804
108221
107646
107083
106537
106003
105483
104972
104481
103998
103532
103069
102623
102175
101744
101314
100896
100480
100077
99676.3
99291
98902.7
98536.3
98168.9
97822.6
97473.2
97144.9
96813
96507.6
96195.2
95887.2
95581.9
95290.4
94996.4
94713.5
94429.5
94157.5
93883.4
93622.5
93358.7
93110
92859.2
92626.1
92388.8
92175
91954.9
91731.3
91523.1
91316.7
91107.8
90809
757254
205124
187758
185496
179849
171200
163534
156976
152399
150145
149594
150626
153167
156586
160709
165465
170827
176804
183430
190777
199029
208313
218757
230478
243797
258786
275193
293512
313891
336145
359285
383557
409974
435472
459311
482291
504525
523127
537887
551228
561841
571930
573466
572948
569696
565754
558083
548424
537164
525601
513517
500938
488146
475030
462251
449459
435668
423491
410578
399570
387950
378300
368145
359918
351274
344355
337191
331557
325880
320984
316770
312541
309185
305777
302927
300302
297731
295646
293441
291608
289705
287910
286015
284172
282233
280261
278169
276009
273727
271358
268892
266422
263914
261398
258834
256242
253608
250934
248214
245454
242672
239863
237069
234280
231511
228758
226024
223315
220640
217987
215396
212791
210269
207742
205260
202810
200424
198052
195655
193217
190769
188493
186261
184071
181913
179865
177846
175907
173965
172075
170184
168350
166529
164768
163017
161317
159621
157973
156335
154750
153173
151644
150121
148645
147176
145755
144329
142946
141556
140204
138883
137603
136327
135089
133864
132685
131514
130386
129263
128177
127098
126053
125013
124001
122993
122016
121037
120091
119142
118224
117298
116408
115525
114671
113818
112996
112181
111394
110618
109871
109130
108415
107703
107011
106321
105649
104984
104326
103679
103041
102420
101807
101206
100621
100048
99490.5
98941.2
98411.7
97889.3
97386
96883.7
96399
95913.5
95443.6
94974.8
94518.6
94064.4
93624.3
93186.1
92764.2
92340.3
91936.9
91533.8
91152.2
90767.8
90404.3
90037.8
89696.5
89348.5
89007.6
88667.8
88343.2
88016.1
87701.2
87385.1
87082.5
86777.6
86487.1
86193.8
85916.2
85636.4
85374.5
85109.3
84866.3
84617.5
84367.6
84130.2
83897.9
83663.3
83327.2
760061
202772
179851
173533
166941
158992
152146
146747
143197
141616
141408
142833
145528
149075
153366
158355
164048
170488
177733
185891
195174
205783
217859
231485
247110
264878
284300
305893
329775
355725
381853
407054
433671
457971
478410
496571
513526
528031
537036
542882
544636
545610
541206
534491
524887
514526
502465
489099
474362
458084
441687
424894
407745
391515
374953
361083
346289
333583
320307
309394
298124
289028
279628
272176
264486
258457
252244
247525
242674
239043
235406
232639
230342
228090
226797
225356
224726
224177
223768
223792
223871
224130
224508
225040
225601
226253
226742
227279
227548
227840
227826
227746
227496
227114
226550
225850
224993
223999
222851
221546
220096
218511
216839
215094
213295
211451
209565
207647
205699
203727
201739
199718
197710
195686
193695
191716
189779
187841
185881
183861
181791
179785
177857
175943
174043
172211
170407
168670
166929
165227
163512
161838
160172
158556
156944
155377
153807
152275
150746
149263
147780
146338
144903
143503
142112
140762
139409
138095
136770
135478
134205
132975
131745
130550
129361
128215
127075
125975
124877
123815
122755
121729
120704
119707
118711
117744
116776
115834
114891
113974
113053
112161
111275
110416
109557
108728
107902
107105
106316
105556
104800
104071
103343
102635
101927
101238
100554
99876.2
99208.5
98550
97905.1
97270.7
96645.4
96036.9
95439
94856.7
94282.3
93727.2
93178.9
92649.7
92121.2
91609.7
91098.2
90600.9
90105.2
89621.4
89139.8
88671.9
88206.3
87756.7
87306.3
86874.6
86444.4
86034.9
85624.1
85232.5
84839.6
84469.8
84094.1
83727.1
83359.8
83008.3
82654.5
82313.3
81971
81643
81312.6
80997.4
80679.5
80377.3
80073.4
79787.4
79498.6
79230.5
78957.2
78685.9
78423.3
78168.5
77911.5
77542.8
763375
199339
171860
163794
156507
149150
142970
138291
135424
134259
134264
135883
138622
142229
146636
151830
157860
164817
172803
181955
192515
204785
218930
234990
253444
274652
297681
322594
349183
376932
403603
427095
450933
471652
486537
499389
509714
519280
519755
518418
513925
508086
498667
487059
473120
457341
440543
421658
401915
380451
361584
342439
324424
308314
291778
278564
264862
253357
241590
231941
222130
214212
206172
199726
193192
187980
182671
178522
174265
171038
167660
165388
163059
161300
160057
158726
158302
157785
157826
158044
158411
159062
159949
161105
162425
163948
165565
167310
169081
170949
172743
174616
176390
178245
179895
181586
183024
184415
185607
186566
187384
187881
188269
188296
188189
187928
187509
186938
186228
185384
184422
183335
182155
180909
179633
178335
177020
175676
174286
172814
171257
169665
168097
166523
164946
163411
161886
160413
158934
157477
156007
154552
153101
151687
150274
148895
147503
146126
144743
143394
142039
140713
139394
138100
136814
135564
134311
133091
131861
130655
129459
128300
127141
126012
124882
123792
122703
121654
120602
119585
118567
117581
116596
115634
114675
113740
112805
111891
110978
110086
109190
108318
107450
106607
105764
104947
104131
103342
102560
101805
101055
100328
99603.2
98896.1
98190.1
97500
96814.9
96135.6
95464
94800.9
94149.2
93508.2
92874.3
92256.5
91647.6
91054.8
90468.9
89901.6
89340.2
88797.8
88255.8
87729.9
87204.4
86691.7
86180.7
85680.6
85182.7
84697.5
84214.9
83747.2
83279.7
82829
82380.9
81951.8
81523.5
81111.9
80700.7
80310.3
79915.3
79529.5
79142.5
78770.7
78397.3
78036.4
77674.2
77326.5
76976.7
76642.2
76305.1
75983.3
75660.8
75355.4
75048
74759.5
74466.8
74178.4
73895.4
73622
73346.4
72950.6
767110
195482
164572
155407
147870
140973
135335
131129
128669
127720
127878
129538
132255
135881
140389
145806
152239
159854
168802
179264
191517
205972
222852
242079
264055
289112
315442
342448
369747
396842
422277
442381
461002
477227
486874
492500
495361
498342
494507
488017
477884
465902
451835
435356
416516
394500
371830
347952
327149
305424
287341
268887
253229
238854
225176
214054
202823
193673
184427
176749
168990
162614
156178
150925
145609
141274
136874
133315
129700
126824
123862
121639
119305
117670
116015
114636
113659
112625
111995
111603
111184
111192
111321
111657
112169
112899
113800
114901
116151
117585
119152
120890
122744
124758
126867
129108
131401
133779
136156
138551
140928
143156
145409
147430
149380
151139
152785
154219
155520
156578
157493
158157
158672
158928
159147
159184
159120
158943
158631
158149
157469
156646
155739
154769
153754
152711
151648
150583
149504
148410
147294
146159
145009
143860
142701
141551
140390
139227
138054
136898
135733
134578
133428
132290
131158
130050
128944
127856
126758
125663
124569
123501
122431
121385
120332
119313
118290
117305
116314
115355
114394
113463
112531
111618
110709
109820
108931
108059
107187
106333
105477
104637
103802
102987
102174
101383
100591
99823.7
99062.2
98324.4
97592.7
96880.4
96174.3
95480.6
94790.7
94112.6
93441.1
92773.9
92113
91458.6
90814.3
90179.6
89550.9
88936.6
88329.6
87738.1
87153.1
86585.5
86023.1
85479.1
84935.5
84407.1
83878.9
83362.5
82847.4
82341.8
81838.5
81346.5
80857.1
80381.3
79906.4
79445.9
78989.3
78549.1
78112.3
77689.1
77268.3
76865.3
76459.7
76062.8
75663.9
75279.3
74893.7
74519.9
74144.8
73783.9
73421
73073.2
72722.9
72387.2
72051.8
71732
71411.5
71107.9
70801.3
70500.1
70202.2
69914.7
69624.9
69208.4
770877
191539
157756
147982
140472
133995
128774
124945
122673
121829
122060
123674
126338
129980
134627
140357
147355
155886
166172
178469
193075
210478
230985
254159
279824
308169
336519
364017
390293
414945
438163
453107
464910
477366
480034
479443
476839
473391
465501
454308
439543
421505
401359
377820
352966
326381
303200
279668
260854
242285
227329
212295
200620
189062
179298
170371
161941
154942
147939
141978
135971
130903
125772
121536
117246
113747
110194
107300
104369
101977
99537.3
97551.5
95512.2
93905.7
92228.8
90933.2
89724.5
88523.4
87521.7
86659.7
85820.1
85213.6
84601.9
84210.5
83854.8
83673.5
83586.2
83643.7
83781.9
84040.5
84410.1
84915
85543.1
86319.4
87232.4
88307.9
89518.7
90886.1
92383.9
94028.3
95790
97672.7
99663.5
101727
103867
106063
108308
110582
112883
115136
117379
119515
121632
123629
125637
127602
129419
131094
132558
133849
134800
135450
135933
136247
136447
136466
136402
136264
136041
135743
135360
134896
134358
133758
133099
132392
131645
130863
130050
129215
128359
127485
126598
125702
124797
123892
122979
122060
121132
120194
119248
118311
117373
116443
115506
114589
113666
112772
111873
111000
110125
109269
108409
107565
106720
105891
105060
104242
103425
102621
101815
101020
100229
99454.3
98681.5
97924.1
97166.5
96429.8
95697.5
94984.9
94280.3
93591
92910.6
92238.7
91573.7
90915.9
90266.8
89620.8
88980.3
88343.6
87716.6
87096.8
86482.9
85880.4
85284.8
84703.2
84128.1
83568.7
83014.1
82477.4
81941.1
81419.3
80897.6
80386.5
79876.5
79374.6
78875.1
78385
77897.8
77422.4
76948.4
76486.2
76029.4
75586.3
75149
74721.8
74299.6
73890.8
73483.6
73082.5
72679.5
72289.3
71898.8
71518.9
71137.9
70770.3
70401
70045.7
69688.5
69344.8
69002
68673.5
68345.2
68032.4
67717.2
67408
67100.7
66804
66504.8
66074.5
774649
187884
151410
141316
134005
127923
123033
119485
117329
116481
116714
118244
120859
124571
129473
135716
143585
153480
165721
180625
198515
219850
244829
272163
300841
331516
360388
386982
410916
431576
451407
459725
465110
471267
469572
465424
457575
447320
433815
416620
395667
369636
342004
312771
288214
263701
243773
225132
210045
196418
184788
173920
165271
156374
149148
141689
135400
129597
123881
119102
114191
110038
105806
102385
98908
96138
93344
91093.5
88805.9
86888.4
84932.8
83285.5
81600.1
80199.9
78754.2
77604.5
76458.6
75401.2
74459.9
73550.9
72690.3
71961.7
71216.4
70592.9
69957.5
69454.9
68943.4
68551.2
68152.9
67857.3
67574
67373.8
67220.8
67124.4
67132.3
67199.7
67332.2
67546
67837.3
68219.6
68687
69253.5
69917.6
70676.7
71540.8
72507.8
73587.9
74780.9
76086
77497.3
79015.9
80641.6
82381.6
84250.2
86263.7
88401
90626.3
92901.3
95194.3
97477.7
99644.8
101639
103462
105254
106872
108475
109873
111265
112461
113649
114650
115577
116310
116948
117418
117781
118006
118118
118090
117995
117821
117571
117252
116871
116435
115950
115417
114840
114225
113574
112893
112191
111474
110743
109999
109247
108485
107729
106966
106212
105451
104703
103949
103203
102455
101717
100975
100241
99506
98777.1
98048.4
97322.7
96601
95887.3
95172.3
94464.2
93754.5
93059.5
92367.6
91692
91023.8
90367.9
89721.9
89082.4
88450.7
87823.8
87205.8
86590.4
85978.1
85367.4
84764.9
84166.9
83574.7
82990.1
82412.6
81846.7
81287.8
80742.4
80201.9
79678.3
79155.8
78646.5
78137.7
77637.8
77139.5
76647.4
76157.9
75676
75197.1
74728
74260.9
73803.5
73352.3
72912.5
72480.3
72055.5
71637.5
71229.2
70826.4
70426.9
70026.2
69636.5
69247.2
68866.9
68486.1
68117.3
67747.4
67390
67031.4
66685.1
66340.1
66008.2
65677.1
65359.8
65041.6
64729.2
64417.7
64116.7
63813
63375.8
778032
184651
145569
135329
128296
122554
117956
114621
112548
111630
111815
113265
115892
119803
125201
132320
141580
153527
168598
187260
209615
235736
265488
296782
327283
358960
386922
411226
431237
446467
460868
463331
462919
462178
457533
449139
435414
416902
394893
367676
338117
306652
280151
254204
233948
215338
200210
186922
175457
165365
156067
147880
140575
133324
127083
120652
115504
110238
105614
101564
97444.9
94122.4
90762
88054.9
85410.8
83290.4
81199.7
79446.2
77651.3
76123.7
74560.8
73243.3
71902.9
70781.6
69637.2
68685.3
67716.8
66883.8
66109
65318.5
64573.7
63925.3
63262.6
62658.6
62043.5
61516.2
60981.8
60515.4
60041.9
59626.4
59204.4
58835.6
58461.1
58141.9
57818.5
57562
57302.6
57103.7
56901.6
56761.9
56622.6
56545.1
56481.4
56483.1
56515.5
56587.5
56708.4
56882.9
57113.6
57403.5
57758.4
58186.7
58699.6
59317.4
60051.5
60910.5
61886.2
62969.2
64148.9
65411
66752.1
68145
69591.2
71096.8
72657.9
74278
75944
77664.9
79430.4
81255.3
83107.1
85001.6
86836.3
88693.4
90424.4
92144
93722.8
95243.4
96600.4
97853.4
98968.1
99959.9
100829
101568
102198
102687
103083
103324
103504
103502
103440
103305
103101
102834
102510
102137
101720
101269
100787
100279
99749.1
99206
98650.8
98086
97512.3
96932
96342.8
95746.6
95142.9
94532.7
93915
93290.5
92660.3
92030.1
91397.2
90764.9
90129
89500.9
88872.7
88257.4
87647
87046.4
86454.6
85868.4
85288.9
84713.2
84143.9
83574.1
83002.7
82430.5
81863.3
81297.5
80736.7
80179.4
79629.1
79087.2
78552.6
78028.8
77510.6
77007.4
76505.7
76015.1
75525.3
75042
74561.2
74084.3
73610.1
73141.5
72675.8
72217.8
71762.1
71314.9
70873.4
70441.7
70018.4
69600.8
69190.9
68787.8
68392.9
67999.5
67605.6
67220.5
66836.7
66460.4
66084.3
65718.3
65352.1
64996.6
64640.9
64296
63952.8
63621.4
63291.7
62973.8
62657.2
62345.6
62034.2
61732.8
61428.5
60990.3
781129
182041
140268
129942
123207
117772
113446
110273
108240
107285
107401
108827
111605
115968
122249
130840
142276
157329
176583
200447
228315
259638
294022
328413
358830
389650
415481
435464
450166
458688
465431
464491
459940
452371
440744
424399
402173
372792
340241
306265
277951
251210
230001
210682
195604
181976
170570
160401
151265
142843
134896
127634
120649
114357
108494
102924
98344.7
93627.6
90141.4
86772.7
83623.3
81209.9
78769.1
76866
74954
73400.9
71851.1
70445.6
69000.6
67825
66640.2