/*--------------------------------*- C++ -*----------------------------------*\
| =========                 |                                                 |
| \\      /  F ield         | OpenFOAM: The Open Source CFD Toolbox           |
|  \\    /   O peration     | Version:  2312                                  |
|   \\  /    A nd           | Website:  www.openfoam.com                      |
|    \\/     M anipulation  |                                                 |
\*---------------------------------------------------------------------------*/
FoamFile
{
    version     2.0;
    format      ascii;
    arch        "LSB;label=32;scalar=64";
    class       volScalarField;
    location    "0.006";
    object      p;
}
// * * * * * * * * * * * * * * * * * * * * * * * * * * * * * * * * * * * * * //

dimensions      [1 -1 -2 0 0 0 0];

internalField   nonuniform List<scalar> 
48128
(
3495.95
3495.7
3492.46
3491.34
3489.93
3487.2
3482.25
3473.2
3459.12
3440.91
3412.79
3381.27
3350.36
3322.57
3299.36
3281.74
3268.25
3258.42
3253.15
3252.4
3255.01
3261.53
3272.45
3288.29
3309.69
3337.36
3371.56
3413.31
3463.21
3521.42
3587.9
3663.29
3748.24
3842.95
3947.54
4062.16
4185.76
4319.28
4462.74
4615.37
4777.8
4948.77
5131.23
5320.99
5520.94
5726.46
5943.04
6165.22
6397.34
6631.5
6873.73
7116.37
7364.37
7609.25
7858.82
8103.94
8348.29
8589.64
8827.62
9061.29
9289.38
9511.76
9728.1
9937.66
10140.9
10336.1
10523.7
10704.2
10874.2
11037.4
11190.8
11334.7
11471.7
11595.4
11713.5
11817.1
11916.9
12003
12087.6
12161.4
12236.5
12301.5
12367.6
12422.1
12472.9
12513
12552.6
12586.8
12622.6
12653.4
12685.1
12710.4
12736.3
12756.8
12777.5
12794.8
12809.7
12819.9
12827.8
12835.2
12841.4
12849
12858.2
12868
12877.6
12888.1
12899.2
12911
12921.4
12931.4
12939.9
12951.3
12965.5
12980
12994.7
13003.3
12998.8
12986.7
12957
12916.7
12969.3
12970.8
12967.6
13012.1
13041.3
13067.6
13090.7
13107.2
13120.4
13133
13146.9
13161
13175
13185.1
13193.9
13200.4
13207.5
13215.5
13224.2
13230.7
13237.4
13244.3
13251.7
13256.7
13261.1
13260.5
13259.2
13253.6
13246.1
13257.9
13258.7
13258.8
13266.4
13272.6
13282.4
13292.2
13302.8
13313.1
13323.8
13333.8
13343.5
13350.8
13356.6
13361.5
13363.5
13362.7
13360.9
13357.9
13354.1
13349
13343.5
13343.8
13342.8
13343.7
13346.2
13352.1
13359.3
13369.3
13380.2
13390.7
13399.8
13406.8
13411.5
13413.2
13412
13409.3
13404.5
13399
13394.6
13390.6
13388.2
13387.3
13390
13394.4
13399.7
13406.7
13415.1
13423.2
13429.6
13435.1
13436.4
13436.6
13434.6
13431.3
13426.8
13422.8
13419.5
13417.1
13417.2
13418.4
13421.4
13426.3
13432.4
13438.5
13444.5
13448.8
13452.2
13455.6
13450.2
13448
13445.7
13441.7
13438.4
13435.6
13434.5
13435.1
13436.8
13439.4
13443.3
13448.2
13454
13458.6
13463
13466.7
13463.2
13462.8
13461.1
13456.9
13453.5
13449.5
3495.36
3495.53
3492.02
3491.13
3491.35
3488.44
3483.56
3474.95
3458.52
3437.97
3409.79
3378.14
3347.32
3320.41
3299.38
3281.84
3268.38
3258.68
3253.43
3252.71
3255.3
3261.75
3272.54
3288.21
3309.49
3337.16
3371.56
3412.64
3461.82
3519.27
3585.44
3660.5
3744.74
3838.61
3942.38
4056.06
4178.79
4311.27
4453.56
4605.09
4766.31
4935.83
5116.56
5304.99
5503.59
5707.92
5922.55
6142.96
6373.17
6606.2
6846.59
7087.86
7334.2
7578.43
7825.85
8070.03
8313.79
8554.84
8792.4
9025.86
9254
9476.55
9693.08
9903.01
10106.4
10302.2
10490.3
10670.3
10839.9
11003.4
11157.8
11302.8
11440.5
11565.4
11684.1
11788.9
11889.5
11976.8
12062.5
12137.7
12214
12280.4
12347.8
12403.4
12454.5
12495.4
12535.9
12571.1
12607.8
12639.6
12672
12698.2
12724.7
12745.7
12767.1
12785.1
12800.5
12811
12819.4
12827.3
12833.9
12841.9
12851.6
12861.8
12871.8
12882.6
12894.1
12906.1
12916.8
12927
12935.7
12947.2
12961.8
12976.7
12991.6
13000.1
12995.5
12983.6
12954.5
12912.9
12965.7
12968.6
12966.6
13009
13040.8
13066.1
13089
13105.5
13118.8
13131.4
13145.3
13159.6
13173.6
13183.7
13192.6
13199.1
13206.2
13214.3
13223.1
13229.7
13236.4
13243.4
13250.7
13255.8
13260.2
13259.6
13258.2
13252.8
13245.2
13256.7
13258
13258.3
13265.5
13272.2
13281.8
13291.7
13302.4
13312.6
13323.4
13333.4
13343.1
13350.5
13356.2
13361.1
13363.1
13362.3
13360.6
13357.6
13353.8
13348.7
13343.2
13343.6
13342.6
13343.5
13346
13351.9
13359.2
13369.2
13380.1
13390.5
13399.7
13406.7
13411.4
13413.1
13411.9
13409.2
13404.4
13399
13394.5
13390.5
13388.1
13387.2
13390
13394.3
13399.7
13406.7
13415.1
13423.2
13429.6
13435.1
13436.4
13436.6
13434.6
13431.3
13426.7
13422.8
13419.5
13417.1
13417.2
13418.4
13421.4
13426.3
13432.5
13438.5
13444.6
13448.8
13452.2
13455.6
13450.3
13448
13445.8
13441.8
13438.4
13435.7
13434.5
13435.1
13436.8
13439.4
13443.4
13448.3
13454.1
13458.7
13463
13466.8
13463.3
13462.8
13461.1
13456.9
13453.6
13449.6
3495.29
3494.55
3491
3491.57
3491.12
3488.09
3481.79
3469.44
3451.87
3429.1
3400.97
3372.74
3344.47
3318.53
3296.32
3279.37
3266.88
3257.81
3253.03
3252.54
3255.26
3261.7
3272.41
3288.05
3309.38
3336.56
3370.51
3411.28
3460.06
3516.75
3582.03
3656.41
3739.91
3832.67
3935.54
4047.99
4169.53
4300.63
4441.5
4591.57
4751.38
4919.23
5098.15
5284.88
5481.87
5684.66
5897.32
6115.75
6344.05
6575.64
6814.67
7054.79
7299.92
7543.04
7789.34
8033.31
8276.31
8516.97
8754.34
8987.7
9216.07
9438.95
9655.93
9866.44
10070.3
10266.7
10455.6
10636.3
10807.4
10972.1
11127.6
11274
11412.5
11538.3
11657.8
11763.3
11864.9
11952.9
12039.5
12115.8
12193.3
12261
12329.9
12386.3
12437.8
12479
12520.3
12556.2
12594
12626.6
12659.7
12686.4
12713.5
12735
12757.1
12775.6
12791.5
12802.2
12811.1
12819.4
12826.3
12834.8
12845
12855.5
12865.8
12876.9
12888.7
12901
12911.9
12922.4
12931.2
12943
12957.8
12973
12988.1
12996.2
12991.8
12979.7
12952.4
12910.3
12959.5
12966.4
12966.7
13006.2
13038.8
13064.3
13086.9
13103.3
13116.9
13129.6
13143.5
13157.9
13171.8
13182
13190.9
13197.6
13204.8
13212.9
13221.7
13228.4
13235.2
13242.2
13249.6
13254.7
13258.9
13258.5
13257.1
13252.1
13244.3
13255.2
13257.3
13257.8
13264.7
13271.6
13281.1
13291.1
13301.8
13312
13322.8
13332.8
13342.6
13349.9
13355.6
13360.5
13362.5
13361.8
13360.1
13357.2
13353.4
13348.3
13342.8
13343.2
13342.3
13343.3
13345.8
13351.7
13359
13369
13379.8
13390.3
13399.5
13406.4
13411.2
13412.8
13411.6
13409
13404.2
13398.8
13394.3
13390.3
13388.1
13387.1
13390
13394.2
13399.6
13406.6
13415
13423.1
13429.5
13435
13436.3
13436.5
13434.5
13431.2
13426.7
13422.7
13419.5
13417.1
13417.2
13418.4
13421.5
13426.3
13432.5
13438.5
13444.6
13448.8
13452.2
13455.5
13450.5
13448
13445.7
13441.8
13438.4
13435.7
13434.6
13435.2
13436.9
13439.5
13443.4
13448.3
13454.1
13458.8
13463
13466.8
13463.4
13462.8
13461.1
13457
13453.6
13449.6
3495.83
3492.31
3490.47
3490.41
3490.49
3486.07
3476.39
3461.57
3441.7
3418.26
3391.71
3362.6
3335.89
3312.56
3292.29
3276.71
3265.23
3256.91
3252.65
3252.32
3255.11
3261.52
3272.19
3287.76
3308.64
3335.22
3368.68
3408.85
3456.87
3512.77
3577.13
3650.63
3733.08
3824.63
3926.55
4037.81
4158.23
4287.91
4427.48
4576.16
4734.74
4900.83
5078.73
5264.04
5459.75
5660.7
5872.13
6089.33
6316.86
6546.97
6785.48
7024.61
7269.58
7512.03
7758.13
8002.59
8245.14
8485.61
8723.08
8956.3
9184.94
9408.03
9625.44
9836.34
10040.6
10237.1
10426.7
10607.5
10779.6
10945.1
11101.2
11249.1
11388.3
11515
11635.1
11740.9
11843.3
11931.5
12019.1
12096.1
12174.6
12243.4
12314.1
12371.3
12423.1
12464.3
12506.3
12542.9
12581.6
12614.9
12648.7
12675.8
12703.6
12725.4
12748.1
12767
12783.4
12794.2
12803.6
12812.3
12819.5
12828.4
12839
12849.8
12860.3
12871.7
12883.8
12896.2
12907.2
12918.1
12927
12939.1
12954
12969.6
12984.6
12991.9
12987.8
12975.3
12950.7
12909.7
12951.8
12963.8
12968.7
13003.6
13036.3
13062.4
13084.6
13101
13115
13127.8
13141.7
13156.1
13169.9
13180.1
13189.2
13195.9
13203.4
13211.5
13220.2
13227
13233.9
13240.9
13248.3
13253.4
13257.5
13257.2
13255.8
13251.4
13243.8
13253.4
13256.5
13257.5
13264
13271
13280.4
13290.5
13301.1
13311.4
13322.2
13332.1
13341.9
13349.3
13354.9
13359.8
13361.8
13361.2
13359.6
13356.7
13352.9
13348
13342.5
13342.7
13342
13343.1
13345.7
13351.5
13358.8
13368.8
13379.6
13390.1
13399.1
13406.1
13410.9
13412.4
13411.3
13408.7
13404.1
13398.7
13394.1
13390.1
13388
13387.1
13390
13394.1
13399.5
13406.6
13414.9
13423
13429.4
13434.9
13436.1
13436.4
13434.4
13431.1
13426.6
13422.6
13419.5
13417.1
13417.3
13418.4
13421.5
13426.3
13432.5
13438.5
13444.5
13448.8
13452.1
13455.3
13450.7
13447.9
13445.6
13441.8
13438.4
13435.7
13434.6
13435.2
13436.9
13439.6
13443.5
13448.4
13454.2
13458.8
13463
13466.8
13463.6
13462.8
13461.1
13457.1
13453.6
13449.6
3495.93
3490.59
3489.98
3489.84
3488.55
3481.1
3468.66
3451.24
3430.14
3406.22
3379.78
3352.98
3327.96
3306.33
3288.11
3273.9
3263.35
3255.78
3251.88
3251.65
3254.46
3260.85
3271.39
3286.53
3306.89
3332.99
3365.64
3405.21
3452.48
3507.57
3571.04
3643.75
3725.2
3815.55
3916.67
4026.89
4146.33
4274.79
4413.48
4561.07
4718.94
4883.08
5061.29
5245.72
5441.42
5641.05
5852.73
6069.67
6297.57
6526.22
6764.8
7003.13
7248.81
7491.28
7738.59
7982.87
8225.62
8466.05
8703.56
8937.05
9165.69
9389.38
9607.04
9818.14
10022.4
10218.6
10408.8
10589.1
10761.9
10927.1
11082.9
11232.3
11371.3
11498.7
11619
11724.4
11827.3
11915.1
12003.2
12080.7
12159.9
12229.5
12301.9
12359.4
12411.1
12452.1
12494.8
12531.9
12571.4
12605.3
12639.6
12667.1
12695.3
12717.4
12740.7
12759.9
12776.6
12787.5
12797.4
12806.4
12814
12823.4
12834.2
12845.1
12855.9
12867.5
12879.8
12892.3
12903.4
12914.5
12923.7
12936
12951
12966.7
12981.5
12987.7
12983.7
12971
12949.5
12911.2
12944.2
12961.4
12972.7
13001.9
13034
13060.4
13082.2
13098.7
13113.3
13126.3
13140.3
13154.5
13168
13178.2
13187.6
13194.5
13202.1
13210.3
13218.8
13225.6
13232.7
13239.8
13247.1
13252.1
13256
13256
13254.4
13250.7
13243.6
13251.6
13255.7
13257.5
13263.5
13270.5
13279.9
13289.9
13300.5
13310.8
13321.7
13331.5
13341.2
13348.6
13354.3
13359.1
13361
13360.6
13359
13356.1
13352.4
13347.8
13342.3
13342.3
13341.8
13343.1
13345.7
13351.4
13358.7
13368.6
13379.3
13389.8
13398.7
13405.6
13410.5
13411.9
13410.8
13408.4
13403.8
13398.5
13393.9
13390
13388
13387.3
13389.9
13394.1
13399.6
13406.6
13414.8
13422.8
13429.1
13434.7
13435.7
13436.3
13434.2
13431
13426.5
13422.6
13419.5
13417.2
13417.4
13418.5
13421.6
13426.4
13432.5
13438.5
13444.5
13448.7
13452
13455.1
13450.9
13447.9
13445.5
13441.8
13438.5
13435.7
13434.8
13435.3
13437
13439.7
13443.5
13448.4
13454.2
13458.8
13462.9
13466.7
13463.7
13462.8
13461
13457.2
13453.7
13449.7
3499.2
3490.85
3491.5
3489.95
3484.9
3474.71
3459.23
3439.76
3417.95
3394
3368.01
3343.06
3320.16
3300.32
3283.79
3270.8
3261.06
3254.18
3250.59
3250.41
3253.27
3259.52
3269.73
3284.37
3304.2
3329.65
3361.56
3400.6
3447.16
3501.47
3564.05
3636.08
3716.64
3805.78
3906.4
4015.83
4134.34
4262.03
4400.46
4547.6
4705.78
4868.86
5046.18
5230.21
5426.73
5625.72
5838.62
6055.85
6284.9
6512.74
6751.86
6988.88
7235.47
7477.27
7728.48
7969.25
8212.31
8454.06
8689.78
8925
9152.37
9377.67
9594.96
9806.97
10010.6
10206.9
10397.7
10577.2
10751.2
10915.7
11071
11221.9
11360.2
11488.5
11608.3
11712.8
11816
11903.2
11991.6
12069.4
12149.4
12219.5
12292.9
12350
12401
12442
12485.2
12522.8
12563.2
12597.4
12632.2
12659.9
12688.4
12710.6
12734.5
12753.8
12770.8
12781.7
12792.3
12801.5
12809.5
12819.5
12830.6
12841.4
12852.5
12864.4
12876.8
12889.2
12900.3
12911.6
12921.3
12934.1
12948.9
12964.6
12978.7
12983.3
12979.4
12966.7
12948.8
12914.6
12937.9
12959.9
12977.6
13001.6
13032
13058.5
13079.8
13096.5
13111.9
13125.2
13139.3
13153.1
13166.3
13176.6
13186.1
13193.3
13201.3
13209.4
13217.7
13224.6
13231.9
13238.8
13246
13250.8
13254.6
13254.8
13253.2
13250.3
13243.9
13250.1
13255.1
13257.7
13263.4
13270.4
13279.6
13289.5
13300.1
13310.3
13321.2
13330.9
13340.5
13347.9
13353.6
13358.2
13360.1
13359.9
13358.4
13355.6
13351.9
13347.7
13342.2
13341.9
13341.8
13343.2
13345.8
13351.5
13358.8
13368.5
13379.2
13389.4
13398.3
13405.1
13409.9
13411.3
13410.2
13408
13403.6
13398.4
13393.8
13390
13388.1
13387.5
13390
13394.1
13399.7
13406.7
13414.7
13422.6
13428.9
13434.4
13435.4
13436.2
13433.8
13430.8
13426.4
13422.5
13419.5
13417.3
13417.6
13418.7
13421.7
13426.4
13432.5
13438.5
13444.4
13448.6
13451.8
13454.7
13451
13447.9
13445.4
13441.9
13438.5
13435.8
13434.9
13435.4
13437.1
13439.8
13443.7
13448.5
13454.1
13458.8
13462.7
13466.6
13463.9
13462.7
13460.9
13457.2
13453.8
13449.7
3503.89
3496.07
3494.06
3489.34
3480.77
3467.08
3449
3428.68
3406.57
3381.66
3356.77
3333.62
3312.67
3294.55
3279.47
3267.52
3258.47
3252.21
3248.96
3248.75
3251.57
3257.54
3267.26
3281.41
3300.67
3325.45
3356.64
3395.2
3441.11
3494.65
3556.26
3627.74
3707.65
3795.38
3896.01
4005.48
4123.16
4250.31
4388.57
4535.72
4694.29
4856.54
5034.14
5217.12
5414.17
5612.7
5826.31
6042.74
6271.47
6498.29
6739.96
6972.94
7221.5
7457.73
7718.38
7951.29
8190.94
8438.6
8669.29
8906.32
9130.37
9359.12
9574.67
9789.13
9991.32
10188.5
10380.4
10559.1
10735.2
10899.5
11056
11209.4
11346.9
11477.4
11596.7
11700.6
11804.3
11891.4
11980.5
12059.3
12140.3
12211.5
12285.3
12342.1
12392.2
12433.4
12477.6
12515.4
12557.1
12591.1
12626.5
12654.2
12682.8
12704.5
12729.2
12748.1
12765.4
12776.5
12787.9
12797.4
12805.8
12816.7
12827.7
12838.4
12849.8
12862.1
12874.4
12886.6
12897.8
12909.4
12919.5
12933
12947.6
12963
12975.9
12978.3
12974.5
12962.2
12948.8
12919.7
12934.1
12959.5
12982.8
13003.1
13030.5
13056.4
13077.3
13094.4
13110.9
13124.4
13138.7
13152.1
13164.8
13175.1
13184.9
13192.3
13200.8
13208.7
13216.7
13223.7
13231.3
13238.1
13245
13249.6
13253.1
13253.6
13252
13249.9
13244.5
13249
13254.6
13258.2
13263.7
13270.5
13279.6
13289.4
13299.8
13310
13320.8
13330.4
13339.8
13347.1
13352.9
13357.4
13359.2
13359.3
13357.8
13355.1
13351.5
13347.8
13342.4
13341.6
13341.9
13343.5
13346.2
13351.8
13359
13368.6
13379.1
13389
13397.8
13404.4
13409.4
13410.6
13409.5
13407.6
13403.4
13398.3
13393.8
13390.1
13388.4
13387.9
13390.2
13394.3
13399.9
13406.9
13414.7
13422.3
13428.6
13434
13435.1
13436
13433.4
13430.6
13426.3
13422.5
13419.6
13417.5
13417.8
13419
13421.8
13426.6
13432.6
13438.5
13444.3
13448.4
13451.5
13454.4
13451.1
13447.9
13445.2
13441.9
13438.6
13436
13435.1
13435.6
13437.3
13440
13443.8
13448.6
13454.1
13458.8
13462.6
13466.4
13464.1
13462.6
13460.7
13457.3
13453.9
13449.8
3511.93
3502.16
3496.63
3488.17
3475.71
3458.88
3439.54
3418.83
3394.77
3370.06
3346.61
3325.07
3305.81
3289.18
3275.32
3264.23
3255.84
3250.13
3247.17
3246.75
3249.34
3254.94
3264.18
3277.79
3296.5
3320.6
3351.03
3389.17
3434.51
3487.31
3547.75
3618.96
3699.21
3785.02
3885.53
3995.63
4114.04
4238.8
4377.27
4523.72
4682.59
4843.98
5022.2
5203.79
5399.57
5597.28
5811.08
6023.45
6248.98
6469.27
6719.61
6943.87
7195.67
7421.23
7690.67
7920.32
8151.48
8403.25
8628.9
8866.97
9087.87
9319.23
9534.11
9750.85
9952.15
10149.5
10342.9
10521.6
10701.2
10865.5
11025.2
11181.9
11318.6
11453.5
11572.6
11676.7
11781.6
11870
11961
12041.9
12125.3
12197.4
12274.1
12329.2
12382.3
12422.5
12470.2
12506.5
12551.7
12583.9
12621.5
12648.5
12678.4
12698.5
12725.1
12742.3
12760.7
12771.7
12784.5
12794.2
12803.2
12815
12825.2
12835.8
12847.7
12860.4
12872.5
12884.5
12895.6
12907.7
12918.2
12932.7
12946.9
12961.9
12972.5
12972.2
12968.3
12957.2
12949.2
12926
12933.7
12960.1
12987.6
13006.2
13029.8
13053.7
13074.6
13092.2
13110.1
13123.7
13138.5
13151.2
13163.2
13173.6
13183.7
13191.5
13200.7
13208.3
13215.9
13223
13230.9
13237.6
13244.2
13248.4
13251.6
13252.5
13250.9
13249.8
13245.5
13248.4
13254.3
13258.8
13264.3
13271.1
13279.8
13289.4
13299.7
13309.7
13320.7
13329.8
13339.3
13346.2
13352.4
13356.5
13358.1
13358.7
13357.1
13354.6
13351.2
13347.8
13342.7
13341.6
13342.3
13344
13346.9
13352.4
13359.5
13368.8
13379.2
13388.5
13397.4
13403.6
13408.8
13409.8
13408.7
13407.3
13403.2
13398.3
13393.9
13390.2
13388.7
13388.4
13390.5
13394.6
13400.2
13407.1
13414.7
13422.1
13428.2
13433.5
13434.7
13435.6
13433.2
13430.4
13426.3
13422.6
13419.8
13417.8
13418.2
13419.4
13422.1
13426.7
13432.7
13438.5
13444.1
13448.2
13451.1
13453.9
13451.2
13447.9
13445.1
13441.8
13438.7
13436.1
13435.4
13435.9
13437.5
13440.2
13444
13448.7
13454.1
13458.7
13462.3
13466.1
13464.3
13462.6
13460.5
13457.3
13454
13449.9
3518.6
3507.93
3498.37
3485.97
3469.97
3451.28
3431.27
3408.61
3383.67
3359.92
3337.7
3317.55
3299.71
3284.34
3271.51
3261.2
3253.39
3248.07
3245.15
3244.42
3246.68
3251.94
3260.67
3273.68
3291.88
3315.3
3344.9
3382.71
3427.59
3480.02
3539.06
3609.49
3691.25
3775.67
3875.87
3984.97
4103.53
4227.21
4366.24
4510.91
4668.13
4828.46
5005.96
5184.01
5375.07
5568.76
5790.62
5990.57
6212.84
6417.32
6679.55
6893.93
7146.92
7362.88
7631.58
7869.73
8088.44
8339.18
8560.1
8799.42
9019.56
9250.9
9468.75
9686.1
9891.3
10087.9
10284
10464.1
10648.1
10811.9
10977.5
11136.8
11273.1
11413.3
11533.5
11637.5
11746.8
11833.8
11931.5
12011.3
12101.8
12171.5
12255.9
12304
12366.7
12402.6
12459.1
12490.9
12542.5
12571.6
12612.8
12638.9
12671.8
12690.5
12720.4
12735
12755
12766.3
12781.2
12790.9
12801.1
12813.9
12822.8
12833.9
12846.3
12859.3
12871
12883
12893.9
12906.7
12917.8
12933.3
12946.3
12961.4
12967.6
12964.9
12960.3
12952.4
12948.6
12933.6
12937.7
12963.1
12992.8
13010
13029.8
13050.3
13071.7
13089.6
13109.2
13123.1
13138.4
13150.3
13161.6
13172
13182.6
13190.8
13200.7
13207.9
13215.3
13222.3
13230.7
13237.2
13243.5
13247
13250
13251.1
13250
13249.6
13246.6
13248.6
13254.2
13259.6
13265.3
13271.9
13280.3
13289.6
13299.8
13309.5
13320.6
13329.3
13338.7
13345.2
13351.8
13355.5
13356.9
13358.1
13356.3
13354.1
13351
13347.9
13343.2
13342
13342.8
13344.6
13347.8
13353.2
13360.3
13369.3
13379.2
13388.1
13396.7
13402.9
13408
13408.9
13407.9
13406.8
13403
13398.3
13394
13390.6
13389.2
13389.2
13391.1
13395
13400.7
13407.5
13414.7
13421.8
13427.8
13433
13434.2
13435.1
13432.9
13430.1
13426.3
13422.7
13420
13418.2
13418.6
13419.8
13422.5
13427
13432.8
13438.5
13444
13447.9
13450.6
13453.4
13451.2
13447.9
13445
13441.8
13438.9
13436.4
13435.7
13436.2
13437.8
13440.4
13444.3
13448.8
13454.1
13458.6
13462.1
13465.8
13464.4
13462.5
13460.3
13457.4
13454.1
13450.1
3523.14
3511.61
3498.91
3482.95
3464.64
3444.38
3423.37
3398.63
3374.18
3351.29
3330.13
3311.17
3294.5
3280.17
3268.2
3258.56
3251.19
3245.96
3242.86
3241.95
3243.82
3248.68
3256.85
3269.18
3286.97
3309.81
3338.37
3376.24
3420.45
3472.34
3530.79
3601.37
3682.32
3765.55
3866.38
3974.18
4091.56
4213.92
4352.24
4493.75
4645.69
4804.83
4984.51
5153.5
5338.2
5516.93
5754.66
5939.74
6159.17
6342.35
6605.4
6813.84
7068.19
7281.16
7535.11
7791.03
8002.01
8243.47
8461.55
8698.29
8924.13
9153.39
9374.63
9592.46
9802.58
9999.66
10199
10381.7
10571.7
10736.8
10909.3
11073.6
11209.1
11354.9
11478
11582.5
11702.4
11781.4
11893.8
11966.6
12068.5
12135.8
12228
12268.3
12342
12376.1
12440.7
12470.2
12525.6
12554.6
12597.2
12624.5
12658.8
12679.9
12710.5
12724.5
12745.6
12758.1
12775.3
12785.9
12797.8
12811.8
12820.3
12831.9
12844.9
12857.9
12869.5
12881.2
12892.6
12905.4
12918.3
12934.3
12945.8
12959.9
12960.7
12956
12951.5
12948.4
12949.2
12942.3
12945.3
12969.3
12997.8
13012.8
13029.9
13047.5
13068.1
13086.9
13107.9
13122.5
13138.2
13149.3
13160
13170.5
13181.3
13190.1
13200.6
13207.6
13214.8
13221.9
13230.4
13236.7
13242.7
13245.4
13248.3
13249.6
13249.2
13249.5
13248
13249.5
13254.4
13260.4
13266.6
13273.1
13281.1
13290
13300
13309.6
13320.5
13328.9
13338
13344.3
13351
13354.4
13355.7
13357.3
13355.6
13353.6
13350.9
13348
13343.9
13342.6
13343.5
13345.6
13348.8
13354.2
13361.3
13369.8
13379.2
13387.7
13396
13402
13407.1
13407.7
13407.2
13406.1
13402.8
13398.4
13394.3
13391
13390
13390
13391.8
13395.6
13401.2
13407.9
13414.7
13421.5
13427.4
13432.3
13433.5
13434.7
13432.5
13429.8
13426.3
13422.9
13420.4
13418.7
13419.1
13420.4
13423.1
13427.4
13432.9
13438.6
13443.9
13447.5
13450.2
13452.9
13451.2
13447.9
13444.9
13441.8
13439.1
13436.7
13436
13436.5
13438.1
13440.8
13444.6
13449
13454
13458.5
13461.8
13465.4
13464.5
13462.4
13460.1
13457.4
13454.3
13450.2
3524.48
3512.64
3497.76
3479.52
3459.52
3437.63
3415.6
3390.03
3366.32
3344.11
3323.92
3305.99
3290.28
3276.8
3265.51
3256.33
3249.14
3243.84
3240.58
3239.47
3240.89
3245.29
3252.85
3264.44
3281.94
3304.64
3331.5
3369.59
3413.55
3465.14
3522.26
3593.17
3674.01
3754.8
3855.99
3961.23
4075.26
4197.23
4332.47
4470.04
4613.24
4762.83
4955.06
5107.92
5288.47
5442.2
5687.3
5861.33
6082.81
6245.91
6496.96
6699.14
6950.6
7165.49
7402.83
7665.5
7883
8114.68
8334.78
8562.67
8795.13
9016.52
9251.48
9460.07
9689.13
9875.58
10092.8
10264.9
10471.8
10632.6
10814.7
10984.3
11123.3
11278.3
11394.5
11515.8
11634.7
11720.8
11844.6
11911.6
12022.7
12088.8
12185
12223.3
12304.9
12342.9
12412.8
12444.9
12502.1
12532.9
12576.8
12605
12641.7
12664.4
12696.5
12710
12732.8
12746.9
12766.7
12778.5
12792.5
12807.7
12816.8
12829.1
12842.1
12855
12866.5
12878.2
12890.3
12903.5
12918.1
12935
12944.5
12955.3
12951.9
12945.3
12942.5
12944.7
12951.5
12952.6
12958
12976.9
13001.6
13014.9
13029.6
13045.2
13064.3
13084.1
13106.1
13121.6
13137.9
13147.8
13158.4
13169
13180
13189.6
13200.5
13207.1
13214.3
13221.6
13230.1
13235.8
13241.6
13243.7
13246.3
13247.9
13248.4
13249.6
13249.4
13250.7
13255.1
13261.3
13268
13274.4
13282.1
13290.6
13300.1
13309.7
13320.3
13328.4
13337.1
13343.3
13350.1
13352.9
13354.6
13356.3
13354.8
13353
13350.7
13348.2
13344.7
13343.4
13344.4
13346.7
13350.2
13355.5
13362.4
13370.4
13379.2
13387.3
13395.2
13401
13405.9
13406.5
13406.4
13405.4
13402.5
13398.5
13394.7
13391.7
13390.9
13391.1
13392.7
13396.4
13401.9
13408.3
13414.8
13421.3
13426.8
13431.5
13432.8
13434.1
13432.1
13429.5
13426.3
13423.1
13420.8
13419.3
13419.8
13421.1
13423.7
13427.8
13433.1
13438.6
13443.6
13447.1
13449.6
13452.2
13451.1
13447.9
13444.8
13441.9
13439.3
13437.1
13436.5
13437
13438.5
13441.2
13444.9
13449.2
13454
13458.3
13461.4
13465
13464.5
13462.3
13459.9
13457.4
13454.4
13450.4
3523.52
3511.19
3495.14
3475.5
3453.92
3431.77
3408.18
3383.01
3359.87
3338.4
3319.09
3302
3287.08
3274.26
3263.45
3254.5
3247.32
3241.93
3238.45
3237.02
3237.93
3241.88
3248.89
3259.77
3276.91
3299.7
3325.49
3363.01
3406.57
3458.51
3514.17
3585.2
3665.1
3743.05
3843.57
3943.47
4049.31
4171.85
4307.98
4436.4
4571.37
4699.2
4903.16
5040.9
5223.43
5350.16
5584.16
5746.62
5971.08
6123.91
6353.09
6554.18
6797.03
7012.51
7238.14
7485.52
7726.37
7940.51
8177.47
8377.7
8632.54
8828.82
9095.93
9279.12
9543.62
9708.3
9959.23
10113.2
10348.9
10496.3
10699.4
10854.2
11017.8
11176.6
11292.9
11439.6
11535.3
11654.5
11776.4
11847.6
11970.6
12027.5
12125.2
12167.5
12257.5
12301.6
12376.9
12413.3
12473.5
12504.8
12552.3
12579.2
12619.3
12643.3
12678.2
12691.8
12717.3
12732.1
12755.1
12768.5
12785.2
12801.1
12811.8
12825.5
12837.8
12850.5
12862.2
12874.2
12887
12901
12917
12934.7
12941.6
12947.5
12940.4
12933.1
12933.4
12940
12953.3
12964.8
12973.8
12986
13004.5
13016.4
13029.1
13043
13060.7
13080.7
13103.6
13119.8
13136.9
13146
13156.6
13167.3
13178.4
13188.8
13200.2
13206.4
13213.8
13221.3
13229.8
13234.8
13240.1
13241.8
13244.1
13246
13247.4
13249.6
13250.9
13252.4
13256.3
13262.5
13269.5
13276
13283.3
13291.3
13300.5
13309.8
13320.1
13327.7
13336.1
13342.1
13348.9
13351.2
13353.2
13355
13353.8
13352.3
13350.5
13348.5
13345.6
13344.5
13345.5
13348.1
13351.7
13357
13363.7
13371.2
13379.3
13386.8
13394.3
13399.7
13404.5
13405.2
13405.4
13404.5
13402.1
13398.6
13395.1
13392.5
13391.9
13392.2
13393.8
13397.4
13402.7
13408.8
13414.9
13420.9
13426.1
13430.6
13432
13433.4
13431.5
13429.2
13426.3
13423.4
13421.4
13420
13420.5
13421.8
13424.4
13428.4
13433.4
13438.5
13443.4
13446.7
13449
13451.5
13450.8
13447.9
13444.8
13441.9
13439.6
13437.5
13437
13437.4
13439
13441.6
13445.3
13449.4
13453.9
13458.2
13461
13464.6
13464.5
13462.1
13459.7
13457.4
13454.6
13450.7
3520.04
3507.54
3491.07
3470.71
3448.26
3426.57
3401.89
3377.57
3354.84
3334.13
3315.6
3299.21
3284.91
3272.57
3262.03
3253.13
3245.87
3240.35
3236.52
3234.65
3235.09
3238.76
3245.39
3255.35
3272.58
3294.49
3319.52
3358.07
3400.79
3452.24
3506
3576.51
3652.75
3728.39
3828.98
3921.2
4010.85
4123.79
4277.51
4389.15
4522.53
4618.62
4818.55
4944.02
5132.51
5246.23
5453.36
5597.51
5815.99
5970.1
6186.13
6378.12
6611.39
6813.46
7050.36
7257.32
7530.05
7715.96
7991.99
8164.61
8449.72
8616.22
8911.44
9073.05
9365.2
9517.81
9795.57
9941.38
10200.5
10338.1
10566.4
10695
10894.6
11030
11182.2
11336.7
11429.2
11581.2
11677.4
11776.6
11915.1
11952
12054.6
12103
12205
12252.4
12335.3
12374.8
12441
12471.5
12524
12548.7
12593.9
12616.3
12654.4
12669.7
12699.2
12714.2
12740.7
12755.2
12775.7
12791.3
12804.9
12821
12831.9
12844.6
12856.7
12869.3
12883.2
12898.2
12915.3
12932.5
12936.7
12936.6
12925.8
12920.3
12924.1
12935.6
12955.2
12977.3
12991.2
12995.7
13007.4
13017.7
13028.3
13040.7
13057.3
13077
13100.1
13116.9
13134.9
13143.8
13154.4
13165.1
13176.6
13187.7
13199.4
13205.6
13213.1
13220.8
13229.1
13233.3
13238
13239.5
13241.5
13243.9
13246.3
13249.6
13252.4
13254.2
13257.8
13263.8
13270.9
13277.6
13284.6
13292.2
13300.9
13309.9
13319.7
13326.8
13335
13340.7
13347.3
13349.4
13351.6
13353.6
13352.7
13351.8
13350.3
13348.8
13346.7
13346
13347
13349.7
13353.4
13358.7
13365.1
13371.9
13379.3
13386.2
13393.2
13398.3
13402.9
13403.7
13404.3
13403.5
13401.7
13398.7
13395.7
13393.5
13393.1
13393.5
13395.1
13398.6
13403.6
13409.4
13415
13420.6
13425.3
13429.6
13431.1
13432.6
13430.9
13428.9
13426.3
13423.8
13422
13420.9
13421.3
13422.7
13425.3
13429
13433.6
13438.5
13443.1
13446.2
13448.3
13450.8
13450.5
13447.8
13444.8
13442
13439.9
13438.1
13437.6
13438
13439.5
13442.1
13445.8
13449.7
13453.9
13457.9
13460.6
13464
13464.4
13462
13459.5
13457.4
13454.8
13451
3514.46
3502.24
3485.96
3465.62
3443.39
3421.7
3396.94
3373.5
3351.29
3331.29
3313.44
3297.64
3283.78
3271.75
3261.3
3252.29
3244.9
3239.16
3234.91
3232.52
3232.7
3236.22
3242.15
3250.77
3268.61
3291.15
3314.88
3354.4
3395.61
3445.05
3496.46
3565.83
3632.74
3704.78
3813.21
3894.45
3966.27
4052.87
4223
4320.34
4461.07
4533.33
4712.21
4822.7
5006.28
5115.78
5299.23
5427.23
5622.09
5776.9
5985.04
6170.36
6399.44
6585.07
6846.1
7009.66
7308.56
7466.63
7779.04
7940.43
8248.12
8399.18
8701.85
8850.72
9161.98
9310.67
9610.43
9758.35
10037.8
10170.9
10421.2
10536.2
10762.1
10871.1
11063.1
11192.4
11330.6
11501.6
11568.1
11702.4
11837.5
11865.9
11981.3
12034.7
12144.9
12192.3
12285.7
12327.7
12402.7
12432.4
12491.1
12514.9
12565.5
12585.7
12628
12643.3
12678.9
12694.5
12724.6
12739.9
12764.2
12779
12796.8
12815.2
12824.8
12838
12849.9
12863.4
12878.7
12894.9
12912.2
12926.6
12928
12922.6
12907.8
12907.8
12916.3
12933.5
12958.6
12989.8
13008.6
13005.9
13011
13018.3
13027.3
13038.7
13054.4
13073.1
13095.6
13112.6
13131.5
13141
13151.9
13162.5
13174.3
13185.8
13198
13204.4
13212.2
13219.6
13227.9
13231.2
13235.3
13236.7
13238.6
13241.7
13245.4
13250
13254.1
13256.4
13259.7
13265.2
13272.3
13279.1
13285.9
13293.2
13301.3
13309.8
13319.2
13325.8
13333.7
13338.9
13345.4
13347.4
13350.1
13352
13351.4
13350.9
13350
13349.1
13347.9
13347.6
13348.7
13351.6
13355.5
13360.7
13366.6
13372.7
13379.3
13385.5
13392
13396.7
13401.1
13402
13403.1
13402.4
13401.1
13398.8
13396.4
13394.6
13394.4
13395
13396.6
13399.9
13404.6
13409.9
13415
13420.2
13424.4
13428.4
13430
13431.7
13430.2
13428.4
13426.3
13424.2
13422.7
13421.8
13422.2
13423.7
13426.2
13429.7
13433.9
13438.4
13442.8
13445.7
13447.5
13449.9
13450
13447.7
13444.7
13442.1
13440.3
13438.6
13438.2
13438.6
13440.1
13442.7
13446.2
13449.9
13453.8
13457.7
13460.1
13463.4
13464.1
13461.7
13459.3
13457.4
13455
13451.3
3507.62
3496.09
3480.39
3460.51
3439.54
3417.29
3393.37
3370.67
3349.2
3329.89
3312.59
3297.21
3283.64
3271.72
3261.23
3252.03
3244.43
3238.47
3233.92
3231.02
3230.23
3233.62
3239.56
3247.62
3266.46
3289.19
3311
3351.1
3389.38
3433.85
3483.16
3556.55
3605.74
3662.22
3788.01
3858.68
3926.52
3977.59
4140.25
4224.22
4372.8
4440.06
4591.44
4685.09
4847.12
4954.86
5116.07
5237.58
5401.8
5567.13
5750.39
5928.49
6120.06
6301.4
6533.51
6666.47
6965.48
7108.73
7432.79
7586.93
7905.84
8056.32
8384.08
8527.06
8857.93
9012.29
9344.95
9494.17
9802.75
9939.56
10220.2
10339
10592.3
10696.1
10922.2
11022.6
11222.7
11387.2
11464.6
11627.7
11736.8
11784
11920.6
11972.7
12083.5
12129.6
12234.3
12277.9
12362
12391.3
12456.9
12480.9
12536.3
12554
12600.1
12615.4
12657.7
12674.4
12708.5
12723.8
12751.8
12765.1
12788.1
12807.5
12817.4
12831.8
12843.1
12857.9
12874.4
12891.4
12907.2
12917.5
12915.4
12905.1
12889.7
12896
12911.1
12933.4
12962.5
12999.7
13023.3
13016.1
13015.3
13019.1
13026.3
13037.1
13051.8
13069.1
13090
13106.5
13126.7
13137.5
13149.1
13159.5
13171.7
13183.2
13195.8
13203.2
13211.4
13218.2
13226.4
13229.1
13232.9
13234.3
13235.8
13239.3
13244.1
13249.9
13255.6
13258.8
13262.6
13267.8
13274
13280.7
13287.3
13294.2
13301.6
13309.5
13318.2
13324.5
13332.1
13337.2
13343.5
13345
13347.7
13349.9
13349.8
13350
13349.6
13349.4
13349.1
13349.4
13350.7
13353.6
13357.6
13363
13368.5
13373.6
13379.3
13384.8
13390.7
13394.7
13398.9
13400.1
13401.6
13401.2
13400.4
13398.8
13397.2
13395.8
13395.8
13396.5
13398.3
13401.4
13405.7
13410.5
13415
13419.7
13423.4
13427.2
13428.9
13430.6
13429.4
13428
13426.4
13424.6
13423.5
13422.8
13423.3
13424.8
13427.3
13430.5
13434.2
13438.3
13442.3
13445
13446.7
13449
13449.5
13447.5
13444.7
13442.2
13440.7
13439.3
13438.9
13439.3
13440.8
13443.4
13446.7
13450.2
13453.8
13457.4
13459.6
13462.8
13463.8
13461.5
13459.1
13457.4
13455.2
13451.6
3500.29
3489.66
3474.85
3455.67
3436.37
3414
3391.16
3369.2
3348.53
3329.82
3312.96
3297.86
3284.41
3272.48
3261.8
3252.37
3244.58
3238.35
3233.24
3229.76
3228.17
3232.13
3238.64
3245.69
3265.24
3287.28
3306.07
3346.08
3379.86
3415.24
3459.14
3549.59
3584.19
3609.77
3741.64
3803.48
3888.53
3909.69
4044.05
4111.74
4250.49
4321.5
4446.9
4527.69
4660.56
4765.08
4904.77
5023.32
5141.15
5266.03
5402.5
5561.29
5720.26
5952.13
6118.88
6347.72
6591.48
6763.17
7082.02
7249.7
7599.25
7742.99
8087.46
8233.26
8587.61
8735.86
9084.52
9238.05
9570.99
9704.53
10007.9
10125
10398.6
10501.6
10751.3
10850.4
11076.6
11216.3
11342.5
11513.4
11589.8
11687.2
11839.6
11887
12005.9
12056
12170.2
12214.1
12307.9
12340.7
12415.8
12441.6
12502.1
12518.4
12568.6
12585.6
12634.3
12653
12691.5
12707.3
12738.6
12751.2
12778.2
12798
12809.6
12825.9
12836.9
12853.1
12870.5
12887.6
12900.3
12905.9
12900
12885.9
12874.6