/*--------------------------------*- C++ -*----------------------------------*\
| =========                 |                                                 |
| \\      /  F ield         | OpenFOAM: The Open Source CFD Toolbox           |
|  \\    /   O peration     | Version:  2312                                  |
|   \\  /    A nd           | Website:  www.openfoam.com                      |
|    \\/     M anipulation  |                                                 |
\*---------------------------------------------------------------------------*/
FoamFile
{
    version     2.0;
    format      ascii;
    arch        "LSB;label=32;scalar=64";
    class       surfaceScalarField;
    location    "0.006";
    object      phi;
}
// * * * * * * * * * * * * * * * * * * * * * * * * * * * * * * * * * * * * * //

dimensions      [1 0 -1 0 0 0 0];

oriented        oriented;

internalField   nonuniform List<scalar> 
95760
(
4.99046e-09
-4.9904e-09
7.58376e-09
-2.59327e-09
7.6095e-09
-2.57361e-11
7.23268e-09
3.76766e-10
6.78021e-09
4.52382e-10
3.44661e-09
3.33354e-09
-4.45932e-09
7.90592e-09
-1.66701e-08
1.22109e-08
-3.47299e-08
1.80599e-08
-5.41737e-08
1.9444e-08
-7.11265e-08
1.69528e-08
-8.58038e-08
1.46772e-08
-9.83797e-08
1.25756e-08
-1.09138e-07
1.07578e-08
-1.18473e-07
9.33406e-09
-1.26716e-07
8.24223e-09
-1.3417e-07
7.45317e-09
-1.41053e-07
6.88113e-09
-1.47518e-07
6.46468e-09
-1.53623e-07
6.10383e-09
-1.59469e-07
5.84438e-09
-1.65057e-07
5.58788e-09
-1.70402e-07
5.34464e-09
-1.75492e-07
5.08996e-09
-1.80313e-07
4.82142e-09
-1.84807e-07
4.49504e-09
-1.89008e-07
4.20228e-09
-1.92843e-07
3.83713e-09
-1.96533e-07
3.69214e-09
-1.99955e-07
3.42353e-09
-2.02697e-07
2.7432e-09
-2.0487e-07
2.17234e-09
-2.0653e-07
1.65908e-09
-2.07536e-07
1.00357e-09
-2.07652e-07
1.12457e-10
-2.07217e-07
-4.38904e-10
-2.0602e-07
-1.19977e-09
-2.04068e-07
-1.95271e-09
-2.01115e-07
-2.95076e-09
-1.97186e-07
-3.92061e-09
-1.92209e-07
-4.9634e-09
-1.86241e-07
-5.9506e-09
-1.7866e-07
-7.56152e-09
-1.69671e-07
-8.96999e-09
-1.59263e-07
-1.0393e-08
-1.47985e-07
-1.12732e-08
-1.35148e-07
-1.28449e-08
-1.20731e-07
-1.44379e-08
-1.04271e-07
-1.64898e-08
-8.66343e-08
-1.76657e-08
-6.71158e-08
-1.95333e-08
-4.65175e-08
-2.05933e-08
-2.40531e-08
-2.24423e-08
-3.13263e-10
-2.37064e-08
2.37082e-08
-2.3998e-08
5.02266e-08
-2.65102e-08
7.79257e-08
-2.77106e-08
1.07295e-07
-2.93941e-08
1.37601e-07
-3.03421e-08
1.68879e-07
-3.13227e-08
2.00872e-07
-3.20402e-08
2.33498e-07
-3.26675e-08
2.66771e-07
-3.33026e-08
3.00516e-07
-3.37619e-08
3.34938e-07
-3.44299e-08
3.69509e-07
-3.45843e-08
4.04393e-07
-3.49072e-08
4.39179e-07
-3.48194e-08
4.73692e-07
-3.45458e-08
5.08306e-07
-3.46423e-08
5.42566e-07
-3.42833e-08
5.76703e-07
-3.41545e-08
6.10785e-07
-3.40969e-08
6.44364e-07
-3.35938e-08
6.77821e-07
-3.34677e-08
7.10436e-07
-3.26284e-08
7.42635e-07
-3.22161e-08
7.7371e-07
-3.1096e-08
8.0398e-07
-3.02904e-08
8.32945e-07
-2.89789e-08
8.61111e-07
-2.81707e-08
8.87992e-07
-2.68769e-08
9.14431e-07
-2.64255e-08
9.40224e-07
-2.57726e-08
9.65641e-07
-2.53962e-08
9.89832e-07
-2.41755e-08
1.0132e-06
-2.33612e-08
1.03532e-06
-2.21049e-08
1.05664e-06
-2.1325e-08
1.07695e-06
-2.03123e-08
1.09667e-06
-1.97332e-08
1.11544e-06
-1.87815e-08
1.13366e-06
-1.82244e-08
1.15096e-06
-1.73118e-08
1.16761e-06
-1.66588e-08
1.18356e-06
-1.59519e-08
1.19903e-06
-1.54705e-08
1.21384e-06
-1.47907e-08
1.22791e-06
-1.40551e-08
1.24139e-06
-1.34733e-08
1.25417e-06
-1.27679e-08
1.26628e-06
-1.21072e-08
1.27779e-06
-1.1521e-08
1.28886e-06
-1.10784e-08
1.29939e-06
-1.05542e-08
1.3095e-06
-1.01223e-08
1.31914e-06
-9.65686e-09
1.32847e-06
-9.35549e-09
1.33738e-06
-8.92134e-09
1.34604e-06
-8.66139e-09
1.3543e-06
-8.26178e-09
1.36212e-06
-7.82281e-09
1.36963e-06
-7.50108e-09
1.37689e-06
-7.24719e-09
1.38419e-06
-7.2996e-09
1.39133e-06
-7.13825e-09
1.39797e-06
-6.62895e-09
1.40423e-06
-6.26229e-09
1.41016e-06
-5.93426e-09
1.417e-06
-6.83087e-09
1.42098e-06
-3.97816e-09
1.424e-06
-3.02253e-09
1.42918e-06
-5.18067e-09
1.43284e-06
-3.65517e-09
1.43745e-06
-4.59769e-09
1.44212e-06
-4.68062e-09
1.44681e-06
-4.69511e-09
1.45122e-06
-4.4221e-09
1.45555e-06
-4.34085e-09
1.45983e-06
-4.28086e-09
1.46395e-06
-4.13168e-09
1.46797e-06
-4.02229e-09
1.47193e-06
-3.96652e-09
1.47567e-06
-3.7363e-09
1.47928e-06
-3.60981e-09
1.48271e-06
-3.42774e-09
1.48597e-06
-3.25488e-09
1.48911e-06
-3.13246e-09
1.49212e-06
-2.99964e-09
1.49498e-06
-2.85097e-09
1.49772e-06
-2.73517e-09
1.50034e-06
-2.62265e-09
1.50286e-06
-2.51922e-09
1.50526e-06
-2.3969e-09
1.50755e-06
-2.30169e-09
1.50952e-06
-1.97812e-09
1.51134e-06
-1.82496e-09
1.51283e-06
-1.49852e-09
1.51467e-06
-1.84687e-09
1.51552e-06
-8.51098e-10
1.51607e-06
-5.40373e-10
1.51711e-06
-1.03515e-09
1.51763e-06
-5.14508e-10
1.51841e-06
-7.77476e-10
1.51905e-06
-6.38402e-10
1.51969e-06
-6.32674e-10
1.52034e-06
-6.58347e-10
1.52098e-06
-6.38183e-10
1.52164e-06
-6.66374e-10
1.52226e-06
-6.37821e-10
1.52287e-06
-6.17024e-10
1.5236e-06
-7.33801e-10
1.52421e-06
-6.12695e-10
1.52477e-06
-5.64192e-10
1.52518e-06
-4.10627e-10
1.52547e-06
-2.95758e-10
1.52571e-06
-2.34298e-10
1.52584e-06
-1.3709e-10
1.52591e-06
-7.23154e-11
1.52588e-06
3.46845e-11
1.52572e-06
1.68214e-10
1.52557e-06
1.60902e-10
1.52531e-06
2.61363e-10
1.52511e-06
2.1002e-10
1.52489e-06
2.22642e-10
1.52466e-06
2.30674e-10
1.52444e-06
2.20053e-10
1.52427e-06
1.68257e-10
1.52413e-06
1.42304e-10
1.52406e-06
6.77172e-11
1.5241e-06
-3.75786e-11
1.52406e-06
3.0316e-11
1.5242e-06
-1.34572e-10
1.52423e-06
-3.32559e-11
1.52418e-06
4.53981e-11
1.52409e-06
9.18639e-11
1.52391e-06
1.77562e-10
1.52366e-06
2.47931e-10
1.5234e-06
2.61658e-10
1.52286e-06
5.41775e-10
1.52238e-06
4.7853e-10
1.52181e-06
5.75517e-10
1.5214e-06
4.02432e-10
1.5209e-06
5.09337e-10
1.52042e-06
4.78486e-10
1.51997e-06
4.48069e-10
1.51956e-06
4.07996e-10
1.51923e-06
3.30024e-10
1.51894e-06
2.86951e-10
1.51869e-06
2.53774e-10
1.51844e-06
2.52298e-10
1.51813e-06
3.18597e-10
1.51786e-06
2.68154e-10
1.5175e-06
3.64976e-10
1.5171e-06
4.00866e-10
1.51654e-06
5.68599e-10
1.51596e-06
5.80541e-10
1.51529e-06
6.64555e-10
1.51466e-06
6.34208e-10
1.51398e-06
6.83945e-10
1.51337e-06
6.07615e-10
1.51274e-06
6.31306e-10
1.51214e-06
5.94313e-10
1.51161e-06
5.25548e-10
1.51112e-06
4.93235e-10
1.51066e-06
4.50938e-10
1.51024e-06
4.2024e-10
1.50967e-06
5.65483e-10
1.50931e-06
3.66285e-10
1.50883e-06
4.7674e-10
1.50819e-06
6.38118e-10
1.5076e-06
5.9677e-10
1.50693e-06
6.73854e-10
1.50614e-06
7.88936e-10
1.50536e-06
7.82532e-10
1.50458e-06
7.75746e-10
1.5038e-06
7.8681e-10
1.50306e-06
7.37627e-10
1.50233e-06
7.29308e-10
1.50164e-06
6.94644e-10
1.50098e-06
6.59104e-10
1.50039e-06
5.87531e-10
1.49985e-06
5.34755e-10
1.49912e-06
7.30471e-10
1.49865e-06
4.61159e-10
1.49816e-06
4.95732e-10
1.49745e-06
7.08376e-10
1.4968e-06
6.4749e-10
1.49607e-06
7.29533e-10
8.39358e-10
7.05646e-09
-1.20468e-08
1.03512e-08
-5.88801e-09
1.01939e-08
1.31578e-10
7.61388e-09
2.95676e-09
4.22916e-10
7.64327e-09
-1.1721e-08
1.54774e-08
-2.9754e-08
2.5939e-08
-5.2175e-08
3.46319e-08
-7.15043e-08
3.73893e-08
-8.81852e-08
3.6125e-08
-1.02975e-07
3.17424e-08
-1.1561e-07
2.73124e-08
-1.2617e-07
2.31357e-08
-1.34987e-07
1.95737e-08
-1.42328e-07
1.66744e-08
-1.48696e-07
1.46085e-08
-1.54268e-07
1.30249e-08
-1.59272e-07
1.18834e-08
-1.63797e-07
1.09893e-08
-1.67927e-07
1.02322e-08
-1.71751e-07
9.6681e-09
-1.75275e-07
9.11068e-09
-1.78506e-07
8.57522e-09
-1.81433e-07
8.01655e-09
-1.84042e-07
7.43152e-09
-1.86385e-07
6.83897e-09
-1.88524e-07
6.34295e-09
-1.90138e-07
5.45279e-09
-1.91078e-07
4.63392e-09
-1.91375e-07
3.72209e-09
-1.91251e-07
2.6203e-09
-1.90487e-07
1.40831e-09
-1.89071e-07
2.42419e-10
-1.8695e-07
-1.12059e-09
-1.84077e-07
-2.76322e-09
-1.80433e-07
-4.08725e-09
-1.7601e-07
-5.62563e-09
-1.70715e-07
-7.24918e-09
-1.64345e-07
-9.31787e-09
-1.56904e-07
-1.13554e-08
-1.48316e-07
-1.35392e-08
-1.38723e-07
-1.55281e-08
-1.27577e-07
-1.86884e-08
-1.14982e-07
-2.15459e-08
-1.00791e-07
-2.45692e-08
-8.55264e-08
-2.6534e-08
-6.85515e-08
-2.98285e-08
-4.99128e-08
-3.30986e-08
-2.91843e-08
-3.72498e-08
-7.19138e-09
-3.96899e-08
1.68642e-08
-4.3605e-08
4.24904e-08
-4.62156e-08
7.0103e-08
-5.00347e-08
9.87581e-08
-5.23311e-08
1.29784e-07
-5.50019e-08
1.6237e-07
-5.90872e-08
1.96017e-07
-6.13665e-08
2.30812e-07
-6.42079e-08
2.66659e-07
-6.6218e-08
3.03587e-07
-6.82902e-08
3.41255e-07
-6.97538e-08
3.79653e-07
-7.11079e-08
4.18731e-07
-7.24098e-08
4.58352e-07
-7.33981e-08
4.98656e-07
-7.47368e-08
5.39059e-07
-7.49963e-08
5.79834e-07
-7.56973e-08
6.20648e-07
-7.5662e-08
6.61324e-07
-7.5251e-08
7.02115e-07
-7.54597e-08
7.4242e-07
-7.46121e-08
7.82546e-07
-7.43001e-08
8.22396e-07
-7.39659e-08
8.61656e-07
-7.28738e-08
9.00655e-07
-7.24832e-08
9.38734e-07
-7.07266e-08
9.76286e-07
-6.97878e-08
1.01269e-06
-6.75212e-08
1.04823e-06
-6.58486e-08
1.0825e-06
-6.32617e-08
1.11594e-06
-6.16133e-08
1.14811e-06
-5.90449e-08
1.1797e-06
-5.79945e-08
1.21043e-06
-5.64697e-08
1.24058e-06
-5.55216e-08
1.26951e-06
-5.30847e-08
1.29759e-06
-5.1423e-08
1.32448e-06
-4.89844e-08
1.35053e-06
-4.73851e-08
1.37557e-06
-4.53525e-08
1.39989e-06
-4.4073e-08
1.42326e-06
-4.21694e-08
1.44595e-06
-4.09291e-08
1.46777e-06
-3.91448e-08
1.48888e-06
-3.77862e-08
1.50924e-06
-3.63115e-08
1.52893e-06
-3.51618e-08
1.54792e-06
-3.37608e-08
1.56619e-06
-3.2309e-08
1.58383e-06
-3.10995e-08
1.60081e-06
-2.97312e-08
1.6172e-06
-2.84931e-08
1.63303e-06
-2.73494e-08
1.64834e-06
-2.63998e-08
1.66309e-06
-2.53317e-08
1.67741e-06
-2.44632e-08
1.69124e-06
-2.35168e-08
1.70469e-06
-2.28249e-08
1.71765e-06
-2.18981e-08
1.73022e-06
-2.1244e-08
1.7424e-06
-2.04505e-08
1.75426e-06
-1.968e-08
1.76581e-06
-1.90389e-08
1.77703e-06
-1.84634e-08
1.78802e-06
-1.82738e-08
1.79856e-06
-1.76669e-08
1.80827e-06
-1.63299e-08
1.81779e-06
-1.57713e-08
1.8255e-06
-1.36381e-08
1.83722e-06
-1.85373e-08
1.84464e-06
-1.13987e-08
1.85126e-06
-9.64306e-09
1.86027e-06
-1.41863e-08
1.86891e-06
-1.22979e-08
1.8767e-06
-1.23951e-08
1.88465e-06
-1.26419e-08
1.89254e-06
-1.2593e-08
1.89993e-06
-1.18324e-08
1.90716e-06
-1.15808e-08
1.91423e-06
-1.13639e-08
1.92118e-06
-1.10868e-08
1.92799e-06
-1.08289e-08
1.93457e-06
-1.05495e-08
1.94086e-06
-1.00145e-08
1.94695e-06
-9.68503e-09
1.9528e-06
-9.26964e-09
1.95851e-06
-8.9551e-09
1.96409e-06
-8.70078e-09
1.9695e-06
-8.40293e-09
1.97468e-06
-8.01744e-09
1.9797e-06
-7.75725e-09
1.98458e-06
-7.49346e-09
1.98929e-06
-7.22908e-09
1.99378e-06
-6.89015e-09
1.99803e-06
-6.55914e-09
2.00193e-06
-5.88401e-09
2.00582e-06
-5.72726e-09
2.0091e-06
-4.79334e-09
2.01329e-06
-6.05336e-09
2.01663e-06
-4.20162e-09
2.01963e-06
-3.5464e-09
2.02297e-06
-4.37756e-09
2.02627e-06
-3.80849e-09
2.02949e-06
-3.9993e-09
2.03273e-06
-3.87518e-09
2.0359e-06
-3.78748e-09
2.03903e-06
-3.78768e-09
2.04204e-06
-3.63699e-09
2.045e-06
-3.62105e-09
2.04785e-06
-3.48806e-09
2.05057e-06
-3.34474e-09
2.0531e-06
-3.26798e-09
2.05552e-06
-3.03191e-09
2.05778e-06
-2.83444e-09
2.05982e-06
-2.45696e-09
2.06163e-06
-2.11862e-09
2.06333e-06
-1.94163e-09
2.06484e-06
-1.64774e-09
2.06624e-06
-1.46426e-09
2.0674e-06
-1.13286e-09
2.06885e-06
-1.26959e-09
2.06993e-06
-9.10745e-10
2.07101e-06
-8.07699e-10
2.07209e-06
-8.62464e-10
2.07332e-06
-1.00275e-09
2.07456e-06
-1.00184e-09
2.07595e-06
-1.16216e-09
2.07732e-06
-1.1916e-09
2.07868e-06
-1.21189e-09
2.08001e-06
-1.25327e-09
2.08127e-06
-1.2927e-09
2.08233e-06
-1.02638e-09
2.08321e-06
-1.01973e-09
2.08393e-06
-7.59511e-10
2.08436e-06
-3.9077e-10
2.08468e-06
-2.31378e-10
2.08489e-06
-3.01667e-11
2.08505e-06
8.19397e-11
2.08511e-06
1.92712e-10
2.08516e-06
4.92508e-10
2.08515e-06
4.94063e-10
2.08536e-06
3.68279e-10
2.0856e-06
1.59964e-10
2.08584e-06
2.67346e-10
2.08612e-06
2.09324e-10
2.08647e-06
9.45418e-11
2.08687e-06
1.21728e-11
2.08721e-06
-1.22003e-11
2.08748e-06
2.48861e-11
2.08762e-06
1.04751e-10
2.08763e-06
2.43083e-10
2.08747e-06
4.79586e-10
2.08724e-06
5.03658e-10
2.08685e-06
7.54683e-10
2.08642e-06
8.3514e-10
2.08585e-06
1.14683e-09
2.08528e-06
1.14516e-09
2.08474e-06
1.21036e-09
2.08427e-06
1.10378e-09
2.08387e-06
1.09008e-09
2.08358e-06
9.00834e-10
2.0833e-06
9.15513e-10
2.08304e-06
8.51658e-10
2.08278e-06
7.8151e-10
2.08253e-06
7.42115e-10
2.08217e-06
8.14035e-10
2.08185e-06
7.39693e-10
2.08092e-06
1.4849e-09
2.08033e-06
9.57036e-10
2.07968e-06
1.12156e-09
2.07879e-06
1.53099e-09
2.0779e-06
1.48019e-09
2.077e-06
1.57279e-09
2.07601e-06
1.78232e-09
2.0751e-06
1.68654e-09
2.07426e-06
1.62565e-09
2.07347e-06
1.57859e-09
2.07273e-06
1.48097e-09
2.07206e-06
1.40644e-09
2.07139e-06
1.35914e-09
2.07076e-06
1.29466e-09
2.07005e-06
1.30016e-09
2.06944e-06
1.14504e-09
2.0682e-06
1.97011e-09
2.06742e-06
1.23572e-09
2.0666e-06
1.30831e-09
2.06539e-06
1.91217e-09
2.06424e-06
1.80108e-09
2.06308e-06
1.88716e-09
2.06471e-09
6.7258e-09
-1.87725e-08
9.43322e-09
-8.59538e-09
7.85654e-09
1.70827e-09
9.96209e-11
1.07136e-08
-1.31839e-08
2.09268e-08
-3.32018e-08
3.54952e-08
-5.43787e-08
4.71159e-08
-7.23679e-08
5.26212e-08
-8.75981e-08
5.26197e-08
-1.00335e-07
4.88625e-08
-1.11215e-07
4.26225e-08
-1.20033e-07
3.61303e-08
-1.27566e-07
3.06676e-08
-1.34059e-07
2.60667e-08
-1.39641e-07
2.22553e-08
-1.44409e-07
1.93762e-08
-1.48522e-07
1.71369e-08
-1.52154e-07
1.55142e-08
-1.55419e-07
1.42528e-08
-1.58339e-07
1.31509e-08
-1.60972e-07
1.23e-08
-1.6332e-07
1.14586e-08
-1.65377e-07
1.06318e-08
-1.67165e-07
9.80442e-09
-1.68675e-07
8.94133e-09
-1.69773e-07
7.93836e-09
-1.70293e-07
6.86355e-09
-1.7039e-07
5.55216e-09
-1.69994e-07
4.23976e-09
-1.69038e-07
2.76759e-09
-1.67502e-07
1.08557e-09
-1.65313e-07
-7.80205e-10
-1.62449e-07
-2.62201e-09
-1.58878e-07
-4.69439e-09
-1.5439e-07
-7.25355e-09
-1.48929e-07
-9.55246e-09
-1.42565e-07
-1.19924e-08
-1.35246e-07
-1.45703e-08
-1.2674e-07
-1.78226e-08
-1.17017e-07
-2.10738e-08
-1.05972e-07
-2.45738e-08
-9.38268e-08
-2.76593e-08
-8.00369e-08
-3.24611e-08
-6.46813e-08
-3.68837e-08
-4.75216e-08
-4.17158e-08
-2.91353e-08
-4.4918e-08
-8.74036e-09
-5.02331e-08
1.35249e-08
-5.53867e-08
3.81006e-08
-6.1858e-08
6.39621e-08
-6.55829e-08
9.1969e-08
-7.16261e-08
1.21428e-07
-7.56677e-08
1.53052e-07
-8.16372e-08
1.85913e-07
-8.51625e-08
2.21109e-07
-9.01774e-08
2.57921e-07
-9.58906e-08
2.95813e-07
-9.92668e-08
3.35111e-07
-1.03521e-07
3.75452e-07
-1.0658e-07
4.16939e-07
-1.0981e-07
4.59121e-07
-1.11978e-07
5.0206e-07
-1.14088e-07
5.45628e-07
-1.16007e-07
5.89706e-07
-1.17488e-07
6.34318e-07
-1.19346e-07
6.78923e-07
-1.196e-07
7.23782e-07
-1.20565e-07
7.68433e-07
-1.2033e-07
8.12851e-07
-1.19688e-07
8.57146e-07
-1.19773e-07
9.00701e-07
-1.18186e-07
9.43955e-07
-1.17572e-07
9.86652e-07
-1.16686e-07
1.02863e-06
-1.14881e-07
1.07017e-06
-1.14044e-07
1.11064e-06
-1.11225e-07
1.15038e-06
-1.09554e-07
1.18888e-06
-1.06039e-07
1.22641e-06
-1.03406e-07
1.26263e-06
-9.94927e-08
1.29796e-06
-9.69503e-08
1.33202e-06
-9.30925e-08
1.36539e-06
-9.13386e-08
1.39771e-06
-8.87645e-08
1.4292e-06
-8.69749e-08
1.45943e-06
-8.32793e-08
1.48871e-06
-8.06793e-08
1.51681e-06
-7.70762e-08
1.54408e-06
-7.46532e-08
1.57032e-06
-7.16049e-08
1.5958e-06
-6.95702e-08
1.6203e-06
-6.66987e-08
1.6441e-06
-6.47481e-08
1.667e-06
-6.20625e-08
1.68919e-06
-6.00015e-08
1.71059e-06
-5.77172e-08
1.73126e-06
-5.58277e-08
1.75114e-06
-5.36318e-08
1.77031e-06
-5.14646e-08
1.78887e-06
-4.96331e-08
1.80677e-06
-4.76109e-08
1.82416e-06
-4.58664e-08
1.84105e-06
-4.42456e-08
1.85744e-06
-4.27953e-08
1.87329e-06
-4.12006e-08
1.88872e-06
-3.99278e-08
1.90371e-06
-3.85377e-08
1.91831e-06
-3.74539e-08
1.93241e-06
-3.60199e-08
1.94611e-06
-3.49616e-08
1.9594e-06
-3.37533e-08
1.97249e-06
-3.27699e-08
1.98531e-06
-3.18448e-08
1.99781e-06
-3.09519e-08
2.01003e-06
-3.0479e-08
2.0216e-06
-2.92223e-08
2.0322e-06
-2.69132e-08
2.04232e-06
-2.58678e-08
2.05079e-06
-2.20966e-08
2.06249e-06
-3.02258e-08
2.07172e-06
-2.06188e-08
2.07988e-06
-1.77945e-08
2.08995e-06
-2.42622e-08
2.10052e-06
-2.28705e-08
2.11033e-06
-2.22161e-08
2.11984e-06
-2.21623e-08
2.12902e-06
-2.17913e-08
2.13767e-06
-2.05083e-08
2.1461e-06
-2.00332e-08
2.15432e-06
-1.96031e-08
2.16245e-06
-1.92215e-08
2.17042e-06
-1.87943e-08
2.17811e-06
-1.82377e-08
2.18545e-06
-1.73365e-08
2.19254e-06
-1.67537e-08
2.19935e-06
-1.60688e-08
2.20605e-06
-1.56332e-08
2.21263e-06
-1.52674e-08
2.21903e-06
-1.47919e-08
2.22516e-06
-1.41409e-08
2.23115e-06
-1.37364e-08
2.23699e-06
-1.33222e-08
2.24263e-06
-1.28745e-08
2.24802e-06
-1.22737e-08
2.25309e-06
-1.16435e-08
2.25777e-06
-1.05711e-08
2.26237e-06
-1.03355e-08
2.26637e-06
-8.81363e-09
2.27121e-06
-1.09047e-08
2.27545e-06
-8.46259e-09
2.27934e-06
-7.44098e-09
2.28351e-06
-8.56118e-09
2.2878e-06
-8.10572e-09
2.292e-06
-8.20001e-09
2.29626e-06
-8.14103e-09
2.30045e-06
-7.96214e-09
2.30459e-06
-7.92041e-09
2.30859e-06
-7.62213e-09
2.31253e-06
-7.54292e-09
2.31632e-06
-7.26893e-09
2.31994e-06
-6.96707e-09
2.3233e-06
-6.61946e-09
2.32648e-06
-6.21995e-09
2.32946e-06
-5.82005e-09
2.33214e-06
-5.14584e-09
2.33456e-06
-4.54588e-09
2.33682e-06
-4.21361e-09
2.33885e-06
-3.68987e-09
2.34075e-06
-3.37983e-09
2.34247e-06
-2.84868e-09
2.34447e-06
-3.27981e-09
2.34614e-06
-2.57681e-09
2.34783e-06
-2.48734e-09
2.34955e-06
-2.57685e-09
2.35146e-06
-2.8979e-09
2.35344e-06
-2.96565e-09
2.35551e-06
-3.22045e-09
2.35761e-06
-3.28497e-09
2.35974e-06
-3.32254e-09
2.36172e-06
-3.23378e-09
2.36355e-06
-3.11123e-09
2.36514e-06
-2.61577e-09
2.36648e-06
-2.3611e-09
2.36757e-06
-1.85369e-09
2.36837e-06
-1.1914e-09
2.36888e-06
-7.46168e-10
2.36932e-06
-4.78365e-10
2.36969e-06
-2.9751e-10
2.37002e-06
-1.44303e-10
2.37033e-06
1.83618e-10
2.37061e-06
2.09415e-10
2.3712e-06
-2.17829e-10
2.37174e-06
-3.83647e-10
2.37239e-06
-3.81127e-10
2.37309e-06
-4.85646e-10
2.37388e-06
-6.94456e-10
2.37471e-06
-8.12359e-10
2.37541e-06
-7.04429e-10
2.37596e-06
-5.28329e-10
2.37631e-06
-2.50875e-10
2.37642e-06
1.38601e-10
2.37641e-06
4.90971e-10
2.37616e-06
7.43366e-10
2.37578e-06
1.13936e-09
2.37532e-06
1.29517e-09
2.37483e-06
1.64245e-09
2.37429e-06
1.68135e-09
2.37383e-06
1.67546e-09
2.37346e-06
1.47714e-09
2.37325e-06
1.30597e-09
2.37311e-06
1.0467e-09
2.37302e-06
1.00355e-09
2.37298e-06
9.02298e-10
2.37286e-06
9.00428e-10
2.37275e-06
8.50798e-10
2.37245e-06
1.11808e-09
2.37211e-06
1.07438e-09
2.37115e-06
2.44384e-09
2.37036e-06
1.74621e-09
2.36959e-06
1.88163e-09
2.36861e-06
2.50396e-09
2.36755e-06
2.53724e-09
2.36652e-06
2.60094e-09
2.36546e-06
2.83803e-09
2.3645e-06
2.6445e-09
2.36362e-06
2.50877e-09
2.36283e-06
2.37661e-09
2.36208e-06
2.23456e-09
2.36143e-06
2.05524e-09
2.36079e-06
2.00379e-09
2.36019e-06
1.90651e-09
2.35939e-06
2.09952e-09
2.35867e-06
1.87089e-09
2.35733e-06
3.30396e-09
2.35626e-06
2.30309e-09
2.35522e-06
2.34595e-09
2.35378e-06
3.34433e-09
2.35235e-06
3.22757e-09
2.35095e-06
3.28354e-09
3.4843e-09
5.46959e-09
-2.4242e-08
6.33371e-09
-9.45945e-09
5.91652e-10
7.45033e-09
-1.19793e-08
2.32846e-08
-3.14554e-08
4.04028e-08
-5.11362e-08
5.5176e-08
-6.7804e-08
6.37839e-08
-8.16487e-08
6.6466e-08
-9.30284e-08
6.39994e-08
-1.02092e-07
5.7926e-08
-1.09657e-07
5.01875e-08
-1.16381e-07
4.2855e-08
-1.22024e-07
3.63104e-08
-1.26752e-07
3.07937e-08
-1.30801e-07
2.6304e-08
-1.34267e-07
2.28405e-08
-1.37281e-07
2.015e-08
-1.39913e-07
1.81456e-08
-1.42296e-07
1.66343e-08
-1.44396e-07
1.52504e-08
-1.46246e-07
1.41491e-08
-1.47849e-07
1.30606e-08
-1.49211e-07
1.19925e-08
-1.50265e-07
1.08583e-08
-1.50904e-07
9.58095e-09
-1.5116e-07
8.19564e-09
-1.50938e-07
6.64209e-09
-1.50167e-07
4.7828e-09
-1.48812e-07
2.88636e-09
-1.46867e-07
8.251e-10
-1.44282e-07
-1.49797e-09
-1.40916e-07
-4.14579e-09
-1.36738e-07
-6.80079e-09
-1.31758e-07
-9.6759e-09
-1.25696e-07
-1.33175e-08
-1.18502e-07
-1.675e-08
-1.10257e-07
-2.02407e-08
-1.0096e-07
-2.38697e-08
-9.03172e-08
-2.84663e-08
-7.82841e-08
-3.31043e-08
-6.47015e-08
-3.81486e-08
-4.99371e-08
-4.24116e-08
-3.32628e-08
-4.91205e-08
-1.49258e-08
-5.52055e-08
5.54052e-09
-6.21718e-08
2.74665e-08
-6.68443e-08
5.17602e-08
-7.45371e-08
7.80004e-08
-8.16493e-08
1.06705e-07
-9.05938e-08
1.36682e-07
-9.55879e-08
1.69132e-07
-1.04084e-07
2.03126e-07
-1.09645e-07
2.3957e-07
-1.18051e-07
2.77224e-07
-1.22783e-07
3.17398e-07
-1.30331e-07
3.5914e-07
-1.37629e-07
4.01862e-07
-1.42003e-07
4.46221e-07
-1.47893e-07
4.91563e-07
-1.51938e-07
5.38139e-07
-1.56411e-07
5.85246e-07
-1.5912e-07
6.33142e-07
-1.62021e-07
6.81527e-07
-1.64417e-07
7.30279e-07
-1.66245e-07
7.79368e-07
-1.68422e-07
8.28261e-07
-1.68482e-07
8.77249e-07
-1.69551e-07
9.25726e-07
-1.68813e-07
9.73859e-07
-1.67829e-07
1.02148e-06
-1.67402e-07
1.06802e-06
-1.64733e-07
1.11412e-06
-1.6368e-07
1.15926e-06
-1.61846e-07
1.20351e-06
-1.59168e-07
1.24707e-06
-1.57635e-07
1.28933e-06
-1.5352e-07
1.33058e-06
-1.5084e-07
1.37042e-06
-1.45906e-07
1.40914e-06
-1.42147e-07
1.44645e-06
-1.36815e-07
1.48276e-06
-1.33271e-07
1.51775e-06
-1.28068e-07
1.55192e-06
-1.25483e-07
1.58476e-06
-1.21576e-07
1.6165e-06
-1.18672e-07
1.64679e-06
-1.1353e-07
1.67611e-06
-1.09974e-07
1.70417e-06
-1.05115e-07
1.73143e-06
-1.01909e-07
1.75762e-06
-9.78043e-08
1.78302e-06
-9.49906e-08
1.8074e-06
-9.11054e-08
1.83108e-06
-8.84566e-08
1.85378e-06
-8.47936e-08
1.8758e-06
-8.20432e-08
1.89695e-06
-7.88876e-08
1.91731e-06
-7.61964e-08
1.93683e-06
-7.31424e-08
1.95565e-06
-7.02695e-08
1.97387e-06
-6.78273e-08
1.99144e-06
-6.51546e-08
2.00858e-06
-6.29883e-08
2.02531e-06
-6.09674e-08
2.04154e-06
-5.90307e-08
2.05726e-06
-5.69372e-08
2.0726e-06
-5.52988e-08
2.08754e-06
-5.35103e-08
2.1021e-06
-5.20446e-08
2.11616e-06
-5.0116e-08
2.12986e-06
-4.86731e-08
2.14313e-06
-4.70437e-08
2.15631e-06
-4.59506e-08
2.16926e-06
-4.47922e-08
2.18196e-06
-4.36369e-08
2.1943e-06
-4.2812e-08
2.20585e-06
-4.07509e-08
2.21635e-06
-3.73848e-08
2.22607e-06
-3.55729e-08
2.23466e-06
-3.06635e-08
2.24489e-06
-4.0426e-08
2.25485e-06
-3.0566e-08
2.26408e-06
-2.70129e-08
2.27415e-06
-3.43338e-08
2.28526e-06
-3.39774e-08
2.29596e-06
-3.29255e-08
2.30608e-06
-3.23069e-08
2.31571e-06
-3.14501e-08
2.32476e-06
-2.95882e-08
2.33359e-06
-2.88816e-08
2.34216e-06
-2.81984e-08
2.35068e-06
-2.77447e-08
2.35903e-06
-2.71453e-08
2.36708e-06
-2.62779e-08
2.37474e-06
-2.49793e-08
2.38213e-06
-2.41212e-08
2.38922e-06
-2.31344e-08
2.39622e-06
-2.26073e-08
2.40311e-06
-2.21413e-08
2.40982e-06
-2.14892e-08
2.41625e-06
-2.05603e-08
2.42256e-06
-2.00301e-08
2.4287e-06
-1.9461e-08
2.43466e-06
-1.88276e-08
2.44033e-06
-1.79413e-08
2.44564e-06
-1.69667e-08
2.45055e-06
-1.54911e-08
2.4553e-06
-1.50909e-08
2.45956e-06
-1.30883e-08
2.46429e-06
-1.56503e-08
2.46888e-06
-1.30719e-08
2.47315e-06
-1.17253e-08
2.47748e-06
-1.29131e-08
2.48206e-06
-1.26985e-08
2.4866e-06
-1.275e-08
2.49123e-06
-1.27727e-08
2.49579e-06
-1.25145e-08
2.50031e-06
-1.24323e-08
2.50469e-06
-1.19832e-08
2.50901e-06
-1.1841e-08
2.51317e-06
-1.14127e-08
2.51715e-06
-1.09322e-08
2.52082e-06
-1.02807e-08
2.5243e-06
-9.69581e-09
2.52754e-06
-9.05921e-09
2.53043e-06
-8.03974e-09
2.53304e-06
-7.17308e-09
2.53546e-06
-6.64916e-09
2.53762e-06
-5.87171e-09
2.53965e-06
-5.42451e-09
2.54151e-06
-4.71662e-09
2.54363e-06
-5.41237e-09
2.54552e-06
-4.46789e-09
2.54744e-06
-4.40015e-09
2.54943e-06
-4.55543e-09
2.55161e-06
-5.07021e-09
2.55391e-06
-5.25296e-09
2.55634e-06
-5.63547e-09
2.55882e-06
-5.75212e-09
2.56131e-06
-5.79859e-09
2.56365e-06
-5.55273e-09
2.56577e-06
-5.22234e-09
2.56761e-06
-4.45467e-09
2.56916e-06
-3.91069e-09
2.57041e-06
-3.10754e-09
2.57133e-06
-2.11303e-09
2.57197e-06
-1.39139e-09
2.57244e-06
-9.61162e-10
2.57287e-06
-7.37733e-10
2.57325e-06
-5.28386e-10
2.57369e-06
-2.67049e-10
2.57415e-06
-2.56218e-10
2.57483e-06
-8.96019e-10
2.57558e-06
-1.13361e-09
2.5764e-06
-1.20073e-09
2.57733e-06
-1.40899e-09
2.57837e-06
-1.72551e-09
2.57944e-06
-1.87418e-09
2.58033e-06
-1.59561e-09
2.58106e-06
-1.25605e-09
2.58153e-06
-7.22269e-10
2.5817e-06
-2.69231e-11
2.58172e-06
4.66323e-10
2.58147e-06
9.92979e-10
2.58106e-06
1.54537e-09
2.58054e-06
1.80812e-09
2.58004e-06
2.14289e-09
2.5795e-06
2.22811e-09
2.57906e-06
2.11499e-09
2.57874e-06
1.80243e-09
2.57861e-06
1.43947e-09
2.57854e-06
1.11953e-09
2.57853e-06
1.01972e-09
2.5786e-06
8.36916e-10
2.5786e-06
9.04356e-10
2.57858e-06
8.78949e-10
2.57832e-06
1.37983e-09
2.57793e-06
1.46157e-09
2.57697e-06
3.39888e-09
2.57604e-06
2.67787e-09
2.57516e-06
2.75532e-09
2.57411e-06
3.54838e-09
2.57291e-06
3.72751e-09
2.57175e-06
3.75404e-09
2.57062e-06
3.96489e-09
2.5696e-06
3.6608e-09
2.56867e-06
3.43767e-09
2.56785e-06
3.20021e-09
2.56707e-06
3.01454e-09
2.56644e-06
2.69617e-09
2.5658e-06
2.64817e-09
2.5652e-06
2.51591e-09
2.56439e-06
2.92307e-09
2.56354e-06
2.72786e-09
2.56218e-06
4.66043e-09
2.5609e-06
3.57992e-09
2.55967e-06
3.56853e-09
2.55809e-06
4.91894e-09
2.55644e-06
4.86628e-09
2.55484e-06
4.87879e-09
5.06333e-09
2.89333e-09
-2.71352e-08
-2.7658e-10
-6.28948e-09
-1.05082e-08
1.7682e-08
-2.74607e-08
4.0237e-08
-4.54959e-08
5.8438e-08
-6.10265e-08
7.07066e-08
-7.39165e-08
7.66739e-08
-8.43149e-08
7.68645e-08
-9.23893e-08
7.20739e-08
-9.88775e-08
6.44143e-08
-1.04437e-07
5.57476e-08
-1.09195e-07
4.76122e-08
-1.13236e-07
4.0351e-08
-1.16669e-07
3.42263e-08
-1.19648e-07
2.92827e-08
-1.22243e-07
2.54348e-08
-1.24525e-07
2.24312e-08
-1.26515e-07
2.01349e-08
-1.28268e-07
1.83859e-08
-1.29784e-07
1.67656e-08
-1.31057e-07
1.5421e-08
-1.32096e-07
1.40982e-08
-1.32825e-07
1.27212e-08
-1.33182e-07
1.12151e-08
-1.33186e-07
9.58455e-09
-1.32732e-07
7.74222e-09
-1.31686e-07
5.59758e-09
-1.30003e-07
3.10179e-09
-1.27659e-07
5.43603e-10
-1.24641e-07
-2.19089e-09
-1.20895e-07
-5.24226e-09
-1.16218e-07
-8.82174e-09
-1.10573e-07
-1.24456e-08
-1.04043e-07
-1.62072e-08
-9.62468e-08
-2.11155e-08
-8.71286e-08
-2.58712e-08
-7.67771e-08
-3.05958e-08
-6.52673e-08
-3.53826e-08
-5.21802e-08
-4.15553e-08
-3.74711e-08
-4.78129e-08
-2.08713e-08
-5.4743e-08
-2.75131e-09
-6.0522e-08
1.71887e-08
-6.90488e-08
3.91334e-08
-7.71381e-08
6.36296e-08
-8.6661e-08
8.97548e-08
-9.29738e-08
1.18783e-07
-1.03576e-07
1.49953e-07
-1.12839e-07
1.84008e-07
-1.24677e-07
2.19361e-07
-1.3096e-07
2.57839e-07
-1.42555e-07
2.97936e-07
-1.49711e-07
3.40965e-07
-1.6104e-07
3.84928e-07
-1.66706e-07
4.31826e-07
-1.77214e-07
4.80072e-07
-1.85883e-07
5.29048e-07
-1.91005e-07
5.80139e-07
-1.99001e-07
6.31864e-07
-2.03674e-07
6.8491e-07
-2.09472e-07
7.38105e-07
-2.12341e-07
7.91944e-07
-2.15885e-07
8.45915e-07
-2.18403e-07
9.00078e-07
-2.204e-07
9.54191e-07
-2.22506e-07
1.0078e-06
-2.22068e-07
1.06116e-06
-2.22902e-07
1.11353e-06
-2.21188e-07
1.16526e-06
-2.1955e-07
1.21607e-06
-2.18208e-07
1.26556e-06
-2.14204e-07
1.31441e-06
-2.12527e-07
1.36187e-06
-2.09329e-07
1.40817e-06
-2.05506e-07
1.45342e-06
-2.02929e-07
1.49701e-06
-1.97161e-07
1.53929e-06
-1.93173e-07
1.57987e-06
-1.86526e-07
1.61915e-06
-1.81447e-07
1.65681e-06
-1.74489e-07
1.6934e-06
-1.69868e-07
1.7285e-06
-1.63158e-07
1.76259e-06
-1.5954e-07
1.79489e-06
-1.53847e-07
1.82586e-06
-1.49594e-07
1.85518e-06
-1.42804e-07
1.88361e-06
-1.38366e-07
1.91067e-06
-1.32154e-07
1.93701e-06
-1.28246e-07
1.96222e-06
-1.23018e-07
1.98663e-06
-1.19412e-07
2.00996e-06
-1.14463e-07
2.03259e-06
-1.11129e-07
2.05412e-06
-1.0636e-07
2.07498e-06
-1.02936e-07
2.0949e-06
-9.88294e-08
2.11397e-06
-9.52867e-08
2.13217e-06
-9.13422e-08
2.14971e-06
-8.77983e-08
2.16668e-06
-8.47706e-08
2.18301e-06
-8.14623e-08
2.19905e-06
-7.89963e-08
2.21472e-06
-7.66223e-08
2.2299e-06
-7.42129e-08
2.2446e-06
-7.16527e-08
2.25898e-06
-6.97078e-08
2.27301e-06
-6.75702e-08
2.28667e-06
-6.57392e-08
2.29988e-06
-6.33554e-08
2.31275e-06
-6.1571e-08
2.32522e-06
-5.95306e-08
2.3377e-06
-5.84383e-08
2.35e-06
-5.70951e-08
2.36214e-06
-5.57724e-08
2.37382e-06
-5.44697e-08
2.38454e-06
-5.14496e-08
2.39415e-06
-4.69687e-08
2.40272e-06
-4.41247e-08
2.41085e-06
-3.87677e-08
2.41915e-06
-4.86961e-08
2.42886e-06
-4.02484e-08
2.43881e-06
-3.69446e-08
2.44818e-06
-4.36983e-08
2.45915e-06
-4.49488e-08
2.46981e-06
-4.35915e-08
2.47982e-06
-4.23326e-08
2.48923e-06
-4.08941e-08
2.49806e-06
-3.84474e-08
2.50669e-06
-3.75395e-08
2.51503e-06
-3.65696e-08
2.52336e-06
-3.60829e-08
2.53151e-06
-3.52974e-08
2.53934e-06
-3.40972e-08
2.54678e-06
-3.2397e-08
2.55395e-06
-3.12632e-08
2.56079e-06
-2.99505e-08
2.5676e-06
-2.93827e-08
2.57429e-06
-2.88123e-08
2.58081e-06
-2.79897e-08
2.58705e-06
-2.6783e-08
2.59318e-06
-2.6155e-08
2.59916e-06
-2.54332e-08
2.60495e-06
-2.46153e-08
2.61044e-06
-2.34278e-08
2.61554e-06
-2.20692e-08
2.62027e-06
-2.02293e-08
2.62474e-06
-1.95717e-08
2.6289e-06
-1.72679e-08
2.63316e-06
-1.99236e-08
2.63767e-06
-1.75966e-08
2.64199e-06
-1.60672e-08
2.64613e-06
-1.70711e-08
2.65059e-06
-1.71752e-08
2.6551e-06
-1.72805e-08
2.65971e-06
-1.73882e-08
2.66427e-06
-1.70747e-08
2.6688e-06
-1.69561e-08
2.67321e-06
-1.63672e-08
2.67755e-06
-1.61606e-08
2.68174e-06
-1.5574e-08
2.68573e-06
-1.49066e-08
2.6894e-06
-1.39238e-08
2.69286e-06
-1.31471e-08
2.69606e-06
-1.22485e-08
2.69885e-06
-1.08438e-08
2.7014e-06
-9.73454e-09
2.70371e-06
-8.97879e-09
2.70575e-06
-7.93044e-09
2.70765e-06
-7.34441e-09
2.70942e-06
-6.50297e-09
2.71138e-06
-7.3933e-09
2.7132e-06
-6.29312e-09
2.71511e-06
-6.30568e-09
2.7171e-06
-6.54802e-09
2.71931e-06
-7.26945e-09
2.72167e-06
-7.59905e-09
2.72421e-06
-8.15527e-09
2.72681e-06
-8.3387e-09
2.72946e-06
-8.42243e-09
2.73189e-06
-7.9693e-09
2.73411e-06
-7.42812e-09
2.736e-06
-6.34109e-09
2.73759e-06
-5.49178e-09
2.73883e-06
-4.34616e-09
2.7397e-06
-2.99034e-09
2.74029e-06
-1.99303e-09
2.74068e-06
-1.3595e-09
2.74103e-06
-1.09837e-09
2.74133e-06
-8.37634e-10
2.74174e-06
-6.81611e-10
2.7422e-06
-7.29232e-10
2.74286e-06
-1.55383e-09
2.74362e-06
-1.90124e-09
2.74451e-06
-2.08211e-09
2.74552e-06
-2.42018e-09
2.74666e-06
-2.8532e-09
2.74781e-06
-3.02041e-09
2.74879e-06
-2.56583e-09
2.74958e-06
-2.03794e-09
2.75007e-06
-1.21046e-09
2.75022e-06
-1.85218e-10
2.7502e-06
4.8721e-10
2.74986e-06
1.32607e-09
2.74937e-06
2.03229e-09
2.74875e-06
2.42215e-09
2.74813e-06
2.75999e-09
2.74753e-06
2.83067e-09
2.74706e-06
2.58567e-09
2.74671e-06
2.1538e-09
2.74656e-06
1.59303e-09
2.74651e-06
1.18243e-09
2.74651e-06
1.02628e-09
2.74662e-06
7.28985e-10
2.74663e-06
8.95476e-10
2.74664e-06
8.82421e-10
2.74638e-06
1.6457e-09
2.74589e-06
1.94945e-09
2.74493e-06
4.35518e-09
2.74384e-06
3.76896e-09
2.7428e-06
3.79314e-09
2.74166e-06