/*--------------------------------*- C++ -*----------------------------------*\
| =========                 |                                                 |
| \\      /  F ield         | OpenFOAM: The Open Source CFD Toolbox           |
|  \\    /   O peration     | Version:  2312                                  |
|   \\  /    A nd           | Website:  www.openfoam.com                      |
|    \\/     M anipulation  |                                                 |
\*---------------------------------------------------------------------------*/
FoamFile
{
    version     2.0;
    format      ascii;
    arch        "LSB;label=32;scalar=64";
    class       volScalarField;
    location    "0.006";
    object      rho;
}
// * * * * * * * * * * * * * * * * * * * * * * * * * * * * * * * * * * * * * //

dimensions      [1 -3 0 0 0 0 0];

internalField   nonuniform List<scalar> 
48128
(
0.0352116
0.0352102
0.0351786
0.0351674
0.0351542
0.0351305
0.0350946
0.0350402
0.0349561
0.0348491
0.0346364
0.0343933
0.0341672
0.0339823
0.0338417
0.033751
0.0336981
0.0336803
0.0337059
0.033774
0.0338764
0.0340178
0.0342018
0.0344328
0.0347161
0.0350575
0.0354585
0.0359279
0.0364704
0.0370889
0.037782
0.0385504
0.0394015
0.0403381
0.0413617
0.0424736
0.0436627
0.0449411
0.0463071
0.0477538
0.0492899
0.0509041
0.0526273
0.0544131
0.0562989
0.0582405
0.0602978
0.0624123
0.0646328
0.0668823
0.0692274
0.0715932
0.0740352
0.0764708
0.0789802
0.0814744
0.083991
0.0865107
0.0890288
0.0915362
0.0940187
0.0964724
0.0988938
0.101275
0.103622
0.105914
0.108157
0.110355
0.112469
0.114542
0.116539
0.118457
0.120332
0.122085
0.123807
0.125385
0.126946
0.128361
0.129773
0.131054
0.132357
0.133533
0.134727
0.135797
0.136846
0.137768
0.138682
0.139517
0.140355
0.141121
0.141893
0.142581
0.143269
0.143885
0.144493
0.145051
0.145579
0.146053
0.146487
0.146902
0.147291
0.147676
0.148054
0.148426
0.148788
0.149143
0.149494
0.14984
0.150168
0.15048
0.150778
0.151087
0.151406
0.151719
0.15204
0.152303
0.152433
0.152491
0.152391
0.152251
0.152806
0.152889
0.153007
0.153448
0.153811
0.154153
0.154475
0.154732
0.154957
0.155179
0.155407
0.155632
0.155858
0.156041
0.156211
0.156354
0.1565
0.156645
0.156794
0.156919
0.157044
0.157165
0.15729
0.157388
0.157482
0.157522
0.157548
0.157532
0.157509
0.157621
0.157633
0.157647
0.157712
0.157771
0.15786
0.15795
0.158046
0.15814
0.158239
0.158333
0.158422
0.158496
0.158552
0.158601
0.158624
0.158616
0.158599
0.158569
0.158529
0.158478
0.158412
0.158405
0.158383
0.158377
0.158384
0.158419
0.158467
0.158538
0.15862
0.158696
0.158771
0.15882
0.158862
0.158868
0.158853
0.158823
0.158774
0.158717
0.158664
0.158614
0.158576
0.158551
0.158556
0.158574
0.158601
0.158643
0.158698
0.158752
0.158794
0.158829
0.158831
0.158818
0.158791
0.158751
0.158699
0.158649
0.158603
0.158562
0.158543
0.158533
0.158536
0.158557
0.158589
0.158621
0.158656
0.158676
0.158691
0.158701
0.158642
0.158609
0.158572
0.158519
0.158471
0.158425
0.158393
0.158375
0.158367
0.158365
0.158376
0.158396
0.158426
0.158445
0.158466
0.158478
0.15843
0.158412
0.158377
0.158323
0.158274
0.158206
0.0352078
0.0352108
0.0351769
0.0351667
0.035167
0.0351447
0.0351262
0.0351115
0.0350486
0.0349472
0.03478
0.0346053
0.0344536
0.0343317
0.0342531
0.0341967
0.0341714
0.0341752
0.0342146
0.0342902
0.0343941
0.0345309
0.0347044
0.0349193
0.0351816
0.0354986
0.0358732
0.0363086
0.0368109
0.0373817
0.0380281
0.038749
0.0395476
0.0404285
0.0413955
0.0424486
0.0435818
0.0448054
0.046119
0.0475183
0.0490108
0.0505844
0.0522712
0.0540349
0.0559068
0.0578459
0.0599023
0.0620296
0.064273
0.066567
0.0689642
0.0714043
0.0739283
0.0764682
0.0790828
0.0817101
0.0843758
0.0870585
0.0897497
0.092444
0.0951273
0.097798
0.100451
0.103079
0.105684
0.108246
0.110767
0.113241
0.115634
0.117995
0.120282
0.122489
0.124653
0.12669
0.128698
0.130559
0.132403
0.134099
0.135791
0.137353
0.13893
0.140383
0.141849
0.14318
0.144481
0.145655
0.146816
0.147902
0.148984
0.149993
0.150997
0.151918
0.152831
0.153672
0.154501
0.155279
0.156019
0.156699
0.157343
0.157962
0.158556
0.159146
0.159728
0.160297
0.160856
0.161402
0.161945
0.162475
0.162987
0.163475
0.163949
0.164434
0.164929
0.165413
0.1659
0.16632
0.166595
0.1668
0.16684
0.166862
0.167611
0.167845
0.168152
0.16873
0.169239
0.169699
0.170147
0.170526
0.17087
0.17121
0.171554
0.171894
0.172233
0.172524
0.172802
0.173051
0.173301
0.173552
0.173804
0.174029
0.174252
0.17447
0.174689
0.174878
0.175061
0.175184
0.175299
0.175372
0.175447
0.175665
0.175773
0.175894
0.176049
0.176213
0.176391
0.176578
0.176766
0.176949
0.177134
0.177306
0.177477
0.177619
0.177742
0.177858
0.177941
0.177991
0.178032
0.178057
0.178072
0.178071
0.178063
0.178105
0.178132
0.178173
0.178238
0.178318
0.178415
0.178538
0.17867
0.178795
0.17891
0.179002
0.17907
0.179105
0.179108
0.179096
0.179063
0.179019
0.178988
0.178948
0.178927
0.178919
0.178947
0.178987
0.179036
0.179101
0.179179
0.179255
0.179314
0.179363
0.179374
0.179366
0.179342
0.179302
0.17925
0.179196
0.179149
0.179106
0.179091
0.179084
0.179095
0.179122
0.179161
0.179199
0.179238
0.179259
0.179273
0.179272
0.179206
0.179165
0.179117
0.179054
0.178995
0.178938
0.178896
0.178872
0.178857
0.178851
0.178857
0.178872
0.178897
0.178909
0.178922
0.178915
0.178854
0.178824
0.17877
0.178698
0.178632
0.178537
0.03521
0.0352023
0.0351663
0.0351695
0.0351685
0.0351724
0.0351884
0.0351734
0.035117
0.0350216
0.034877
0.0347262
0.0345634
0.0344137
0.0342904
0.0342099
0.0341654
0.0341488
0.0341673
0.0342198
0.0342996
0.0344106
0.0345576
0.0347468
0.0349854
0.0352747
0.0356234
0.0360292
0.0365022
0.0370416
0.0376553
0.0383481
0.0391206
0.0399763
0.0409237
0.041957
0.0430745
0.0442837
0.0455873
0.0469812
0.0484741
0.0500519
0.0517485
0.0535317
0.0554312
0.0574069
0.059504
0.0616846
0.0639937
0.0663679
0.0688564
0.0713986
0.0740365
0.0766991
0.0794477
0.0822272
0.0850466
0.0878953
0.0907608
0.0936368
0.0965089
0.0993728
0.102223
0.105051
0.107857
0.110619
0.11334
0.116009
0.118604
0.121165
0.123643
0.126041
0.128385
0.130594
0.132771
0.134792
0.136794
0.138638
0.140475
0.142179
0.143894
0.145481
0.147079
0.148531
0.149939
0.151216
0.152479
0.153663
0.154842
0.155944
0.157039
0.158046
0.159043
0.159965
0.160874
0.16173
0.162546
0.163294
0.164006
0.164694
0.165354
0.166012
0.166662
0.167299
0.167924
0.168537
0.169146
0.169742
0.170318
0.17087
0.171406
0.171953
0.172514
0.173064
0.173617
0.174091
0.17442
0.174671
0.174771
0.174816
0.175597
0.175939
0.176313
0.17694
0.177537
0.178068
0.178577
0.179013
0.179415
0.179809
0.180207
0.1806
0.18099
0.181331
0.181657
0.181952
0.182249
0.182546
0.182843
0.183113
0.18338
0.183643
0.183905
0.184136
0.184358
0.184519
0.184669
0.184779
0.184884
0.185135
0.185289
0.185447
0.18564
0.185846
0.186066
0.186295
0.186525
0.186751
0.186978
0.187189
0.1874
0.18758
0.187736
0.187885
0.187997
0.188076
0.188142
0.188193
0.188231
0.188253
0.188271
0.188339
0.188396
0.188463
0.188556
0.188663
0.188794
0.188941
0.1891
0.189254
0.189393
0.189507
0.189596
0.189647
0.189665
0.189666
0.189644
0.189613
0.189589
0.189567
0.189556
0.189567
0.189605
0.189657
0.189722
0.189802
0.189896
0.189985
0.190056
0.190115
0.190131
0.19013
0.190108
0.190069
0.190018
0.189968
0.189922
0.189882
0.189871
0.189868
0.189884
0.189917
0.189962
0.190005
0.190048
0.190072
0.190084
0.190082
0.190012
0.189965
0.189914
0.189846
0.189781
0.18972
0.189675
0.189649
0.189632
0.189624
0.189628
0.189642
0.189666
0.189675
0.189682
0.189672
0.1896
0.189559
0.189497
0.189415
0.189338
0.189231
0.0352188
0.0351802
0.0351592
0.0351617
0.0351947
0.0352293
0.0352394
0.0352153
0.035139
0.0350161
0.0348489
0.0346506
0.0344728
0.0343238
0.0341984
0.0341107
0.0340549
0.0340237
0.034026
0.0340601
0.0341218
0.0342144
0.0343441
0.0345167
0.034736
0.0350042
0.035332
0.0357153
0.0361668
0.0366866
0.0372816
0.0379583
0.0387147
0.0395546
0.0404913
0.0415143
0.0426258
0.0438303
0.0451357
0.0465356
0.0480422
0.0496358
0.0513634
0.053182
0.0551279
0.0571541
0.0593204
0.0615819
0.0639889
0.0664651
0.0690776
0.0717495
0.0745387
0.0773563
0.0802779
0.083245
0.0862469
0.0892911
0.0923599
0.0954435
0.0985279
0.101607
0.104672
0.107716
0.110737
0.113701
0.116631
0.119494
0.122284
0.125034
0.127686
0.130261
0.132766
0.135125
0.137447
0.139597
0.141725
0.143679
0.145626
0.147431
0.149243
0.150921
0.152614
0.15414
0.15561
0.156937
0.15825
0.159479
0.160704
0.161845
0.162979
0.164018
0.165047
0.165996
0.166932
0.167809
0.168646
0.169407
0.170136
0.170837
0.171511
0.172182
0.172846
0.173499
0.174138
0.174767
0.175389
0.176
0.17659
0.177157
0.177707
0.17827
0.178847
0.179417
0.179989
0.180469
0.180808
0.181061
0.181191
0.181227
0.181948
0.182375
0.182788
0.18341
0.184046
0.184615
0.185145
0.185601
0.186028
0.186442
0.186859
0.187271
0.187679
0.188038
0.188383
0.188696
0.189009
0.189322
0.189635
0.189922
0.190205
0.190483
0.190761
0.191007
0.191243
0.191417
0.191578
0.191705
0.191817
0.192067
0.192247
0.192419
0.192623
0.192845
0.193081
0.193327
0.193574
0.193816
0.194061
0.19429
0.194518
0.194713
0.194885
0.195047
0.195171
0.195261
0.195337
0.195397
0.195443
0.195474
0.195499
0.195576
0.195646
0.195725
0.19583
0.19595
0.196097
0.196258
0.196431
0.196599
0.196751
0.196875
0.196976
0.197034
0.197058
0.197067
0.19705
0.197024
0.197002
0.196986
0.196982
0.197002
0.197045
0.197104
0.197177
0.197266
0.197368
0.197466
0.197544
0.197609
0.197626
0.197629
0.197607
0.197568
0.197516
0.197466
0.197421
0.197381
0.197372
0.197372
0.19739
0.197426
0.197475
0.19752
0.197565
0.197591
0.197602
0.197598
0.197528
0.197474
0.19742
0.197348
0.197279
0.197213
0.197166
0.197137
0.197118
0.197108
0.197111
0.197124
0.197147
0.197155
0.197157
0.197144
0.197068
0.197018
0.196949
0.19686
0.196775
0.196657
0.0352232
0.0351622
0.0351563
0.0351831
0.0352419
0.0352676
0.0352618
0.0352025
0.0350891
0.0349279
0.0347283
0.0345327
0.0343521
0.0341965
0.0340681
0.0339727
0.0339072
0.0338667
0.0338577
0.0338788
0.0339276
0.034008
0.0341252
0.0342831
0.0344866
0.0347393
0.0350486
0.035417
0.0358529
0.0363582
0.0369395
0.0376052
0.0383506
0.0391798
0.0401133
0.0411342
0.0422488
0.0434596
0.0447815
0.0462025
0.0477413
0.0493638
0.0511544
0.0530373
0.0550674
0.0571774
0.0594601
0.0618499
0.064408
0.0670301
0.0698227
0.0726799
0.0756876
0.0787254
0.0818955
0.0851047
0.0883549
0.0916591
0.0949914
0.0983458
0.101696
0.105046
0.108376
0.111675
0.114946
0.118141
0.121306
0.124374
0.127371
0.13031
0.133127
0.135884
0.138541
0.14104
0.143496
0.14575
0.147985
0.150018
0.152046
0.153918
0.155797
0.15753
0.159285
0.160841
0.162333
0.163668
0.164995
0.166231
0.167466
0.168607
0.169744
0.170777
0.171803
0.172739
0.173664
0.174522
0.17534
0.176075
0.176784
0.177462
0.178115
0.178765
0.17941
0.180042
0.180661
0.181271
0.181873
0.182466
0.183035
0.183588
0.184121
0.184669
0.185231
0.185792
0.186351
0.1868
0.187119
0.187345
0.187482
0.187495
0.188108
0.188599
0.189042
0.189632
0.190272
0.190849
0.191372
0.191825
0.192256
0.192667
0.193081
0.19349
0.193893
0.194249
0.194593
0.194903
0.195214
0.195524
0.195834
0.196118
0.1964
0.196675
0.19695
0.197193
0.197423
0.197596
0.197751
0.19788
0.197987
0.198217
0.198408
0.198582
0.198782
0.199005
0.19924
0.199487
0.199736
0.19998
0.200229
0.200459
0.20069
0.200887
0.201061
0.201224
0.201347
0.201438
0.201514
0.201571
0.201614
0.201646
0.201667
0.201741
0.201813
0.201894
0.202
0.202124
0.202274
0.20244
0.202618
0.202792
0.202948
0.203075
0.203178
0.203237
0.203262
0.203271
0.203254
0.203227
0.203202
0.203185
0.203183
0.203204
0.203247
0.203307
0.203384
0.203476
0.203581
0.203681
0.203761
0.203829
0.203844
0.203847
0.203822
0.203782
0.203727
0.203674
0.203626
0.203585
0.203575
0.203574
0.203592
0.203627
0.203677
0.203723
0.203767
0.203792
0.203801
0.203795
0.203725
0.203663
0.203604
0.203528
0.203454
0.203383
0.203332
0.2033
0.203278
0.203265
0.203265
0.203276
0.203296
0.203302
0.203299
0.203284
0.203204
0.203145
0.203069
0.202975
0.202883
0.202754
0.0352566
0.0351648
0.0351899
0.0352354
0.0352763
0.0352858
0.0352407
0.0351375
0.0349871
0.0347987
0.0345921
0.0343949
0.0342123
0.0340537
0.0339231
0.0338234
0.033752
0.0337061
0.0336895
0.0337014
0.0337416
0.0338116
0.0339172
0.0340616
0.0342512
0.0344891
0.0347834
0.0351403
0.0355637
0.0360577
0.0366286
0.0372887
0.0380288
0.0388534
0.0397945
0.040825
0.0419537
0.0431876
0.0445464
0.0460137
0.0476183
0.0493054
0.0511787
0.0531664
0.0553338
0.0575855
0.0600543
0.0626452
0.0654382
0.0682915
0.0713604
0.0744943
0.077826
0.0811843
0.0847279
0.0882511
0.0918584
0.0955404
0.0992274
0.10296
0.106664
0.110372
0.114046
0.11767
0.121253
0.124725
0.128167
0.131464
0.134688
0.137823
0.140807
0.143749
0.146541
0.149163
0.151726
0.154041
0.156342
0.158404
0.160464
0.162345
0.16424
0.165959
0.167714
0.16923
0.170683
0.171973
0.173265
0.174455
0.175654
0.176744
0.177836
0.178813
0.179789
0.180663
0.181532
0.182324
0.183081
0.183751
0.184402
0.18502
0.185617
0.186214
0.186804
0.18738
0.187944
0.188502
0.189051
0.189592
0.19011
0.190616
0.191105
0.191611
0.192128
0.192652
0.193165
0.193549
0.193818
0.193989
0.194114
0.194087
0.19457
0.195097
0.195557
0.196098
0.196696
0.197254
0.19775
0.19818
0.198598
0.198986
0.199377
0.199762
0.200138
0.20047
0.200793
0.201084
0.201375
0.201664
0.201952
0.202217
0.202481
0.202735
0.202991
0.203213
0.203421
0.203576
0.203711
0.203829
0.203918
0.204112
0.204301
0.204466
0.20465
0.204859
0.205082
0.205316
0.205555
0.205788
0.206029
0.206249
0.20647
0.206658
0.206823
0.206976
0.207087
0.207168
0.207233
0.207279
0.207311
0.207335
0.207343
0.207403
0.207469
0.207544
0.207642
0.20776
0.207905
0.208067
0.208241
0.20841
0.208563
0.208684
0.208785
0.208836
0.208855
0.208859
0.208835
0.208801
0.208769
0.208745
0.208738
0.208752
0.20879
0.208848
0.208922
0.209013
0.209113
0.209211
0.209287
0.209353
0.209363
0.209362
0.209331
0.209285
0.209223
0.209164
0.209112
0.209066
0.209052
0.209047
0.20906
0.209092
0.209139
0.209182
0.209223
0.209245
0.209248
0.209238
0.209166
0.209095
0.209028
0.208947
0.208866
0.208789
0.208733
0.208695
0.208668
0.20865
0.208647
0.208653
0.208668
0.208671
0.208661
0.208644
0.208561
0.208491
0.208408
0.208308
0.208207
0.208067
0.0352992
0.0352218
0.0352471
0.0352824
0.0353014
0.0352719
0.0351818
0.0350452
0.034869
0.0346592
0.0344476
0.0342492
0.0340676
0.03391
0.0337801
0.033679
0.0336046
0.0335554
0.0335333
0.033537
0.0335689
0.0336288
0.0337223
0.0338548
0.0340319
0.0342569
0.034539
0.0348876
0.0353025
0.0357888
0.0363531
0.0370145
0.037759
0.0385858
0.0395502
0.0406115
0.0417715
0.0430505
0.0444736
0.0460218
0.0477303
0.04953
0.0515547
0.0537113
0.0560974
0.058585
0.0613452
0.0642486
0.0673973
0.0706216
0.0741326
0.0776694
0.0814786
0.0852814
0.089377
0.0933163
0.0974209
0.101659
0.105836
0.110057
0.114255
0.118436
0.122572
0.126615
0.130595
0.134405
0.138185
0.141742
0.145243
0.148594
0.151753
0.154883
0.157765
0.160485
0.163095
0.165403
0.167703
0.169719
0.171731
0.173544
0.175369
0.176986
0.17865
0.180028
0.181358
0.18252
0.183696
0.184755
0.18584
0.186794
0.187763
0.188604
0.189455
0.190192
0.190949
0.191609
0.192252
0.192804
0.193349
0.193856
0.194352
0.194852
0.195339
0.195815
0.196284
0.196754
0.197215
0.197669
0.198103
0.198533
0.198947
0.199383
0.199825
0.200281
0.200711
0.200989
0.201176
0.201268
0.201364
0.201278
0.201639
0.202139
0.202609
0.203077
0.203601
0.204111
0.204561
0.204951
0.205338
0.205681
0.206032
0.206368
0.206695
0.206984
0.20727
0.207522
0.20778
0.208028
0.208275
0.208504
0.208736
0.208953
0.209172
0.209356
0.209525
0.209649
0.209749
0.209842
0.209901
0.210049
0.210217
0.21036
0.210519
0.210701
0.210899
0.211108
0.211323
0.211535
0.211755
0.211952
0.212153
0.212318
0.212466
0.212596
0.212686
0.212749
0.212793
0.212816
0.212829
0.212836
0.212822
0.212857
0.21291
0.212971
0.213052
0.213155
0.213285
0.213435
0.213598
0.213752
0.213895
0.214001
0.214092
0.214128
0.214135
0.214126
0.21409
0.214043
0.213999
0.213959
0.213942
0.213944
0.213972
0.214021
0.214088
0.21417
0.21426
0.214349
0.214417
0.214473
0.214476
0.214464
0.214423
0.214368
0.214297
0.214228
0.214166
0.214113
0.214091
0.214077
0.214081
0.214106
0.214146
0.214183
0.214217
0.214231
0.214226
0.21421
0.214134
0.214052
0.213974
0.213885
0.213795
0.213709
0.213647
0.2136
0.213566
0.213542
0.213532
0.213531
0.21354
0.213537
0.213519
0.213496
0.213409
0.213328
0.213236
0.213129
0.213019
0.212865
0.0353758
0.0352916
0.035306
0.035321
0.0353038
0.0352302
0.0351079
0.0349474
0.0347391
0.0345178
0.0343053
0.0341073
0.0339294
0.0337759
0.0336482
0.0335467
0.0334704
0.0334189
0.033392
0.033387
0.0334106
0.0334608
0.0335436
0.0336654
0.0338323
0.0340469
0.0343194
0.0346639
0.0350754
0.0355598
0.0361219
0.0367957
0.0375646
0.038401
0.0394042
0.040525
0.0417595
0.0431002
0.044636
0.0463163
0.0481997
0.0501955
0.0524777
0.054916
0.0576339
0.0604919
0.0636943
0.0670408
0.0706852
0.0744318
0.078604
0.0826752
0.0871206
0.0915022
0.0962914
0.10082
0.105588
0.110474
0.115289
0.120104
0.124926
0.129666
0.134372
0.138903
0.143366
0.14758
0.151781
0.155636
0.159474
0.16303
0.166405
0.169726
0.172655
0.175513
0.178085
0.180378
0.182617
0.18455
0.186447
0.188139
0.189806
0.191266
0.19276
0.193904
0.195036
0.19596
0.196929
0.19774
0.198623
0.199332
0.200087
0.200688
0.201322
0.201822
0.202388
0.202822
0.203278
0.203635
0.203999
0.204323
0.204645
0.204988
0.205304
0.205631
0.20596
0.206297
0.206623
0.206946
0.207255
0.207569
0.20787
0.208203
0.208532
0.208883
0.209172
0.209309
0.209378
0.20937
0.209419
0.209264
0.209502
0.209916
0.210384
0.210762
0.211178
0.211601
0.211991
0.212319
0.212657
0.212933
0.213225
0.213489
0.213744
0.213974
0.214204
0.214401
0.214609
0.214796
0.214985
0.215162
0.215345
0.215509
0.215673
0.215801
0.215917
0.215994
0.216046
0.216098
0.216115
0.216208
0.216335
0.216446
0.216569
0.216711
0.216871
0.217042
0.217222
0.217398
0.217587
0.21775
0.217919
0.218049
0.218172
0.218266
0.218324
0.21836
0.218371
0.218365
0.218349
0.218329
0.218285
0.218289
0.218318
0.218355
0.218413
0.218494
0.2186
0.21873
0.218872
0.219002
0.219125
0.21921
0.219283
0.219295
0.219285
0.219256
0.219202
0.219136
0.219071
0.219011
0.218977
0.218965
0.218976
0.219009
0.219061
0.219129
0.219203
0.219276
0.219331
0.219372
0.219363
0.219335
0.21928
0.219211
0.219126
0.219042
0.218968
0.218903
0.218868
0.218842
0.218834
0.218847
0.218876
0.218902
0.218925
0.218929
0.21891
0.218885
0.218802
0.218706
0.218615
0.218516
0.218415
0.218318
0.218246
0.218189
0.218144
0.21811
0.218091
0.218082
0.21808
0.218069
0.21804
0.218011
0.217918
0.217823
0.217721
0.217605
0.217485
0.217315
0.0354396
0.0353648
0.0353575
0.0353418
0.0352842
0.035177
0.0350313
0.0348376
0.0346085
0.0343858
0.0341729
0.0339778
0.0338047
0.0336553
0.0335305
0.0334297
0.0333523
0.0332982
0.0332661
0.033253
0.033268
0.0333104
0.0333841
0.0334967
0.0336567
0.0338639
0.0341301
0.0344762
0.0348913
0.035385
0.0359524
0.0366456
0.0374669
0.0383412
0.0394116
0.0406159
0.041972
0.0434506
0.045178
0.047071
0.0492206
0.0515295
0.0541961
0.0570439
0.0602179
0.0636031
0.0674706
0.0713367
0.0756188
0.0799958
0.0849666
0.0897002
0.0948857
0.0999578
0.105522
0.110899
0.116376
0.121931
0.127453
0.132917
0.138387
0.143698
0.148985
0.153996
0.158929
0.163518
0.168089
0.172249
0.176401
0.180105
0.183758
0.187197
0.190201
0.193218
0.195721
0.198072
0.200231
0.202132
0.203924
0.205535
0.207055
0.20839
0.209707
0.210642
0.211557
0.212233
0.212973
0.213503
0.214144
0.21457
0.215048
0.215376
0.215718
0.215926
0.216215
0.216352
0.216513
0.216598
0.216702
0.216762
0.216839
0.216946
0.217026
0.217135
0.217265
0.217406
0.217537
0.217666
0.217797
0.217936
0.218075
0.21826
0.21843
0.218624
0.218708
0.218675
0.218586
0.218469
0.2184
0.21821
0.218305
0.218622
0.219018
0.219276
0.219564
0.219862
0.220158
0.22041
0.22067
0.220866
0.221076
0.221248
0.221412
0.221564
0.221714
0.22184
0.22198
0.222092
0.222202
0.222309
0.222427
0.222521
0.222615
0.222668
0.222716
0.22273
0.222721
0.222714
0.222682
0.222707
0.222778
0.222845
0.222919
0.223007
0.223116
0.223237
0.22337
0.2235
0.223645
0.223762
0.223886
0.223973
0.224057
0.224105
0.224121
0.224119
0.22409
0.224044
0.22399
0.223931
0.223852
0.223819
0.223813
0.223817
0.223843
0.223895
0.223971
0.22407
0.224181
0.224279
0.224373
0.22443
0.224476
0.224459
0.224422
0.224368
0.224291
0.224199
0.224107
0.224024
0.223967
0.223933
0.223919
0.22393
0.223962
0.22401
0.22406
0.224112
0.224147
0.224169
0.22414
0.224094
0.22402
0.223932
0.22383
0.223727
0.223636
0.223554
0.223502
0.22346
0.223436
0.223433
0.223446
0.223457
0.223465
0.223453
0.223418
0.223381
0.223286
0.223175
0.223067
0.222953
0.22284
0.22273
0.222644
0.222573
0.222516
0.22247
0.222439
0.222417
0.222403
0.222381
0.222339
0.2223
0.222199
0.222088
0.221973
0.221847
0.221715
0.221528
0.0354895
0.0354235
0.035396
0.0353457
0.0352551
0.0351189
0.0349494
0.0347233
0.0344904
0.0342665
0.0340554
0.0338649
0.0336965
0.0335511
0.0334289
0.0333295
0.0332515
0.0331934
0.0331549
0.0331365
0.0331444
0.0331801
0.0332464
0.0333519
0.0335091
0.0337144
0.0339771
0.0343354
0.0347606
0.0352729
0.0358694
0.0366148
0.0374981
0.0384521
0.0396507
0.0410003
0.0425436
0.0442453
0.0462575
0.0484704
0.0509899
0.0537568
0.0569753
0.0603147
0.0640519
0.0680474
0.0727511
0.0772345
0.0822353
0.0873135
0.0930186
0.0985265
0.104507
0.110306
0.116585
0.122878
0.128955
0.135072
0.141178
0.14722
0.15317
0.159012
0.164632
0.170096
0.175279
0.180224
0.184947
0.189416
0.193729
0.197585
0.201479
0.204962
0.208114
0.211184
0.2137
0.216157
0.2183
0.220202
0.222002
0.223556
0.225069
0.22635
0.227628
0.228389
0.229267
0.229764
0.230435
0.230744
0.231239
0.231447
0.231724
0.231842
0.231972
0.23195
0.232
0.231852
0.231754
0.231564
0.231414
0.231195
0.231006
0.230841
0.23064
0.230483
0.230352
0.230235
0.230115
0.229994
0.229893
0.229804
0.22974
0.229721
0.229675
0.229665
0.229474
0.22923
0.228964
0.228719
0.228494
0.228245
0.228183
0.228362
0.228605
0.22871
0.228838
0.228985
0.229158
0.229309
0.229475
0.22957
0.229679
0.229735
0.229785
0.229838
0.22989
0.229926
0.229978
0.229996
0.230012
0.230031
0.230066
0.230073
0.230079
0.230039
0.230001
0.229937
0.229854
0.229775
0.229684
0.229634
0.229627
0.229634
0.229648
0.229671
0.229717
0.229775
0.229847
0.229919
0.230008
0.230068
0.230135
0.230168
0.230203
0.230193
0.230156
0.230108
0.230027
0.229934
0.229834
0.229727
0.229606
0.229525
0.229476
0.22944
0.229426
0.229438
0.229477
0.229536
0.229605
0.229665
0.22972
0.229743
0.229754
0.2297
0.22963
0.229544
0.229437
0.229314
0.22919
0.229076
0.228992
0.228928
0.228884
0.228867
0.228872
0.228893
0.228915
0.22894
0.228949
0.228945
0.22889
0.228823
0.228725
0.228613
0.228489
0.228364
0.228251
0.228148
0.228075
0.228012
0.227968
0.227944
0.227936
0.227929
0.227916
0.227884
0.22783
0.227778
0.227666
0.227538
0.22741
0.227279
0.22715
0.227023
0.226922
0.226834
0.226761
0.2267
0.226654
0.226617
0.226586
0.22655
0.226492
0.226442
0.226328
0.226202
0.226071
0.225933
0.225787
0.225579
0.0355166
0.0354573
0.0354132
0.0353369
0.0352186
0.0350544
0.0348636
0.0346193
0.034387
0.0341627
0.0339557
0.0337701
0.0336063
0.0334648
0.0333451
0.0332462
0.0331664
0.0331043
0.0330615
0.0330393
0.0330414
0.0330721
0.0331333
0.0332344
0.0333943
0.0336073
0.0338673
0.0342494
0.0347043
0.0352596
0.0359067
0.0367448
0.0377473
0.0388286
0.040226
0.0417972
0.0436098
0.0456436
0.0480447
0.0506937
0.0536636
0.056964
0.0609198
0.0647716
0.0691766
0.0737956
0.0793039
0.0845107
0.0902657
0.0959447
0.102197
0.108452
0.115068
0.121543
0.128328
0.135296
0.14182
0.14845
0.154726
0.161171
0.167249
0.17341
0.17918
0.184903
0.190236
0.195361
0.200163
0.204767
0.209142
0.21316
0.217122
0.220697
0.224071
0.227111
0.229759
0.232281
0.234496
0.236553
0.238485
0.240044
0.241665
0.242989
0.244293
0.245062
0.246007
0.246553
0.247264
0.247568
0.24803
0.248206
0.24841
0.248461
0.248515
0.248396
0.248334
0.248021
0.247784
0.247425
0.247119
0.246709
0.246326
0.245959
0.245525
0.245139
0.244774
0.24442
0.24406
0.243709
0.243377
0.243072
0.242798
0.242568
0.242273
0.241998
0.241538
0.241035
0.240578
0.240175
0.239814
0.239412
0.239193
0.23915
0.23919
0.239123
0.239075
0.239049
0.239062
0.239091
0.239142
0.239116
0.239102
0.239013
0.238931
0.238862
0.238795
0.238722
0.238667
0.238566
0.238472
0.238388
0.238319
0.238217
0.238116
0.237969
0.237827
0.237669
0.2375
0.237339
0.237173
0.237033
0.236938
0.236869
0.23681
0.236759
0.236726
0.236709
0.236706
0.236711
0.236731
0.236722
0.236721
0.236688
0.236663
0.236582
0.236485
0.23638
0.236239
0.236089
0.235933
0.235772
0.235601
0.235464
0.235363
0.235279
0.235218
0.235182
0.235173
0.235182
0.235203
0.235215
0.235225
0.235204
0.235171
0.235075
0.234967
0.234843
0.234697
0.234537
0.234376
0.234227
0.23411
0.23401
0.23393
0.233877
0.23385
0.233836
0.233825
0.233816
0.233791
0.233757
0.233673
0.233579
0.233452
0.233311
0.233161
0.23301
0.232872
0.232743
0.232645
0.232557
0.232488
0.232439
0.232405
0.232374
0.232337
0.232281
0.232204
0.232132
0.232
0.231852
0.231701
0.231549
0.231402
0.231256
0.231135
0.231028
0.230935
0.230856
0.230793
0.230737
0.230686
0.230634
0.230557
0.230492
0.230362
0.230219
0.230071
0.229918
0.229757
0.229525
0.035529
0.0354671
0.0354117
0.0353157
0.0351716
0.0349932
0.034777
0.0345302
0.034298
0.0340769
0.0338746
0.0336936
0.0335342
0.0333963
0.0332785
0.0331793
0.0330975
0.033033
0.0329872
0.0329618
0.0329597
0.0329883
0.0330481
0.0331494
0.0333176
0.0335488
0.0338246
0.0342415
0.0347516
0.0353927
0.0361338
0.0371165
0.0382985
0.039579
0.0412569
0.0431239
0.0452698
0.0477545
0.0506821
0.0538008
0.0572896
0.0611246
0.0658496
0.0703181
0.07547
0.0806147
0.0866945
0.092569
0.0989576
0.105107
0.111637
0.118586
0.125491
0.132545
0.139336
0.146693
0.153492
0.160252
0.166507
0.172857
0.178989
0.18508
0.191017
0.196665
0.202172
0.207192
0.21216
0.216677
0.221169
0.225225
0.229127
0.232764
0.236228
0.239353
0.242251
0.244799
0.247021
0.249299
0.251372
0.253136
0.254964
0.256291
0.257628
0.258608
0.259716
0.260517
0.261378
0.2619
0.262474
0.262794
0.263104
0.263251
0.263391
0.263377
0.263379
0.263103
0.262902
0.262554
0.262274
0.261835
0.261425
0.260997
0.260476
0.259999
0.259501
0.25901
0.258506
0.25801
0.257528
0.257072
0.256652
0.256265
0.255746
0.255193
0.254496
0.253756
0.253136
0.252584
0.252121
0.251636
0.251235
0.250943
0.25073
0.25047
0.250236
0.250028
0.249871
0.249756
0.249675
0.24951
0.249356
0.249109
0.248879
0.248667
0.248458
0.248259
0.248073
0.247835
0.247611
0.247404
0.247211
0.246979
0.246753
0.246484
0.24622
0.245952
0.245688
0.245433
0.245177
0.244942
0.244745
0.244585
0.244438
0.2443
0.244178
0.244074
0.243985
0.24391
0.243847
0.243757
0.243676
0.243568
0.243468
0.243309
0.243144
0.242969
0.24276
0.242543
0.242325
0.242103
0.241873
0.241674
0.241512
0.24137
0.241253
0.241163
0.241098
0.241049
0.241011
0.240967
0.240924
0.24085
0.240766
0.240625
0.24047
0.2403
0.240109
0.239908
0.239706
0.239515
0.239358
0.239217
0.239095
0.239003
0.238935
0.238881
0.238829
0.238781
0.238718
0.238646
0.238528
0.238402
0.238242
0.238069
0.237889
0.237707
0.237539
0.237381
0.237252
0.237135
0.237038
0.236959
0.236895
0.236834
0.236769
0.236686
0.236581
0.236485
0.236329
0.236159
0.235983
0.235806
0.235637
0.23547
0.235326
0.235197
0.235082
0.234982
0.234897
0.234819
0.234746
0.234673
0.234575
0.234492
0.234344
0.234182
0.234013
0.233843
0.233665
0.233406
0.0355205
0.0354565
0.0353942
0.0352829
0.03512
0.0349357
0.0347
0.0344575
0.0342257
0.034009
0.0338115
0.0336352
0.0334801
0.0333453
0.0332289
0.0331292
0.0330461
0.0329805
0.0329322
0.0329045
0.0329012
0.0329326
0.0329975
0.0331031
0.0332934
0.0335489
0.0338664
0.0343648
0.0349658
0.0357337
0.0366219
0.0378132
0.039233
0.0408048
0.0428633
0.0450749
0.0475446
0.0505202
0.0541865
0.0577491
0.0618707
0.066161
0.0715089
0.0766358
0.0825004
0.0881361
0.0944825
0.100756
0.107479
0.114034
0.120817
0.127995
0.134848
0.142086
0.148767
0.156003
0.16275
0.169241
0.175631
0.181661
0.187885
0.193552
0.199583
0.204872
0.210457
0.215254
0.220318
0.22465
0.22923
0.233143
0.237101
0.240606
0.244024
0.247124
0.25017
0.252874
0.255321
0.257738
0.259635
0.261752
0.263875
0.265034
0.266404
0.267616
0.268976
0.270029
0.271097
0.271885
0.272662
0.273199
0.273721
0.274072
0.274431
0.274652
0.274859
0.274861
0.274889
0.274772
0.274722
0.274495
0.274305
0.274013
0.273663
0.273331
0.272892
0.272458
0.271997
0.271523
0.271057
0.270596
0.27016
0.269723
0.26909
0.26832
0.267464
0.266631
0.265929
0.265326
0.264841
0.264401
0.263914
0.263374
0.262916
0.262472
0.262057
0.261676
0.261358
0.261096
0.260882
0.260582
0.260295
0.259893
0.259514
0.259153
0.258801
0.258463
0.258135
0.257751
0.257387
0.257044
0.256712
0.256337
0.255971
0.255568
0.255174
0.254787
0.254416
0.254058
0.253706
0.253364
0.253056
0.252789
0.252542
0.252307
0.252085
0.251882
0.251696
0.251526
0.25137
0.251186
0.251016
0.250819
0.250635
0.250389
0.250145
0.249894
0.249611
0.249321
0.249031
0.248738
0.248445
0.248179
0.247946
0.247737
0.247556
0.247403
0.247272
0.247158
0.247053
0.246944
0.24684
0.246704
0.246564
0.246368
0.246163
0.245941
0.245701
0.245453
0.245205
0.244967
0.244763
0.244575
0.244408
0.244269
0.244156
0.244055
0.243957
0.243864
0.243754
0.24364
0.243484
0.243321
0.243123
0.242914
0.242699
0.242484
0.242282
0.242091
0.241927
0.241776
0.241646
0.241533
0.241434
0.24134
0.241243
0.241128
0.240992
0.240867
0.240685
0.24049
0.240285
0.240081
0.239888
0.239695
0.239526
0.239371
0.239231
0.239107
0.238997
0.238895
0.238796
0.238699
0.238576
0.238471
0.238305
0.23812
0.237929
0.23774
0.237543
0.237254
0.0354914
0.0354309
0.0353656
0.0352447
0.0350725
0.0348792
0.0346364
0.0344003
0.0341707
0.0339587
0.0337664
0.0335949
0.0334437
0.0333116
0.0331962
0.033096
0.0330128
0.0329469
0.0328975
0.0328691
0.0328701
0.0329104
0.0329839
0.0331012
0.033337
0.0336583
0.0340463
0.0346678
0.0354053
0.0363465
0.0374435
0.0389198
0.040605
0.0425459
0.0451129
0.0476798
0.050496
0.0539143
0.0583305
0.0624327
0.0672893
0.0720333
0.0777889
0.0834673
0.0897615
0.0957848
0.102223
0.108598
0.11521
0.121865
0.128792
0.13568
0.142534
0.149421
0.156244
0.162863
0.169458
0.175462
0.182007
0.187787
0.194035
0.199254
0.204989
0.209898
0.21542