/*--------------------------------*- C++ -*----------------------------------*\
| =========                 |                                                 |
| \\      /  F ield         | OpenFOAM: The Open Source CFD Toolbox           |
|  \\    /   O peration     | Version:  2312                                  |
|   \\  /    A nd           | Website:  www.openfoam.com                      |
|    \\/     M anipulation  |                                                 |
\*---------------------------------------------------------------------------*/
FoamFile
{
    version     2.0;
    format      ascii;
    arch        "LSB;label=32;scalar=64";
    class       volScalarField;
    location    "0.006";
    object      T;
}
// * * * * * * * * * * * * * * * * * * * * * * * * * * * * * * * * * * * * * //

dimensions      [0 0 0 1 0 0 0];

internalField   nonuniform List<scalar> 
48128
(
345.938
345.926
345.916
345.915
345.905
345.868
345.731
345.367
344.795
344.033
343.317
342.55
341.665
340.674
339.699
338.794
337.931
337.093
336.292
335.537
334.79
334.067
333.382
332.748
332.181
331.695
331.305
331.026
330.87
330.82
330.883
331.101
331.462
331.946
332.542
333.24
334.028
334.878
335.793
336.757
337.745
338.737
339.726
340.727
341.689
342.594
343.42
344.188
344.877
345.477
345.965
346.342
346.59
346.708
346.703
346.572
346.324
345.958
345.486
344.917
344.263
343.539
342.749
341.901
340.993
340.034
339.025
337.969
336.885
335.752
334.586
333.402
332.173
330.936
329.654
328.386
327.085
325.819
324.546
323.332
322.129
320.987
319.851
318.729
317.579
316.468
315.38
314.345
313.355
312.415
311.494
310.611
309.748
308.917
308.118
307.347
306.59
305.839
305.12
304.435
303.777
303.164
302.606
302.079
301.569
301.094
300.646
300.227
299.813
299.423
299.028
298.678
298.377
298.093
297.801
297.484
297.128
296.737
296.253
295.605
295.728
295.604
295.303
295.464
295.428
295.366
295.273
295.154
295.022
294.882
294.761
294.652
294.537
294.417
294.293
294.168
294.052
293.958
293.871
293.782
293.697
293.624
293.554
293.483
293.404
293.317
293.238
293.146
293.021
293.075
293.069
293.046
293.093
293.119
293.171
293.222
293.278
293.328
293.382
293.428
293.477
293.5
293.522
293.54
293.542
293.537
293.531
293.521
293.511
293.493
293.495
293.514
293.533
293.564
293.607
293.67
293.742
293.828
293.915
294.004
294.066
294.129
294.155
294.182
294.182
294.178
294.165
294.149
294.15
294.155
294.171
294.198
294.25
294.312
294.379
294.454
294.536
294.615
294.677
294.733
294.758
294.786
294.793
294.794
294.792
294.798
294.811
294.836
294.871
294.917
294.976
295.045
295.121
295.193
295.262
295.317
295.366
295.422
295.413
295.426
295.445
295.454
295.471
295.496
295.531
295.576
295.63
295.69
295.757
295.827
295.9
295.965
296.022
296.081
296.093
296.119
296.146
296.155
296.172
296.211
345.916
345.904
345.89
345.901
345.92
345.851
345.55
344.84
343.825
342.774
341.599
340.137
338.517
336.988
335.622
334.389
333.263
332.238
331.32
330.516
329.781
329.125
328.562
328.105
327.765
327.555
327.476
327.49
327.678
328.028
328.515
329.153
329.929
330.829
331.836
332.935
334.09
335.269
336.469
337.673
338.851
339.986
341.062
342.08
343.004
343.814
344.495
345.061
345.498
345.789
345.914
345.866
345.669
345.316
344.8
344.126
343.32
342.388
341.344
340.195
338.955
337.628
336.221
334.745
333.201
331.616
329.986
328.315
326.632
324.925
323.219
321.518
319.787
318.077
316.332
314.618
312.884
311.195
309.517
307.905
306.322
304.801
303.308
301.838
300.356
298.91
297.508
296.153
294.861
293.618
292.412
291.239
290.104
288.992
287.926
286.886
285.87
284.862
283.883
282.943
282.028
281.159
280.346
279.572
278.818
278.106
277.421
276.776
276.134
275.529
274.915
274.35
273.834
273.345
272.856
272.346
271.8
271.217
270.544
269.64
269.534
269.217
268.684
268.641
268.486
268.279
268.041
267.782
267.514
267.241
266.985
266.747
266.505
266.259
266.011
265.76
265.519
265.298
265.089
264.878
264.674
264.481
264.297
264.113
263.923
263.727
263.527
263.31
263.045
262.947
262.81
262.637
262.546
262.436
262.359
262.279
262.21
262.14
262.079
262.02
261.96
261.894
261.824
261.75
261.667
261.578
261.485
261.389
261.293
261.195
261.099
261.046
260.985
260.944
260.898
260.896
260.896
260.911
260.931
260.952
260.963
260.966
260.957
260.939
260.911
260.876
260.832
260.79
260.748
260.727
260.713
260.707
260.721
260.746
260.778
260.82
260.87
260.918
260.955
260.99
261.001
261.016
261.012
261.006
260.993
260.995
261
261.016
261.039
261.072
261.116
261.172
261.235
261.296
261.358
261.409
261.456
261.523
261.516
261.53
261.558
261.571
261.592
261.623
261.661
261.708
261.763
261.823
261.891
261.964
262.041
262.113
262.179
262.261
262.283
262.319
262.365
262.388
262.42
262.481
345.888
345.891
345.893
345.918
345.883
345.544
344.764
343.687
342.496
341.163
339.768
338.411
337.154
335.995
334.945
334.008
333.169
332.405
331.738
331.179
330.685
330.27
329.945
329.717
329.593
329.575
329.669
329.899
330.28
330.803
331.453
332.223
333.099
334.055
335.08
336.165
337.276
338.382
339.472
340.53
341.53
342.448
343.267
343.987
344.582
345.031
345.324
345.454
345.42
345.222
344.841
344.28
343.55
342.668
341.616
340.406
339.077
337.628
336.08
334.442
332.734
330.959
329.128
327.248
325.322
323.387
321.429
319.461
317.497
315.524
313.581
311.662
309.731
307.848
305.937
304.076
302.214
300.406
298.626
296.917
295.253
293.656
292.098
290.565
289.033
287.541
286.103
284.714
283.394
282.122
280.888
279.687
278.528
277.39
276.301
275.238
274.199
273.171
272.173
271.212
270.274
269.382
268.544
267.74
266.957
266.215
265.501
264.822
264.148
263.51
262.864
262.266
261.713
261.188
260.658
260.109
259.532
258.917
258.226
257.319
257.153
256.79
256.249
256.12
255.898
255.634
255.346
255.044
254.736
254.424
254.131
253.856
253.577
253.295
253.013
252.728
252.456
252.201
251.958
251.712
251.475
251.249
251.031
250.812
250.59
250.363
250.133
249.89
249.602
249.469
249.301
249.098
248.969
248.82
248.705
248.586
248.479
248.37
248.27
248.175
248.078
247.977
247.875
247.77
247.659
247.543
247.424
247.303
247.182
247.06
246.935
246.853
246.761
246.692
246.617
246.585
246.548
246.541
246.535
246.527
246.514
246.495
246.466
246.429
246.384
246.334
246.275
246.216
246.164
246.12
246.093
246.061
246.065
246.073
246.089
246.113
246.146
246.179
246.204
246.229
246.232
246.238
246.23
246.219
246.202
246.194
246.195
246.204
246.219
246.244
246.28
246.327
246.381
246.436
246.492
246.539
246.585
246.649
246.647
246.661
246.687
246.703
246.725
246.755
246.792
246.838
246.891
246.95
247.016
247.088
247.164
247.236
247.306
247.389
247.42
247.463
247.513
247.544
247.581
247.649
345.854
345.886
345.91
345.88
345.563
344.786
343.731
342.5
341.273
340.139
339.116
338.129
337.174
336.269
335.436
334.708
334.081
333.535
333.076
332.709
332.393
332.146
331.975
331.886
331.885
331.988
332.208
332.561
333.037
333.626
334.317
335.104
335.977
336.907
337.884
338.896
339.903
340.871
341.786
342.637
343.393
344.027
344.524
344.884
345.08
345.097
344.913
344.536
343.965
343.214
342.264
341.131
339.817
338.36
336.728
334.958
333.098
331.126
329.082
326.965
324.814
322.623
320.41
318.178
315.928
313.71
311.494
309.305
307.15
305.006
302.933
300.899
298.876
296.925
294.953
293.052
291.168
289.348
287.574
285.876
284.235
282.665
281.143
279.652
278.169
276.732
275.362
274.04
272.788
271.584
270.416
269.28
268.186
267.11
266.087
265.089
264.112
263.148
262.213
261.314
260.434
259.6
258.815
258.057
257.321
256.622
255.951
255.309
254.675
254.072
253.46
252.896
252.371
251.872
251.363
250.836
250.285
249.696
249.043
248.205
248.028
247.677
247.211
247.035
246.8
246.532
246.244
245.947
245.645
245.339
245.052
244.779
244.503
244.224
243.947
243.667
243.4
243.148
242.906
242.663
242.428
242.203
241.985
241.766
241.543
241.318
241.088
240.85
240.57
240.432
240.264
240.067
239.931
239.78
239.658
239.534
239.42
239.305
239.197
239.093
238.989
238.881
238.772
238.66
238.543
238.424
238.301
238.176
238.053
237.928
237.8
237.71
237.613
237.537
237.454
237.412
237.365
237.346
237.33
237.312
237.289
237.262
237.227
237.183
237.133
237.078
237.016
236.951
236.898
236.847
236.814
236.775
236.773
236.775
236.784
236.801
236.826
236.851
236.87
236.89
236.89
236.892
236.884
236.872
236.855
236.844
236.844
236.85
236.863
236.884
236.916
236.958
237.008
237.06
237.112
237.157
237.202
237.263
237.265
237.281
237.306
237.325
237.348
237.379
237.417
237.462
237.515
237.574
237.639
237.71
237.785
237.857
237.929
238.011
238.047
238.094
238.147
238.183
238.225
238.297
345.822
345.892
345.889
345.613
344.908
343.92
342.748
341.601
340.61
339.796
339.097
338.313
337.553
336.886
336.292
335.779
335.343
334.965
334.654
334.422
334.229
334.094
334.022
334.022
334.108
334.295
334.592
335.004
335.525
336.141
336.839
337.612
338.451
339.323
340.209
341.102
341.954
342.726
343.4
343.969
344.404
344.67
344.743
344.621
344.299
343.759
342.966
341.935
340.684
339.242
337.58
335.735
333.703
331.558
329.245
326.831
324.381
321.828
319.25
316.633
314.036
311.442
308.87
306.33
303.805
301.376
298.976
296.65
294.401
292.178
290.071
288.016
285.989
284.069
282.127
280.285
278.476
276.741
275.067
273.477
271.95
270.498
269.101
267.742
266.393
265.092
263.862
262.678
261.562
260.492
259.452
258.444
257.473
256.522
255.624
254.751
253.894
253.049
252.231
251.443
250.67
249.941
249.253
248.588
247.945
247.334
246.75
246.187
245.633
245.104
244.568
244.077
243.616
243.177
242.724
242.255
241.768
241.24
240.663
239.936
239.765
239.458
239.104
238.898
238.682
238.444
238.188
237.925
237.657
237.385
237.128
236.882
236.633
236.383
236.133
235.88
235.642
235.413
235.193
234.972
234.761
234.558
234.359
234.159
233.955
233.75
233.539
233.322
233.071
232.942
232.789
232.616
232.488
232.351
232.24
232.128
232.023
231.918
231.82
231.723
231.626
231.526
231.425
231.32
231.212
231.101
230.988
230.872
230.757
230.642
230.523
230.438
230.348
230.277
230.2
230.16
230.114
230.095
230.078
230.06
230.037
230.012
229.977
229.936
229.888
229.837
229.778
229.717
229.666
229.619
229.587
229.551
229.548
229.55
229.558
229.574
229.597
229.62
229.639
229.658
229.658
229.664
229.656
229.646
229.632
229.625
229.626
229.633
229.647
229.668
229.7
229.742
229.792
229.842
229.893
229.938
229.984
230.043
230.051
230.07
230.096
230.119
230.146
230.179
230.219
230.266
230.32
230.38
230.446
230.517
230.593
230.666
230.739
230.821
230.861
230.912
230.967
231.009
231.055
231.133
345.817
345.893
345.71
345.11
344.211
343.113
342.02
341.095
340.39
339.834
339.245
338.664
338.139
337.683
337.286
336.942
336.649
336.396
336.191
336.053
335.949
335.897
335.9
335.973
336.131
336.383
336.734
337.185
337.731
338.353
339.033
339.762
340.53
341.297
342.036
342.742
343.363
343.855
344.194
344.36
344.331
344.073
343.551
342.768
341.716
340.395
338.754
336.826
334.646
332.289
329.674
326.891
323.936
320.914
317.823
314.641
311.505
308.316
305.137
302.036
298.973
296.042
293.144
290.393
287.664
285.14
282.671
280.338
278.13
275.961
273.957
272.007
270.111
268.361
266.579
264.938
263.337
261.827
260.385
259.039
257.748
256.551
255.39
254.277
253.154
252.085
251.075
250.112
249.206
248.344
247.501
246.688
245.903
245.141
244.426
243.732
243.048
242.369
241.713
241.08
240.453
239.87
239.319
238.785
238.274
237.79
237.326
236.877
236.436
236.015
235.586
235.198
234.833
234.48
234.111
233.729
233.335
232.9
232.43
231.848
231.691
231.457
231.227
231.017
230.851
230.667
230.463
230.257
230.044
229.827
229.622
229.422
229.221
229.019
228.816
228.61
228.417
228.229
228.048
227.867
227.696
227.53
227.366
227.201
227.032
226.863
226.685
226.505
226.296
226.187
226.063
225.926
225.819
225.707
225.619
225.53
225.447
225.364
225.286
225.209
225.13
225.049
224.966
224.879
224.789
224.697
224.602
224.505
224.408
224.312
224.211
224.141
224.068
224.011
223.948
223.917
223.883
223.872
223.862
223.852
223.836
223.82
223.793
223.761
223.722
223.682
223.634
223.583
223.541
223.503
223.48
223.454
223.454
223.461
223.474
223.495
223.521
223.547
223.571
223.593
223.598
223.613
223.606
223.606
223.597
223.597
223.602
223.614
223.633
223.659
223.694
223.739
223.791
223.844
223.897
223.945
223.994
224.054
224.069
224.093
224.122
224.151
224.183
224.221
224.265
224.315
224.373
224.436
224.504
224.578
224.656
224.73
224.807
224.89
224.935
224.99
225.048
225.096
225.147
225.232
345.863
345.849
345.402
344.591
343.559
342.495
341.58
340.892
340.405
339.962
339.531
339.143
338.809
338.522
338.269
338.046
337.858
337.703
337.587
337.528
337.5
337.518
337.586
337.721
337.936
338.236
338.62
339.088
339.634
340.231
340.855
341.493
342.134
342.725
343.233
343.656
343.928
344.002
343.827
343.401
342.683
341.646
340.232
338.441
336.285
333.813
330.926
327.709
324.224
320.612
316.786
312.813
308.818
304.699
300.897
296.892
292.954
289.231
285.41
281.968
278.441
275.341
272.177
269.388
266.571
264.126
261.74
259.565
257.533
255.578
253.852
252.172
250.603
249.187
247.748
246.48
245.254
244.129
243.076
242.12
241.209
240.407
239.608
238.872
238.084
237.355
236.673
236.03
235.434
234.865
234.311
233.777
233.253
232.747
232.276
231.818
231.357
230.895
230.45
230.017
229.582
229.186
228.811
228.445
228.101
227.774
227.46
227.152
226.852
226.564
226.269
226.011
225.764
225.52
225.261
224.989
224.715
224.401
224.061
223.652
223.502
223.387
223.269
223.102
222.996
222.883
222.747
222.616
222.475
222.332
222.196
222.059
221.922
221.785
221.644
221.5
221.367
221.236
221.107
220.981
220.863
220.748
220.631
220.514
220.393
220.272
220.14
220.009
219.857
219.775
219.694
219.603
219.529
219.452
219.395
219.34
219.288
219.237
219.188
219.14
219.088
219.037
218.98
218.919
218.857
218.793
218.724
218.655
218.584
218.515
218.441
218.393
218.344
218.308
218.268
218.254
218.239
218.242
218.247
218.25
218.249
218.248
218.236
218.22
218.194
218.173
218.141
218.106
218.078
218.057
218.047
218.037
218.045
218.062
218.086
218.116
218.151
218.185
218.217
218.248
218.263
218.289
218.29
218.301
218.303
218.312
218.327
218.347
218.375
218.408
218.45
218.501
218.559
218.617
218.676
218.729
218.784
218.848
218.872
218.904
218.94
218.976
219.015
219.06
219.11
219.167
219.229
219.297
219.371
219.449
219.531
219.609
219.69
219.775
219.828
219.888
219.951
220.005
220.063
220.156
345.905
345.766
345.079
344.099
343.036
342.088
341.36
340.864
340.494
340.183
339.909
339.681
339.484
339.312
339.164
339.039
338.938
338.864
338.829
338.836
338.867
338.942
339.065
339.247
339.5
339.827
340.218
340.67
341.178
341.704
342.216
342.692
343.121
343.434
343.579
343.543
343.266
342.674
341.693
340.315
338.501
336.245
333.455
330.171
326.437
322.402
317.888
313.057
308.034
302.841
297.863
292.647
287.785
282.594
278.288
273.724
268.991
265.036
260.788
257.238
253.47
250.421
247.224
244.596
241.874
239.626
237.435
235.554
233.81
232.219
230.854
229.554
228.418
227.377
226.424
225.557
224.793
224.107
223.528
223.015
222.587
222.201
221.867
221.548
221.209
220.881
220.638
220.373
220.188
219.967
219.791
219.602
219.429
219.231
219.077
218.902
218.726
218.532
218.361
218.178
217.989
217.825
217.662
217.497
217.35
217.21
217.071
216.935
216.798
216.674
216.536
216.432
216.327
216.215
216.092
215.945
215.809
215.634
215.449
215.223
215.106
215.12
215.098
215.019
214.984
214.948
214.897
214.853
214.805
214.749
214.696
214.638
214.578
214.516
214.451
214.381
214.321
214.258
214.194
214.132
214.079
214.025
213.967
213.909
213.844
213.783
213.707
213.636
213.551
213.506
213.476
213.439
213.407
213.374
213.358
213.344
213.332
213.319
213.31
213.297
213.282
213.266
213.244
213.218
213.187
213.162
213.125
213.091
213.053
213.018
212.98
212.958
212.94
212.932
212.922
212.93
212.941
212.962
212.989
213.011
213.032
213.05
213.06
213.065
213.057
213.063
213.05
213.036
213.029
213.029
213.038
213.046
213.069
213.101
213.14
213.184
213.232
213.278
213.323
213.366
213.395
213.435
213.45
213.474
213.491
213.514
213.541
213.574
213.614
213.658
213.71
213.77
213.837
213.904
213.971
214.032
214.097
214.166
214.204
214.245
214.29
214.336
214.384
214.438
214.497
214.562
214.632
214.707
214.787
214.872
214.959
215.044
215.131
215.22
215.282
215.349
215.417
215.481
215.546
215.649
345.939
345.619
344.748
343.679
342.661
341.853
341.285
340.916
340.661
340.462
340.317
340.205
340.108
340.026
339.959
339.909
339.882
339.877
339.9
339.958
340.04
340.158
340.318
340.527
340.794
341.117
341.479
341.871
342.287
342.674
342.988
343.195
343.276
343.12
342.66
341.86
340.656
338.981
336.743
333.909
330.456
326.491
321.838
316.647
311.012
305.069
299.04
292.599
286.272
279.515
273.916
267.788
262.444
256.655
251.994
247.258
242.17
238.303
234.016
230.67
227.096
224.312
221.447
219.158
216.855
214.957
213.176
211.672
210.323
209.168
208.149
207.29
206.514
205.818
205.325
204.717
204.411
203.988
203.866
203.62
203.65
203.51
203.634
203.526
203.678
203.62
203.835
203.848
204.078
204.146
204.359
204.471
204.677
204.783
204.991
205.095
205.265
205.365
205.506
205.607
205.697
205.801
205.869
205.943
206.019
206.093
206.157
206.226
206.278
206.35
206.395
206.468
206.515
206.573
206.591
206.579
206.591
206.576
206.58
206.521
206.495
206.6
206.7
206.73
206.773
206.818
206.878
206.926
206.991
207.026
207.072
207.097
207.122
207.143
207.169
207.18
207.205
207.215
207.228
207.237
207.259
207.273
207.284
207.289
207.292
207.297
207.288
207.288
207.271
207.278
207.3
207.322
207.343
207.364
207.394
207.426
207.462
207.494
207.531
207.558
207.59
207.61
207.634
207.647
207.655
207.675
207.674
207.682
207.683
207.691
207.691
207.702
207.72
207.746
207.77
207.806
207.846
207.894
207.945
207.993
208.04
208.082
208.119
208.149
208.168
208.2
208.213
208.226
208.244
208.268
208.3
208.331
208.373
208.425
208.483
208.545
208.609
208.672
208.733
208.792
208.838
208.896
208.93
208.969
209.005
209.044
209.088
209.137
209.191
209.25
209.314
209.387
209.466
209.544
209.623
209.694
209.77
209.848
209.902
209.955
210.011
210.069
210.13
210.195
210.265
210.339
210.419
210.504
210.593
210.685
210.781
210.873
210.967
211.062
211.136
211.211
211.287
211.361
211.436
211.551
345.899
345.408
344.426
343.343
342.416
341.734
341.297
341.036
340.869
340.769
340.716
340.683
340.662
340.65
340.647
340.655
340.682
340.729
340.799
340.893
341.008
341.151
341.327
341.536
341.783
342.063
342.347
342.618
342.858
343.004
342.977
342.712
342.161
341.214
339.759
337.737
335.099
331.847
327.83
323.036
317.456
311.432
304.827
297.713
290.389
282.49
275.612
267.963
260.965
253.097
247.427
240.967
235.658
229.996
225.199
220.922
216.212
212.65
208.834
205.866
203.007
200.572
198.407
196.496
194.862
193.326
192.143
190.972
190.138
189.339
188.663
188.25
187.667
187.344
187.146
186.703
186.784
186.42
186.673
186.51
186.833
186.812
187.175
187.166
187.569
187.68
188.11
188.305
188.737
189.003
189.418
189.732
190.142
190.475
190.895
191.226
191.625
191.97
192.354
192.695
193.032
193.381
193.679
193.986
194.292
194.588
194.866
195.145
195.404
195.674
195.924
196.182
196.397
196.62
196.795
196.932
197.093
197.257
197.463
197.574
197.673
197.884
198.108
198.246
198.394
198.535
198.7
198.854
199.029
199.167
199.312
199.431
199.551
199.663
199.782
199.885
199.997
200.089
200.184
200.274
200.372
200.462
200.548
200.623
200.701
200.776
200.843
200.916
200.972
201.039
201.12
201.204
201.286
201.364
201.447
201.53
201.618
201.701
201.788
201.863
201.942
202.008
202.079
202.138
202.192
202.258
202.303
202.354
202.401
202.452
202.496
202.548
202.605
202.668
202.73
202.801
202.874
202.952
203.033
203.11
203.186
203.257
203.324
203.382
203.435
203.495
203.54
203.583
203.63
203.682
203.74
203.798
203.864
203.938
204.018
204.102
204.185
204.268
204.348
204.427
204.494
204.571
204.627
204.686
204.743
204.803
204.866
204.933
205.005
205.081
205.161
205.249
205.341
205.434
205.526
205.611
205.7
205.789
205.864
205.93
205.999
206.072
206.146
206.225
206.307
206.394
206.485
206.581
206.681
206.784
206.889
206.99
207.094
207.196
207.286
207.369
207.454
207.54
207.625
207.754
345.765
345.18
344.146
343.091
342.264
341.692
341.36
341.195
341.099
341.072
341.08
341.104
341.138
341.178
341.222
341.275
341.341
341.424
341.521
341.634
341.762
341.908
342.072
342.247
342.434
342.617
342.749
342.801
342.721
342.422
341.793
340.722
339.135
336.94
334
330.218
325.604
320.407
314.202
307.239
299.533
291.328
283.406
274.775
266.372
256.958
249.879
241.659
234.801
226.826
221.509
215.229
210.467
205.416
200.999
197.413
193.674
190.462
187.693
185.114
183.23
181.168
179.904
178.266
177.464
176.134
175.69
174.667
174.461
173.8
173.551
173.418
172.968
173.031
172.799
172.742
172.876
172.642
173.053
172.901
173.344
173.347
173.793
173.792
174.281
174.431
174.916
175.152
175.629
175.938
176.408
176.767
177.244
177.647
178.142
178.556
179.048
179.506
180.007
180.473
180.952
181.438
181.887
182.348
182.806
183.254
183.689
184.121
184.544
184.965
185.384
185.802
186.165
186.533
186.839
187.134
187.447
187.794
188.175
188.508
188.758
189.068
189.396
189.642
189.896
190.144
190.412
190.676
190.958
191.204
191.452
191.668
191.888
192.098
192.313
192.511
192.715
192.893
193.074
193.249
193.429
193.597
193.762
193.912
194.068
194.219
194.364
194.513
194.648
194.782
194.925
195.072
195.22
195.357
195.496
195.635
195.778
195.915
196.055
196.181
196.311
196.428
196.55
196.658
196.763
196.876
196.971
197.07
197.166
197.265
197.355
197.451
197.551
197.656
197.759
197.867
197.977
198.089
198.201
198.311
198.419
198.523
198.623
198.713
198.803
198.893
198.974
199.05
199.13
199.213
199.3
199.388
199.481
199.58
199.685
199.793
199.899
200.004
200.107
200.207
200.298
200.398
200.477
200.56
200.64
200.723
200.808
200.896
200.988
201.083
201.182
201.287
201.395
201.504
201.612
201.713
201.817
201.919
202.017
202.098
202.183
202.271
202.362
202.456
202.553
202.654
202.758
202.868
202.98
203.094
203.211
203.323
203.437
203.549
203.656
203.749
203.844
203.943
204.04
204.186
345.551
344.943
343.903
342.9
342.168
341.706
341.466
341.367
341.328
341.347
341.399
341.467
341.538
341.613
341.689
341.77
341.86
341.959
342.066
342.178
342.296
342.418
342.536
342.633
342.696
342.701
342.564
342.211
341.555
340.481
338.866
336.562
333.443
329.517
324.606
318.624
311.667
304.392
296.167
287.316
278.028
267.871
259.443
249.781
241.157
231.244
224.432
216.304
210.243
203.009
198.287
192.576
188.723
184.344
181.002
177.8
175.391
172.649
171.122
168.871
168.047
166.211
165.918
164.398
164.479
163.264
163.561
162.627
163.038
162.383
162.704
162.48
162.51
162.7
162.427
162.824
162.71
162.889
163.236
163.078
163.59
163.516
163.989
163.937
164.445
164.53
164.991
165.147
165.585
165.798
166.231
166.494
166.938
167.263
167.723
168.079
168.547
168.966
169.452
169.914
170.403
170.896
171.38
171.878
172.374
172.87
173.366
173.86
174.359
174.858
175.363
175.868
176.318
176.782
177.169
177.584
178.024
178.503
179.015
179.519
179.931
180.309
180.72
181.073
181.419
181.763
182.124
182.488
182.867
183.214
183.566
183.875
184.193
184.5
184.811
185.106
185.404
185.669
185.941
186.202
186.467
186.713
186.959
187.188
187.42
187.651
187.874
188.099
188.314
188.516
188.724
188.936
189.149
189.348
189.547
189.743
189.942
190.135
190.33
190.51
190.693
190.863
191.039
191.197
191.356
191.519
191.666
191.816
191.962
192.111
192.251
192.393
192.538
192.687
192.833
192.982
193.131
193.278
193.425
193.57
193.712
193.851
193.988
194.112
194.239
194.364
194.484
194.595
194.709
194.826
194.945
195.065
195.187
195.315
195.447
195.581
195.712
195.84
195.967
196.092
196.209
196.334
196.438
196.547
196.653
196.761
196.87
196.982
197.095
197.213
197.332
197.455
197.582
197.709
197.835
197.953
198.074
198.192
198.313
198.411
198.514
198.62
198.728
198.84
198.953
199.069
199.189
199.313
199.439
199.567
199.696
199.821
199.947
200.07
200.195
200.299
200.407
200.519
200.63
200.794
345.293
344.687
343.673
342.746
342.108
341.749
341.593
341.538
341.537
341.591
341.676
341.771
341.865
341.958
342.05
342.143
342.238
342.336
342.433
342.524
342.603
342.666
342.692
342.646
342.491
342.158
341.527
340.482
338.887
336.621
333.572
329.559
324.404
318.367
311.254
303.111
293.936
284.413
275.054
264.821
254.692
243.236
234.787
224.785
216.766
207.401
201.109
193.571
188.546
182.416
178.405
173.628
170.831
167.084
165.129
162.092
161.211
158.855
158.552
156.6
156.699
155.109
155.576
154.308
155.05
154.065
154.916
154.191
155.049
154.502
155.279
154.879
155.56
155.518
155.743
156.207
155.973
156.564
156.712
156.764
157.332
157.129
157.664
157.579
158.103
158.098
158.541
158.587
158.982
159.058
159.424
159.534
159.898
160.055
160.417
160.61
160.967
161.225
161.591
161.909
162.281
162.653
163.035
163.437
163.84
164.263
164.697
165.145
165.608
166.083
166.572
167.063
167.512
167.991
168.388
168.843
169.338
169.873
170.443
171.017
171.517
171.927
172.382
172.81
173.226
173.642
174.074
174.512
174.964
175.39
175.824
176.215
176.616
177.006
177.401
177.782
178.167
178.515
178.87
179.212
179.557
179.876
180.198
180.503
180.809
181.116
181.413
181.713
182.004
182.275
182.547
182.822
183.099
183.361
183.62
183.873
184.129
184.378
184.63
184.863
185.101
185.325
185.554
185.765
185.977
186.192
186.391
186.595
186.791
186.991
187.182
187.372
187.563
187.758
187.947
188.138
188.329
188.512
188.695
188.876
189.055
189.23
189.404
189.565
189.732
189.892
190.051
190.201
190.352
190.504
190.657
190.81
190.963
191.121
191.281
191.443
191.6
191.754
191.907
192.058
192.202
192.353
192.486
192.621
192.755
192.89
193.025
193.161
193.299
193.439
193.58
193.724
193.871
194.017
194.162
194.299
194.439
194.576
194.718
194.838
194.96
195.085
195.212
195.342
195.472
195.606
195.742
195.882
196.024
196.166
196.309
196.447
196.587
196.724
196.866
196.983
197.106
197.232
197.357
197.541
345.027
344.415
343.447
342.615
342.088
341.816
341.722
341.694
341.724
341.806
341.91
342.017
342.12
342.218
342.31
342.398
342.481
342.559
342.624
342.667
342.675
342.628
342.491
342.185
341.63
340.701
339.247
337.137
334.17
330.256
325.364
319.233
311.726
303.405
294.516
284.597
273.68
261.925
252.257
241.115
231
219.282
211.069
201.322
194.332
186.095
180.627
174.131
170.03
165.171
161.918
158.458
156.438
153.556
152.672
149.966
150.276
148.272
148.921
147.332
148.113
146.875
147.911
146.923
148.191
147.482
148.806
148.291
149.531
149.118
150.239
149.877
150.924
150.661
151.518
151.715
151.892
152.646
152.478
153.028
153.535
153.262
153.887
153.829
154.369
154.318
154.806
154.8
155.206
155.203
155.549
155.566
155.889
155.924
156.225
156.276
156.557
156.661
156.92
157.064
157.301
157.493
157.717
157.959
158.182
158.437
158.698
158.983
159.29
159.616
159.96
160.305
160.636
160.984
161.277
161.648
162.081
162.559
163.078
163.624
164.121
164.497
164.915
165.341
165.77
166.206
166.659
167.122
167.601
168.064
168.539
168.979
169.427
169.868
170.316
170.753
171.194
171.603
172.017
172.418
172.823
173.202
173.584
173.952
174.319
174.69
175.055
175.423
175.781
176.119
176.45
176.784
177.119
177.443
177.759
178.068
178.378
178.681
178.987
179.273
179.565
179.841
180.123
180.384
180.649
180.914
181.165
181.422
181.669
181.918
182.16
182.399
182.635
182.876
183.109
183.342
183.574
183.794
184.015
184.232
184.449
184.66
184.872
185.072
185.278
185.474
185.674
185.862
186.051
186.24
186.427
186.614
186.8
186.988
187.179
187.368
187.552
187.734
187.914
188.092
188.264
188.443
188.604
188.768
188.932
189.094
189.257
189.418
189.58
189.745
189.91
190.076
190.242
190.408
190.574
190.732
190.891
191.049
191.213
191.355
191.497
191.643
191.79
191.94
192.089
192.241
192.394
192.551
192.71
192.866
193.024
193.178
193.332
193.484
193.643
193.776
193.913
194.055
194.196
194.402
344.784
344.136
343.231
342.504
342.094
341.896
341.841
341.836
341.891
341.99
342.101
342.209
342.308
342.397
342.475
342.541
342.593
342.63
342.638
342.6
342.485
342.248
341.804
341.03
339.803
337.926
335.248
331.66
326.917
320.947
313.928
305.705
295.977
285.267
275.286
263.963
251.995
238.633
228.921
217.335
207.866
196.81
189.234
180.392
174.645
167.891
163.405
158.297
154.86
151.357
148.69
146.675
144.825
143.4
142.736
140.971
141.821
140.213
141.389
140.289
141.659
140.727
142.287
141.596
143.311
142.769
144.501
144.093
145.694
145.317
146.77
146.452
147.775
147.505
148.699
148.544
149.402
150.113
149.957
150.68
151.13
150.962
151.695
151.653
152.23
152.191
152.752
152.744
153.199
153.175
153.551
153.543
153.867
153.853
154.142
154.139
154.409
154.445
154.667
154.722
154.911
154.983
155.131
155.281
155.376
155.516
155.637
155.784
155.945
156.115
156.298
156.459
156.611
156.735
156.837
157.044
157.312
157.619
157.962
158.328
158.705
158.939
159.219
159.528
159.858
160.21
160.587
160.978
161.398
161.808
162.243
162.663
163.092
163.519
163.957
164.391
164.831
165.253
165.678
166.096
166.52
166.924
167.333
167.733
168.135
168.545
168.958
169.374
169.779
170.17
170.55
170.929
171.308
171.683
172.049
172.407
172.764
173.114
173.467
173.801
174.141
174.464
174.793
175.1
175.413
175.726
176.027
176.331
176.626
176.924
177.213
177.5
177.78
178.064
178.339
178.615
178.885
179.141
179.4
179.652
179.905
180.153
180.402
180.641
180.886
181.119
181.357
181.585
181.812
182.037
182.259
182.481
182.699
182.918
183.138
183.355
183.567
183.776
183.983
184.189
184.391
184.597
184.788
184.981
185.175
185.365
185.555
185.744
185.931
186.121
186.31
186.498
186.685
186.872
187.059
187.238
187.418
187.597
187.782
187.949
188.113
188.28
188.448
188.618
188.787
188.957
189.129
189.304
189.48
189.652
189.825
189.995
190.164
190.333
190.509
190.658
190.812
190.97
191.127
191.355
344.563
343.872
343.038
342.424
342.111
341.978
341.949
341.968
342.04
342.145
342.253
342.351
342.436
342.502
342.548
342.576
342.579
342.55
342.468
342.294
341.96
341.376
340.399
338.857
336.605
333.371
329.082
323.677
316.892
308.633
299.256
289.611
278.071
264.901
254.19
241.726
229.547
215.665
205.954
194.547
186.229
176.643
170.228
162.941
158.38
153.13
149.477
145.621
142.779
140.319
138.62
137.512
135.97
136.295
135.034
135.638
135.599
134.809
136.449
135.455
137.442
136.6
138.672
137.972
140.074
139.567
141.614
141.213
143.115
142.751
144.485
144.15
145.705
145.429
146.835
146.671
147.828
148.255
148.468
149.294
149.486
149.705
150.504
150.435
151.114
151.106
151.727
151.711
152.235
152.208