/*--------------------------------*- C++ -*----------------------------------*\
| =========                 |                                                 |
| \\      /  F ield         | OpenFOAM: The Open Source CFD Toolbox           |
|  \\    /   O peration     | Version:  2312                                  |
|   \\  /    A nd           | Website:  www.openfoam.com                      |
|    \\/     M anipulation  |                                                 |
\*---------------------------------------------------------------------------*/
FoamFile
{
    version     2.0;
    format      ascii;
    arch        "LSB;label=32;scalar=64";
    class       volScalarField;
    location    "0.006";
    object      thermo:psiLiqEff;
}
// * * * * * * * * * * * * * * * * * * * * * * * * * * * * * * * * * * * * * //

dimensions      [-2 4 2 0 0 0 0];

internalField   nonuniform List<scalar> 
48128
(
4.16921e-13
4.16934e-13
4.16946e-13
4.16947e-13
4.1696e-13
4.17004e-13
4.1717e-13
4.17609e-13
4.18303e-13
4.19229e-13
4.20103e-13
4.21044e-13
4.22135e-13
4.23363e-13
4.24578e-13
4.25712e-13
4.268e-13
4.27861e-13
4.2888e-13
4.29845e-13
4.30804e-13
4.31737e-13
4.32624e-13
4.33448e-13
4.34189e-13
4.34824e-13
4.35336e-13
4.35703e-13
4.35909e-13
4.35974e-13
4.35892e-13
4.35604e-13
4.3513e-13
4.34495e-13
4.33717e-13
4.32808e-13
4.31787e-13
4.30691e-13
4.29517e-13
4.28287e-13
4.27034e-13
4.25783e-13
4.24544e-13
4.23296e-13
4.22104e-13
4.20989e-13
4.19977e-13
4.19039e-13
4.18201e-13
4.17476e-13
4.16886e-13
4.16432e-13
4.16135e-13
4.15993e-13
4.15999e-13
4.16156e-13
4.16454e-13
4.16895e-13
4.17463e-13
4.18152e-13
4.18946e-13
4.1983e-13
4.20797e-13
4.21841e-13
4.22964e-13
4.24157e-13
4.25419e-13
4.26749e-13
4.28122e-13
4.29567e-13
4.31064e-13
4.32594e-13
4.34196e-13
4.35819e-13
4.37514e-13
4.39203e-13
4.4095e-13
4.42664e-13
4.444e-13
4.46068e-13
4.47734e-13
4.49328e-13
4.50924e-13
4.5251e-13
4.5415e-13
4.55744e-13
4.57317e-13
4.58822e-13
4.60271e-13
4.61657e-13
4.63022e-13
4.64338e-13
4.65632e-13
4.66884e-13
4.68096e-13
4.6927e-13
4.70429e-13
4.71584e-13
4.72695e-13
4.7376e-13
4.74786e-13
4.75745e-13
4.76623e-13
4.77455e-13
4.78262e-13
4.79016e-13
4.7973e-13
4.804e-13
4.81063e-13
4.8169e-13
4.82327e-13
4.82892e-13
4.83379e-13
4.83839e-13
4.84313e-13
4.8483e-13
4.8541e-13
4.86049e-13
4.86845e-13
4.87912e-13
4.87709e-13
4.87914e-13
4.88411e-13
4.88144e-13
4.88203e-13
4.88307e-13
4.88461e-13
4.88657e-13
4.88876e-13
4.89108e-13
4.89309e-13
4.8949e-13
4.89681e-13
4.89881e-13
4.90087e-13
4.90296e-13
4.90488e-13
4.90646e-13
4.9079e-13
4.90939e-13
4.91082e-13
4.91204e-13
4.9132e-13
4.9144e-13
4.91572e-13
4.91717e-13
4.9185e-13
4.92005e-13
4.92215e-13
4.92124e-13
4.92134e-13
4.92172e-13
4.92094e-13
4.92049e-13
4.91963e-13
4.91877e-13
4.91784e-13
4.91699e-13
4.9161e-13
4.91532e-13
4.9145e-13
4.91411e-13
4.91375e-13
4.91345e-13
4.91341e-13
4.91349e-13
4.9136e-13
4.91377e-13
4.91392e-13
4.91423e-13
4.91419e-13
4.91388e-13
4.91357e-13
4.91304e-13
4.91233e-13
4.91126e-13
4.91007e-13
4.90863e-13
4.90717e-13
4.90569e-13
4.90465e-13
4.9036e-13
4.90317e-13
4.90272e-13
4.90272e-13
4.90279e-13
4.903e-13
4.90326e-13
4.90325e-13
4.90317e-13
4.9029e-13
4.90245e-13
4.90158e-13
4.90056e-13
4.89944e-13
4.89818e-13
4.89682e-13
4.89551e-13
4.89449e-13
4.89354e-13
4.89313e-13
4.89267e-13
4.89255e-13
4.89254e-13
4.89257e-13
4.89248e-13
4.89225e-13
4.89185e-13
4.89126e-13
4.8905e-13
4.88952e-13
4.88837e-13
4.88712e-13
4.88592e-13
4.88479e-13
4.88387e-13
4.88307e-13
4.88214e-13
4.88228e-13
4.88208e-13
4.88177e-13
4.88161e-13
4.88132e-13
4.88091e-13
4.88034e-13
4.87959e-13
4.8787e-13
4.87771e-13
4.87661e-13
4.87545e-13
4.87425e-13
4.87318e-13
4.87224e-13
4.87127e-13
4.87107e-13
4.87064e-13
4.8702e-13
4.87006e-13
4.86978e-13
4.86913e-13
4.16947e-13
4.16962e-13
4.16978e-13
4.16964e-13
4.16941e-13
4.17025e-13
4.17389e-13
4.18248e-13
4.19483e-13
4.20768e-13
4.22216e-13
4.24031e-13
4.26061e-13
4.27993e-13
4.29736e-13
4.31321e-13
4.32778e-13
4.34114e-13
4.35316e-13
4.36375e-13
4.37348e-13
4.3822e-13
4.3897e-13
4.39583e-13
4.40038e-13
4.4032e-13
4.40427e-13
4.40407e-13
4.40156e-13
4.39685e-13
4.39033e-13
4.38182e-13
4.37152e-13
4.35962e-13
4.34639e-13
4.33205e-13
4.31707e-13
4.30189e-13
4.28653e-13
4.27126e-13
4.2564e-13
4.24219e-13
4.2288e-13
4.21621e-13
4.20486e-13
4.19496e-13
4.18665e-13
4.17978e-13
4.1745e-13
4.17099e-13
4.16947e-13
4.17005e-13
4.17244e-13
4.1767e-13
4.18294e-13
4.19114e-13
4.20098e-13
4.21241e-13
4.2253e-13
4.23957e-13
4.25507e-13
4.27181e-13
4.28968e-13
4.3086e-13
4.32856e-13
4.34925e-13
4.37073e-13
4.39299e-13
4.41562e-13
4.43882e-13
4.46225e-13
4.48586e-13
4.51014e-13
4.53438e-13
4.5594e-13
4.58424e-13
4.60965e-13
4.63467e-13
4.65979e-13
4.6842e-13
4.70841e-13
4.73191e-13
4.7552e-13
4.77836e-13
4.80194e-13
4.82516e-13
4.84791e-13
4.8701e-13
4.89143e-13
4.91214e-13
4.93239e-13
4.95228e-13
4.97164e-13
4.99077e-13
5.00926e-13
5.02742e-13
5.04529e-13
5.06314e-13
5.0806e-13
5.09748e-13
5.11402e-13
5.12983e-13
5.14471e-13
5.15895e-13
5.17291e-13
5.18615e-13
5.19896e-13
5.21108e-13
5.22319e-13
5.23467e-13
5.24635e-13
5.25716e-13
5.26707e-13
5.27648e-13
5.28595e-13
5.29584e-13
5.30649e-13
5.3179e-13
5.33112e-13
5.34899e-13
5.35111e-13
5.35739e-13
5.36803e-13
5.36889e-13
5.37199e-13
5.37614e-13
5.38091e-13
5.38611e-13
5.39151e-13
5.39703e-13
5.40219e-13
5.40701e-13
5.41192e-13
5.41692e-13
5.42198e-13
5.4271e-13
5.43203e-13
5.43655e-13
5.44084e-13
5.44517e-13
5.44937e-13
5.45334e-13
5.45713e-13
5.46094e-13
5.46486e-13
5.46894e-13
5.47309e-13
5.47759e-13
5.48311e-13
5.48515e-13
5.48802e-13
5.49164e-13
5.49353e-13
5.49585e-13
5.49745e-13
5.49914e-13
5.50057e-13
5.50204e-13
5.50332e-13
5.50456e-13
5.50583e-13
5.50721e-13
5.50868e-13
5.51025e-13
5.51199e-13
5.51387e-13
5.51583e-13
5.51786e-13
5.51988e-13
5.52196e-13
5.52399e-13
5.52511e-13
5.5264e-13
5.52727e-13
5.52824e-13
5.52829e-13
5.52829e-13
5.52797e-13
5.52754e-13
5.5271e-13
5.52687e-13
5.5268e-13
5.52698e-13
5.52737e-13
5.52796e-13
5.52872e-13
5.52963e-13
5.53053e-13
5.53143e-13
5.53186e-13
5.53217e-13
5.53229e-13
5.532e-13
5.53147e-13
5.53079e-13
5.52989e-13
5.52884e-13
5.52783e-13
5.52704e-13
5.52629e-13
5.52607e-13
5.52574e-13
5.52583e-13
5.52596e-13
5.52623e-13
5.52619e-13
5.52607e-13
5.52574e-13
5.52525e-13
5.52455e-13
5.52362e-13
5.52245e-13
5.52112e-13
5.51982e-13
5.51852e-13
5.51744e-13
5.51644e-13
5.51503e-13
5.51518e-13
5.51488e-13
5.5143e-13
5.51402e-13
5.51357e-13
5.51292e-13
5.51211e-13
5.51113e-13
5.50997e-13
5.5087e-13
5.50728e-13
5.50575e-13
5.50412e-13
5.50262e-13
5.50124e-13
5.4995e-13
5.49905e-13
5.4983e-13
5.49733e-13
5.49684e-13
5.49618e-13
5.4949e-13
4.16981e-13
4.16977e-13
4.16974e-13
4.16944e-13
4.16986e-13
4.17395e-13
4.1834e-13
4.19651e-13
4.21111e-13
4.22756e-13
4.24492e-13
4.26195e-13
4.27783e-13
4.29259e-13
4.30604e-13
4.31813e-13
4.329e-13
4.33895e-13
4.34768e-13
4.35502e-13
4.36152e-13
4.367e-13
4.37131e-13
4.37433e-13
4.37597e-13
4.37622e-13
4.37496e-13
4.37191e-13
4.36688e-13
4.35996e-13
4.35142e-13
4.34133e-13
4.32991e-13
4.31752e-13
4.30431e-13
4.29042e-13
4.27629e-13
4.26231e-13
4.24862e-13
4.23541e-13
4.22302e-13
4.21169e-13
4.20163e-13
4.19284e-13
4.1856e-13
4.18015e-13
4.17661e-13
4.17503e-13
4.17544e-13
4.17784e-13
4.18245e-13
4.18926e-13
4.19817e-13
4.20897e-13
4.22194e-13
4.23694e-13
4.25355e-13
4.27181e-13
4.29148e-13
4.31251e-13
4.33465e-13
4.35789e-13
4.38213e-13
4.4073e-13
4.43341e-13
4.45994e-13
4.4871e-13
4.51475e-13
4.54268e-13
4.57108e-13
4.5994e-13
4.62773e-13
4.65658e-13
4.68507e-13
4.71433e-13
4.74318e-13
4.77241e-13
4.80114e-13
4.82975e-13
4.85756e-13
4.88494e-13
4.91151e-13
4.93771e-13
4.96375e-13
4.99007e-13
5.01597e-13
5.04117e-13
5.06578e-13
5.08937e-13
5.11233e-13
5.13477e-13
5.15684e-13
5.17829e-13
5.19954e-13
5.22004e-13
5.24019e-13
5.26006e-13
5.27985e-13
5.29921e-13
5.31798e-13
5.33644e-13
5.35412e-13
5.37083e-13
5.38695e-13
5.40275e-13
5.41782e-13
5.4324e-13
5.44633e-13
5.46021e-13
5.47345e-13
5.4869e-13
5.4994e-13
5.51103e-13
5.52211e-13
5.53334e-13
5.54501e-13
5.55735e-13
5.57055e-13
5.58546e-13
5.60515e-13
5.60876e-13
5.6167e-13
5.62855e-13
5.63139e-13
5.63627e-13
5.64208e-13
5.64845e-13
5.65514e-13
5.66198e-13
5.66892e-13
5.67545e-13
5.68162e-13
5.68786e-13
5.69421e-13
5.70055e-13
5.70697e-13
5.71313e-13
5.71891e-13
5.72443e-13
5.73001e-13
5.73541e-13
5.74058e-13
5.74557e-13
5.75057e-13
5.75567e-13
5.76089e-13
5.76618e-13
5.77178e-13
5.77846e-13
5.78153e-13
5.78544e-13
5.79015e-13
5.79315e-13
5.79661e-13
5.7993e-13
5.80206e-13
5.80457e-13
5.80711e-13
5.80945e-13
5.81169e-13
5.81396e-13
5.81632e-13
5.81871e-13
5.82119e-13
5.82379e-13
5.82652e-13
5.82932e-13
5.83218e-13
5.83502e-13
5.83791e-13
5.84087e-13
5.84282e-13
5.84499e-13
5.84661e-13
5.8484e-13
5.84915e-13
5.85003e-13
5.85021e-13
5.85035e-13
5.85054e-13
5.85085e-13
5.85131e-13
5.85198e-13
5.85286e-13
5.85392e-13
5.85513e-13
5.85652e-13
5.85794e-13
5.85916e-13
5.86022e-13
5.86086e-13
5.86161e-13
5.86152e-13
5.86132e-13
5.86096e-13
5.86037e-13
5.8596e-13
5.85881e-13
5.85821e-13
5.85763e-13
5.85754e-13
5.85741e-13
5.85759e-13
5.85785e-13
5.85825e-13
5.85845e-13
5.85842e-13
5.85822e-13
5.85785e-13
5.85726e-13
5.8564e-13
5.85529e-13
5.854e-13
5.8527e-13
5.85137e-13
5.85025e-13
5.84917e-13
5.84765e-13
5.84769e-13
5.84735e-13
5.84674e-13
5.84637e-13
5.84585e-13
5.84514e-13
5.84425e-13
5.84318e-13
5.84191e-13
5.84052e-13
5.83896e-13
5.83726e-13
5.83546e-13
5.83375e-13
5.83211e-13
5.83015e-13
5.82942e-13
5.82841e-13
5.82722e-13
5.8265e-13
5.82562e-13
5.82403e-13
4.17021e-13
4.16983e-13
4.16954e-13
4.1699e-13
4.17373e-13
4.18313e-13
4.19598e-13
4.21106e-13
4.2262e-13
4.24029e-13
4.25308e-13
4.26549e-13
4.27758e-13
4.28909e-13
4.29974e-13
4.3091e-13
4.31718e-13
4.32425e-13
4.33021e-13
4.33499e-13
4.3391e-13
4.34234e-13
4.34458e-13
4.34574e-13
4.34575e-13
4.34441e-13
4.34152e-13
4.33692e-13
4.33072e-13
4.32307e-13
4.31414e-13
4.304e-13
4.29282e-13
4.28096e-13
4.26859e-13
4.25583e-13
4.24323e-13
4.23118e-13
4.21984e-13
4.20937e-13
4.2001e-13
4.19235e-13
4.18631e-13
4.18194e-13
4.17956e-13
4.17936e-13
4.18158e-13
4.18616e-13
4.1931e-13
4.20229e-13
4.21395e-13
4.22794e-13
4.24429e-13
4.26256e-13
4.28323e-13
4.30586e-13
4.32991e-13
4.3557e-13
4.38275e-13
4.41113e-13
4.44034e-13
4.4705e-13
4.50138e-13
4.53295e-13
4.56525e-13
4.59751e-13
4.63023e-13
4.663e-13
4.69571e-13
4.72872e-13
4.76109e-13
4.79328e-13
4.82572e-13
4.85744e-13
4.88991e-13
4.92163e-13
4.95347e-13
4.98464e-13
5.01539e-13
5.04519e-13
5.07431e-13
5.10251e-13
5.13013e-13
5.15749e-13
5.18498e-13
5.21189e-13
5.23784e-13
5.26311e-13
5.28726e-13
5.3107e-13
5.33365e-13
5.35615e-13
5.37801e-13
5.39966e-13
5.42044e-13
5.44084e-13
5.46096e-13
5.48097e-13
5.50051e-13
5.51944e-13
5.53809e-13
5.55589e-13
5.57275e-13
5.58911e-13
5.60509e-13
5.62037e-13
5.63509e-13
5.64927e-13
5.66333e-13
5.67679e-13
5.69048e-13
5.70317e-13
5.71504e-13
5.72638e-13
5.73798e-13
5.75002e-13
5.76268e-13
5.77628e-13
5.79142e-13
5.81097e-13
5.81512e-13
5.82338e-13
5.83435e-13
5.8385e-13
5.84408e-13
5.85042e-13
5.85726e-13
5.86434e-13
5.87156e-13
5.87886e-13
5.88576e-13
5.89232e-13
5.89897e-13
5.9057e-13
5.91241e-13
5.91922e-13
5.9257e-13
5.93186e-13
5.93776e-13
5.94372e-13
5.94946e-13
5.955e-13
5.96037e-13
5.96576e-13
5.97126e-13
5.97684e-13
5.98253e-13
5.98846e-13
5.99541e-13
5.99886e-13
6.00306e-13
6.00798e-13
6.0114e-13
6.01519e-13
6.01825e-13
6.02135e-13
6.02423e-13
6.02712e-13
6.02984e-13
6.03246e-13
6.0351e-13
6.03782e-13
6.04058e-13
6.04342e-13
6.04636e-13
6.0494e-13
6.05251e-13
6.05568e-13
6.05882e-13
6.062e-13
6.06528e-13
6.06756e-13
6.07005e-13
6.07199e-13
6.0741e-13
6.07517e-13
6.0764e-13
6.07687e-13
6.07729e-13
6.07775e-13
6.07832e-13
6.07901e-13
6.07993e-13
6.08103e-13
6.08232e-13
6.08373e-13
6.08533e-13
6.08699e-13
6.08837e-13
6.08968e-13
6.09052e-13
6.09153e-13
6.09158e-13
6.09152e-13
6.0913e-13
6.09086e-13
6.09023e-13
6.08958e-13
6.08908e-13
6.08858e-13
6.08857e-13
6.08851e-13
6.08873e-13
6.08904e-13
6.08947e-13
6.08975e-13
6.08976e-13
6.08961e-13
6.08927e-13
6.08873e-13
6.0879e-13
6.08681e-13
6.08553e-13
6.08421e-13
6.08287e-13
6.08172e-13
6.08056e-13
6.07901e-13
6.07894e-13
6.07853e-13
6.07789e-13
6.07742e-13
6.07681e-13
6.07602e-13
6.07505e-13
6.07389e-13
6.07254e-13
6.07105e-13
6.06938e-13
6.06756e-13
6.06564e-13
6.0638e-13
6.06198e-13
6.05989e-13
6.05897e-13
6.05778e-13
6.05642e-13
6.05551e-13
6.05445e-13
6.0526e-13
4.1706e-13
4.16975e-13
4.16979e-13
4.17312e-13
4.18165e-13
4.19366e-13
4.20801e-13
4.22214e-13
4.23443e-13
4.24457e-13
4.25332e-13
4.26318e-13
4.27278e-13
4.28124e-13
4.2888e-13
4.29535e-13
4.30094e-13
4.30579e-13
4.3098e-13
4.31279e-13
4.31528e-13
4.31702e-13
4.31794e-13
4.31795e-13
4.31683e-13
4.31442e-13
4.31059e-13
4.30529e-13
4.2986e-13
4.29072e-13
4.28184e-13
4.27202e-13
4.26143e-13
4.25049e-13
4.23941e-13
4.22831e-13
4.21778e-13
4.20828e-13
4.20001e-13
4.19307e-13
4.18776e-13
4.18454e-13
4.18364e-13
4.18513e-13
4.18904e-13
4.19562e-13
4.20533e-13
4.218e-13
4.2335e-13
4.25149e-13
4.27242e-13
4.29591e-13
4.32207e-13
4.35002e-13
4.38058e-13
4.41294e-13
4.44627e-13
4.48155e-13
4.51774e-13
4.55508e-13
4.59276e-13
4.63101e-13
4.66957e-13
4.70829e-13
4.74742e-13
4.7857e-13
4.82412e-13
4.86194e-13
4.89909e-13
4.93636e-13
4.97222e-13
5.0077e-13
5.04319e-13
5.07728e-13
5.11223e-13
5.14583e-13
5.17927e-13
5.21173e-13
5.24346e-13
5.27395e-13
5.30357e-13
5.33202e-13
5.35972e-13
5.38691e-13
5.41421e-13
5.44077e-13
5.46615e-13
5.49078e-13
5.51421e-13
5.53686e-13
5.55906e-13
5.58075e-13
5.6018e-13
5.62256e-13
5.64232e-13
5.66166e-13
5.68076e-13
5.69973e-13
5.71823e-13
5.73613e-13
5.75384e-13
5.77062e-13
5.78654e-13
5.80204e-13
5.81708e-13
5.83144e-13
5.84525e-13
5.85862e-13
5.87183e-13
5.8845e-13
5.8974e-13
5.90928e-13
5.92044e-13
5.93115e-13
5.94221e-13
5.95371e-13
5.96571e-13
5.97877e-13
5.9931e-13
6.01127e-13
6.01555e-13
6.02326e-13
6.03218e-13
6.03738e-13
6.04285e-13
6.04888e-13
6.05539e-13
6.06208e-13
6.06893e-13
6.07588e-13
6.08245e-13
6.08878e-13
6.09518e-13
6.10164e-13
6.10809e-13
6.11464e-13
6.12083e-13
6.12678e-13
6.13251e-13
6.13826e-13
6.14378e-13
6.14912e-13
6.15433e-13
6.15959e-13
6.16495e-13
6.17036e-13
6.17595e-13
6.18168e-13
6.18835e-13
6.19178e-13
6.19584e-13
6.20044e-13
6.20387e-13
6.20754e-13
6.2105e-13
6.2135e-13
6.2163e-13
6.21911e-13
6.22175e-13
6.22434e-13
6.22695e-13
6.22964e-13
6.23237e-13
6.23519e-13
6.2381e-13
6.2411e-13
6.24417e-13
6.2473e-13
6.25041e-13
6.25353e-13
6.25677e-13
6.25905e-13
6.26151e-13
6.26343e-13
6.26553e-13
6.26663e-13
6.26788e-13
6.2684e-13
6.26887e-13
6.26935e-13
6.26997e-13
6.27067e-13
6.27161e-13
6.27273e-13
6.27403e-13
6.27543e-13
6.27703e-13
6.2787e-13
6.28009e-13
6.2814e-13
6.28225e-13
6.28325e-13
6.28334e-13
6.28328e-13
6.28305e-13
6.28261e-13
6.28199e-13
6.28135e-13
6.28083e-13
6.28031e-13
6.28031e-13
6.28016e-13
6.28039e-13
6.28064e-13
6.28103e-13
6.28122e-13
6.2812e-13
6.28101e-13
6.28063e-13
6.28004e-13
6.27917e-13
6.27802e-13
6.27667e-13
6.27529e-13
6.27389e-13
6.27267e-13
6.27141e-13
6.2698e-13
6.26959e-13
6.26907e-13
6.26836e-13
6.26775e-13
6.26702e-13
6.2661e-13
6.26502e-13
6.26374e-13
6.26227e-13
6.26064e-13
6.25885e-13
6.25691e-13
6.25485e-13
6.25288e-13
6.25089e-13
6.24867e-13
6.24758e-13
6.24622e-13
6.24471e-13
6.2436e-13
6.24235e-13
6.24024e-13
4.17066e-13
4.16975e-13
4.17195e-13
4.17921e-13
4.19012e-13
4.20353e-13
4.21696e-13
4.2284e-13
4.23716e-13
4.2441e-13
4.25146e-13
4.25876e-13
4.26537e-13
4.27113e-13
4.27616e-13
4.28052e-13
4.28425e-13
4.28747e-13
4.29009e-13
4.29184e-13
4.29318e-13
4.29384e-13
4.2938e-13
4.29287e-13
4.29085e-13
4.28763e-13
4.28317e-13
4.27744e-13
4.27052e-13
4.26267e-13
4.25412e-13
4.245e-13
4.23542e-13
4.2259e-13
4.21677e-13
4.20808e-13
4.20046e-13
4.19446e-13
4.19032e-13
4.1883e-13
4.18866e-13
4.1918e-13
4.19817e-13
4.20776e-13
4.22071e-13
4.23709e-13
4.25761e-13
4.28199e-13
4.30989e-13
4.34046e-13
4.37489e-13
4.41214e-13
4.45238e-13
4.49432e-13
4.53802e-13
4.58393e-13
4.63008e-13
4.67796e-13
4.7267e-13
4.77523e-13
4.82417e-13
4.87194e-13
4.9201e-13
4.96671e-13
5.01384e-13
5.05821e-13
5.10241e-13
5.14487e-13
5.18571e-13
5.22647e-13
5.2647e-13
5.30245e-13
5.33967e-13
5.37451e-13
5.41044e-13
5.44395e-13
5.47704e-13
5.50863e-13
5.53914e-13
5.56792e-13
5.59583e-13
5.62193e-13
5.6475e-13
5.67222e-13
5.69736e-13
5.72155e-13
5.74455e-13
5.76666e-13
5.78763e-13
5.80774e-13
5.82751e-13
5.84672e-13
5.8654e-13
5.88362e-13
5.90083e-13
5.91764e-13
5.9343e-13
5.95091e-13
5.96708e-13
5.98273e-13
5.99833e-13
6.01291e-13
6.02677e-13
6.04026e-13
6.0532e-13
6.06553e-13
6.07738e-13
6.08891e-13
6.10027e-13
6.11116e-13
6.12227e-13
6.13237e-13
6.14192e-13
6.15117e-13
6.16086e-13
6.17094e-13
6.18135e-13
6.19289e-13
6.20542e-13
6.221e-13
6.22522e-13
6.23151e-13
6.23769e-13
6.24337e-13
6.24785e-13
6.25285e-13
6.25838e-13
6.26398e-13
6.2698e-13
6.27571e-13
6.2813e-13
6.28678e-13
6.2923e-13
6.29785e-13
6.30343e-13
6.30912e-13
6.31445e-13
6.31964e-13
6.32467e-13
6.32968e-13
6.33445e-13
6.33907e-13
6.34364e-13
6.34825e-13
6.35297e-13
6.35771e-13
6.36271e-13
6.36776e-13
6.37362e-13
6.37672e-13
6.3802e-13
6.38407e-13
6.38709e-13
6.39026e-13
6.39277e-13
6.39528e-13
6.39764e-13
6.39999e-13
6.40222e-13
6.40441e-13
6.40666e-13
6.40895e-13
6.41133e-13
6.41381e-13
6.41636e-13
6.41899e-13
6.42172e-13
6.42448e-13
6.42727e-13
6.43002e-13
6.43291e-13
6.43492e-13
6.43703e-13
6.43867e-13
6.44046e-13
6.44135e-13
6.44233e-13
6.44266e-13
6.44295e-13
6.44323e-13
6.44368e-13
6.44416e-13
6.44493e-13
6.44585e-13
6.44697e-13
6.44814e-13
6.44952e-13
6.45099e-13
6.4522e-13
6.4533e-13
6.45397e-13
6.45471e-13
6.4547e-13
6.45451e-13
6.45413e-13
6.45353e-13
6.45276e-13
6.45201e-13
6.45134e-13
6.45069e-13
6.45054e-13
6.45013e-13
6.45031e-13
6.45033e-13
6.45057e-13
6.45057e-13
6.45043e-13
6.45009e-13
6.44953e-13
6.4488e-13
6.44778e-13
6.44648e-13
6.44499e-13
6.44347e-13
6.44193e-13
6.44057e-13
6.43914e-13
6.43742e-13
6.437e-13
6.43631e-13
6.43546e-13
6.43464e-13
6.43372e-13
6.43263e-13
6.43137e-13
6.42992e-13
6.42828e-13
6.42648e-13
6.42451e-13
6.4224e-13
6.42017e-13
6.41804e-13
6.41586e-13
6.4135e-13
6.4122e-13
6.41064e-13
6.40897e-13
6.40762e-13
6.40616e-13
6.40376e-13
4.17011e-13
4.17028e-13
4.17567e-13
4.1855e-13
4.19808e-13
4.21112e-13
4.2224e-13
4.23092e-13
4.23697e-13
4.2425e-13
4.24788e-13
4.25274e-13
4.25693e-13
4.26055e-13
4.26373e-13
4.26654e-13
4.26892e-13
4.27088e-13
4.27234e-13
4.27309e-13
4.27344e-13
4.27322e-13
4.27236e-13
4.27064e-13
4.26793e-13
4.26414e-13
4.25931e-13
4.25343e-13
4.24659e-13
4.23914e-13
4.23138e-13
4.22347e-13
4.21556e-13
4.20829e-13
4.20206e-13
4.19689e-13
4.19356e-13
4.19266e-13
4.1948e-13
4.20001e-13
4.2088e-13
4.22157e-13
4.23913e-13
4.26155e-13
4.28888e-13
4.32064e-13
4.35834e-13
4.40112e-13
4.44844e-13
4.49855e-13
4.55288e-13
4.61072e-13
4.67038e-13
4.73352e-13
4.79332e-13
4.85799e-13
4.92329e-13
4.98668e-13
5.05344e-13
5.11514e-13
5.17994e-13
5.23826e-13
5.29916e-13
5.35402e-13
5.41059e-13
5.46068e-13
5.51047e-13
5.55665e-13
5.6005e-13
5.64333e-13
5.6817e-13
5.71958e-13
5.75539e-13
5.78809e-13
5.8217e-13
5.85168e-13
5.88091e-13
5.90803e-13
5.93361e-13
5.95704e-13
5.97955e-13
5.9995e-13
6.01951e-13
6.03806e-13
6.05803e-13
6.07664e-13
6.09416e-13
6.11077e-13
6.12623e-13
6.14107e-13
6.15561e-13
6.16966e-13
6.18351e-13
6.19696e-13
6.20954e-13
6.22181e-13
6.23419e-13
6.24668e-13
6.25874e-13
6.27052e-13
6.28241e-13
6.29325e-13
6.30357e-13
6.31368e-13
6.32319e-13
6.33226e-13
6.34102e-13
6.3496e-13
6.35803e-13
6.36609e-13
6.37439e-13
6.38169e-13
6.38865e-13
6.39559e-13
6.40294e-13
6.41066e-13
6.41847e-13
6.42748e-13
6.43722e-13
6.44899e-13
6.45333e-13
6.45665e-13
6.46005e-13
6.46491e-13
6.46797e-13
6.47126e-13
6.47521e-13
6.47902e-13
6.48313e-13
6.48728e-13
6.49127e-13
6.49525e-13
6.49926e-13
6.50328e-13
6.50742e-13
6.51164e-13
6.51556e-13
6.51942e-13
6.52322e-13
6.52694e-13
6.53045e-13
6.53385e-13
6.53731e-13
6.54076e-13
6.54436e-13
6.54795e-13
6.55188e-13
6.55579e-13
6.56032e-13
6.56278e-13
6.5652e-13
6.56791e-13
6.57013e-13
6.57244e-13
6.57413e-13
6.57579e-13
6.57734e-13
6.57888e-13
6.58034e-13
6.58178e-13
6.58335e-13
6.58488e-13
6.5866e-13
6.58843e-13
6.5903e-13
6.59223e-13
6.59431e-13
6.59639e-13
6.59855e-13
6.60063e-13
6.60286e-13
6.60431e-13
6.60579e-13
6.60689e-13
6.60808e-13
6.60851e-13
6.60896e-13
6.60888e-13
6.60871e-13
6.60864e-13
6.60865e-13
6.6087e-13
6.60907e-13
6.60955e-13
6.61034e-13
6.61097e-13
6.61194e-13
6.613e-13
6.61385e-13
6.61449e-13
6.61479e-13
6.61509e-13
6.61484e-13
6.61433e-13
6.61361e-13
6.61269e-13
6.61163e-13
6.6106e-13
6.60963e-13
6.60869e-13
6.60824e-13
6.60745e-13
6.60743e-13
6.6071e-13
6.60704e-13
6.60675e-13
6.60631e-13
6.60569e-13
6.60486e-13
6.60385e-13
6.60259e-13
6.60104e-13
6.59929e-13
6.59753e-13
6.59575e-13
6.59416e-13
6.59249e-13
6.59058e-13
6.58984e-13
6.58889e-13
6.58781e-13
6.58672e-13
6.58554e-13
6.58419e-13
6.58268e-13
6.58099e-13
6.57911e-13
6.57706e-13
6.57487e-13
6.57253e-13
6.57008e-13
6.56773e-13
6.56531e-13
6.56277e-13
6.5612e-13
6.5594e-13
6.55753e-13
6.5559e-13
6.55418e-13
6.55142e-13
4.1696e-13
4.17127e-13
4.17958e-13
4.19149e-13
4.20447e-13
4.21613e-13
4.22512e-13
4.23126e-13
4.23587e-13
4.23974e-13
4.24316e-13
4.246e-13
4.24847e-13
4.25063e-13
4.25248e-13
4.25405e-13
4.25532e-13
4.25624e-13
4.25669e-13
4.2566e-13
4.25621e-13
4.25527e-13
4.25372e-13
4.25144e-13
4.24827e-13
4.24418e-13
4.23931e-13
4.23368e-13
4.22738e-13
4.22087e-13
4.21455e-13
4.20869e-13
4.20343e-13
4.1996e-13
4.19783e-13
4.19827e-13
4.20165e-13
4.20891e-13
4.221e-13
4.2381e-13
4.2608e-13
4.28939e-13
4.32528e-13
4.3683e-13
4.41828e-13
4.47358e-13
4.53711e-13
4.60712e-13
4.68226e-13
4.76256e-13
4.84215e-13
4.92846e-13
5.01173e-13
5.10381e-13
5.18278e-13
5.2692e-13
5.36193e-13
5.44195e-13
5.53061e-13
5.60694e-13
5.69028e-13
5.75958e-13
5.83407e-13
5.89675e-13
5.96313e-13
6.01906e-13
6.07462e-13
6.12314e-13
6.16881e-13
6.21107e-13
6.24779e-13
6.28319e-13
6.31442e-13
6.34335e-13
6.37004e-13
6.39455e-13
6.41626e-13
6.43592e-13
6.45259e-13
6.46741e-13
6.47985e-13
6.49112e-13
6.5009e-13
6.51026e-13
6.52022e-13
6.52993e-13
6.53709e-13
6.54497e-13
6.55048e-13
6.55706e-13
6.56231e-13
6.56794e-13
6.57314e-13
6.57906e-13
6.5837e-13
6.58894e-13
6.59425e-13
6.60011e-13
6.60529e-13
6.61081e-13
6.61655e-13
6.62154e-13
6.62649e-13
6.63151e-13
6.63599e-13
6.64029e-13
6.64453e-13
6.6487e-13
6.65289e-13
6.65673e-13
6.66096e-13
6.66416e-13
6.6674e-13
6.67085e-13
6.67466e-13
6.67918e-13
6.68339e-13
6.68882e-13
6.69457e-13
6.70159e-13
6.70523e-13
6.70482e-13
6.7055e-13
6.70797e-13
6.70904e-13
6.71017e-13
6.71177e-13
6.71314e-13
6.71464e-13
6.71637e-13
6.71804e-13
6.71986e-13
6.72175e-13
6.72367e-13
6.72571e-13
6.72791e-13
6.72979e-13
6.73178e-13
6.73378e-13
6.73574e-13
6.73742e-13
6.73912e-13
6.74094e-13
6.74277e-13
6.7448e-13
6.74672e-13
6.74913e-13
6.75137e-13
6.75407e-13
6.75549e-13
6.75644e-13
6.75763e-13
6.75864e-13
6.75966e-13
6.76017e-13
6.76063e-13
6.76101e-13
6.7614e-13
6.7617e-13
6.7621e-13
6.76258e-13
6.76309e-13
6.7638e-13
6.76463e-13
6.76559e-13
6.76641e-13
6.76757e-13
6.76864e-13
6.76987e-13
6.77096e-13
6.77219e-13
6.77288e-13
6.77344e-13
6.77372e-13
6.77403e-13
6.77376e-13
6.77342e-13
6.77273e-13
6.77189e-13
6.77118e-13
6.77052e-13
6.76996e-13
6.76964e-13
6.76947e-13
6.76974e-13
6.76955e-13
6.76996e-13
6.77039e-13
6.77062e-13
6.77061e-13
6.77035e-13
6.77007e-13
6.76935e-13
6.76833e-13
6.7671e-13
6.7657e-13
6.76418e-13
6.76271e-13
6.76129e-13
6.75992e-13
6.759e-13
6.75773e-13
6.75725e-13
6.7565e-13
6.75596e-13
6.75525e-13
6.75437e-13
6.75333e-13
6.75209e-13
6.75068e-13
6.74905e-13
6.74714e-13
6.74503e-13
6.74292e-13
6.74079e-13
6.73888e-13
6.73685e-13
6.73467e-13
6.73349e-13
6.73219e-13
6.73078e-13
6.72933e-13
6.72781e-13
6.72611e-13
6.72427e-13
6.72225e-13
6.72005e-13
6.71769e-13
6.71518e-13
6.71255e-13
6.70981e-13
6.70718e-13
6.70447e-13
6.70169e-13
6.69976e-13
6.69768e-13
6.69555e-13
6.69357e-13
6.69154e-13
6.68835e-13
4.16919e-13
4.17305e-13
4.18359e-13
4.19661e-13
4.20908e-13
4.21902e-13
4.22605e-13
4.23062e-13
4.23378e-13
4.23626e-13
4.23807e-13
4.23947e-13
4.24067e-13
4.24169e-13
4.24254e-13
4.24316e-13
4.24349e-13
4.24355e-13
4.24327e-13
4.24255e-13
4.24152e-13
4.24005e-13
4.23805e-13
4.23545e-13
4.23214e-13
4.22813e-13
4.22365e-13
4.2188e-13
4.21368e-13
4.20892e-13
4.20507e-13
4.20252e-13
4.20153e-13
4.20345e-13
4.20909e-13
4.21894e-13
4.23385e-13
4.25476e-13
4.28305e-13
4.3194e-13
4.36454e-13
4.41755e-13
4.48142e-13
4.5549e-13
4.63743e-13
4.72777e-13
4.82311e-13
4.92928e-13
5.03824e-13
5.16004e-13
5.26552e-13
5.38602e-13
5.49571e-13
5.61969e-13
5.72363e-13
5.83327e-13
5.95584e-13
6.05251e-13
6.16339e-13
6.25279e-13
6.35122e-13
6.43005e-13
6.51325e-13
6.58129e-13
6.65118e-13
6.70991e-13
6.76596e-13
6.81406e-13
6.85776e-13
6.89563e-13
6.92939e-13
6.95812e-13
6.98426e-13
7.00788e-13
7.0247e-13
7.04557e-13
7.05611e-13
7.07074e-13
7.075e-13
7.08352e-13
7.08249e-13
7.08735e-13
7.08305e-13
7.08681e-13
7.08151e-13
7.08353e-13
7.07604e-13
7.07559e-13
7.06763e-13
7.06528e-13
7.0579e-13
7.05405e-13
7.04693e-13
7.0433e-13
7.03615e-13
7.03256e-13
7.02674e-13
7.02331e-13
7.01851e-13
7.01507e-13
7.012e-13
7.00846e-13
7.00613e-13
7.00362e-13
7.00103e-13
6.99851e-13
6.99633e-13
6.99401e-13
6.99224e-13
6.9898e-13
6.98826e-13
6.98581e-13
6.98421e-13
6.98226e-13
6.98164e-13
6.98206e-13
6.98163e-13
6.98216e-13
6.98202e-13
6.984e-13
6.98487e-13
6.98132e-13
6.97796e-13
6.97694e-13
6.97549e-13
6.97396e-13
6.97196e-13
6.97033e-13
6.96814e-13
6.96698e-13
6.96544e-13
6.96457e-13
6.96374e-13
6.96302e-13
6.96215e-13
6.9618e-13
6.96094e-13
6.96061e-13
6.96018e-13
6.95988e-13
6.95914e-13
6.95867e-13
6.95829e-13
6.95812e-13
6.95803e-13
6.95785e-13
6.95817e-13
6.95817e-13
6.95872e-13
6.9585e-13
6.95776e-13
6.95702e-13
6.95632e-13
6.9556e-13
6.9546e-13
6.95354e-13
6.95232e-13
6.95127e-13
6.95e-13
6.94909e-13
6.94805e-13
6.94735e-13
6.94657e-13
6.94612e-13
6.94586e-13
6.94519e-13
6.94522e-13
6.94494e-13
6.94491e-13
6.94467e-13
6.94467e-13
6.94429e-13
6.94368e-13
6.94283e-13
6.94203e-13
6.9408e-13
6.93947e-13
6.93787e-13
6.93616e-13
6.93456e-13
6.93301e-13
6.93159e-13
6.93036e-13
6.92938e-13
6.92875e-13
6.92767e-13
6.92725e-13
6.9268e-13
6.9262e-13
6.92541e-13
6.92435e-13
6.92331e-13
6.92191e-13
6.9202e-13
6.91828e-13
6.91622e-13
6.91409e-13
6.91202e-13
6.90999e-13
6.90803e-13
6.90649e-13
6.9046e-13
6.90348e-13
6.90217e-13
6.901e-13
6.89969e-13
6.89823e-13
6.89663e-13
6.89485e-13
6.89291e-13
6.89079e-13
6.8884e-13
6.88581e-13
6.88323e-13
6.88065e-13
6.8783e-13
6.87582e-13
6.87327e-13
6.87149e-13
6.86976e-13
6.86792e-13
6.86602e-13
6.86404e-13
6.86191e-13
6.85965e-13
6.85721e-13
6.85461e-13
6.85184e-13
6.84895e-13
6.84595e-13
6.84284e-13
6.83985e-13
6.83679e-13
6.83371e-13
6.83132e-13
6.82889e-13
6.82645e-13
6.82406e-13
6.82165e-13
6.81794e-13
4.16967e-13
4.1756e-13
4.18751e-13
4.20071e-13
4.21209e-13
4.22049e-13
4.2259e-13
4.22913e-13
4.2312e-13
4.23245e-13
4.23311e-13
4.23352e-13
4.23378e-13
4.23393e-13
4.23396e-13
4.23386e-13
4.23353e-13
4.23294e-13
4.23207e-13
4.23091e-13
4.22948e-13
4.22771e-13
4.22553e-13
4.22294e-13
4.21989e-13
4.21644e-13
4.21294e-13
4.20961e-13
4.20666e-13
4.20487e-13
4.20519e-13
4.20845e-13
4.21523e-13
4.22693e-13
4.24503e-13
4.27044e-13
4.30407e-13
4.34625e-13
4.39951e-13
4.46481e-13
4.54328e-13
4.63118e-13
4.73153e-13
4.84461e-13
4.9668e-13
5.10569e-13
5.23312e-13
5.38252e-13
5.52687e-13
5.6987e-13
5.82929e-13
5.9856e-13
6.12046e-13
6.27114e-13
6.40474e-13
6.52875e-13
6.67097e-13
6.78275e-13
6.90669e-13
7.00628e-13
7.10496e-13
7.19124e-13
7.26969e-13
7.34042e-13
7.40195e-13
7.46078e-13
7.5067e-13
7.55275e-13
7.58587e-13
7.61791e-13
7.6452e-13
7.66198e-13
7.68577e-13
7.69903e-13
7.70718e-13
7.72545e-13
7.72212e-13
7.7372e-13
7.72668e-13
7.73346e-13
7.72006e-13
7.72094e-13
7.70596e-13
7.70634e-13
7.68976e-13
7.68521e-13
7.66764e-13
7.6597e-13
7.64217e-13
7.63143e-13
7.61471e-13
7.6021e-13
7.58572e-13
7.57242e-13
7.55579e-13
7.5427e-13
7.527e-13
7.51346e-13
7.49846e-13
7.48519e-13
7.47211e-13
7.45862e-13
7.44716e-13
7.43535e-13
7.42363e-13
7.41235e-13
7.40179e-13
7.39119e-13
7.38138e-13
7.37122e-13
7.3618e-13
7.35212e-13
7.34408e-13
7.33575e-13
7.32923e-13
7.32413e-13
7.31814e-13
7.31204e-13
7.30443e-13
7.30031e-13
7.29666e-13
7.28887e-13
7.28063e-13
7.27557e-13
7.27012e-13
7.26497e-13
7.25895e-13
7.2533e-13
7.24693e-13
7.24191e-13
7.23664e-13
7.23232e-13
7.22799e-13
7.22392e-13
7.21961e-13
7.21589e-13
7.21184e-13
7.20853e-13
7.20512e-13
7.20188e-13
7.19834e-13
7.19514e-13
7.19204e-13
7.18936e-13
7.18657e-13
7.18387e-13
7.18148e-13
7.17886e-13
7.17685e-13
7.17445e-13
7.17158e-13
7.16857e-13
7.16565e-13
7.16289e-13
7.15995e-13
7.15697e-13
7.15385e-13
7.15094e-13
7.14783e-13
7.1452e-13
7.1424e-13
7.14004e-13
7.13753e-13
7.13544e-13
7.13354e-13
7.13124e-13
7.12965e-13
7.12785e-13
7.12617e-13
7.12438e-13
7.12283e-13
7.12103e-13
7.11901e-13
7.11678e-13
7.11461e-13
7.11214e-13
7.10957e-13
7.10683e-13
7.10401e-13
7.10131e-13
7.09866e-13
7.09616e-13
7.09382e-13
7.0918e-13
7.08995e-13
7.08787e-13
7.08631e-13
7.08481e-13
7.08317e-13
7.08137e-13
7.07934e-13
7.07732e-13
7.07504e-13
7.07247e-13
7.06969e-13
7.06679e-13
7.0639e-13
7.06106e-13
7.05826e-13
7.05556e-13
7.05324e-13
7.05057e-13
7.04867e-13
7.04661e-13
7.04467e-13
7.0426e-13
7.04042e-13
7.03812e-13
7.03566e-13
7.03305e-13
7.03029e-13
7.0273e-13
7.02413e-13
7.02097e-13
7.01782e-13
7.01491e-13
7.01188e-13
7.00886e-13
7.00631e-13
7.00407e-13
7.00169e-13
6.99924e-13
6.99671e-13
6.99404e-13
6.99125e-13
6.98831e-13
6.98522e-13
6.98196e-13
6.97859e-13
6.97513e-13
6.97158e-13
6.96817e-13
6.96468e-13
6.96124e-13
6.95823e-13
6.95543e-13
6.9526e-13
6.94973e-13
6.94688e-13
6.94255e-13
4.17128e-13
4.17836e-13
4.19091e-13
4.2038e-13
4.21395e-13
4.22102e-13
4.22512e-13
4.22716e-13
4.22836e-13
4.22868e-13
4.22859e-13
4.22829e-13
4.22787e-13
4.22738e-13
4.22682e-13
4.22617e-13
4.22535e-13
4.22433e-13
4.22312e-13
4.22173e-13
4.22015e-13
4.21834e-13
4.21632e-13
4.21417e-13
4.21187e-13
4.20962e-13
4.20799e-13
4.20736e-13
4.20834e-13
4.21201e-13
4.21977e-13
4.23304e-13
4.25284e-13
4.28055e-13
4.31823e-13
4.3677e-13
4.42959e-13
4.50145e-13
4.59035e-13
4.69439e-13
4.81518e-13
4.95079e-13
5.0892e-13
5.24907e-13
5.41467e-13
5.61307e-13