/*--------------------------------*- C++ -*----------------------------------*\
| =========                 |                                                 |
| \\      /  F ield         | OpenFOAM: The Open Source CFD Toolbox           |
|  \\    /   O peration     | Version:  2312                                  |
|   \\  /    A nd           | Website:  www.openfoam.com                      |
|    \\/     M anipulation  |                                                 |
\*---------------------------------------------------------------------------*/
FoamFile
{
    version     2.0;
    format      ascii;
    arch        "LSB;label=32;scalar=64";
    class       volScalarField;
    location    "0.006";
    object      thermo:psiGasEff;
}
// * * * * * * * * * * * * * * * * * * * * * * * * * * * * * * * * * * * * * //

dimensions      [-2 4 2 0 0 0 0];

internalField   nonuniform List<scalar> 
48128
(
0.00812361
0.00812452
0.00813934
0.00814455
0.00815091
0.00816281
0.00818277
0.00821682
0.00827012
0.00833942
0.00845975
0.00859895
0.00873574
0.00885672
0.00895608
0.00902837
0.00907984
0.00911208
0.00911991
0.00910361
0.00906884
0.00901308
0.00893467
0.00883197
0.00870324
0.00854705
0.00836468
0.0081544
0.00791736
0.00765664
0.00737692
0.00708107
0.00677111
0.0064509
0.00612457
0.00579594
0.00547162
0.00515164
0.00483894
0.00453717
0.00424634
0.00396963
0.00370311
0.00345385
0.00321727
0.0029984
0.00279055
0.00259885
0.00241851
0.00225464
0.0021015
0.00196277
0.00183411
0.00171855
0.00161111
0.00151455
0.00142616
0.00134572
0.00127241
0.00120564
0.00114498
0.00108977
0.00103945
0.000993605
0.00095164
0.000913465
0.000878573
0.000846552
0.000817654
0.000790985
0.000766769
0.00074478
0.00072442
0.000706401
0.000689552
0.000674906
0.000661026
0.000649048
0.000637495
0.000627432
0.00061744
0.000608774
0.000600153
0.00059281
0.000585869
0.000580085
0.000574442
0.000569451
0.000564449
0.000560016
0.00055558
0.000551796
0.000548031
0.000544807
0.000541637
0.000538824
0.000536242
0.000534076
0.000532167
0.000530359
0.000528701
0.000527015
0.00052529
0.000523577
0.000521911
0.000520245
0.000518575
0.000516905
0.000515364
0.000513898
0.000512541
0.000511045
0.000509411
0.000507791
0.000506146
0.000504936
0.000504682
0.000504961
0.000506448
0.000508496
0.000504596
0.00050426
0.000503999
0.00050083
0.000498532
0.000496424
0.000494512
0.000493069
0.000491862
0.000490684
0.00048945
0.000488215
0.000486991
0.000486048
0.000485196
0.00048451
0.000483801
0.00048306
0.000482281
0.000481659
0.000481033
0.000480411
0.000479766
0.000479283
0.000478841
0.000478738
0.000478708
0.000478958
0.0004793
0.000478534
0.000478467
0.00047842
0.000477951
0.000477548
0.000476927
0.000476302
0.000475632
0.000474983
0.000474303
0.00047367
0.000473057
0.00047258
0.000472206
0.00047189
0.000471751
0.0004718
0.000471912
0.000472109
0.000472365
0.000472697
0.00047309
0.000473101
0.000473202
0.000473187
0.000473075
0.000472762
0.000472365
0.000471798
0.000471171
0.000470578
0.000470036
0.000469645
0.000469358
0.000469279
0.000469368
0.000469551
0.000469861
0.000470221
0.000470537
0.000470826
0.000471022
0.000471127
0.000471016
0.00047081
0.000470544
0.000470172
0.000469717
0.000469274
0.000468924
0.000468631
0.000468578
0.000468608
0.000468761
0.000468991
0.000469306
0.000469593
0.000469844
0.000470048
0.000470101
0.000470091
0.000469973
0.00046974
0.000469431
0.000469126
0.000468811
0.000468603
0.00046844
0.000468294
0.000468654
0.000468828
0.000469017
0.000469313
0.000469572
0.000469804
0.000469942
0.000469973
0.000469939
0.000469851
0.000469682
0.000469451
0.000469161
0.000468944
0.000468731
0.000468567
0.000468827
0.000468896
0.000469059
0.000469365
0.000469628
0.000469969
0.00812585
0.00812475
0.00814076
0.00814522
0.00814462
0.00815658
0.00817231
0.00819601
0.00824971
0.00832312
0.00843222
0.0085542
0.00867098
0.00877229
0.00884847
0.00891042
0.00895375
0.0089794
0.00898351
0.00896571
0.00893151
0.00887854
0.00880501
0.00870912
0.00858863
0.00844135
0.00826799
0.0080705
0.00784728
0.0076013
0.00733421
0.00705017
0.0067524
0.00644375
0.00612758
0.00580808
0.00549092
0.00517683
0.00486871
0.00456984
0.00428081
0.00400519
0.00373903
0.00348852
0.00325005
0.00302865
0.00281869
0.00262436
0.00244127
0.00227399
0.00211788
0.00197588
0.00184432
0.0017256
0.00161579
0.00151652
0.00142555
0.00134269
0.00126724
0.00119849
0.00113597
0.001079
0.00102703
0.000979629
0.000936256
0.000896726
0.000860601
0.000827593
0.000797789
0.000770214
0.000745109
0.000722297
0.000701214
0.000682491
0.000665018
0.000649712
0.000635241
0.000622633
0.00061051
0.00059983
0.000589312
0.000580058
0.000570931
0.00056309
0.000555729
0.000549447
0.00054334
0.00053784
0.000532379
0.000527467
0.000522618
0.000518381
0.000514213
0.000510553
0.000506964
0.000503716
0.000500719
0.000498138
0.000495776
0.000493528
0.000491428
0.000489301
0.000487147
0.000485032
0.000482975
0.000480937
0.000478897
0.000476889
0.000474999
0.000473206
0.000471524
0.000469713
0.000467778
0.000465872
0.00046397
0.000462497
0.000461897
0.00046175
0.000462677
0.000464109
0.000460154
0.000459405
0.000458641
0.000455578
0.0004531
0.000450998
0.000449024
0.000447461
0.000446109
0.000444794
0.000443433
0.000442076
0.000440738
0.000439656
0.000438655
0.000437807
0.000436937
0.00043604
0.000435119
0.00043434
0.000433563
0.000432792
0.000432011
0.000431376
0.000430787
0.000430504
0.000430264
0.000430261
0.000430325
0.000429418
0.000429111
0.000428804
0.000428197
0.000427583
0.000426842
0.00042607
0.000425278
0.000424509
0.000423725
0.000422997
0.00042228
0.000421707
0.000421239
0.000420809
0.000420551
0.000420454
0.000420413
0.000420447
0.000420533
0.000420696
0.000420889
0.000420775
0.000420744
0.000420618
0.000420385
0.000420011
0.000419556
0.000418951
0.000418303
0.000417682
0.000417131
0.000416696
0.000416391
0.000416259
0.000416288
0.0004164
0.000416625
0.000416898
0.000417111
0.000417328
0.000417451
0.000417498
0.000417344
0.000417118
0.000416836
0.000416467
0.000416026
0.000415599
0.000415263
0.00041498
0.000414915
0.000414927
0.000415043
0.000415237
0.000415498
0.000415748
0.000415958
0.000416131
0.000416163
0.000416143
0.000416024
0.000415809
0.000415528
0.000415253
0.000414976
0.000414796
0.000414659
0.000414555
0.000414874
0.000415038
0.00041522
0.000415489
0.000415729
0.000415947
0.000416081
0.000416119
0.0004161
0.000416033
0.000415898
0.00041571
0.000415473
0.000415302
0.000415139
0.000415039
0.000415289
0.000415372
0.000415551
0.000415847
0.000416107
0.00041645
0.00812553
0.00812901
0.00814561
0.00814353
0.00814481
0.008151
0.00816201
0.00819456
0.00824951
0.0083269
0.00843059
0.00853808
0.00865082
0.00875635
0.00884705
0.00891368
0.00895942
0.00898874
0.00899706
0.00898464
0.00895625
0.0089097
0.00884278
0.00875281
0.00863706
0.00849646
0.00832855
0.00813631
0.00791767
0.00767661
0.00741387
0.00713184
0.00683492
0.00652673
0.00620899
0.00588785
0.0055679
0.00525078
0.00493887
0.00463569
0.0043418
0.00406147
0.00379044
0.00353471
0.00329091
0.0030643
0.0028497
0.00265078
0.00246318
0.00229142
0.00213114
0.0019853
0.00185027
0.00172848
0.00161591
0.00151388
0.00142071
0.00133582
0.00125857
0.00118824
0.00112431
0.00106613
0.00101311
0.000964803
0.000920675
0.000880522
0.000843855
0.000810432
0.000780149
0.000752198
0.000726819
0.000703742
0.000682504
0.000663643
0.000646073
0.000630674
0.00061613
0.000603458
0.000591276
0.000580513
0.000569951
0.000560621
0.000551427
0.000543552
0.000536215
0.000529937
0.000523812
0.000518288
0.000512801
0.000507862
0.000503
0.000498743
0.00049456
0.00049088
0.000487261
0.000483983
0.000480953
0.000478349
0.000475939
0.000473647
0.0004715
0.000469323
0.00046712
0.00046496
0.000462861
0.000460779
0.0004587
0.000456655
0.000454727
0.000452889
0.000451168
0.000449321
0.000447348
0.000445402
0.000443468
0.000441986
0.0004413
0.000441078
0.000441754
0.000443081
0.000439435
0.000438348
0.000437409
0.000434532
0.000431991
0.000429861
0.000427895
0.000426318
0.000424921
0.000423579
0.000422198
0.000420821
0.00041947
0.000418358
0.000417323
0.000416436
0.000415531
0.0004146
0.000413651
0.000412833
0.000412019
0.000411212
0.000410398
0.000409723
0.000409099
0.000408757
0.000408468
0.000408378
0.000408388
0.000407498
0.000407094
0.000406733
0.000406097
0.000405438
0.000404669
0.000403865
0.000403045
0.000402247
0.000401434
0.000400681
0.000399935
0.000399333
0.000398831
0.000398368
0.000398071
0.000397925
0.000397834
0.000397816
0.000397849
0.000397952
0.000398078
0.000397924
0.000397832
0.00039766
0.000397388
0.000396987
0.000396495
0.00039589
0.000395237
0.000394606
0.000394047
0.000393606
0.000393281
0.000393129
0.000393127
0.0003932
0.000393385
0.000393608
0.000393793
0.000393954
0.000394045
0.00039405
0.000393885
0.000393653
0.00039336
0.000392988
0.00039255
0.000392127
0.000391794
0.000391512
0.000391442
0.000391438
0.000391541
0.000391718
0.000391957
0.000392175
0.000392363
0.000392517
0.000392536
0.000392507
0.000392385
0.000392174
0.000391901
0.000391637
0.000391373
0.0003912
0.000391075
0.000390983
0.000391275
0.000391444
0.000391615
0.00039187
0.000392101
0.000392308
0.000392433
0.000392471
0.000392456
0.000392396
0.000392272
0.0003921
0.000391882
0.000391728
0.00039159
0.000391502
0.000391748
0.000391849
0.000392028
0.000392317
0.000392576
0.000392915
0.00812224
0.00813932
0.00814848
0.00814804
0.00814021
0.00814253
0.00816289
0.00820343
0.00826869
0.00835463
0.00846044
0.0085825
0.00869583
0.00879508
0.00888169
0.00894688
0.00899303
0.00902429
0.00903549
0.00902735
0.00900332
0.0089613
0.00889834
0.00881192
0.00870105
0.00856556
0.0084018
0.00821367
0.00799847
0.00775965
0.00749845
0.00721649
0.00691922
0.00661018
0.00628965
0.00596563
0.00564182
0.00532084
0.00500406
0.00469584
0.00439624
0.00411088
0.00383347
0.00357204
0.00332243
0.00309089
0.00287078
0.00266672
0.00247397
0.00229808
0.00213345
0.00198408
0.00184548
0.00172087
0.00160563
0.00150111
0.00140624
0.0013198
0.00124121
0.00116984
0.001105
0.00104612
0.000992537
0.000943811
0.000899392
0.000859133
0.000822313
0.000788935
0.000758627
0.00073072
0.000705484
0.000682441
0.000661388
0.00064269
0.000625307
0.000610127
0.00059577
0.000583326
0.000571335
0.000560745
0.000550364
0.000541186
0.000532109
0.000524409
0.00051729
0.000511222
0.000505273
0.000499916
0.000494581
0.000489798
0.00048509
0.000480986
0.000476944
0.000473405
0.000469912
0.000466764
0.000463852
0.000461375
0.000459062
0.000456868
0.000454817
0.000452729
0.000450618
0.000448547
0.000446535
0.000444534
0.000442542
0.00044058
0.000438734
0.000436962
0.000435308
0.000433531
0.000431632
0.000429744
0.000427883
0.000426505
0.000425841
0.000425654
0.000426158
0.000427427
0.000424349
0.000422965
0.000421846
0.00041929
0.000416792
0.000414679
0.000412791
0.000411261
0.000409877
0.000408567
0.000407224
0.000405886
0.000404578
0.000403493
0.000402476
0.000401604
0.000400714
0.000399803
0.000398881
0.000398075
0.000397274
0.000396483
0.000395686
0.000395023
0.000394415
0.000394064
0.000393776
0.000393647
0.000393642
0.000392842
0.000392385
0.000392003
0.000391396
0.00039074
0.000389986
0.000389195
0.000388387
0.000387602
0.000386798
0.000386056
0.000385319
0.000384722
0.00038422
0.00038376
0.00038346
0.0003833
0.000383196
0.000383164
0.000383183
0.000383259
0.000383369
0.000383212
0.000383097
0.00038291
0.000382632
0.000382229
0.000381735
0.000381138
0.000380494
0.00037987
0.00037932
0.000378884
0.000378556
0.000378401
0.000378386
0.000378442
0.000378605
0.000378807
0.00037898
0.000379122
0.000379191
0.000379176
0.000379014
0.000378784
0.000378489
0.000378119
0.00037769
0.000377276
0.000376948
0.000376668
0.000376603
0.000376587
0.000376686
0.000376853
0.00037708
0.000377285
0.00037746
0.000377603
0.000377616
0.000377584
0.000377463
0.000377258
0.000376992
0.000376736
0.000376482
0.000376314
0.000376199
0.000376116
0.00037638
0.00037656
0.000376728
0.000376971
0.000377199
0.000377401
0.000377521
0.000377561
0.000377548
0.000377493
0.000377378
0.000377216
0.000377011
0.000376865
0.000376744
0.000376662
0.000376899
0.000377015
0.000377196
0.000377478
0.000377737
0.000378077
0.00812097
0.00814753
0.00815031
0.00814442
0.00813384
0.00814531
0.00817586
0.00823098
0.00830837
0.00840533
0.00851977
0.0086365
0.00874719
0.00884447
0.00892699
0.00899091
0.00903742
0.00906926
0.00908254
0.00907754
0.00905663
0.00901752
0.0089576
0.00887528
0.00876861
0.00863664
0.00847739
0.0082917
0.00807877
0.00784135
0.0075808
0.00729799
0.00699968
0.0066893
0.00636495
0.00603708
0.00570849
0.00538269
0.00505965
0.00474535
0.00443875
0.00414856
0.00386238
0.00359429
0.00333729
0.00310039
0.00287353
0.00266377
0.0024654
0.00228596
0.00211714
0.00196469
0.00182267
0.00169562
0.00157789
0.00147193
0.00137594
0.00128868
0.00120954
0.00113776
0.00107283
0.00101388
0.00096046
0.000912038
0.000868026
0.000828341
0.000791982
0.000759298
0.000729527
0.000702293
0.000677769
0.000655185
0.000634767
0.000616604
0.00059978
0.000585194
0.000571344
0.000559448
0.000547934
0.000537798
0.000527848
0.000519073
0.000510332
0.000503044
0.000496346
0.000490672
0.000485064
0.000480033
0.000474994
0.000470512
0.000466091
0.000462268
0.000458485
0.000455209
0.000451959
0.000449061
0.00044638
0.000444135
0.000442012
0.000440014
0.000438145
0.000436229
0.000434295
0.000432404
0.00043056
0.000428722
0.000426897
0.000425097
0.000423411
0.000421775
0.000420252
0.000418606
0.000416853
0.00041509
0.000413375
0.000412184
0.000411607
0.000411516
0.000411896
0.000413089
0.000410693
0.000409082
0.000407767
0.000405585
0.000403226
0.000401193
0.000399431
0.000397987
0.00039665
0.000395411
0.000394145
0.000392887
0.000391666
0.000390646
0.00038968
0.000388856
0.000388012
0.000387157
0.000386295
0.000385536
0.000384776
0.000384034
0.000383288
0.00038267
0.00038211
0.000381779
0.000381522
0.00038138
0.000381379
0.000380707
0.000380223
0.000379837
0.000379282
0.000378659
0.000377944
0.000377192
0.000376422
0.000375672
0.0003749
0.000374193
0.000373489
0.000372917
0.000372437
0.000372001
0.00037172
0.000371564
0.000371468
0.000371443
0.000371467
0.000371534
0.00037165
0.000371514
0.000371394
0.00037121
0.000370943
0.000370556
0.000370078
0.000369503
0.000368881
0.000368279
0.00036775
0.00036733
0.000367011
0.000366865
0.000366852
0.000366901
0.000367056
0.000367251
0.00036742
0.000367559
0.000367618
0.000367601
0.00036745
0.000367227
0.000366939
0.000366578
0.000366167
0.000365768
0.000365453
0.000365179
0.000365125
0.000365103
0.000365206
0.000365365
0.000365587
0.000365788
0.000365957
0.000366094
0.000366106
0.000366077
0.000365963
0.000365767
0.000365512
0.000365266
0.000365024
0.000364864
0.000364761
0.000364687
0.000364926
0.000365117
0.00036529
0.000365524
0.000365751
0.000365952
0.000366069
0.000366114
0.000366107
0.000366057
0.000365951
0.000365799
0.000365608
0.000365469
0.000365365
0.000365288
0.000365512
0.000365645
0.000365829
0.000366103
0.000366364
0.000366707
0.00810572
0.00814629
0.00813899
0.00813207
0.00813443
0.00815608
0.00820306
0.00827373
0.00836232
0.0084669
0.00858322
0.00869684
0.00880359
0.00889775
0.00897694
0.00903918
0.00908536
0.00911694
0.0091315
0.00912881
0.00910992
0.00907362
0.00901712
0.00893886
0.00883606
0.00870802
0.0085524
0.00836834
0.00815702
0.00792047
0.00766013
0.00737548
0.00707517
0.0067628
0.00643281
0.00609955
0.00576532
0.00543282
0.0051014
0.00477892
0.00446266
0.00416561
0.00387212
0.0035962
0.00333021
0.0030868
0.00285198
0.00263595
0.00243148
0.00224838
0.00207548
0.00192075
0.00177586
0.00164735
0.00152714
0.00142188
0.00132561
0.00123808
0.00115974
0.00108824
0.00102434
0.000966151
0.000913853
0.000866559
0.000823853
0.000785515
0.00075039
0.000719161
0.000690579
0.000664697
0.000641489
0.000619909
0.000600697
0.000583545
0.00056777
0.000554245
0.00054132
0.000530362
0.000519692
0.000510356
0.00050115
0.000493112
0.00048504
0.000478473
0.000472448
0.000467358
0.000462267
0.000457736
0.00045315
0.000449132
0.000445146
0.000441746
0.000438359
0.000435477
0.00043258
0.00043005
0.000427701
0.000425776
0.000423921
0.000422201
0.000420581
0.000418904
0.000417222
0.000415591
0.000413987
0.000412377
0.000410785
0.000409218
0.000407752
0.000406312
0.00040497
0.000403501
0.000401954
0.000400376
0.000398876
0.000397946
0.000397513
0.000397553
0.000397843
0.000398952
0.000397246
0.000395499
0.000394034
0.00039222
0.000390116
0.000388221
0.000386619
0.000385286
0.000384024
0.000382888
0.000381728
0.000380591
0.000379495
0.000378572
0.000377688
0.000376938
0.000376165
0.000375395
0.000374626
0.00037394
0.000373246
0.000372581
0.000371912
0.000371368
0.000370885
0.000370596
0.000370395
0.000370263
0.000370279
0.000369754
0.000369272
0.000368901
0.00036841
0.000367842
0.000367186
0.000366494
0.000365779
0.000365082
0.000364359
0.000363705
0.000363053
0.000362524
0.000362079
0.000361686
0.00036144
0.000361304
0.000361231
0.000361229
0.000361271
0.000361343
0.000361478
0.000361383
0.00036127
0.000361102
0.00036086
0.000360502
0.000360055
0.000359513
0.000358925
0.000358361
0.000357861
0.000357471
0.000357169
0.000357045
0.000357044
0.000357094
0.000357252
0.00035745
0.000357625
0.00035777
0.000357832
0.000357824
0.000357693
0.000357484
0.000357208
0.000356866
0.000356481
0.000356106
0.00035581
0.000355551
0.000355508
0.000355488
0.000355605
0.000355762
0.000355984
0.000356188
0.000356357
0.000356492
0.00035651
0.000356488
0.000356388
0.000356206
0.000355965
0.000355734
0.000355508
0.00035536
0.000355271
0.000355208
0.00035543
0.000355632
0.000355813
0.000356044
0.000356272
0.000356475
0.000356594
0.000356645
0.000356647
0.000356606
0.00035651
0.000356371
0.000356194
0.000356066
0.000355979
0.000355908
0.00035612
0.000356271
0.000356461
0.000356729
0.000356993
0.000357341
0.00808511
0.00812097
0.00811981
0.00812267
0.00813828
0.00817724
0.00824116
0.00832234
0.00841865
0.00853199
0.00864807
0.00875857
0.00886095
0.00895109
0.00902683
0.00908704
0.00913246
0.00916346
0.00917867
0.00917826
0.00916155
0.00912847
0.0090761
0.0090016
0.00890251
0.00877813
0.00862552
0.00844237
0.00823181
0.00799556
0.0077351
0.00744716
0.00714301
0.00682838
0.0064898
0.00614747
0.00580617
0.00546514
0.00512359
0.00479061
0.00446309
0.00415724
0.00385307
0.00356864
0.0032925
0.00304117
0.00279786
0.00257574
0.00236585
0.00217903
0.0020014
0.00184644
0.00169953
0.00157232
0.0014496
0.00134774
0.00125318
0.0011657
0.00108989
0.0010202
0.0009586
0.000902157
0.00085209
0.000806811
0.00076639
0.000730256
0.000697152
0.00066815
0.000641351
0.000617434
0.000596024
0.000575989
0.000558613
0.000542904
0.000528718
0.000516713
0.000505152
0.000495493
0.000486044
0.000477824
0.000469697
0.000462692
0.000455628
0.000450062
0.000444952
0.000440656
0.000436284
0.000432473
0.000428521
0.00042518
0.000421799
0.000419002
0.000416175
0.000413856
0.000411416
0.000409392
0.000407468
0.00040595
0.000404443
0.000403086
0.000401794
0.000400424
0.000399083
0.000397781
0.000396478
0.000395152
0.000393851
0.000392574
0.000391376
0.000390178
0.000389061
0.000387803
0.000386511
0.000385171
0.000383966
0.000383363
0.000383119
0.000383307
0.000383521
0.00038455
0.000383432
0.000381733
0.000380165
0.000378698
0.000376929
0.00037524
0.000373817
0.000372618
0.000371448
0.000370447
0.000369414
0.000368437
0.0003675
0.000366699
0.000365922
0.000365269
0.000364582
0.000363929
0.000363278
0.000362687
0.000362077
0.000361513
0.000360947
0.000360504
0.000360119
0.000359892
0.000359765
0.000359662
0.000359708
0.000359333
0.000358893
0.000358553
0.000358133
0.000357638
0.00035706
0.000356444
0.000355802
0.000355174
0.000354516
0.000353932
0.000353346
0.000352879
0.000352479
0.000352147
0.000351951
0.000351844
0.00035181
0.000351843
0.000351916
0.000352002
0.000352169
0.000352129
0.000352034
0.000351893
0.000351686
0.000351369
0.000350965
0.000350468
0.000349924
0.000349415
0.000348952
0.000348607
0.000348329
0.00034824
0.000348257
0.00034832
0.000348489
0.000348698
0.000348887
0.000349048
0.000349122
0.000349131
0.000349025
0.000348838
0.000348584
0.000348268
0.000347919
0.000347576
0.000347305
0.000347074
0.000347041
0.000347038
0.000347169
0.000347331
0.000347558
0.000347768
0.000347944
0.000348085
0.000348113
0.000348105
0.000348025
0.000347861
0.00034764
0.000347428
0.000347224
0.000347093
0.000347024
0.000346975
0.000347182
0.000347398
0.000347593
0.000347824
0.000348055
0.000348263
0.000348388
0.00034845
0.000348463
0.000348433
0.00034835
0.000348228
0.000348069
0.000347954
0.000347886
0.000347824
0.000348024
0.000348195
0.000348395
0.000348658
0.000348927
0.000349284
0.00804912
0.00809084
0.0081003
0.00811649
0.00814958
0.00820633
0.00828123
0.00836965
0.00847951
0.00859646
0.00871029
0.00881763
0.00891549
0.00900131
0.00907371
0.00913206
0.00917649
0.00920676
0.00922257
0.00922518
0.00921128
0.00918165
0.00913305
0.00906223
0.00896633
0.00884517
0.00869523
0.00851194
0.00830104
0.008064
0.00780327
0.00750964
0.00719635
0.00688001
0.00653141
0.00617577
0.00582071
0.00547366
0.00511813
0.00477277
0.00443068
0.00411276
0.0037943
0.0034993
0.00321339
0.00295343
0.00270174
0.00247637
0.00226393
0.00207676
0.00189327
0.0017419
0.00159518
0.00147263
0.00135036
0.00125231
0.00116184
0.00107719
0.00100521
0.000939001
0.000880815
0.000827547
0.000780571
0.000738323
0.000700869
0.000667617
0.000636998
0.000610668
0.000585971
0.000564524
0.000545066
0.000526912
0.000511713
0.000497454
0.000485224
0.000474785
0.000464787
0.000456493
0.000448409
0.000441393
0.000434507
0.000428643
0.000422662
0.000418291
0.000414081
0.000410794
0.00040721
0.00040436
0.000401114
0.000398663
0.000395979
0.000393947
0.000391782
0.000390194
0.000388287
0.000386934
0.00038551
0.0003845
0.000383431
0.000382534
0.000381665
0.000380675
0.000379786
0.000378868
0.000377913
0.000376923
0.000375973
0.000375037
0.000374157
0.00037324
0.000372397
0.000371385
0.000370393
0.000369341
0.000368531
0.000368298
0.000368288
0.000368616
0.000368757
0.000369692
0.000369053
0.000367577
0.00036598
0.000364803
0.000363423
0.000362035
0.000360791
0.000359749
0.000358686
0.000357849
0.000356958
0.000356173
0.000355422
0.000354761
0.000354108
0.000353574
0.000352985
0.000352474
0.000351961
0.000351485
0.000350974
0.00035053
0.00035009
0.000349771
0.000349499
0.000349351
0.000349307
0.000349254
0.00034934
0.000349111
0.000348752
0.000348454
0.000348112
0.000347706
0.000347222
0.000346699
0.000346141
0.000345601
0.000345016
0.000344522
0.000344011
0.000343627
0.000343275
0.000343023
0.000342889
0.000342817
0.00034284
0.000342915
0.000343028
0.000343144
0.000343345
0.000343368
0.000343306
0.000343203
0.000343038
0.00034277
0.00034242
0.000341977
0.000341492
0.00034105
0.000340635
0.000340343
0.0003401
0.000340054
0.000340099
0.00034018
0.000340367
0.000340594
0.000340807
0.000340993
0.000341085
0.000341111
0.000341041
0.000340885
0.000340661
0.00034038
0.000340075
0.000339772
0.000339533
0.000339336
0.000339318
0.000339341
0.000339487
0.000339664
0.000339899
0.000340123
0.000340309
0.000340461
0.000340506
0.000340516
0.000340459
0.000340321
0.000340124
0.000339937
0.000339759
0.000339651
0.000339607
0.000339574
0.000339772
0.000340004
0.000340217
0.000340454
0.00034069
0.000340907
0.00034104
0.000341116
0.000341144
0.000341129
0.000341061
0.000340958
0.000340823
0.000340724
0.000340677
0.000340628
0.000340819
0.000341011
0.000341224
0.000341485
0.00034176
0.000342129
0.00801939
0.00806079
0.00808448
0.00811686
0.0081676
0.00823685
0.00831933
0.00842121
0.00853942
0.0086555
0.0087674
0.00887128
0.00896493
0.00904685
0.00911617
0.00917256
0.00921592
0.00924601
0.00926323
0.00926898
0.00925834
0.00923163
0.00918656
0.0091193
0.00902577
0.00890718
0.00875948
0.00857465
0.00836171
0.0081208
0.00785929
0.00756018
0.00723068
0.0069078
0.00654647
0.00617845
0.00580608
0.0054444
0.0050695
0.00470958
0.00435221
0.00401916
0.00368591
0.00338162
0.00308951
0.00282334
0.00255953
0.00234001
0.00212853
0.00194796
0.00176199
0.00161711
0.00147462
0.00135874
0.00124178
0.00114581
0.00106236
0.000983478
0.000916576
0.000854998
0.000801162
0.000752258
0.000708869
0.000670411
0.000636128
0.000606225
0.000578493
0.000554807
0.000532387
0.000513536
0.000495738
0.00047967
0.000466384
0.00045346
0.000442996
0.000433828
0.000425157
0.000418064
0.000410997
0.000405065
0.000399083
0.000394256
0.000389083
0.000385842
0.000382225
0.000379903
0.000376869
0.000374975
0.000372314
0.000370715
0.000368683
0.000367361
0.000365826
0.000364936
0.000363591
0.000362946
0.000362104
0.000361643
0.000361049
0.000360673
0.000360258
0.000359722
0.000359339
0.000358849
0.000358287
0.000357695
0.000357152
0.000356609
0.000356093
0.000355514
0.000354981
0.000354257
0.000353623
0.000352899
0.000352594
0.000352722
0.00035299
0.000353393
0.000353609
0.000354328
0.000354062
0.000352857
0.000351413
0.000350536
0.000349544
0.000348521
0.000347484
0.00034661
0.000345686
0.000345013
0.000344283
0.000343705
0.000343155
0.000342648
0.000342142
0.000341735
0.000341265
0.000340904
0.000340544
0.000340201
0.000339804
0.000339496
0.000339191
0.000339021
0.000338869
0.00033882
0.000338861
0.000338883
0.000339008
0.000338919
0.000338669
0.00033843
0.00033817
0.000337869
0.000337489
0.000337072
0.000336612
0.000336171
0.000335673
0.000335278
0.000334857
0.000334564
0.000334273
0.00033411
0.00033405
0.000334022
0.000334112
0.000334236
0.000334393
0.000334558
0.000334795
0.000334875
0.000334864
0.000334813
0.000334694
0.000334481
0.00033419
0.000333817
0.000333405
0.000333036
0.000332683
0.000332447
0.000332252
0.000332254
0.000332334
0.000332442
0.000332649
0.000332901
0.000333145
0.000333355
0.000333474
0.000333525
0.000333499
0.000333384
0.000333195
0.000332955
0.000332702
0.000332447
0.000332247
0.000332088
0.000332101
0.000332145
0.000332311
0.00033251
0.000332757
0.000332998
0.0003332
0.000333368
0.000333435
0.000333467
0.000333436
0.000333331
0.000333165
0.000333007
0.00033286
0.000332782
0.000332766
0.000332752
0.000332948
0.000333197
0.000333429
0.000333677
0.000333922
0.000334148
0.000334295
0.000334389
0.000334435
0.000334437
0.000334388
0.000334308
0.0003342
0.00033412
0.000334097
0.000334064
0.00033425
0.000334464
0.000334691
0.000334954
0.000335236
0.00033562
0.0079978
0.00803902
0.00807446
0.00812301
0.00818692
0.00826699
0.00835806
0.00847374
0.00859278
0.00870799
0.00881765
0.00891802
0.00900793
0.00908649
0.00915313
0.00920759
0.0092501
0.00928123
0.00930086
0.00930864
0.00930105
0.00927716
0.00923543
0.00917148
0.00907908
0.0089615
0.00881616
0.00862631
0.00841063
0.00816465
0.00789595
0.0075836
0.00724219
0.00690639
0.00652296
0.00613713
0.00574481
0.00536347
0.00496712
0.00459107
0.00422149
0.00387159
0.00352121
0.00321717
0.00292465
0.00266373
0.00238858
0.00217982
0.00197431
0.0018058
0.00162753
0.00148955
0.00135377
0.00124509
0.00113833
0.00104456
0.000969086
0.000898103
0.000837118
0.000780904
0.000731574
0.000687049
0.000647937
0.000612879
0.000582006
0.000554883
0.000530147
0.000508527
0.000488271
0.000471382
0.000454961
0.000440594
0.000428673
0.000417019
0.000407687
0.00039942
0.000391444
0.000385462
0.000378723
0.000373802
0.000368156
0.000364042
0.00035927
0.000356896
0.000353404
0.00035167
0.000348825
0.000347532
0.000345254
0.00034415
0.000342574
0.00034166
0.000340542
0.000340009
0.000339116
0.000338961
0.000338543
0.000338487
0.000338251
0.000338293
0.000338252
0.000338125
0.000338194
0.00033812
0.000337969
0.000337799
0.000337671
0.000337542
0.000337391
0.000337185
0.000336944
0.000336556
0.000336322
0.000335971
0.00033623
0.000336712
0.000337221
0.000337662
0.000337974
0.000338521
0.000338536
0.000337643
0.000336545
0.000336003
0.000335376
0.000334708
0.000333927
0.000333227
0.000332454
0.000331947
0.000331393
0.000331032
0.00033069
0.000330351
0.000330005
0.000329733
0.000329398
0.000329197
0.000328994
0.000328792
0.000328529
0.000328364
0.000328207
0.000328197
0.000328178
0.000328238
0.000328366
0.000328471
0.000328639
0.000328673
0.000328563
0.000328404
0.00032823
0.000328036
0.000327773
0.000327471
0.000327123
0.000326785
0.00032639
0.000326098
0.000325782
0.000325581
0.000325368
0.000325301
0.00032532
0.00032535
0.000325505
0.000325686
0.000325894
0.000326115
0.000326388
0.000326536
0.000326582
0.000326583
0.000326523
0.000326376
0.000326147
0.000325855
0.000325528
0.000325236
0.000324957
0.000324778
0.000324641
0.000324701
0.000324813
0.000324961
0.000325193
0.000325474
0.00032575
0.000325991
0.000326137
0.000326226
0.000326246
0.000326178
0.000326034
0.000325842
0.000325645
0.000325444
0.00032529
0.000325176
0.000325225
0.000325292
0.000325485
0.000325708
0.000325972
0.000326233
0.000326454
0.000326642
0.000326736
0.000326796
0.000326795
0.000326724
0.000326599
0.000326474
0.000326363
0.00032632
0.000326333
0.000326343
0.000326544
0.000326808
0.000327064
0.000327327
0.000327581
0.000327821
0.000327984
0.000328099
0.000328166
0.000328189
0.000328163
0.000328109
0.000328031
0.000327974
0.000327977
0.000327962
0.000328149
0.000328384
0.000328629
0.000328896
0.000329186
0.000329588
0.00798864
0.00802898
0.00807317
0.00813304
0.00820753
0.00829847
0.00839771
0.00852077
0.00863874
0.00875319
0.00886005
0.00895709
0.0090437
0.0091193
0.0091837
0.00923699
0.0092797
0.00931229
0.00933371
0.00934321
0.00933851
0.00931721
0.00927837
0.0092173
0.00912426
0.00900413
0.00886298
0.00866501
0.00844131
0.00818469
0.00790684
0.00757401
0.00721064
0.00685902
0.00644699
0.0060398
0.00562679
0.00521984
0.00480418
0.004413
0.00403938
0.00368582
0.00331278
0.00302254
0.00273345
0.00248997
0.0022172
0.00201878
0.00182132
0.00166869
0.00150609
0.0013764
0.00125033
0.00114821
0.00105264
0.0009642
0.000894492
0.000830128
0.000775401
0.000724617
0.000679844
0.000639564
0.000603251
0.000571698
0.000542535
0.000518319
0.000494997
0.000475757
0.000456602
0.000441219
0.000425875
0.000412506
0.000401218
0.000390406
0.000381972
0.000373847
0.00036653
0.000360673
0.000354012
0.000349734
0.000344178
0.000340431
0.00033594
0.000333839
0.00033035
0.000328604
0.000325812
0.000324574
0.000322489
0.000321466
0.000320083
0.000319302
0.000318303
0.000317887
0.000317162
0.000317224
0.000316958
0.000317067
0.000316968
0.000317202
0.000317346
0.000317442
0.000317779