/*--------------------------------*- C++ -*----------------------------------*\
| =========                 |                                                 |
| \\      /  F ield         | OpenFOAM: The Open Source CFD Toolbox           |
|  \\    /   O peration     | Version:  2312                                  |
|   \\  /    A nd           | Website:  www.openfoam.com                      |
|    \\/     M anipulation  |                                                 |
\*---------------------------------------------------------------------------*/
FoamFile
{
    version     2.0;
    format      ascii;
    arch        "LSB;label=32;scalar=64";
    class       volVectorField;
    location    "0.006";
    object      U;
}
// * * * * * * * * * * * * * * * * * * * * * * * * * * * * * * * * * * * * * //

dimensions      [0 1 -1 0 0 0 0];

internalField   nonuniform List<vector> 
48128
(
(2.91798 -1.08361 0)
(6.65988 -0.527235 0)
(7.8852 0.062246 0)
(7.46374 -0.103225 0)
(7.2396 -0.831913 0)
(6.05136 -0.407054 0)
(0.222512 1.50775 0)
(-10.1771 2.43181 0)
(-25.9602 4.3914 0)
(-45.7321 5.63721 0)
(-64.4028 4.93555 0)
(-81.0726 4.35829 0)
(-95.8149 3.58292 0)
(-108.599 2.79297 0)
(-119.636 2.21436 0)
(-129.199 2.17483 0)
(-137.686 1.98426 0)
(-145.373 1.90858 0)
(-152.28 1.83119 0)
(-158.444 1.77123 0)
(-164.181 1.72555 0)
(-169.454 1.6758 0)
(-174.209 1.62112 0)
(-178.408 1.55202 0)
(-182.005 1.47108 0)
(-184.947 1.38938 0)
(-187.199 1.3362 0)
(-188.738 1.31578 0)
(-189.558 1.25073 0)
(-189.792 1.15089 0)
(-189.271 0.889943 0)
(-187.759 0.743858 0)
(-185.406 0.61049 0)
(-182.287 0.457419 0)
(-178.373 0.28847 0)
(-173.629 0.142507 0)
(-168.175 -0.0760326 0)
(-162.174 -0.249121 0)
(-155.508 -0.477477 0)
(-148.212 -0.674969 0)
(-140.4 -0.879884 0)
(-132.102 -1.07067 0)
(-123.272 -1.36946 0)
(-113.742 -1.57904 0)
(-103.855 -1.76773 0)
(-93.7204 -1.84715 0)
(-83.5044 -2.05944 0)
(-72.8525 -2.24578 0)
(-61.9099 -2.48867 0)
(-50.6995 -2.56004 0)
(-39.4539 -2.73801 0)
(-28.1026 -2.745 0)
(-16.7015 -2.90409 0)
(-5.53909 -2.97444 0)
(5.35352 -2.7062 0)
(16.3706 -2.87288 0)
(27.2506 -2.82092 0)
(38.2141 -2.92359 0)
(49.0191 -2.90833 0)
(59.6432 -2.89857 0)
(70.0235 -2.8676 0)
(80.1482 -2.82795 0)
(90.033 -2.79524 0)
(99.677 -2.74642 0)
(109.135 -2.72215 0)
(118.328 -2.65942 0)
(127.28 -2.60129 0)
(136.019 -2.56777 0)
(144.37 -2.55384 0)
(152.51 -2.52383 0)
(160.414 -2.44193 0)
(168.034 -2.37074 0)
(175.575 -2.31454 0)
(182.816 -2.22583 0)
(190.013 -2.17098 0)
(196.865 -2.06885 0)
(203.643 -2.00212 0)
(210.038 -1.88969 0)
(216.278 -1.8042 0)
(222.081 -1.68632 0)
(227.681 -1.6064 0)
(232.897 -1.49749 0)
(237.948 -1.44494 0)
(242.821 -1.38589 0)
(247.712 -1.34873 0)
(252.376 -1.26021 0)
(256.865 -1.19806 0)
(261.09 -1.10899 0)
(265.069 -1.05084 0)
(268.813 -0.980138 0)
(272.421 -0.938965 0)
(275.851 -0.876266 0)
(279.156 -0.839148 0)
(282.316 -0.782031 0)
(285.326 -0.739965 0)
(288.203 -0.695928 0)
(290.999 -0.667546 0)
(293.747 -0.629828 0)
(296.376 -0.586959 0)
(298.867 -0.553425 0)
(301.261 -0.513911 0)
(303.487 -0.475445 0)
(305.532 -0.441099 0)
(307.445 -0.416718 0)
(309.297 -0.388928 0)
(311.012 -0.365671 0)
(312.636 -0.340653 0)
(314.146 -0.325466 0)
(315.634 -0.30404 0)
(317.028 -0.292436 0)
(318.435 -0.274089 0)
(319.693 -0.250512 0)
(320.793 -0.234491 0)
(321.828 -0.219936 0)
(322.88 -0.225403 0)
(324.009 -0.219143 0)
(325.26 -0.211997 0)
(326.625 -0.178798 0)
(328.283 -0.213137 0)
(330.497 -0.160487 0)
(330.327 -0.0869494 0)
(330.85 -0.0578135 0)
(331.973 -0.112648 0)
(331.638 -0.0569568 0)
(331.831 -0.100357 0)
(332.127 -0.113861 0)
(332.517 -0.115799 0)
(332.987 -0.10899 0)
(333.493 -0.107383 0)
(334.019 -0.106406 0)
(334.484 -0.100574 0)
(334.915 -0.0954504 0)
(335.362 -0.0951205 0)
(335.828 -0.088001 0)
(336.306 -0.0842147 0)
(336.792 -0.0785106 0)
(337.256 -0.0715029 0)
(337.658 -0.0667584 0)
(338.035 -0.0619008 0)
(338.42 -0.0577779 0)
(338.794 -0.054051 0)
(339.132 -0.050536 0)
(339.455 -0.0474867 0)
(339.785 -0.0444769 0)
(340.135 -0.0427268 0)
(340.508 -0.0347371 0)
(340.866 -0.0240499 0)
(341.269 -0.0211887 0)
(341.816 -0.0146265 0)
(341.795 0.0129737 0)
(341.907 0.0214315 0)
(342.137 0.010647 0)
(342.088 0.0266481 0)
(342.122 0.0187538 0)
(342.069 0.0229014 0)
(342.02 0.0221258 0)
(341.959 0.0206049 0)
(341.898 0.0193167 0)
(341.831 0.0166684 0)
(341.776 0.0166847 0)
(341.718 0.0142494 0)
(341.723 0.00843224 0)
(341.737 0.010161 0)
(341.771 0.0101941 0)
(341.833 0.0133597 0)
(341.92 0.0150788 0)
(342.018 0.0163207 0)
(342.127 0.0176323 0)
(342.234 0.020247 0)
(342.353 0.0196254 0)
(342.458 0.0253395 0)
(342.445 0.0214722 0)
(342.447 0.0219634 0)
(342.415 0.0203928 0)
(342.349 0.0221679 0)
(342.219 0.0219524 0)
(342.065 0.024029 0)
(341.866 0.0225387 0)
(341.657 0.0212149 0)
(341.462 0.0204222 0)
(341.309 0.0155255 0)
(341.196 0.016876 0)
(341.131 0.00646713 0)
(341.13 0.00858062 0)
(341.156 0.00690076 0)
(341.204 0.00668897 0)
(341.279 0.00680653 0)
(341.352 0.00862331 0)
(341.41 0.00766104 0)
(341.415 0.0155864 0)
(341.39 0.0150055 0)
(341.339 0.0181513 0)
(341.221 0.0137944 0)
(341.071 0.0164551 0)
(340.903 0.0157637 0)
(340.708 0.0150847 0)
(340.493 0.0142127 0)
(340.292 0.0117914 0)
(340.138 0.0100113 0)
(339.997 0.00842041 0)
(339.949 0.0076868 0)
(339.887 0.00824918 0)
(339.895 0.00633118 0)
(339.909 0.00740099 0)
(339.939 0.00859984 0)
(339.931 0.0111412 0)
(339.904 0.0115658 0)
(339.845 0.01423 0)
(339.757 0.0140689 0)
(339.637 0.0159634 0)
(339.481 0.0147597 0)
(339.292 0.0156034 0)
(339.084 0.0149635 0)
(338.887 0.0127983 0)
(338.7 0.0120854 0)
(338.552 0.00944559 0)
(338.423 0.00952746 0)
(338.266 0.00799208 0)
(338.311 0.00459176 0)
(338.284 0.00728194 0)
(338.23 0.00969561 0)
(338.213 0.00857493 0)
(338.171 0.0102938 0)
(338.101 0.0124446 0)
(338.002 0.0128928 0)
(337.874 0.0131116 0)
(337.719 0.013839 0)
(337.547 0.0129229 0)
(337.355 0.0131323 0)
(337.152 0.0123086 0)
(336.938 0.0117373 0)
(336.75 0.00901907 0)
(336.587 0.00907636 0)
(336.402 0.00826973 0)
(336.38 0.00503706 0)
(336.313 0.00591909 0)
(336.232 0.00804662 0)
(336.21 0.00673342 0)
(336.161 0.00843369 0)
(336.041 0.0104763 0)
(5.33116 -5.06481 0)
(9.1217 -2.4013 0)
(10.7715 -0.0859391 0)
(9.27175 0.482531 0)
(5.53954 1.50753 0)
(-4.87332 4.80812 0)
(-20.6257 8.79829 0)
(-41.6689 12.7581 0)
(-62.7462 15.3828 0)
(-81.2913 15.3117 0)
(-97.6541 13.2782 0)
(-112.149 11.2468 0)
(-124.698 9.62749 0)
(-135.24 8.47124 0)
(-143.934 7.89486 0)
(-151.297 6.83866 0)
(-157.65 6.12882 0)
(-163.172 5.58103 0)
(-167.907 5.15484 0)
(-171.888 4.78612 0)
(-175.43 4.50168 0)
(-178.499 4.21593 0)
(-181.052 3.93675 0)
(-183.059 3.64534 0)
(-184.483 3.35655 0)
(-185.302 3.09805 0)
(-185.565 2.87131 0)
(-185.216 2.52394 0)
(-183.965 2.25249 0)
(-181.823 1.91211 0)
(-178.865 1.46165 0)
(-175.092 1.03125 0)
(-170.559 0.64857 0)
(-165.277 0.229085 0)
(-159.257 -0.255041 0)
(-152.588 -0.600272 0)
(-145.306 -1.01992 0)
(-137.497 -1.4218 0)
(-129.094 -1.91237 0)
(-120.116 -2.35047 0)
(-110.661 -2.78414 0)
(-100.803 -3.14501 0)
(-90.5565 -3.75703 0)
(-79.742 -4.2401 0)
(-68.5935 -4.69 0)
(-57.1978 -4.87354 0)
(-45.7059 -5.2882 0)
(-33.8455 -5.67245 0)
(-21.7186 -6.17676 0)
(-9.48838 -6.33927 0)
(2.75937 -6.70878 0)
(15.0102 -6.82736 0)
(27.2488 -7.11228 0)
(39.3407 -7.1722 0)
(51.5084 -7.15734 0)
(63.6962 -7.45532 0)
(75.621 -7.47651 0)
(87.274 -7.57101 0)
(98.6548 -7.53629 0)
(109.789 -7.50189 0)
(120.623 -7.40824 0)
(131.157 -7.30177 0)
(141.403 -7.20023 0)
(151.364 -7.07148 0)
(161.096 -6.98769 0)
(170.508 -6.80853 0)
(179.656 -6.68321 0)
(188.57 -6.46919 0)
(197.145 -6.22061 0)
(205.508 -6.06363 0)
(213.603 -5.84892 0)
(221.375 -5.69134 0)
(229.034 -5.54569 0)
(236.349 -5.34815 0)
(243.6 -5.21177 0)
(250.491 -4.98408 0)
(257.285 -4.82485 0)
(263.711 -4.57934 0)
(269.962 -4.38319 0)
(275.817 -4.13331 0)
(281.453 -3.95418 0)
(286.751 -3.72273 0)
(291.856 -3.60095 0)
(296.796 -3.4581 0)
(301.696 -3.35431 0)
(306.421 -3.15745 0)
(310.932 -3.01304 0)
(315.244 -2.82512 0)
(319.293 -2.69323 0)
(323.154 -2.54069 0)
(326.85 -2.43714 0)
(330.417 -2.29947 0)
(333.822 -2.20445 0)
(337.127 -2.07872 0)
(340.27 -1.98076 0)
(343.297 -1.8801 0)
(346.239 -1.8025 0)
(349.118 -1.70998 0)
(351.906 -1.61542 0)
(354.553 -1.53688 0)
(357.125 -1.44986 0)
(359.543 -1.36973 0)
(361.808 -1.29707 0)
(363.943 -1.23796 0)
(366.029 -1.17324 0)
(367.975 -1.11873 0)
(369.849 -1.06185 0)
(371.597 -1.01974 0)
(373.335 -0.966954 0)
(374.962 -0.929639 0)
(376.604 -0.883437 0)
(378.107 -0.836449 0)
(379.478 -0.797596 0)
(380.769 -0.766112 0)
(382.066 -0.754479 0)
(383.413 -0.728813 0)
(384.85 -0.664753 0)
(386.376 -0.641378 0)
(388.115 -0.555657 0)
(390.465 -0.737763 0)
(390.75 -0.416557 0)
(391.563 -0.331934 0)
(392.956 -0.538922 0)
(393.095 -0.4107 0)
(393.522 -0.444283 0)
(394.082 -0.454964 0)
(394.717 -0.452611 0)
(395.402 -0.422581 0)
(396.106 -0.410813 0)
(396.82 -0.400648 0)
(397.481 -0.38539 0)
(398.097 -0.37277 0)
(398.721 -0.361699 0)
(399.355 -0.33963 0)
(399.994 -0.325827 0)
(400.639 -0.308486 0)
(401.258 -0.293664 0)
(401.831 -0.281729 0)
(402.373 -0.269019 0)
(402.922 -0.254296 0)
(403.453 -0.24329 0)
(403.955 -0.232308 0)
(404.435 -0.221944 0)
(404.916 -0.209591 0)
(405.409 -0.199231 0)
(405.916 -0.173944 0)
(406.428 -0.167675 0)
(406.977 -0.135778 0)
(407.649 -0.177014 0)
(407.903 -0.104263 0)
(408.252 -0.0801977 0)
(408.697 -0.116716 0)
(408.933 -0.0829774 0)
(409.222 -0.0974986 0)
(409.428 -0.0893593 0)
(409.643 -0.0870503 0)
(409.833 -0.08733 0)
(410.027 -0.0833719 0)
(410.202 -0.0828353 0)
(410.375 -0.0795181 0)
(410.553 -0.0742311 0)
(410.747 -0.0772041 0)
(410.949 -0.0686068 0)
(411.165 -0.0635619 0)
(411.397 -0.0526284 0)
(411.646 -0.0435377 0)
(411.9 -0.0389227 0)
(412.163 -0.030983 0)
(412.42 -0.0261168 0)
(412.68 -0.0176894 0)
(412.944 -0.0166776 0)
(413.096 -0.0118594 0)
(413.27 -0.00708505 0)
(413.391 -0.00874776 0)
(413.524 -0.0103359 0)
(413.55 -0.00954081 0)
(413.582 -0.0126033 0)
(413.56 -0.0137046 0)
(413.531 -0.0139513 0)
(413.503 -0.0168151 0)
(413.506 -0.0182883 0)
(413.523 -0.0147456 0)
(413.567 -0.0172605 0)
(413.637 -0.0112465 0)
(413.73 -0.00415054 0)
(413.841 -0.00178909 0)
(413.97 0.00400963 0)
(414.104 0.00625284 0)
(414.213 0.0082802 0)
(414.306 0.0171097 0)
(414.352 0.0155874 0)
(414.4 0.0156517 0)
(414.374 0.00998093 0)
(414.328 0.0133627 0)
(414.265 0.0123288 0)
(414.179 0.0106964 0)
(414.074 0.00975994 0)
(413.973 0.00759418 0)
(413.897 0.00697716 0)
(413.826 0.00600839 0)
(413.817 0.00837417 0)
(413.804 0.0121553 0)
(413.824 0.0113878 0)
(413.853 0.0164387 0)
(413.896 0.0173053 0)
(413.917 0.0251128 0)
(413.914 0.0249864 0)
(413.89 0.0269386 0)
(413.846 0.0249469 0)
(413.778 0.0255143 0)
(413.682 0.0216254 0)
(413.558 0.0219148 0)
(413.416 0.020436 0)
(413.277 0.0185231 0)
(413.138 0.0172591 0)
(413.024 0.0176269 0)
(412.919 0.0154217 0)
(412.778 0.0267903 0)
(412.801 0.0167203 0)
(412.773 0.0203788 0)
(412.72 0.0279559 0)
(412.697 0.0262333 0)
(412.656 0.0282994 0)
(412.594 0.0325435 0)
(412.51 0.0311991 0)
(412.405 0.0302338 0)
(412.278 0.0297019 0)
(412.138 0.0276683 0)
(411.979 0.0265933 0)
(411.807 0.0254222 0)
(411.624 0.0240008 0)
(411.455 0.0228302 0)
(411.299 0.0196812 0)
(411.113 0.0318135 0)
(411.061 0.019274 0)
(410.977 0.0203789 0)
(410.875 0.0296809 0)
(410.824 0.0273218 0)
(410.754 0.0292008 0)
(410.617 0.0322896 0)
(5.70679 -9.3247 0)
(8.69236 -4.64622 0)
(9.65191 0.198503 0)
(5.73998 3.38854 0)
(-5.5508 8.14989 0)
(-23.3145 14.3136 0)
(-44.1884 20.8631 0)
(-63.979 24.9489 0)
(-81.0101 25.3718 0)
(-95.4538 23.8213 0)
(-107.755 20.7887 0)
(-118.352 18.212 0)
(-127.331 15.6098 0)
(-135.14 13.3244 0)
(-141.926 11.4397 0)
(-147.634 9.91997 0)
(-152.44 8.70284 0)
(-156.595 7.8289 0)
(-160.081 7.13925 0)
(-162.902 6.54307 0)
(-165.363 6.07752 0)
(-167.387 5.61944 0)
(-168.931 5.17806 0)
(-169.961 4.75255 0)
(-170.469 4.35402 0)
(-170.42 3.83249 0)
(-169.644 3.37723 0)
(-168.085 2.78415 0)
(-165.757 2.21816 0)
(-162.653 1.62 0)
(-158.814 0.955777 0)
(-154.213 0.254207 0)
(-148.857 -0.404583 0)
(-142.803 -1.10318 0)
(-136.008 -1.90846 0)
(-128.43 -2.54466 0)
(-120.205 -3.20565 0)
(-111.443 -3.86076 0)
(-102.099 -4.65401 0)
(-92.1618 -5.37292 0)
(-81.7221 -6.08843 0)
(-70.8811 -6.64427 0)
(-59.6928 -7.58614 0)
(-47.9717 -8.33423 0)
(-35.8887 -9.07479 0)
(-23.5899 -9.38424 0)
(-11.1533 -10.0789 0)
(1.61293 -10.6901 0)
(14.567 -11.4796 0)
(27.5015 -11.6864 0)
(40.3785 -12.2517 0)
(53.2561 -12.4251 0)
(66.0418 -12.869 0)
(78.6488 -12.9023 0)
(91.2239 -13.0761 0)
(103.706 -13.4077 0)
(115.855 -13.3608 0)
(127.739 -13.4046 0)
(139.298 -13.294 0)
(150.569 -13.1942 0)
(161.482 -12.9834 0)
(172.059 -12.7666 0)
(182.302 -12.5478 0)
(192.213 -12.2899 0)
(201.859 -12.0946 0)
(211.117 -11.7479 0)
(220.088 -11.4891 0)
(228.777 -11.137 0)
(237.07 -10.7648 0)
(245.125 -10.485 0)
(252.852 -10.0823 0)
(260.23 -9.77965 0)
(267.487 -9.47919 0)
(274.37 -9.11817 0)
(281.196 -8.85183 0)
(287.652 -8.44948 0)
(294.002 -8.15415 0)
(300.003 -7.73572 0)
(305.811 -7.3968 0)
(311.268 -6.98186 0)
(316.492 -6.6767 0)
(321.427 -6.29449 0)
(326.157 -6.07114 0)
(330.756 -5.80944 0)
(335.284 -5.6113 0)
(339.666 -5.29265 0)
(343.81 -5.05153 0)
(347.795 -4.7539 0)
(351.519 -4.53679 0)
(355.088 -4.2888 0)
(358.501 -4.11016 0)
(361.809 -3.88706 0)
(364.959 -3.72383 0)
(368.03 -3.52356 0)
(370.945 -3.36258 0)
(373.757 -3.19515 0)
(376.495 -3.05568 0)
(379.171 -2.90279 0)
(381.763 -2.75278 0)
(384.227 -2.62403 0)
(386.629 -2.48767 0)
(388.892 -2.36642 0)
(391.017 -2.25365 0)
(393.038 -2.15454 0)
(395.01 -2.0499 0)
(396.86 -1.96318 0)
(398.642 -1.87194 0)
(400.318 -1.7992 0)
(401.981 -1.71113 0)
(403.544 -1.64319 0)
(405.121 -1.56962 0)
(406.569 -1.50336 0)
(407.904 -1.44324 0)
(409.164 -1.38637 0)
(410.437 -1.35288 0)
(411.752 -1.28777 0)
(413.137 -1.17811 0)
(414.61 -1.12852 0)
(416.249 -0.950648 0)
(418.421 -1.31057 0)
(418.798 -0.843515 0)
(419.645 -0.705008 0)
(420.924 -0.987506 0)
(421.215 -0.897802 0)
(421.733 -0.867273 0)
(422.356 -0.863952 0)
(423.036 -0.84865 0)
(423.75 -0.792408 0)
(424.474 -0.767805 0)
(425.205 -0.745575 0)
(425.886 -0.723053 0)
(426.523 -0.700076 0)
(427.167 -0.673815 0)
(427.819 -0.634725 0)
(428.469 -0.608305 0)
(429.126 -0.578356 0)
(429.756 -0.556447 0)
(430.347 -0.53762 0)
(430.91 -0.515629 0)
(431.48 -0.488409 0)
(432.029 -0.469611 0)
(432.555 -0.45088 0)
(433.06 -0.431633 0)
(433.564 -0.408093 0)
(434.079 -0.384168 0)
(434.602 -0.344756 0)
(435.132 -0.334277 0)
(435.689 -0.279711 0)
(436.355 -0.348046 0)
(436.659 -0.257148 0)
(437.044 -0.220995 0)
(437.51 -0.257214 0)
(437.802 -0.237342 0)
(438.14 -0.239048 0)
(438.402 -0.233759 0)
(438.671 -0.226469 0)
(438.915 -0.223661 0)
(439.162 -0.213034 0)
(439.39 -0.20954 0)
(439.612 -0.199863 0)
(439.839 -0.190582 0)
(440.076 -0.18045 0)
(440.318 -0.167819 0)
(440.571 -0.155804 0)
(440.836 -0.136186 0)
(441.112 -0.118568 0)
(441.395 -0.108839 0)
(441.683 -0.0938508 0)
(441.966 -0.0847172 0)
(442.251 -0.0683616 0)
(442.543 -0.0789002 0)
(442.735 -0.0580803 0)
(442.949 -0.0543035 0)
(443.11 -0.0561341 0)
(443.286 -0.0638233 0)
(443.363 -0.0640486 0)
(443.454 -0.070539 0)
(443.478 -0.0713937 0)
(443.498 -0.0717662 0)
(443.525 -0.0700702 0)
(443.564 -0.0690345 0)
(443.618 -0.055919 0)
(443.694 -0.0515515 0)
(443.789 -0.0398196 0)
(443.903 -0.0232171 0)
(444.03 -0.0140418 0)
(444.174 -0.00660535 0)
(444.324 -0.00261054 0)
(444.444 0.00122989 0)
(444.561 0.0100685 0)
(444.631 0.0108353 0)
(444.717 0.00250458 0)
(444.714 -0.00198992 0)
(444.703 -0.00063762 0)
(444.676 -0.00269317 0)
(444.628 -0.0069067 0)
(444.562 -0.00936815 0)
(444.497 -0.0085533 0)
(444.446 -0.00596748 0)
(444.402 -0.00134535 0)
(444.403 0.0052242 0)
(444.403 0.0128142 0)
(444.426 0.0167694 0)
(444.458 0.0251236 0)
(444.502 0.0281884 0)
(444.531 0.0367939 0)
(444.538 0.0367655 0)
(444.525 0.0370512 0)
(444.496 0.0330145 0)
(444.447 0.0303102 0)
(444.372 0.0245442 0)
(444.274 0.0236702 0)
(444.158 0.0215595 0)
(444.04 0.0207689 0)
(443.922 0.0196258 0)
(443.822 0.0239296 0)
(443.726 0.0217489 0)
(443.594 0.0473887 0)
(443.605 0.0319271 0)
(443.577 0.0349627 0)
(443.527 0.0476089 0)
(443.499 0.0469387 0)
(443.457 0.0482053 0)
(443.397 0.0532587 0)
(443.32 0.0496233 0)
(443.223 0.0470329 0)
(443.108 0.0447066 0)
(442.98 0.0416782 0)
(442.835 0.0386211 0)
(442.676 0.0372632 0)
(442.508 0.0353125 0)
(442.348 0.0372539 0)
(442.196 0.0323168 0)
(442.016 0.0573482 0)
(441.952 0.0373086 0)
(441.86 0.0381836 0)
(441.752 0.0553805 0)
(441.688 0.052408 0)
(441.61 0.0532641 0)
(441.466 0.0566353 0)
(4.24271 -13.1204 0)
(7.14054 -6.00509 0)
(5.44247 1.97339 0)
(-4.37487 9.95535 0)
(-21.8224 17.4779 0)
(-41.6111 26.1202 0)
(-59.8292 31.8518 0)
(-75.4236 33.9317 0)
(-88.4352 33.1085 0)
(-99.2066 30.4283 0)
(-108.115 26.8282 0)
(-115.999 23.0903 0)
(-122.95 19.4514 0)
(-128.84 16.364 0)
(-133.912 13.9116 0)
(-138.17 12.0107 0)
(-141.76 10.5247 0)
(-144.893 9.42894 0)
(-147.503 8.58251 0)
(-149.541 7.81971 0)
(-151.304 7.2124 0)
(-152.674 6.61905 0)
(-153.618 6.05247 0)
(-154.109 5.49076 0)
(-154.063 4.82396 0)
(-153.392 4.1772 0)
(-152.015 3.45487 0)
(-149.836 2.62763 0)
(-146.902 1.81492 0)
(-143.201 0.959937 0)
(-138.748 0.0344795 0)
(-133.491 -0.958716 0)
(-127.397 -1.89658 0)
(-120.558 -2.87931 0)
(-112.952 -4.04732 0)
(-104.475 -5.03727 0)
(-95.3052 -5.99092 0)
(-85.5772 -6.92755 0)
(-75.2672 -8.06757 0)
(-64.3268 -9.11665 0)
(-52.8345 -10.1716 0)
(-40.9354 -10.9338 0)
(-28.6881 -12.2357 0)
(-15.947 -13.2717 0)
(-2.83926 -14.3629 0)
(10.4648 -14.817 0)
(23.9151 -15.8409 0)
(37.6598 -16.6678 0)
(51.4759 -17.7394 0)
(65.2498 -17.9481 0)
(78.8392 -18.6893 0)
(92.3823 -18.8487 0)
(105.753 -19.415 0)
(118.862 -19.3651 0)
(131.849 -19.6689 0)
(144.626 -19.9382 0)
(156.958 -19.7675 0)
(168.99 -19.7588 0)
(180.622 -19.51 0)
(191.922 -19.3201 0)
(202.785 -18.9326 0)
(213.269 -18.5815 0)
(223.363 -18.1992 0)
(233.064 -17.7786 0)
(242.469 -17.4225 0)
(251.412 -16.8787 0)
(260.042 -16.4615 0)
(268.341 -15.9105 0)
(276.21 -15.3627 0)
(283.828 -14.9044 0)
(291.03 -14.2785 0)
(297.86 -13.8175 0)
(304.577 -13.3336 0)
(310.881 -12.8036 0)
(317.152 -12.3919 0)
(323.036 -11.809 0)
(328.804 -11.3627 0)
(334.243 -10.7718 0)
(339.473 -10.2872 0)
(344.389 -9.7129 0)
(349.063 -9.28304 0)
(353.492 -8.75802 0)
(357.709 -8.43008 0)
(361.819 -8.04252 0)
(365.845 -7.73531 0)
(369.737 -7.2945 0)
(373.382 -6.95899 0)
(376.889 -6.5561 0)
(380.157 -6.26092 0)
(383.292 -5.9247 0)
(386.295 -5.67503 0)
(389.209 -5.37139 0)
(391.98 -5.14547 0)
(394.693 -4.87246 0)
(397.256 -4.65408 0)
(399.729 -4.42246 0)
(402.142 -4.22384 0)
(404.498 -4.01078 0)
(406.779 -3.80905 0)
(408.948 -3.63478 0)
(411.07 -3.45278 0)
(413.064 -3.29702 0)
(414.941 -3.15239 0)
(416.738 -3.01807 0)
(418.487 -2.87821 0)
(420.134 -2.76338 0)
(421.717 -2.64296 0)
(423.217 -2.54271 0)
(424.701 -2.42219 0)
(426.102 -2.32738 0)
(427.516 -2.22664 0)
(428.813 -2.14763 0)
(430.014 -2.06907 0)
(431.153 -1.99181 0)
(432.31 -1.93622 0)
(433.508 -1.83109 0)
(434.76 -1.66835 0)
(436.103 -1.58474 0)
(437.572 -1.34246 0)
(439.482 -1.79424 0)
(439.866 -1.28921 0)
(440.647 -1.10354 0)
(441.693 -1.43176 0)
(442.074 -1.3849 0)
(442.598 -1.32324 0)
(443.197 -1.29418 0)
(443.843 -1.25398 0)
(444.511 -1.17041 0)
(445.186 -1.13218 0)
(445.867 -1.09652 0)
(446.502 -1.06741 0)
(447.103 -1.03413 0)
(447.709 -0.992785 0)
(448.32 -0.935601 0)
(448.928 -0.895647 0)
(449.544 -0.852073 0)
(450.13 -0.823872 0)
(450.686 -0.79893 0)
(451.22 -0.768029 0)
(451.759 -0.728458 0)
(452.277 -0.702741 0)
(452.776 -0.676399 0)
(453.258 -0.648518 0)
(453.741 -0.612917 0)
(454.232 -0.575882 0)
(454.728 -0.52052 0)
(455.233 -0.504718 0)
(455.755 -0.429407 0)
(456.369 -0.519081 0)
(456.669 -0.418564 0)
(457.036 -0.366969 0)
(457.465 -0.408601 0)
(457.759 -0.394416 0)
(458.085 -0.392672 0)
(458.344 -0.388969 0)
(458.608 -0.377478 0)
(458.849 -0.371904 0)
(459.091 -0.355249 0)
(459.316 -0.348134 0)
(459.537 -0.332887 0)
(459.761 -0.315982 0)
(459.994 -0.296019 0)
(460.233 -0.276701 0)
(460.48 -0.256647 0)
(460.738 -0.226184 0)
(461.005 -0.199539 0)
(461.278 -0.183822 0)
(461.556 -0.160952 0)
(461.831 -0.147348 0)
(462.105 -0.125725 0)
(462.387 -0.143721 0)
(462.581 -0.115536 0)
(462.793 -0.111971 0)
(462.956 -0.114836 0)
(463.134 -0.127154 0)
(463.223 -0.129903 0)
(463.326 -0.138466 0)
(463.365 -0.140207 0)
(463.402 -0.139962 0)
(463.443 -0.133451 0)
(463.495 -0.125401 0)
(463.558 -0.105683 0)
(463.641 -0.0931232 0)
(463.741 -0.0733193 0)
(463.857 -0.0489495 0)
(463.983 -0.0314923 0)
(464.125 -0.0216208 0)
(464.274 -0.0156856 0)
(464.394 -0.0104213 0)
(464.513 -0.00162829 0)
(464.589 -0.000762011 0)
(464.68 -0.0157359 0)
(464.692 -0.0211371 0)
(464.689 -0.0216897 0)
(464.674 -0.0256501 0)
(464.64 -0.0325857 0)
(464.59 -0.0362363 0)
(464.541 -0.0308576 0)
(464.501 -0.0237222 0)
(464.47 -0.0122647 0)
(464.475 0.00135696 0)
(464.477 0.0114705 0)
(464.501 0.0219442 0)
(464.533 0.0333181 0)
(464.575 0.0385342 0)
(464.603 0.0464926 0)
(464.613 0.0476599 0)
(464.603 0.0457291 0)
(464.578 0.0393274 0)
(464.536 0.0323734 0)
(464.471 0.0254162 0)
(464.383 0.0233708 0)
(464.279 0.0198549 0)
(464.173 0.0206284 0)
(464.064 0.0196573 0)
(463.973 0.0288304 0)
(463.881 0.0288054 0)
(463.757 0.0654665 0)
(463.758 0.0501202 0)
(463.73 0.0514865 0)
(463.682 0.0671691 0)
(463.649 0.0692188 0)
(463.604 0.0694618 0)
(463.543 0.0739058 0)
(463.467 0.0680814 0)
(463.374 0.0637418 0)
(463.264 0.0593778 0)
(463.141 0.0554629 0)
(463.002 0.0498299 0)
(462.851 0.0485648 0)
(462.69 0.0458018 0)
(462.537 0.0518772 0)
(462.387 0.0468849 0)
(462.214 0.0811314 0)
(462.141 0.059257 0)
(462.045 0.0588964 0)
(461.936 0.0822445 0)
(461.864 0.0799186 0)
(461.779 0.0796953 0)
(461.63 0.0826511 0)
(1.86511 -16.0623 0)
(3.49323 -5.57656 0)
(-3.96328 7.2859 0)
(-18.5085 18.3589 0)
(-36.7832 28.7615 0)
(-53.4433 36.4902 0)
(-67.916 40.4103 0)
(-79.9335 41.0935 0)
(-89.7208 39.1618 0)
(-97.5709 35.4865 0)
(-104.071 30.6242 0)
(-109.979 26.0477 0)
(-115.14 22.0167 0)
(-119.526 18.5881 0)
(-123.333 15.8094 0)
(-126.599 13.6529 0)
(-129.387 11.9705 0)
(-131.826 10.6949 0)
(-133.841 9.71725 0)
(-135.321 8.8138 0)
(-136.574 8.07505 0)
(-137.451 7.36099 0)
(-137.93 6.64851 0)
(-137.915 5.85077 0)
(-137.317 5.04723 0)
(-136.071 4.16265 0)
(-134.09 3.17607 0)
(-131.297 2.0632 0)
(-127.687 0.962817 0)
(-123.272 -0.178717 0)
(-118.067 -1.40547 0)
(-112.008 -2.75661 0)
(-105.018 -4.04225 0)
(-97.2354 -5.33602 0)
(-88.6782 -6.92759 0)
(-79.1494 -8.33187 0)
(-68.8635 -9.62623 0)
(-57.9998 -10.8681 0)
(-46.5387 -12.4043 0)
(-34.3808 -13.8273 0)
(-21.5929 -15.2799 0)
(-8.42268 -16.2813 0)
(5.11634 -17.8951 0)
(19.0778 -19.1891 0)
(33.345 -20.6316 0)
(47.9091 -21.1993 0)
(62.5504 -22.549 0)
(77.4895 -23.5129 0)
(92.3732 -24.8178 0)
(107.165 -24.9558 0)
(121.695 -25.9008 0)
(136.124 -25.9917 0)
(150.288 -26.6698 0)
(164.028 -26.4103 0)
(177.505 -26.8267 0)
(190.627 -26.9338 0)
(203.117 -26.5211 0)
(215.286 -26.4635 0)
(226.925 -25.9781 0)
(238.142 -25.6591 0)
(248.815 -25.0074 0)
(258.996 -24.4754 0)
(268.747 -23.8635 0)
(277.979 -23.2409 0)
(286.921 -22.6713 0)
(295.285 -21.8951 0)
(303.313 -21.2859 0)
(310.967 -20.4962 0)
(318.12 -19.7499 0)
(325.026 -19.0949 0)
(331.494 -18.2541 0)
(337.595 -17.6366 0)
(343.607 -16.955 0)
(349.174 -16.2574 0)
(354.74 -15.6923 0)
(359.903 -14.9296 0)
(364.949 -14.329 0)
(369.68 -13.5728 0)
(374.202 -12.9501 0)
(378.434 -12.2296 0)
(382.436 -11.6867 0)
(386.219 -11.0338 0)
(389.803 -10.601 0)
(393.265 -10.0753 0)
(396.649 -9.65135 0)
(399.911 -9.08759 0)
(402.939 -8.67106 0)
(405.854 -8.16786 0)
(408.564 -7.80891 0)
(411.163 -7.38999 0)
(413.66 -7.07689 0)
(416.083 -6.69791 0)
(418.388 -6.41681 0)
(420.645 -6.07045 0)
(422.764 -5.80223 0)
(424.807 -5.50829 0)
(426.804 -5.25357 0)
(428.754 -4.98378 0)
(430.64 -4.73733 0)
(432.432 -4.52351 0)
(434.196 -4.30084 0)
(435.842 -4.12017 0)
(437.397 -3.95039 0)
(438.893 -3.78553 0)
(440.344 -3.61533 0)
(441.711 -3.47779 0)
(443.023 -3.33359 0)
(444.275 -3.20901 0)
(445.511 -3.06047 0)
(446.679 -2.9429 0)
(447.863 -2.81696 0)
(448.94 -2.73202 0)
(449.945 -2.6397 0)
(450.9 -2.54754 0)
(451.883 -2.46709 0)
(452.903 -2.31679 0)
(453.962 -2.10212 0)
(455.112 -1.97306 0)
(456.354 -1.70145 0)
(457.942 -2.16711 0)
(458.293 -1.71463 0)
(458.944 -1.52037 0)
(459.7 -1.83266 0)
(460.132 -1.84915 0)
(460.594 -1.76871 0)
(461.107 -1.70625 0)
(461.66 -1.63789 0)
(462.225 -1.52722 0)
(462.8 -1.47726 0)
(463.382 -1.42731 0)
(463.925 -1.39396 0)
(464.445 -1.35092 0)
(464.968 -1.29419 0)
(465.494 -1.21933 0)
(466.018 -1.16633 0)
(466.55 -1.10859 0)
(467.051 -1.07639 0)
(467.534 -1.04568 0)
(467.999 -1.00665 0)
(468.468 -0.955104 0)
(468.917 -0.923798 0)
(469.351 -0.890318 0)
(469.774 -0.85405 0)
(470.198 -0.8067 0)
(470.63 -0.755129 0)
(471.064 -0.685784 0)
(471.512 -0.660881 0)
(471.968 -0.572862 0)
(472.5 -0.666824 0)
(472.772 -0.572149 0)
(473.092 -0.512459 0)
(473.458 -0.547906 0)
(473.726 -0.543193 0)
(474.014 -0.540873 0)
(474.242 -0.538683 0)
(474.473 -0.523868 0)
(474.685 -0.515801 0)
(474.898 -0.493405 0)
(475.095 -0.483071 0)
(475.29 -0.461928 0)
(475.488 -0.438312 0)
(475.694 -0.407356 0)
(475.905 -0.381577 0)
(476.126 -0.353089 0)
(476.355 -0.311044 0)
(476.592 -0.276634 0)
(476.836 -0.253923 0)
(477.084 -0.223095 0)
(477.332 -0.205168 0)
(477.576 -0.178928 0)
(477.829 -0.203196 0)
(478.005 -0.169449 0)
(478.194 -0.167029 0)
(478.34 -0.171559 0)
(478.498 -0.189039 0)
(478.58 -0.195165 0)
(478.672 -0.207292 0)
(478.709 -0.210098 0)
(478.744 -0.210492 0)
(478.781 -0.197295 0)
(478.83 -0.183577 0)
(478.886 -0.155346 0)
(478.961 -0.134605 0)
(479.052 -0.106342 0)
(479.157 -0.0726269 0)
(479.27 -0.0484745 0)
(479.397 -0.0333328 0)
(479.532 -0.0265688 0)
(479.641 -0.0199447 0)
(479.748 -0.0142827 0)
(479.817 -0.0142931 0)
(479.896 -0.0339673 0)
(479.909 -0.0412094 0)
(479.905 -0.0437268 0)
(479.89 -0.050373 0)
(479.858 -0.0596821 0)
(479.812 -0.0635433 0)
(479.767 -0.0536891 0)
(479.729 -0.0424068 0)
(479.696 -0.0241878 0)
(479.702 -0.00328365 0)
(479.696 0.0108932 0)
(479.717 0.0272411 0)
(479.741 0.0426032 0)
(479.777 0.0501272 0)
(479.797 0.0577272 0)
(479.799 0.0589421 0)
(479.788 0.0544614 0)
(479.761 0.0454916 0)
(479.719 0.0341645 0)
(479.655 0.0257189 0)
(479.57 0.0226816 0)
(479.47 0.0170075 0)
(479.367 0.0195529 0)
(479.263 0.0190212 0)
(479.173 0.0332278 0)
(479.081 0.0370363 0)
(478.963 0.0855342 0)
(478.953 0.0689788 0)
(478.919 0.0697485 0)
(478.87 0.0874814 0)
(478.829 0.0932045 0)
(478.778 0.0925801 0)
(478.713 0.0956102 0)
(478.635 0.087388 0)
(478.54 0.0811532 0)
(478.43 0.0744466 0)
(478.308 0.0697894 0)
(478.172 0.0608167 0)
(478.024 0.0597999 0)
(477.867 0.0563786 0)
(477.717 0.0664469 0)
(477.566 0.0630119 0)
(477.398 0.104699 0)
(477.318 0.0835131 0)
(477.218 0.0819152 0)
(477.107 0.110267 0)
(477.026 0.109758 0)
(476.934 0.108591 0)
(476.778 0.110492 0)
(-1.70088 -16.4524 0)
(-4.6375 -2.04599 0)
(-15.7448 14.2735 0)
(-30.9306 28.2364 0)
(-46.2817 38.3512 0)
(-59.6643 44.5404 0)
(-70.9075 47.1573 0)
(-80.0866 46.6623 0)
(-87.3392 43.5367 0)
(-92.9901 38.5458 0)
(-97.741 33.256 0)
(-102.024 28.3266 0)
(-105.766 23.954 0)
(-109.05 20.2771 0)
(-111.955 17.3051 0)
(-114.477 14.9676 0)
(-116.63 13.1276 0)
(-118.476 11.6947 0)
(-119.955 10.5795 0)
(-120.91 9.5497 0)
(-121.666 8.67695 0)
(-122.04 7.8082 0)
(-121.969 6.89176 0)
(-121.372 5.94421 0)
(-120.166 4.90529 0)
(-118.25 3.75582 0)
(-115.569 2.46312 0)
(-112.037 1.01381 0)
(-107.595 -0.424811 0)
(-102.292 -1.89259 0)
(-96.1544 -3.45387 0)
(-89.1162 -5.23164 0)
(-81.0227 -6.9407 0)
(-72.0725 -8.56337 0)
(-62.3644 -10.6441 0)
(-51.5434 -12.5419 0)
(-39.8743 -14.237 0)
(-27.5943 -15.7684 0)
(-14.7142 -17.716 0)
(-1.07724 -19.5075 0)
(13.2605 -21.3509 0)
(28.0852 -22.5749 0)
(43.2402 -24.6158 0)
(59.0036 -26.2071 0)
(75.0629 -28.0663 0)
(91.469 -28.7015 0)
(107.866 -30.4346 0)
(124.538 -31.4652 0)
(140.98 -32.9729 0)
(157.115 -32.8533 0)
(172.925 -34.0304 0)
(188.503 -33.8947 0)
(203.574 -34.6489 0)
(218.103 -34.0272 0)
(231.853 -34.401 0)
(245.296 -34.3246 0)
(257.913 -33.5374 0)
(270.042 -33.3575 0)
(281.642 -32.5845 0)
(292.47 -32.0005 0)
(302.835 -31.0358 0)
(312.36 -30.2325 0)
(321.564 -29.3349 0)
(329.974 -28.4439 0)
(338.202 -27.6167 0)
(345.653 -26.5583 0)
(352.775 -25.7169 0)
(359.464 -24.6523 0)
(365.55 -23.6853 0)
(371.447 -22.7934 0)
(376.835 -21.7158 0)
(381.919 -20.9404 0)
(386.91 -20.048 0)
(391.427 -19.1817 0)
(396.002 -18.4637 0)
(400.134 -17.5206 0)
(404.179 -16.7698 0)
(407.902 -15.8544 0)
(411.45 -15.1087 0)
(414.698 -14.2565 0)
(417.787 -13.6206 0)
(420.642 -12.8561 0)
(423.364 -12.3434 0)
(425.995 -11.6964 0)
(428.608 -11.1849 0)
(431.116 -10.5124 0)
(433.437 -10.0488 0)
(435.669 -9.45739 0)
(437.742 -9.06347 0)
(439.725 -8.57069 0)
(441.639 -8.21288 0)
(443.497 -7.76886 0)
(445.265 -7.44847 0)
(446.981 -7.02722 0)
(448.572 -6.72472 0)
(450.108 -6.37142 0)
(451.616 -6.07035 0)
(453.093 -5.75238 0)
(454.521 -5.47302 0)
(455.879 -5.22982 0)
(457.229 -4.97403 0)
(458.474 -4.78193 0)
(459.656 -4.59083 0)
(460.798 -4.4016 0)
(461.893 -4.20887 0)
(462.925 -4.05673 0)
(463.917 -3.89504 0)
(464.87 -3.75166 0)
(465.809 -3.58099 0)
(466.697 -3.44835 0)
(467.601 -3.30068 0)
(468.411 -3.21744 0)
(469.173 -3.11607 0)
(469.905 -3.01733 0)
(470.672 -2.90651 0)
(471.468 -2.70828 0)
(472.288 -2.44346 0)
(473.195 -2.26074 0)
(474.166 -1.99555 0)
(475.388 -2.41715 0)
(475.686 -2.08426 0)
(476.163 -1.9191 0)
(476.62 -2.17095 0)
(477.058 -2.25463 0)
(477.397 -2.16943 0)
(477.777 -2.07103 0)
(478.2 -1.97674 0)
(478.626 -1.83943 0)
(479.066 -1.78168 0)
(479.512 -1.71642 0)
(479.928 -1.68122 0)
(480.334 -1.62884 0)
(480.742 -1.55708 0)
(481.148 -1.46615 0)
(481.556 -1.40228 0)
(481.972 -1.33017 0)
(482.359 -1.29748 0)
(482.739 -1.2606 0)
(483.107 -1.2147 0)
(483.476 -1.15227 0)
(483.827 -1.11726 0)
(484.168 -1.07764 0)
(484.505 -1.03377 0)
(484.844 -0.974419 0)
(485.189 -0.908678 0)
(485.535 -0.82734 0)
(485.899 -0.79136 0)
(486.265 -0.698724 0)
(486.691 -0.784165 0)
(486.912 -0.707896 0)
(487.163 -0.644094 0)
(487.444 -0.669112 0)
(487.66 -0.673497 0)
(487.889 -0.674241 0)
(488.065 -0.67395 0)