/*--------------------------------*- C++ -*----------------------------------*\
| =========                 |                                                 |
| \\      /  F ield         | OpenFOAM: The Open Source CFD Toolbox           |
|  \\    /   O peration     | Version:  2312                                  |
|   \\  /    A nd           | Website:  www.openfoam.com                      |
|    \\/     M anipulation  |                                                 |
\*---------------------------------------------------------------------------*/
FoamFile
{
    version     2.0;
    format      ascii;
    arch        "LSB;label=32;scalar=64";
    class       volScalarField;
    location    "6000";
    object      cSound;
}
// * * * * * * * * * * * * * * * * * * * * * * * * * * * * * * * * * * * * * //

dimensions      [0 1 -1 0 0 0 0];

internalField   nonuniform List<scalar> 
20400
(
1458.125994
1458.126207
1458.126972
1458.126165
1458.125864
1458.125515
1458.125802
1458.126009
1458.12611
1458.126136
1458.125638
1458.125627
1458.125506
1458.125158
1458.125103
1458.125158
1458.125107
1458.12508
1458.12506
1458.125049
1458.12506
1458.125038
1458.125235
1458.125327
1458.12541
1458.125394
1458.125309
1458.125265
1458.125243
1458.125351
1458.125362
1458.125179
1458.125188
1458.1252
1458.12529
1458.125346
1458.12539
1458.125461
1458.125422
1458.125435
1458.12547
1458.12549
1458.125552
1458.125589
1458.125587
1458.125638
1458.125704
1458.125621
1458.125665
1458.125712
1458.125657
1458.125596
1458.125599
1458.125528
1458.125552
1458.125577
1458.125598
1458.125638
1458.125677
1458.125653
1458.125708
1458.125654
1458.125693
1458.125724
1458.125714
1458.12571
1458.125683
1458.125739
1458.125703
1458.125769
1458.125797
1458.1258
1458.125807
1458.125768
1458.125789
1458.125766
1458.125831
1458.125805
1458.125811
1458.125828
1458.125738
1458.125727
1458.125766
1458.125753
1458.125786
1458.125742
1458.125734
1458.125742
1458.125805
1458.125811
1458.12584
1458.125792
1458.125809
1458.125787
1458.125753
1458.125778
1458.125727
1458.125737
1458.125665
1458.125607
1458.125632
1458.12559
1458.125652
1458.125638
1458.125672
1458.125612
1458.125626
1458.125617
1458.125612
1458.125686
1458.125687
1458.12571
1458.125741
1458.125691
1458.125667
1458.125668
1458.125675
1458.125701
1458.125676
1458.125657
1458.125687
1458.125717
1458.125717
1458.125754
1458.125745
1458.125773
1458.125744
1458.12575
1458.125715
1458.125746
1458.125756
1458.125795
1458.12578
1458.125726
1458.125744
1458.125756
1458.125749
1458.125741
1458.125741
1458.125786
1458.125795
1458.125776
1458.125799
1458.125784
1458.125756
1458.1258
1458.125782
1458.125769
1458.125767
1458.125773
1458.125764
1458.125799
1458.125811
1458.125798
1458.125838
1458.125821
1458.125842
1458.125841
1458.125822
1458.125796
1458.125778
1458.125788
1458.125798
1458.125818
1458.125868
1458.125871
1458.125916
1458.125934
1458.125928
1458.125926
1458.125942
1458.125946
1458.125981
1458.125934
1458.125908
1458.125942
1458.125916
1458.125964
1458.125986
1458.126013
1458.126024
1458.126009
1458.125989
1458.125982
1458.126
1458.125996
1458.126007
1458.12602
1458.125997
1458.125993
1458.126003
1458.126026
1458.126066
1458.126054
1458.126077
1458.126077
1458.126071
1458.126102
1458.126116
1458.126092
1458.126067
1458.126065
1458.126089
1458.126107
1458.126107
1458.12609
1458.126097
1458.126105
1458.126107
1458.126139
1458.126136
1458.12614
1458.12616
1458.126151
1458.12614
1458.126154
1458.126119
1458.126148
1458.126124
1458.126152
1458.1261
1458.126057
1458.126222
1458.12598
1458.126022
1458.126108
1458.126116
1458.12608
1458.126019
1458.12601
1458.126087
1458.126065
1458.126066
1458.126038
1458.126025
1458.126049
1458.126052
1458.126058
1458.126043
1458.126018
1458.126041
1458.126034
1458.126054
1458.126045
1458.126006
1458.126022
1458.126006
1458.126004
1458.126015
1458.126
1458.126018
1458.126023
1458.126007
1458.126003
1458.126
1458.126018
1458.126007
1458.125995
1458.125975
1458.125957
1458.125951
1458.125932
1458.125908
1458.125905
1458.12589
1458.125928
1458.125936
1458.125917
1458.125909
1458.125882
1458.125874
1458.125874
1458.125871
1458.125858
1458.125867
1458.125848
1458.125834
1458.125816
1458.12578
1458.125765
1458.125773
1458.125786
1458.125761
1458.125756
1458.125743
1458.125733
1458.125737
1458.125715
1458.125714
1458.125723
1458.125721
1458.125695
1458.125659
1458.125638
1458.125648
1458.125645
1458.125649
1458.125641
1458.125607
1458.125622
1458.125622
1458.125609
1458.125624
1458.125663
1458.125655
1458.125653
1458.12566
1458.125668
1458.125656
1458.125644
1458.125632
1458.125587
1458.12561
1458.125648
1458.125628
1458.125589
1458.12557
1458.125554
1458.125567
1458.125564
1458.125578
1458.125563
1458.125567
1458.125554
1458.125504
1458.125513
1458.125488
1458.125463
1458.125458
1458.125474
1458.125466
1458.125446
1458.125461
1458.125508
1458.125507
1458.125535
1458.125523
1458.125525
1458.125494
1458.125478
1458.125477
1458.12547
1458.125476
1458.125507
1458.125544
1458.125501
1458.125524
1458.12555
1458.125547
1458.125517
1458.125523
1458.125524
1458.125546
1458.12557
1458.125569
1458.125554
1458.125618
1458.125595
1458.12556
1458.125585
1458.125617
1458.12566
1458.125695
1458.125772
1458.125754
1458.125719
1458.125736
1458.125678
1458.12568
1458.125684
1458.125749
1458.125799
1458.125849
1458.125925
1458.125907
1458.125917
1458.125932
1458.125935
1458.125985
1458.125971
1458.125974
1458.125927
1458.125962
1458.125986
1458.125951
1458.125956
1458.126031
1458.12606
1458.126014
1458.126012
1458.125954
1458.125951
1458.125983
1458.125928
1458.125868
1458.125764
1458.125816
1458.125803
1458.125666
1458.125718
1458.125675
1458.125715
1458.125722
1458.125752
1458.125744
1458.12573
1458.12569
1458.125647
1458.125569
1458.125458
1458.12539
1458.125282
1458.125249
1458.125193
1458.125179
1458.125144
1458.125117
1458.125173
1458.125233
1458.12522
1458.125224
1458.125182
1458.125174
1458.125148
1458.125108
1458.125216
1458.125288
1458.125272
1458.125291
1458.125284
1458.125297
1458.125369
1458.125309
1458.125228
1458.125264
1458.125243
1458.125156
1458.12515
1458.125116
1458.125144
1458.125139
1458.125158
1458.125165
1458.125187
1458.125189
1458.125174
1458.125107
1458.125175
1458.125104
1458.125101
1458.125046
1458.125051
1458.125115
1458.125243
1458.125307
1458.125248
1458.125245
1458.125197
1458.125196
1458.125167
1458.125177
1458.125123
1458.125121
1458.125132
1458.125163
1458.125224
1458.125216
1458.125205
1458.125198
1458.125131
1458.125131
1458.125142
1458.125107
1458.125117
1458.125124
1458.125111
1458.125138
1458.125181
1458.125198
1458.125136
1458.125143
1458.125123
1458.125109
1458.125115
1458.125146
1458.125201
1458.125206
1458.125189
1458.125212
1458.125202
1458.125155
1458.125143
1458.125157
1458.125208
1458.125146
1458.125139
1458.125144
1458.12514
1458.125212
1458.125214
1458.126176
1458.126352
1458.126952
1458.125311
1458.125228
1458.125271
1458.125454
1458.125555
1458.125559
1458.125547
1458.125468
1458.125232
1458.125246
1458.12512
1458.12512
1458.12518
1458.125212
1458.125219
1458.125235
1458.125187
1458.125133
1458.125212
1458.1252
1458.125289
1458.125335
1458.125372
1458.125407
1458.125416
1458.125457
1458.125443
1458.125405
1458.125371
1458.125448
1458.125456
1458.1255
1458.125526
1458.125553
1458.125577
1458.125589
1458.1256
1458.125635
1458.125639
1458.125627
1458.12562
1458.12562
1458.125649
1458.125653
1458.125643
1458.125635
1458.12565
1458.125668
1458.125678
1458.125711
1458.125676
1458.125697
1458.125705
1458.125665
1458.125716
1458.125718
1458.125719
1458.125745
1458.125745
1458.125761
1458.125742
1458.125754
1458.125785
1458.125749
1458.125749
1458.125718
1458.12575
1458.12575
1458.125746
1458.125757
1458.125722
1458.125729
1458.125684
1458.125692
1458.125688
1458.125653
1458.125664
1458.125618
1458.125657
1458.125648
1458.125649
1458.125667
1458.125665
1458.125656
1458.125652
1458.125691
1458.125669
1458.125679
1458.125657
1458.125676
1458.125694
1458.125691
1458.125667
1458.125663
1458.125667
1458.125669
1458.125661
1458.125663
1458.125665
1458.125692
1458.125676
1458.125683
1458.12566
1458.125682
1458.125684
1458.125676
1458.125683
1458.125665
1458.125676
1458.125687
1458.125667
1458.125664
1458.125694
1458.125715
1458.125726
1458.125715
1458.125714
1458.125749
1458.125753
1458.125761
1458.125756
1458.125763
1458.125763
1458.125764
1458.125761
1458.12575
1458.125784
1458.125791
1458.125772
1458.125755
1458.125776
1458.125787
1458.125794
1458.125812
1458.125796
1458.125784
1458.1258
1458.125796
1458.125776
1458.125792
1458.125826
1458.125839
1458.125834
1458.125885
1458.125901
1458.125919
1458.125928
1458.125927
1458.125905
1458.125889
1458.125897
1458.125904
1458.125911
1458.125896
1458.125901
1458.125905
1458.125889
1458.125893
1458.125903
1458.125915
1458.125922
1458.125941
1458.125946
1458.125942
1458.125959
1458.125959
1458.125978
1458.125963
1458.125974
1458.125969
1458.125965
1458.125963
1458.125965
1458.126
1458.126016
1458.126013
1458.126003
1458.126004
1458.126008
1458.126023
1458.126024
1458.126024
1458.12604
1458.126052
1458.126047
1458.126051
1458.126052
1458.126055
1458.126062
1458.126061
1458.126067
1458.126054
1458.126062
1458.126058
1458.126061
1458.126051
1458.126049
1458.126067
1458.126088
1458.126085
1458.126082
1458.126085
1458.126086
1458.126081
1458.126088
1458.1261
1458.126125
1458.126108
1458.126119
1458.126142
1458.126156
1458.126165
1458.12615
1458.126175
1458.126185
1458.12613
1458.126194
1458.126139
1458.126173
1458.12614
1458.126139
1458.12617
1458.126158
1458.126162
1458.126175
1458.126178
1458.126161
1458.126167
1458.126181
1458.126175
1458.126181
1458.126202
1458.126212
1458.126228
1458.126219
1458.126208
1458.126212
1458.126217
1458.126232
1458.126252
1458.126231
1458.126239
1458.126248
1458.126255
1458.12625
1458.126252
1458.12625
1458.126237
1458.126225
1458.126237
1458.126243
1458.126233
1458.126229
1458.126237
1458.126235
1458.126236
1458.126227
1458.126224
1458.126236
1458.126229
1458.126229
1458.126211
1458.126213
1458.126206
1458.126194
1458.126174
1458.126171
1458.12618
1458.126174
1458.126162
1458.126158
1458.126159
1458.126161
1458.126153
1458.126143
1458.126139
1458.126134
1458.126126
1458.126106
1458.126108
1458.126118
1458.126116
1458.126098
1458.126083
1458.126073
1458.126048
1458.126038
1458.126041
1458.126042
1458.126045
1458.126042
1458.126044
1458.126041
1458.126041
1458.126029
1458.126017
1458.125993
1458.126009
1458.126021
1458.126025
1458.126029
1458.126032
1458.126026
1458.126026
1458.126022
1458.126021
1458.126015
1458.125967
1458.125931
1458.125896
1458.125889
1458.125884
1458.125882
1458.125885
1458.125894
1458.125927
1458.125927
1458.125921
1458.125912
1458.125902
1458.12587
1458.125836
1458.125847
1458.125832
1458.125819
1458.125804
1458.125816
1458.125814
1458.125796
1458.125742
1458.125735
1458.125734
1458.125713
1458.12571
1458.125698
1458.125699
1458.125713
1458.125719
1458.125706
1458.125675
1458.125678
1458.125671
1458.125684
1458.125696
1458.125672
1458.125676
1458.125684
1458.125675
1458.125636
1458.125601
1458.125593
1458.125597
1458.125628
1458.125617
1458.125618
1458.125587
1458.125589
1458.125577
1458.125574
1458.125569
1458.125556
1458.12553
1458.125528
1458.125528
1458.125547
1458.125532
1458.125504
1458.125513
1458.125501
1458.125485
1458.125458
1458.125464
1458.125509
1458.125524
1458.125513
1458.125523
1458.125515
1458.125499
1458.125492
1458.125493
1458.125501
1458.125519
1458.125512
1458.125507
1458.125539
1458.12555
1458.125532
1458.1255
1458.125499
1458.125503
1458.125492
1458.125523
1458.125521
1458.125507
1458.125507
1458.125474
1458.125423
1458.125442
1458.125419
1458.12542
1458.12543
1458.12543
1458.12545
1458.125435
1458.12546
1458.125478
1458.125478
1458.125466
1458.125457
1458.125457
1458.125472
1458.125465
1458.125491
1458.125501
1458.125495
1458.125499
1458.125453
1458.125431
1458.125371
1458.125372
1458.125391
1458.125384
1458.125383
1458.125377
1458.125377
1458.12539
1458.12538
1458.125377
1458.125371
1458.125408
1458.125403
1458.12543
1458.125434
1458.125425
1458.125423
1458.1254
1458.125383
1458.125376
1458.125387
1458.125342
1458.125326
1458.125337
1458.125314
1458.125367
1458.125348
1458.125375
1458.125372
1458.12541
1458.125449
1458.125543
1458.125527
1458.125547
1458.125554
1458.125539
1458.125569
1458.125609
1458.125605
1458.125601
1458.12562
1458.125633
1458.125675
1458.125668
1458.125688
1458.125715
1458.125717
1458.125726
1458.125697
1458.125715
1458.125734
1458.125736
1458.125705
1458.125678
1458.12564
1458.12561
1458.125635
1458.125647
1458.125635
1458.125643
1458.125655
1458.125653
1458.125699
1458.125715
1458.125698
1458.125736
1458.125726
1458.125745
1458.125705
1458.125718
1458.12576
1458.125742
1458.125737
1458.125741
1458.125714
1458.125702
1458.125718
1458.125717
1458.125705
1458.126196
1458.126141
1458.126638
1458.125761
1458.125896
1458.125652
1458.125592
1458.125694
1458.12554
1458.125403
1458.125449
1458.125297
1458.125285
1458.125306
1458.125209
1458.125273
1458.125382
1458.125445
1458.125451
1458.125398
1458.125391
1458.125405
1458.125399
1458.125463
1458.125422
1458.125478
1458.125502
1458.125537
1458.125566
1458.125557
1458.125523
1458.125556
1458.125545
1458.125587
1458.125576
1458.1256
1458.125622
1458.125639
1458.125655
1458.12563
1458.125641
1458.125622
1458.125661
1458.125607
1458.125571
1458.12556
1458.125598
1458.125604
1458.125621
1458.12565
1458.125649
1458.125627
1458.125643
1458.125635
1458.125661
1458.125707
1458.125699
1458.125699
1458.125703
1458.125692
1458.125673
1458.125665
1458.125656
1458.125672
1458.125687
1458.125657
1458.125652
1458.125653
1458.125641
1458.125619
1458.125603
1458.125621
1458.125605
1458.125594
1458.125619
1458.125644
1458.125617
1458.125613
1458.125621
1458.125622
1458.125617
1458.125625
1458.125624
1458.125637
1458.12564
1458.125628
1458.125615
1458.125636
1458.125641
1458.125641
1458.125657
1458.125677
1458.125676
1458.125668
1458.125691
1458.125703
1458.125704
1458.125725
1458.125727
1458.12573
1458.125749
1458.125741
1458.125735
1458.125725
1458.125737
1458.125737
1458.125717
1458.125709
1458.125698
1458.125722
1458.125735
1458.125754
1458.125785
1458.125773
1458.125806
1458.125804
1458.125796
1458.125791
1458.125807
1458.125823
1458.125828
1458.125815
1458.125816
1458.125812
1458.12583
1458.125839
1458.125831
1458.125807
1458.12581
1458.125815
1458.125816
1458.125811
1458.125811
1458.125842
1458.125861
1458.125866
1458.125868
1458.125895
1458.125892
1458.125889
1458.125915
1458.12592
1458.125931
1458.12593
1458.125919
1458.125924
1458.125926
1458.125912
1458.125907
1458.125911
1458.125923
1458.12592
1458.125909
1458.12592
1458.125935
1458.125931
1458.125966
1458.125966
1458.125962
1458.125949
1458.125962
1458.125961
1458.125969
1458.125954
1458.125953
1458.125973
1458.125989
1458.125992
1458.125965
1458.125962
1458.125963
1458.125974
1458.125972
1458.12597
1458.125959
1458.125967
1458.12598
1458.125984
1458.125996
1458.125988
1458.12599
1458.125997
1458.12598
1458.125986
1458.125989
1458.126013
1458.126019
1458.126004
1458.126001
1458.125993
1458.125993
1458.126003
1458.125999
1458.126003
1458.126001
1458.126016
1458.126012
1458.126009
1458.126036
1458.126044
1458.126053
1458.126074
1458.126078
1458.126075
1458.126078
1458.126065
1458.126078
1458.126084
1458.126073
1458.12607
1458.126107
1458.126143
1458.126146
1458.126136
1458.12614
1458.126107
1458.126134
1458.126213
1458.126186
1458.12617
1458.126196
1458.126186
1458.126228
1458.126239
1458.126228
1458.126245
1458.126243
1458.126235
1458.126235
1458.126245
1458.12626
1458.126251
1458.126247
1458.126252
1458.12627
1458.126271
1458.126284
1458.126298
1458.126313
1458.126323
1458.12634
1458.126344
1458.126348
1458.126342
1458.126357
1458.126357
1458.126353
1458.126357
1458.126358
1458.126349
1458.126341
1458.126344
1458.126341
1458.126332
1458.126338
1458.126333
1458.126325
1458.126315
1458.126321
1458.126313
1458.126321
1458.126332
1458.126322
1458.126326
1458.126329
1458.126317
1458.126313
1458.126314
1458.126311
1458.126306
1458.126309
1458.126309
1458.126306
1458.126307
1458.12631
1458.126302
1458.126302
1458.126309
1458.12631
1458.126306
1458.126303
1458.126297
1458.126302
1458.126293
1458.126272
1458.126264
1458.126259
1458.126244
1458.126241
1458.126243
1458.126251
1458.126243
1458.126247
1458.126243
1458.126244
1458.12625
1458.126256
1458.126251
1458.126244
1458.12625
1458.126252
1458.12625
1458.126244
1458.126224
1458.126216
1458.126205
1458.126201
1458.1262
1458.126197
1458.126196
1458.126184
1458.126173
1458.126166
1458.126157
1458.126143
1458.126149
1458.12615
1458.126153
1458.126137
1458.126139
1458.126135
1458.126127
1458.126107
1458.126107
1458.126106
1458.1261
1458.12608
1458.126061
1458.126053
1458.126051
1458.126045
1458.126048
1458.126044
1458.126041
1458.12604
1458.12603
1458.126037
1458.12602
1458.126002
1458.125998
1458.125987
1458.125983
1458.125971
1458.125963
1458.125939
1458.125932
1458.125923
1458.125921
1458.125936
1458.125937
1458.125962
1458.125954
1458.125939
1458.125924
1458.125925
1458.125909
1458.125897
1458.125866
1458.125861
1458.125841
1458.125837
1458.125832
1458.12582
1458.12582
1458.12581
1458.125806
1458.125806
1458.125776
1458.125764
1458.125741
1458.125741
1458.125737
1458.125721
1458.125706
1458.125711
1458.12569
1458.125688
1458.125674
1458.125679
1458.125664
1458.125662
1458.125671
1458.125655
1458.125663
1458.125643
1458.125644
1458.125648
1458.125659
1458.125652
1458.125637
1458.125653
1458.125637
1458.125645
1458.125653
1458.125633
1458.125633
1458.125643
1458.125644
1458.125637
1458.12564
1458.125624
1458.12561
1458.125612
1458.125587
1458.125581
1458.125593
1458.125596
1458.125581
1458.125566
1458.125569
1458.125559
1458.125543
1458.125547
1458.125558
1458.125547
1458.125546
1458.125551
1458.125566
1458.125614
1458.125605
1458.12561
1458.125643
1458.125639
1458.125645
1458.12564
1458.125652
1458.125658
1458.125686
1458.125703
1458.125682
1458.12567
1458.125693
1458.125686
1458.12571
1458.12573
1458.125722
1458.125715
1458.125768
1458.125784
1458.125767
1458.125764
1458.125788
1458.125772
1458.125773
1458.125795
1458.125769
1458.125734
1458.125748
1458.125752
1458.12573
1458.125701
1458.125666
1458.125651
1458.125658
1458.125656
1458.125666
1458.125644
1458.125636
1458.125612
1458.125605
1458.125618
1458.125592
1458.125562
1458.125566
1458.125559
1458.125561
1458.125587
1458.125632
1458.125632
1458.125631
1458.125641
1458.12566
1458.125649
1458.125629
1458.125616
1458.125649
1458.12567
1458.12566
1458.125675
1458.125663
1458.125674
1458.12567
1458.125675
1458.125668
1458.125659
1458.125641
1458.125622
1458.125631
1458.125622
1458.125608
1458.125631
1458.125643
1458.125633
1458.125656
1458.125701
1458.12571
1458.125724
1458.125702
1458.125724
1458.125722
1458.126976
1458.126921
1458.126673
1458.126087
1458.125833
1458.125501
1458.125515
1458.125523
1458.125532
1458.125452
1458.12552
1458.125481
1458.125456
1458.125414
1458.125442
1458.125418
1458.125429
1458.125492
1458.125492
1458.125473
1458.12551
1458.125518
1458.125542
1458.125486
1458.125496
1458.125523
1458.125531
1458.125522
1458.125514
1458.125515
1458.125542
1458.125507
1458.125494
1458.125515
1458.125513
1458.125522
1458.125506
1458.125486
1458.125483
1458.125509
1458.125513
1458.125505
1458.125501
1458.125507
1458.12553
1458.125541
1458.12551
1458.125525
1458.125524
1458.125553
1458.125537
1458.125541
1458.125552
1458.125548
1458.125555
1458.125542
1458.125547
1458.125544
1458.125567
1458.12558
1458.125567
1458.125578
1458.125564
1458.125591
1458.12559
1458.125565
1458.125544
1458.125557
1458.125555
1458.12557
1458.125618
1458.125626
1458.125625
1458.125622
1458.125627
1458.125649
1458.125665
1458.12568
1458.125698
1458.125683
1458.125683
1458.125676
1458.125694
1458.125677
1458.125694
1458.125714
1458.125708
1458.125722
1458.125725
1458.125737
1458.125731
1458.125754
1458.125772
1458.125765
1458.125756
1458.125758
1458.125749
1458.125753
1458.125753
1458.125742
1458.125746
1458.125749
1458.125754
1458.125766
1458.12577
1458.125749
1458.125773
1458.125781
1458.125792
1458.125799
1458.125776
1458.125783
1458.125766
1458.125769
1458.125795
1458.125799
1458.125797
1458.125795
1458.125787
1458.125793
1458.125799
1458.125784
1458.125788
1458.125783
1458.125799
1458.125804
1458.125799
1458.125807
1458.125806
1458.125814
1458.125824
1458.12582
1458.12582
1458.125837
1458.125853
1458.12586
1458.125869
1458.125865
1458.125861
1458.125862
1458.125856
1458.125864
1458.125869
1458.125862
1458.125851
1458.125846
1458.12585
1458.12586
1458.125869
1458.125888
1458.125896
1458.125892
1458.125903
1458.125887
1458.125885
1458.125869
1458.125868
1458.125876
1458.125883
1458.125881
1458.125881
1458.125868
1458.125865
1458.125861
1458.12587
1458.125866
1458.125865
1458.125866
1458.125857
1458.125857
1458.125854
1458.125849
1458.125846
1458.125846
1458.125835
1458.125834
1458.125849
1458.125849
1458.125844
1458.125848
1458.125831
1458.12583
1458.125815
1458.125811
1458.125813
1458.125809
1458.12581
1458.125811
1458.125815
1458.125833
1458.125852
1458.125867
1458.125884
1458.125889
1458.125888
1458.125906
1458.12591
1458.12592
1458.125931
1458.125962
1458.125965
1458.125985
1458.125993
1458.126004
1458.12602
1458.126026
1458.126043
1458.126046
1458.126057
1458.126047
1458.126041
1458.126139
1458.126132
1458.12615
1458.126163
1458.126181
1458.126213
1458.126217
1458.126232
1458.126232
1458.126249
1458.126251
1458.126257
1458.12627
1458.126287
1458.126299
1458.126314
1458.126323
1458.126329
1458.126338
1458.126346
1458.126348
1458.126367
1458.12638
1458.126383
1458.126388
1458.126397
1458.126412
1458.126432
1458.126443
1458.126451
1458.12645
1458.126455
1458.126453
1458.126449
1458.12645
1458.126462
1458.126465
1458.126466
1458.126466
1458.126463
1458.126459
1458.126466
1458.126466
1458.126465
1458.126474
1458.126478
1458.126477
1458.126481
1458.126481
1458.126475
1458.126482
1458.126482
1458.126474
1458.126467
1458.126467
1458.126465
1458.126463
1458.126461
1458.126457
1458.126455
1458.126453
1458.126457
1458.126458
1458.126449
1458.126443
1458.126442
1458.126435
1458.126431
1458.126423
1458.126427
1458.12642
1458.126419
1458.126423
1458.126428
1458.126427
1458.126426
1458.126416
1458.126414
1458.126399
1458.126391
1458.126392
1458.126387
1458.126381
1458.12638
1458.126392
1458.126383
1458.126383
1458.126379
1458.126368
1458.126364
1458.126369
1458.126365
1458.126368
1458.126364
1458.126367
1458.126368
1458.126363
1458.126353
1458.126347
1458.12634
1458.12634
1458.126336
1458.126329
1458.12631
1458.126317
1458.126318
1458.12631
1458.126298
1458.126291
1458.126295
1458.126293
1458.126282
1458.126282
1458.126279
1458.126285
1458.126283
1458.126273
1458.126251
1458.126235
1458.126236
1458.126239
1458.126215
1458.126208
1458.126201
1458.126201
1458.126209
1458.126197
1458.126178
1458.126176
1458.126178
1458.12618
1458.126178
1458.126184
1458.126181
1458.12618
1458.126172
1458.126156
1458.126139
1458.126141
1458.126141
1458.126143
1458.126138
1458.126126
1458.126119
1458.126119
1458.126121
1458.126126
1458.126131
1458.126129
1458.126126
1458.126123
1458.126096
1458.12609
1458.126056
1458.126045
1458.126026
1458.126012
1458.126009
1458.126028
1458.126024
1458.126009
1458.126002
1458.125993
1458.125981
1458.125948
1458.125944
1458.12595
1458.125935
1458.125932
1458.125915
1458.125888
1458.125865
1458.125854
1458.12585
1458.125846
1458.125851
1458.125845
1458.125839
1458.12583
1458.125818
1458.12581
1458.125812
1458.125796
1458.125781
1458.125789
1458.125781
1458.125767
1458.125744
1458.12575
1458.125741
1458.125746
1458.12574
1458.125729
1458.12571
1458.125707
1458.125686
1458.125675
1458.125656
1458.125664
1458.125644
1458.125648
1458.125643
1458.125656
1458.125657
1458.125674
1458.125656
1458.125624
1458.12561
1458.125601
1458.125592
1458.125579
1458.125567
1458.125559
1458.125551
1458.125562
1458.125561
1458.125565
1458.125581
1458.125577
1458.125592
1458.12562
1458.125639
1458.125635
1458.125624
1458.125641
1458.125624
1458.125631
1458.125631
1458.125649
1458.125651
1458.125647
1458.125616
1458.125612
1458.125616
1458.125643
1458.125662
1458.125672
1458.125678
1458.125652
1458.125648
1458.125659
1458.125641
1458.125657
1458.125666
1458.12569
1458.125709
1458.125714
1458.125746
1458.125753
1458.125741
1458.125749
1458.125729
1458.125706
1458.125714
1458.125715
1458.125714
1458.12571
1458.125726
1458.125725
1458.125721
1458.125723
1458.125744
1458.125733
1458.125736
1458.125734
1458.125721
1458.125701
1458.125703
1458.125701
1458.125693
1458.125701
1458.12569
1458.125678
1458.125664
1458.125678
1458.125676
1458.125667
1458.125668
1458.125666
1458.125644
1458.125649
1458.125668
1458.125658
1458.125651
1458.125659
1458.125674
1458.125697
1458.125703
1458.12571
1458.126324
1458.126362
1458.12613
1458.125834
1458.125732
1458.125542
1458.125523
1458.125505
1458.125526
1458.125511
1458.125497
1458.125491
1458.125467
1458.12552
1458.125457
1458.125397
1458.125468
1458.125508
1458.125526
1458.125542
1458.125492
1458.125494
1458.125483
1458.125518
1458.12553
1458.125504
1458.125548
1458.12555
1458.125534
1458.12554
1458.125522
1458.125549
1458.12555
1458.125523
1458.125557
1458.125541
1458.125541
1458.125544
1458.125538
1458.125552
1458.125579
1458.125563
1458.125595
1458.125561
1458.125584
1458.125596
1458.125583
1458.125595
1458.125623
1458.125645
1458.125625
1458.125619
1458.125591
1458.125576
1458.125575
1458.125583
1458.125583
1458.12559
1458.125592
1458.125586
1458.125618
1458.125615
1458.125605
1458.125619
1458.125598
1458.125599
1458.125601
1458.125606
1458.125631
1458.125633
1458.125621
1458.125627
1458.125648
1458.12566
1458.12566
1458.125669
1458.125677
1458.125689
1458.125691
1458.125683
1458.125702
1458.125707
1458.1257
1458.125725
1458.125723
1458.125708
1458.125699
1458.125699
1458.125695
1458.125691
1458.125702
1458.125715
1458.125718
1458.125704
1458.125702
1458.125707
1458.125698
1458.125703
1458.125698
1458.125722
1458.125742
1458.125748
1458.125744
1458.125727
1458.125733
1458.125735
1458.125745
1458.125735
1458.125746
1458.125745
1458.125735
1458.125723
1458.125731
1458.125738
1458.12574
1458.125757
1458.125768
1458.125773
1458.125775
1458.125761
1458.125737
1458.125734
1458.125727
1458.125737
1458.125738
1458.125754
1458.125761
1458.125777
1458.125793
1458.125796
1458.125811
1458.125806
1458.125804
1458.125795
1458.125791
1458.125789
1458.125787
1458.125773
1458.125779
1458.125779
1458.125773
1458.125773
1458.125775
1458.125771
1458.125765
1458.125775
1458.125768
1458.125759
1458.12576
1458.125769
1458.125771
1458.125761
1458.125748
1458.125749
1458.125737
1458.125736
1458.125736
1458.125741
1458.125737
1458.125738
1458.125728
1458.12571
1458.125699
1458.125695
1458.125707
1458.125699
1458.125709
1458.125706
1458.125703
1458.125707
1458.12573
1458.125734
1458.125716
1458.125705
1458.125701
1458.125698
1458.125701
1458.125701
1458.125693
1458.125693
1458.125687
1458.125701
1458.125694
1458.125702
1458.125706
1458.125694
1458.125695
1458.125701
1458.125724
1458.125736
1458.125751
1458.125775
1458.125802
1458.125821
1458.125823
1458.125825
1458.125863
1458.125872
1458.125861
1458.12591
1458.125935
1458.125968
1458.125965
1458.125976
1458.125988
1458.126018
1458.126024
1458.12608
1458.126078
1458.1261
1458.12614
1458.126155
1458.126194
1458.126199
1458.126208
1458.126221
1458.12624
1458.126267
1458.126305
1458.126319
1458.126342
1458.12636
1458.126391
1458.126404
1458.126418
1458.126439
1458.126438
1458.126441
1458.126454
1458.126465
1458.12647
1458.126473
1458.126486
1458.126497
1458.126505
1458.126501
1458.126521
1458.126523
1458.126531
1458.126539
1458.126545
1458.126541
1458.126548
1458.126552
1458.126556
1458.126552
1458.12656
1458.126556
1458.126562
1458.12657
1458.126574
1458.126574
1458.126574
1458.12657
1458.126574
1458.126578
1458.126578
1458.126579
1458.126582
1458.126587
1458.126597
1458.126599
1458.126594
1458.126595
1458.126586
1458.12659
1458.126595
1458.126584
1458.126568
1458.126564
1458.126572
1458.126568
1458.12657
1458.126567
1458.12656
1458.126557
1458.126551
1458.126555
1458.126548
1458.126549
1458.126551
1458.126556
1458.126556
1458.126558
1458.12656
1458.126564
1458.126562
1458.126554
1458.126537
1458.126537
1458.126537
1458.126531
1458.126528
1458.12652
1458.126517
1458.126505
1458.126501
1458.126494
1458.126496
1458.126494
1458.12649
1458.126484
1458.126489
1458.126489
1458.126493
1458.12649
1458.126486
1458.126481
1458.126492
1458.12649
1458.126484
1458.126482
1458.126477
1458.12648
1458.126476
1458.126466
1458.126464
1458.126457
1458.126445
1458.126441
1458.126435
1458.126434
1458.126415
1458.126417
1458.126417
1458.12641
1458.126406
1458.1264
1458.126402
1458.126395
1458.126394
1458.126383
1458.126369
1458.126363
1458.126367
1458.126365
1458.126365
1458.126365
1458.126367
1458.126364
1458.126355
1458.12634
1458.126344
1458.126325
1458.126321
1458.126318
1458.126312
1458.126301
1458.126308
1458.126297
1458.126293
1458.126292
1458.126285
1458.126287
1458.126282
1458.126274
1458.126269
1458.126269
1458.126266
1458.126255
1458.126257
1458.126239
1458.126239
1458.126231
1458.126224
1458.126224
1458.126219
1458.126215
1458.126216
1458.126209
1458.126199
1458.1262
1458.126189
1458.12617
1458.126162
1458.126152
1458.126156
1458.126154
1458.126148
1458.126145
1458.126141
1458.126144
1458.126129
1458.126127
1458.126138
1458.126135
1458.126138
1458.126133
1458.126125
1458.126119
1458.126105
1458.126082
1458.126078
1458.126064
1458.126045
1458.12602
1458.126
1458.126005
1458.126008
1458.126021
1458.126025
1458.126001
1458.125966
1458.125939
1458.125911
1458.125911
1458.125893
1458.125899
1458.125905
1458.125916
1458.125904
1458.125885
1458.125846
1458.125842
1458.125826
1458.125822
1458.125796
1458.125787
1458.125795
1458.125788
1458.125771
1458.125771
1458.125761
1458.125738
1458.125719
1458.125702
1458.125702
1458.125705
1458.125709
1458.125706
1458.125691
1458.125697
1458.125691
1458.125674
1458.125686
1458.125697
1458.125684
1458.125666
1458.125653
1458.125649
1458.125633
1458.125641
1458.125657
1458.12566
1458.125667
1458.125666