/*--------------------------------*- C++ -*----------------------------------*\
| =========                 |                                                 |
| \\      /  F ield         | OpenFOAM: The Open Source CFD Toolbox           |
|  \\    /   O peration     | Version:  2312                                  |
|   \\  /    A nd           | Website:  www.openfoam.com                      |
|    \\/     M anipulation  |                                                 |
\*---------------------------------------------------------------------------*/
FoamFile
{
    version     2.0;
    format      ascii;
    arch        "LSB;label=32;scalar=64";
    class       volScalarField;
    location    "6000";
    object      maxKappa;
}
// * * * * * * * * * * * * * * * * * * * * * * * * * * * * * * * * * * * * * //

dimensions      [0 0 0 0 0 0 0];

internalField   nonuniform List<scalar> 
20400
(
4.114870748e-05
4.114870748e-05
4.114869847e-05
4.114870691e-05
4.114872101e-05
4.114872101e-05
4.114871584e-05
4.11487085e-05
4.114870455e-05
4.114871739e-05
4.114871769e-05
4.114871956e-05
4.114873027e-05
4.114873263e-05
4.114873263e-05
4.114873213e-05
4.114873301e-05
4.114873369e-05
4.114873415e-05
4.114873415e-05
4.114873445e-05
4.114873445e-05
4.114873019e-05
4.114872749e-05
4.114872419e-05
4.11487262e-05
4.114872681e-05
4.114872867e-05
4.114872867e-05
4.114872578e-05
4.114873049e-05
4.114873049e-05
4.114873034e-05
4.114873004e-05
4.114872814e-05
4.114872643e-05
4.114872513e-05
4.114872361e-05
4.114872361e-05
4.114872346e-05
4.114872255e-05
4.114872198e-05
4.11487205e-05
4.114871897e-05
4.114871897e-05
4.114871825e-05
4.114871802e-05
4.114871802e-05
4.114871738e-05
4.114871624e-05
4.114871871e-05
4.114871871e-05
4.114872064e-05
4.114872064e-05
4.11487203e-05
4.114871954e-05
4.114871893e-05
4.11487181e-05
4.114871711e-05
4.114871711e-05
4.114871707e-05
4.114871707e-05
4.114871642e-05
4.114871536e-05
4.114871543e-05
4.114871627e-05
4.114871627e-05
4.11487157e-05
4.11487157e-05
4.114871422e-05
4.114871308e-05
4.1148713e-05
4.114871387e-05
4.114871387e-05
4.114871391e-05
4.114871391e-05
4.114871281e-05
4.114871281e-05
4.114871273e-05
4.114871456e-05
4.114871501e-05
4.114871501e-05
4.114871429e-05
4.114871429e-05
4.114871448e-05
4.114871482e-05
4.114871482e-05
4.114871471e-05
4.114871288e-05
4.114871273e-05
4.114871319e-05
4.114871319e-05
4.114871303e-05
4.114871429e-05
4.114871429e-05
4.114871501e-05
4.114871501e-05
4.114871592e-05
4.114871839e-05
4.114871839e-05
4.114871888e-05
4.114871888e-05
4.114871752e-05
4.114871752e-05
4.114871828e-05
4.114871828e-05
4.114871805e-05
4.114871828e-05
4.114871828e-05
4.114871622e-05
4.114871618e-05
4.11487158e-05
4.114871569e-05
4.114871672e-05
4.114871672e-05
4.114871672e-05
4.11487166e-05
4.114871618e-05
4.114871698e-05
4.114871698e-05
4.114871656e-05
4.114871531e-05
4.114871531e-05
4.114871455e-05
4.114871455e-05
4.114871455e-05
4.114871455e-05
4.114871534e-05
4.114871534e-05
4.114871462e-05
4.114871432e-05
4.114871333e-05
4.114871504e-05
4.114871504e-05
4.114871474e-05
4.114871428e-05
4.114871462e-05
4.114871462e-05
4.114871462e-05
4.114871352e-05
4.114871363e-05
4.114871363e-05
4.114871321e-05
4.11487142e-05
4.11487142e-05
4.114871333e-05
4.114871378e-05
4.11487139e-05
4.11487139e-05
4.114871397e-05
4.114871397e-05
4.114871317e-05
4.114871302e-05
4.114871302e-05
4.114871237e-05
4.114871237e-05
4.11487118e-05
4.114871207e-05
4.114871279e-05
4.114871359e-05
4.114871359e-05
4.114871344e-05
4.114871317e-05
4.114871272e-05
4.114871108e-05
4.1148711e-05
4.114870994e-05
4.114870929e-05
4.114870941e-05
4.114870941e-05
4.114870899e-05
4.114870888e-05
4.114870884e-05
4.11487099e-05
4.11487099e-05
4.114870967e-05
4.114870967e-05
4.114870868e-05
4.1148708e-05
4.114870709e-05
4.114870686e-05
4.114870751e-05
4.114870781e-05
4.114870781e-05
4.114870743e-05
4.114870743e-05
4.114870728e-05
4.114870731e-05
4.11487075e-05
4.11487075e-05
4.114870735e-05
4.114870693e-05
4.114870579e-05
4.114870579e-05
4.114870549e-05
4.114870537e-05
4.114870549e-05
4.114870503e-05
4.114870564e-05
4.114870587e-05
4.114870549e-05
4.114870549e-05
4.114870507e-05
4.114870492e-05
4.114870484e-05
4.114870484e-05
4.114870499e-05
4.11487048e-05
4.114870438e-05
4.114870358e-05
4.114870423e-05
4.114870396e-05
4.114870332e-05
4.114870336e-05
4.114870336e-05
4.114870396e-05
4.114870396e-05
4.114870381e-05
4.114870381e-05
4.114870389e-05
4.114870571e-05
4.114870571e-05
4.114870788e-05
4.114870788e-05
4.114870788e-05
4.114870609e-05
4.114870415e-05
4.114870559e-05
4.114870692e-05
4.114870704e-05
4.114870704e-05
4.114870548e-05
4.114870548e-05
4.114870643e-05
4.114870662e-05
4.114870662e-05
4.11487059e-05
4.114870582e-05
4.114870628e-05
4.114870681e-05
4.114870681e-05
4.114870635e-05
4.114870635e-05
4.114870616e-05
4.114870616e-05
4.114870669e-05
4.114870719e-05
4.114870719e-05
4.114870719e-05
4.11487073e-05
4.11487073e-05
4.114870673e-05
4.114870719e-05
4.114870726e-05
4.11487073e-05
4.11487073e-05
4.114870726e-05
4.11487076e-05
4.114870829e-05
4.114870863e-05
4.114870882e-05
4.11487095e-05
4.114870996e-05
4.114871004e-05
4.114871042e-05
4.114871042e-05
4.114870924e-05
4.114870977e-05
4.114871e-05
4.114871076e-05
4.114871087e-05
4.114871087e-05
4.114871098e-05
4.114871133e-05
4.114871133e-05
4.114871182e-05
4.11487122e-05
4.114871273e-05
4.114871372e-05
4.114871395e-05
4.114871395e-05
4.114871361e-05
4.114871414e-05
4.114871429e-05
4.114871471e-05
4.114871486e-05
4.114871486e-05
4.114871535e-05
4.114871539e-05
4.114871539e-05
4.114871524e-05
4.11487163e-05
4.114871721e-05
4.114871752e-05
4.114871752e-05
4.114871733e-05
4.114871733e-05
4.114871756e-05
4.114871839e-05
4.114871839e-05
4.114871797e-05
4.114871835e-05
4.114871835e-05
4.114871771e-05
4.114871706e-05
4.11487171e-05
4.11487171e-05
4.114871683e-05
4.114871717e-05
4.114871752e-05
4.11487179e-05
4.114871896e-05
4.114871896e-05
4.114871801e-05
4.114871812e-05
4.114871919e-05
4.114871968e-05
4.114871991e-05
4.114871953e-05
4.114871961e-05
4.114871961e-05
4.114871964e-05
4.114871964e-05
4.11487201e-05
4.114872132e-05
4.114872132e-05
4.114872211e-05
4.114872253e-05
4.114872257e-05
4.114872257e-05
4.114872249e-05
4.114872295e-05
4.114872295e-05
4.11487223e-05
4.114872124e-05
4.114872124e-05
4.114872078e-05
4.114872078e-05
4.114872181e-05
4.114872204e-05
4.114872207e-05
4.114872226e-05
4.114872226e-05
4.114872204e-05
4.114872078e-05
4.114872139e-05
4.114872139e-05
4.11487204e-05
4.114872014e-05
4.114872093e-05
4.114872093e-05
4.114872074e-05
4.114872071e-05
4.114871983e-05
4.114871953e-05
4.114871991e-05
4.114871991e-05
4.114871903e-05
4.114871972e-05
4.114871972e-05
4.114871869e-05
4.114871766e-05
4.114871641e-05
4.114871542e-05
4.114871451e-05
4.114871523e-05
4.114871523e-05
4.114871641e-05
4.114871641e-05
4.11487163e-05
4.114871618e-05
4.114871367e-05
4.114871227e-05
4.114871086e-05
4.114870995e-05
4.114870995e-05
4.114870949e-05
4.114870919e-05
4.114870911e-05
4.114870812e-05
4.114870812e-05
4.114870938e-05
4.114870938e-05
4.114870805e-05
4.114870869e-05
4.114870869e-05
4.114870847e-05
4.114870603e-05
4.114870694e-05
4.114870702e-05
4.114870862e-05
4.114870869e-05
4.114870869e-05
4.114871014e-05
4.114871192e-05
4.114871398e-05
4.114871398e-05
4.114871306e-05
4.114871675e-05
4.114871675e-05
4.114871648e-05
4.114871648e-05
4.114871527e-05
4.114871508e-05
4.114871466e-05
4.114871512e-05
4.114871664e-05
4.114871789e-05
4.114872059e-05
4.114872355e-05
4.114872549e-05
4.114872804e-05
4.114872895e-05
4.114873028e-05
4.114873066e-05
4.114873184e-05
4.114873222e-05
4.114873222e-05
4.11487299e-05
4.114872933e-05
4.114872933e-05
4.114873051e-05
4.114873074e-05
4.114873169e-05
4.114873249e-05
4.114873249e-05
4.114872842e-05
4.114872785e-05
4.114872785e-05
4.114872751e-05
4.114872751e-05
4.114872697e-05
4.11487277e-05
4.11487291e-05
4.11487291e-05
4.114872899e-05
4.114873123e-05
4.114873142e-05
4.114873226e-05
4.114873226e-05
4.114873161e-05
4.114873161e-05
4.1148731e-05
4.114873081e-05
4.114873021e-05
4.114873085e-05
4.114873252e-05
4.114873252e-05
4.114873264e-05
4.114873271e-05
4.114873423e-05
4.114873423e-05
4.114873401e-05
4.114873142e-05
4.114872777e-05
4.114872857e-05
4.114872865e-05
4.114872998e-05
4.114873002e-05
4.114873081e-05
4.114873081e-05
4.114873207e-05
4.114873211e-05
4.114873211e-05
4.114873047e-05
4.114873047e-05
4.114872956e-05
4.114872986e-05
4.114873002e-05
4.114873184e-05
4.114873184e-05
4.114873184e-05
4.114873252e-05
4.114873252e-05
4.114873211e-05
4.114873241e-05
4.114873241e-05
4.114873127e-05
4.114873017e-05
4.114873169e-05
4.114873169e-05
4.114873226e-05
4.114873245e-05
4.114873245e-05
4.114873222e-05
4.1148731e-05
4.114872979e-05
4.11487302e-05
4.11487302e-05
4.114872994e-05
4.114873134e-05
4.11487315e-05
4.11487315e-05
4.114873093e-05
4.11487315e-05
4.114873161e-05
4.114873161e-05
4.114873157e-05
4.114873157e-05
4.114872952e-05
4.114870261e-05
4.114870147e-05
4.114872557e-05
4.11487291e-05
4.11487291e-05
4.11487285e-05
4.114872412e-05
4.114871994e-05
4.114872002e-05
4.11487221e-05
4.114872898e-05
4.114872898e-05
4.114873214e-05
4.114873214e-05
4.114873263e-05
4.114873107e-05
4.114873251e-05
4.114873327e-05
4.114873384e-05
4.114873415e-05
4.114873384e-05
4.114873445e-05
4.114872989e-05
4.114872803e-05
4.114872662e-05
4.114872552e-05
4.114872681e-05
4.114872806e-05
4.114872867e-05
4.114872563e-05
4.114872533e-05
4.114873049e-05
4.114873023e-05
4.114872989e-05
4.114872734e-05
4.114872578e-05
4.114872453e-05
4.114872251e-05
4.114872361e-05
4.114872327e-05
4.114872228e-05
4.114872171e-05
4.114871996e-05
4.11487189e-05
4.114871897e-05
4.114871753e-05
4.114871783e-05
4.114871802e-05
4.114871783e-05
4.114871738e-05
4.1148717e-05
4.114871871e-05
4.114871863e-05
4.114872064e-05
4.114871996e-05
4.114871924e-05
4.114871867e-05
4.114871753e-05
4.114871642e-05
4.114871711e-05
4.114871555e-05
4.114871707e-05
4.114871597e-05
4.114871509e-05
4.11487154e-05
4.114871551e-05
4.114871627e-05
4.114871528e-05
4.11487157e-05
4.114871463e-05
4.114871505e-05
4.114871524e-05
4.114871517e-05
4.114871581e-05
4.114871623e-05
4.11487168e-05
4.114871707e-05
4.114871718e-05
4.114871756e-05
4.114871809e-05
4.114871813e-05
4.114871744e-05
4.11487176e-05
4.114871737e-05
4.11487171e-05
4.114871729e-05
4.11487176e-05
4.114871737e-05
4.114871676e-05
4.114871702e-05
4.114871699e-05
4.114871699e-05
4.114871672e-05
4.114871634e-05
4.114871668e-05
4.114871683e-05
4.114871683e-05
4.114871676e-05
4.114871687e-05
4.114871839e-05
4.114871771e-05
4.114871888e-05
4.114871714e-05
4.114871752e-05
4.114871691e-05
4.114871828e-05
4.114871786e-05
4.114871812e-05
4.114871827e-05
4.114871675e-05
4.114871675e-05
4.11487166e-05
4.114871668e-05
4.114871679e-05
4.114871679e-05
4.114871668e-05
4.114871649e-05
4.114871576e-05
4.114871645e-05
4.114871698e-05
4.114871618e-05
4.114871531e-05
4.114871531e-05
4.114871424e-05
4.114871455e-05
4.114871401e-05
4.114871455e-05
4.114871436e-05
4.114871534e-05
4.114871447e-05
4.11487142e-05
4.114871424e-05
4.114871424e-05
4.114871504e-05
4.114871455e-05
4.11487142e-05
4.114871439e-05
4.114871462e-05
4.114871462e-05
4.114871337e-05
4.114871363e-05
4.114871363e-05
4.11487134e-05
4.11487134e-05
4.11487142e-05
4.114871295e-05
4.114871348e-05
4.114871382e-05
4.11487139e-05
4.114871371e-05
4.114871397e-05
4.114871298e-05
4.114871264e-05
4.114871302e-05
4.114871188e-05
4.114871237e-05
4.114871177e-05
4.11487118e-05
4.114871234e-05
4.114871306e-05
4.114871359e-05
4.114871329e-05
4.114871302e-05
4.114871245e-05
4.114871104e-05
4.114871097e-05
4.114870967e-05
4.114870918e-05
4.114870933e-05
4.114870941e-05
4.114870895e-05
4.114870884e-05
4.114870831e-05
4.114870918e-05
4.11487099e-05
4.114870895e-05
4.114870967e-05
4.114870834e-05
4.11487077e-05
4.114870739e-05
4.114870739e-05
4.114870716e-05
4.114870762e-05
4.114870781e-05
4.114870731e-05
4.114870743e-05
4.114870712e-05
4.114870674e-05
4.114870739e-05
4.11487075e-05
4.114870724e-05
4.114870659e-05
4.114870648e-05
4.114870633e-05
4.114870655e-05
4.114870621e-05
4.114870633e-05
4.114870633e-05
4.114870606e-05
4.114870598e-05
4.114870568e-05
4.114870503e-05
4.114870503e-05
4.114870511e-05
4.114870503e-05
4.114870518e-05
4.114870507e-05
4.114870495e-05
4.114870503e-05
4.114870503e-05
4.114870427e-05
4.114870412e-05
4.114870355e-05
4.114870347e-05
4.114870336e-05
4.114870431e-05
4.114870354e-05
4.114870366e-05
4.114870373e-05
4.114870339e-05
4.114870396e-05
4.114870339e-05
4.114870339e-05
4.11487048e-05
4.114870339e-05
4.114870358e-05
4.114870339e-05
4.11487032e-05
4.114870309e-05
4.114870396e-05
4.114870373e-05
4.11487032e-05
4.114870339e-05
4.114870324e-05
4.114870255e-05
4.114870217e-05
4.114870168e-05
4.114870229e-05
4.114870293e-05
4.114870289e-05
4.114870289e-05
4.114870232e-05
4.114870156e-05
4.114870236e-05
4.114870225e-05
4.114870187e-05
4.114870149e-05
4.114870179e-05
4.114870172e-05
4.114870168e-05
4.11487021e-05
4.114870263e-05
4.114870209e-05
4.114870171e-05
4.114870221e-05
4.114870232e-05
4.114870187e-05
4.114870183e-05
4.114870187e-05
4.114870213e-05
4.114870236e-05
4.114870924e-05
4.114870992e-05
4.114871e-05
4.114871042e-05
4.114870935e-05
4.114870912e-05
4.114870965e-05
4.114870988e-05
4.114871064e-05
4.114871087e-05
4.114871087e-05
4.114871095e-05
4.114871133e-05
4.114871106e-05
4.114871159e-05
4.114871201e-05
4.11487125e-05
4.114871353e-05
4.114871395e-05
4.114871372e-05
4.114871334e-05
4.114871406e-05
4.114871421e-05
4.114871456e-05
4.114871486e-05
4.114871474e-05
4.114871535e-05
4.114871539e-05
4.114871512e-05
4.11487152e-05
4.114871592e-05
4.114871695e-05
4.114871752e-05
4.114871725e-05
4.114871733e-05
4.114871721e-05
4.114871744e-05
4.114871839e-05
4.114871797e-05
4.114871797e-05
4.114871835e-05
4.114871794e-05
4.114871683e-05
4.114871706e-05
4.11487171e-05
4.114871691e-05
4.114871668e-05
4.114871702e-05
4.114871736e-05
4.114871771e-05
4.114871896e-05
4.114871831e-05
4.114871725e-05
4.114871782e-05
4.114871892e-05
4.114871945e-05
4.114871991e-05
4.114871953e-05
4.114871961e-05
4.114871923e-05
4.114871964e-05
4.114871953e-05
4.114871991e-05
4.114872132e-05
4.114872105e-05
4.114872177e-05
4.114872246e-05
4.114872257e-05
4.114872215e-05
4.114872238e-05
4.114872295e-05
4.114872253e-05
4.11487212e-05
4.114872124e-05
4.114872044e-05
4.114872078e-05
4.114872071e-05
4.114872158e-05
4.114872204e-05
4.114872207e-05
4.114872226e-05
4.114872211e-05
4.114872124e-05
4.114872017e-05
4.114872139e-05
4.114872074e-05
4.114872002e-05
4.11487201e-05
4.114872093e-05
4.114872078e-05
4.114872074e-05
4.114872014e-05
4.114871945e-05
4.114871949e-05
4.114871991e-05
4.114871812e-05
4.114871873e-05
4.114871972e-05
4.114871903e-05
4.11487193e-05
4.114871938e-05
4.114871956e-05
4.114872002e-05
4.114872059e-05
4.114872063e-05
4.114872063e-05
4.114872063e-05
4.11487207e-05
4.114872131e-05
4.114872131e-05
4.114872158e-05
4.114872207e-05
4.114872257e-05
4.114872257e-05
4.114872238e-05
4.114872093e-05
4.114872105e-05
4.114872105e-05
4.114872112e-05
4.114872158e-05
4.114872165e-05
4.114872165e-05
4.114872162e-05
4.114872127e-05
4.114872116e-05
4.114872124e-05
4.114872124e-05
4.114872017e-05
4.114872074e-05
4.114872143e-05
4.114872146e-05
4.114872146e-05
4.114872165e-05
4.114872165e-05
4.114872082e-05
4.114872124e-05
4.114872124e-05
4.114872257e-05
4.114872359e-05
4.114872359e-05
4.114872371e-05
4.114872371e-05
4.114872363e-05
4.11487234e-05
4.11487234e-05
4.114872325e-05
4.114872325e-05
4.11487223e-05
4.114872257e-05
4.114872454e-05
4.114872758e-05
4.114872849e-05
4.114873009e-05
4.114873047e-05
4.114873146e-05
4.114873222e-05
4.114873066e-05
4.114872895e-05
4.114872933e-05
4.114872922e-05
4.114873039e-05
4.114873062e-05
4.114873135e-05
4.114873249e-05
4.114872944e-05
4.114872739e-05
4.114872785e-05
4.114872732e-05
4.114872751e-05
4.114872716e-05
4.114872511e-05
4.114872682e-05
4.11487291e-05
4.114872808e-05
4.114872868e-05
4.114873112e-05
4.114872743e-05
4.114872827e-05
4.114872811e-05
4.114872827e-05
4.114872785e-05
4.114872838e-05
4.114872827e-05
4.114872811e-05
4.114872865e-05
4.114872884e-05
4.114872815e-05
4.114872876e-05
4.114872884e-05
4.114872808e-05
4.114872595e-05
4.11487223e-05
4.114872249e-05
4.114872165e-05
4.11487215e-05
4.114872181e-05
4.114872044e-05
4.114871907e-05
4.114871854e-05
4.11487188e-05
4.114871884e-05
4.114871968e-05
4.114871956e-05
4.114871975e-05
4.114871972e-05
4.114871896e-05
4.11487177e-05
4.11487177e-05
4.11487177e-05
4.114871743e-05
4.11487169e-05
4.114871721e-05
4.114871778e-05
4.114871816e-05
4.114871789e-05
4.114871915e-05
4.114871831e-05
4.114871766e-05
4.114871804e-05
4.114871785e-05
4.114871728e-05
4.11487174e-05
4.114871709e-05
4.114871694e-05
4.114871743e-05
4.114871797e-05
4.11487177e-05
4.114871797e-05
4.114871838e-05
4.11487177e-05
4.11487174e-05
4.114871766e-05
4.114871702e-05
4.114871519e-05
4.114871553e-05
4.114871603e-05
4.114871572e-05
4.114871538e-05
4.114871588e-05
4.114870334e-05
4.114870334e-05
4.114871405e-05
4.114872675e-05
4.11487291e-05
4.114872789e-05
4.114872272e-05
4.114871986e-05
4.114872416e-05
4.114872416e-05
4.114872697e-05
4.114872898e-05
4.11487286e-05
4.114873214e-05
4.114873187e-05
4.114873016e-05
4.114872807e-05
4.114872738e-05
4.114872643e-05
4.114872833e-05
4.114873073e-05
4.114872708e-05
4.114872989e-05
4.114872738e-05
4.114872609e-05
4.114872502e-05
4.11487227e-05
4.11487221e-05
4.114872111e-05
4.114872175e-05
4.11487235e-05
4.114872244e-05
4.114872152e-05
4.11487208e-05
4.114872035e-05
4.114871966e-05
4.114871894e-05
4.114871837e-05
4.114871799e-05
4.114871818e-05
4.114871799e-05
4.114871825e-05
4.114871791e-05
4.114871928e-05
4.114872e-05
4.114872e-05
4.114871947e-05
4.114871901e-05
4.114871825e-05
4.114871719e-05
4.114871783e-05
4.114871855e-05
4.114871833e-05
4.114871817e-05
4.114871737e-05
4.114871582e-05
4.114871631e-05
4.114871604e-05
4.114871589e-05
4.114871642e-05
4.114871752e-05
4.11487179e-05
4.114871832e-05
4.114871756e-05
4.114871711e-05
4.114871828e-05
4.114871851e-05
4.114871847e-05
4.114871855e-05
4.114871874e-05
4.114871851e-05
4.114871832e-05
4.114871878e-05
4.114871878e-05
4.11487184e-05
4.114871809e-05
4.114871824e-05
4.114871824e-05
4.114871805e-05
4.114871813e-05
4.114871813e-05
4.114871794e-05
4.114871794e-05
4.11487176e-05
4.114871763e-05
4.114871817e-05
4.114871817e-05
4.114871767e-05
4.114871744e-05
4.114871744e-05
4.114871721e-05
4.114871699e-05
4.114871668e-05
4.114871668e-05
4.114871623e-05
4.114871672e-05
4.114871683e-05
4.114871672e-05
4.11487166e-05
4.114871611e-05
4.114871641e-05
4.114871569e-05
4.114871543e-05
4.114871592e-05
4.114871611e-05
4.114871622e-05
4.11487158e-05
4.114871588e-05
4.114871618e-05
4.114871626e-05
4.114871675e-05
4.114871645e-05
4.114871618e-05
4.114871672e-05
4.114871679e-05
4.114871558e-05
4.114871478e-05
4.11487147e-05
4.114871481e-05
4.114871459e-05
4.114871352e-05
4.114871375e-05
4.114871345e-05
4.114871417e-05
4.114871375e-05
4.114871401e-05
4.114871371e-05
4.11487139e-05
4.114871386e-05
4.114871299e-05
4.114871284e-05
4.114871375e-05
4.114871424e-05
4.114871295e-05
4.114871272e-05
4.114871261e-05
4.114871185e-05
4.114871226e-05
4.11487128e-05
4.114871272e-05
4.114871306e-05
4.114871363e-05
4.114871318e-05
4.114871166e-05
4.11487107e-05
4.114871154e-05
4.114870998e-05
4.114870994e-05
4.114871014e-05
4.11487101e-05
4.114870953e-05
4.114870987e-05
4.114871017e-05
4.114870991e-05
4.114870956e-05
4.114870953e-05
4.114870949e-05
4.114870922e-05
4.114870918e-05
4.11487096e-05
4.114870933e-05
4.114870922e-05
4.114870895e-05
4.114870907e-05
4.114870884e-05
4.114870846e-05
4.114870861e-05
4.114870827e-05
4.114870838e-05
4.114870861e-05
4.114870838e-05
4.1148708e-05
4.114870819e-05
4.114870846e-05
4.114870854e-05
4.114870835e-05
4.114870819e-05
4.114870823e-05
4.114870766e-05
4.114870785e-05
4.114870778e-05
4.114870789e-05
4.11487085e-05
4.114870823e-05
4.114870812e-05
4.114870732e-05
4.114871104e-05
4.114871108e-05
4.114871123e-05
4.114871066e-05
4.114871009e-05
4.114870979e-05
4.114870941e-05
4.114870944e-05
4.114870956e-05
4.114870884e-05
4.114870918e-05
4.114870887e-05
4.114870826e-05
4.114870762e-05
4.114870788e-05
4.114870746e-05
4.114870712e-05
4.114870682e-05
4.114870629e-05
4.114870648e-05
4.114870583e-05
4.114870602e-05
4.114870571e-05
4.114870598e-05
4.114870617e-05
4.114870339e-05
4.114870358e-05
4.114870347e-05
4.114870431e-05
4.114870431e-05
4.114870431e-05
4.114870313e-05
4.114870271e-05
4.114870252e-05
4.114870256e-05
4.114870225e-05
4.114870206e-05
4.1148701e-05
4.114870172e-05
4.114870115e-05
4.114870145e-05
4.114870157e-05
4.114870149e-05
4.11487016e-05
4.114870119e-05
4.114870122e-05
4.114870134e-05
4.114870119e-05
4.114870065e-05
4.11487005e-05
4.114870008e-05
4.114870005e-05
4.114869997e-05
4.114869974e-05
4.114869929e-05
4.11486991e-05
4.114869887e-05
4.114869921e-05
4.114869853e-05
4.114869856e-05
4.114869875e-05
4.114869875e-05
4.114869872e-05
4.114869887e-05
4.114869913e-05
4.114869925e-05
4.114869913e-05
4.114869921e-05
4.114869925e-05
4.114869936e-05
4.114869936e-05
4.114869955e-05
4.114869944e-05
4.11486997e-05
4.114869963e-05
4.114869928e-05
4.114869951e-05
4.114869947e-05
4.11486997e-05
4.114869982e-05
4.114870001e-05
4.114870016e-05
4.114870046e-05
4.114870057e-05
4.114870042e-05
4.11487005e-05
4.114870073e-05
4.114870073e-05
4.114870069e-05
4.114870076e-05
4.114870088e-05
4.114870092e-05
4.114870095e-05
4.114870111e-05
4.114870126e-05
4.114870164e-05
4.114870148e-05
4.114870156e-05
4.114870183e-05
4.114870221e-05
4.114870247e-05
4.114870281e-05
4.114870323e-05
4.114870335e-05
4.114870319e-05
4.114870331e-05
4.114870319e-05
4.114870331e-05
4.114870327e-05
4.114870323e-05
4.114870312e-05
4.114870338e-05
4.114870365e-05
4.114870391e-05
4.114870365e-05
4.11487035e-05
4.114870353e-05
4.114870376e-05
4.114870384e-05
4.114870403e-05
4.11487041e-05
4.114870418e-05
4.114870422e-05
4.114870433e-05
4.11487052e-05
4.114870585e-05
4.114870646e-05
4.114870707e-05
4.114870699e-05
4.114870688e-05
4.114870684e-05
4.114870665e-05
4.114870642e-05
4.114870642e-05
4.114870653e-05
4.114870676e-05
4.114870718e-05
4.114870764e-05
4.114870813e-05
4.114870805e-05
4.114870855e-05
4.1148709e-05
4.114870931e-05
4.114870919e-05
4.114870931e-05
4.11487095e-05
4.11487106e-05
4.114871159e-05
4.114871162e-05
4.114871292e-05
4.114871284e-05
4.114871341e-05
4.114871292e-05
4.114871212e-05
4.114871181e-05
4.114871227e-05
4.114871368e-05
4.114871398e-05
4.114871482e-05
4.114871364e-05
4.114871345e-05
4.114871485e-05
4.114871463e-05
4.114871387e-05
4.114871432e-05
4.114871599e-05
4.114871782e-05
4.11487185e-05
4.114871831e-05
4.114871679e-05
4.114871812e-05
4.114871778e-05
4.114871858e-05
4.114871884e-05
4.114871926e-05
4.114871938e-05
4.114871949e-05
4.114871983e-05
4.114872059e-05
4.114872063e-05
4.114872063e-05
4.11487201e-05
4.114872051e-05
4.114872131e-05
4.114872105e-05
4.114872139e-05
4.114872184e-05
4.114872257e-05
4.114872245e-05
4.114872116e-05
4.114872074e-05
4.114872105e-05
4.114872078e-05
4.114872101e-05
4.114872146e-05
4.114872165e-05
4.114872162e-05
4.114872139e-05
4.114872089e-05
4.114872108e-05
4.114872124e-05
4.114872032e-05
4.114872002e-05
4.114872051e-05
4.114872143e-05
4.114872146e-05
4.114872135e-05
4.114872165e-05
4.114872078e-05
4.114872082e-05
4.114872124e-05
4.114872124e-05
4.114872215e-05
4.114872359e-05
4.114872306e-05
4.114872371e-05
4.114872367e-05
4.11487234e-05
4.11487234e-05
4.114872283e-05
4.114872325e-05
4.114872257e-05
4.114872203e-05
4.114872177e-05
4.114872131e-05
4.114872143e-05
4.114872139e-05
4.114872101e-05
4.114872127e-05
4.114872089e-05
4.114872067e-05
4.114872055e-05
4.114871983e-05
4.114872059e-05
4.114872082e-05
4.114872241e-05
4.114872222e-05
4.114872108e-05
4.114872108e-05
4.114872238e-05
4.114872363e-05
4.11487234e-05
4.114872317e-05
4.114872344e-05
4.114872374e-05
4.114872504e-05
4.114872257e-05
4.114872169e-05
4.114872108e-05
4.114872059e-05
4.114871979e-05
4.114871975e-05
4.114872021e-05
4.114872139e-05
4.114872158e-05
4.114872139e-05
4.114872336e-05
4.114872439e-05
4.114871367e-05
4.114871417e-05
4.114871481e-05
4.114871481e-05
4.114871436e-05
4.114871694e-05
4.114871698e-05
4.114871694e-05
4.114871728e-05
4.114871717e-05
4.114871713e-05
4.114871709e-05
4.114871827e-05
4.114871854e-05
4.114871839e-05
4.114871846e-05
4.114871846e-05
4.114871922e-05
4.114871968e-05
4.114871968e-05
4.114871975e-05
4.114871975e-05
4.114871972e-05
4.114871858e-05
4.11487177e-05
4.11487177e-05
4.11487177e-05
4.114871728e-05
4.114871736e-05
4.114871797e-05
4.114871816e-05
4.114871816e-05
4.114871736e-05
4.114871724e-05
4.11487169e-05
4.114871721e-05
4.114871683e-05
4.114871686e-05
4.114871671e-05
4.114871679e-05
4.114871705e-05
4.114871766e-05
4.114871797e-05
4.114871797e-05
4.114871808e-05
4.114871838e-05
4.114871838e-05
4.114871755e-05
4.114871766e-05
4.114871766e-05
4.114871713e-05
4.114871671e-05
4.114871591e-05
4.11487158e-05
4.114871572e-05
4.114871531e-05
4.114870147e-05
4.114870334e-05
4.114870124e-05
4.114870945e-05
4.114872139e-05
4.114872139e-05
4.114872112e-05
4.1148721e-05
4.114872279e-05
4.114872416e-05
4.114872286e-05
4.114872625e-05
4.114872693e-05
4.114872537e-05
4.114872837e-05
4.114872655e-05
4.114872408e-05
4.114872229e-05
4.114872221e-05
4.114872324e-05
4.114872282e-05
4.114872252e-05
4.114872225e-05
4.114872213e-05
4.114872255e-05
4.114872141e-05
4.114872096e-05
4.114872107e-05
4.114872107e-05
4.114872099e-05
4.114872099e-05
4.11487216e-05
4.11487216e-05
4.114872107e-05
4.114872107e-05
4.114872099e-05
4.114872179e-05
4.11487219e-05
4.11487219e-05
4.114872126e-05
4.114872125e-05
4.114872141e-05
4.114872141e-05
4.114872133e-05
4.114872072e-05
4.114872114e-05
4.114872114e-05
4.114872076e-05
4.114872076e-05
4.114872038e-05
4.114872038e-05
4.11487203e-05
4.114872007e-05
4.114872007e-05
4.114872022e-05
4.114872022e-05
4.114872019e-05
4.114872019e-05
4.114871973e-05
4.114871954e-05
4.114871954e-05
4.114871961e-05
4.114871961e-05
4.114871885e-05
4.114871927e-05
4.114872018e-05
4.114872018e-05
4.114871988e-05
4.114871988e-05
4.114871969e-05
4.114871851e-05
4.114871802e-05
4.114871847e-05
4.114871878e-05
4.114871805e-05
4.114871745e-05
4.114871813e-05
4.114871824e-05
4.114871801e-05
4.114871798e-05
4.114871813e-05
4.11487179e-05
4.114871794e-05
4.114871756e-05
4.114871748e-05
4.114871782e-05
4.114871817e-05
4.11487176e-05
4.114871744e-05
4.114871744e-05
4.114871699e-05
4.114871611e-05
4.114871645e-05
4.114871668e-05
4.114871604e-05
4.11487152e-05
4.114871508e-05
4.11487147e-05
4.114871467e-05
4.114871459e-05
4.114871455e-05
4.114871455e-05
4.114871455e-05
4.114871448e-05
4.11487144e-05
4.114871459e-05
4.114871482e-05
4.11487152e-05
4.114871554e-05
4.114871463e-05
4.114871421e-05
4.11487139e-05
4.114871417e-05
4.114871387e-05
4.114871326e-05
4.114871307e-05
4.114871307e-05
4.114871333e-05
4.114871352e-05
4.114871356e-05
4.114871341e-05
4.114871383e-05
4.114871371e-05
4.114871386e-05
4.114871345e-05
4.114871333e-05
4.114871345e-05
4.11487128e-05
4.114871284e-05
4.114871268e-05
4.114871238e-05
4.114871249e-05
4.114871249e-05
4.114871215e-05
4.114871158e-05
4.114871139e-05
4.114871105e-05
4.114871154e-05
4.11487117e-05
4.114871158e-05
4.114871223e-05
4.114871196e-05
4.114871189e-05
4.114871215e-05
4.114871246e-05
4.114871265e-05
4.114871261e-05
4.114871204e-05
4.114871154e-05
4.114871078e-05
4.114871063e-05
4.114871074e-05
4.114871048e-05
4.114871097e-05
4.114871124e-05
4.114871188e-05
4.114871242e-05
4.114871207e-05
4.114871177e-05
4.114871162e-05
4.114871181e-05
4.114871234e-05
4.114871257e-05
4.114871253e-05
4.114871211e-05
4.114871257e-05
4.114871287e-05
4.114871283e-05
4.114871287e-05
4.114871283e-05
4.114871298e-05
4.114871321e-05
4.114871344e-05
4.11487134e-05
4.114871371e-05
4.114871386e-05
4.114871344e-05
4.114871348e-05
4.114871386e-05
4.114871359e-05
4.114871409e-05
4.114871393e-05
4.114871466e-05
4.114871443e-05
4.114871435e-05
4.114871522e-05
4.114871534e-05
4.1148715e-05
4.114871412e-05
4.114871393e-05
4.114871366e-05
4.114871302e-05
4.114871233e-05
4.114871169e-05
4.114871153e-05
4.114871134e-05
4.114871051e-05
4.114871089e-05
4.114871077e-05
4.114870921e-05
4.114870872e-05
4.114870796e-05
4.114870819e-05
4.1148708e-05
4.114870765e-05
4.114870682e-05
4.114870663e-05
4.114870606e-05
4.114870587e-05
4.114870617e-05
4.114870617e-05
4.114870617e-05
4.114870358e-05
4.114870358e-05
4.114870301e-05
4.114870279e-05
4.114870199e-05
4.114870123e-05
4.114870142e-05
4.114870164e-05
4.114870104e-05
4.114870115e-05
4.114870047e-05
4.114870016e-05
4.114870005e-05
4.114869963e-05
4.114869944e-05
4.114869944e-05
4.114869936e-05
4.11486991e-05
4.114869876e-05
4.114869887e-05
4.114869868e-05
4.114869822e-05
4.114869811e-05
4.114869796e-05
4.114869769e-05
4.114869724e-05
4.114869648e-05
4.114869613e-05
4.114869591e-05
4.114869591e-05
4.114869579e-05
4.114869594e-05
4.114869594e-05
4.114869591e-05
4.114869568e-05
4.114869549e-05
4.114869553e-05
4.114869564e-05
4.114869579e-05
4.114869594e-05
4.114869568e-05
4.114869564e-05
4.114869576e-05
4.114869541e-05
4.114869522e-05
4.11486953e-05
4.114869518e-05
4.114869526e-05
4.11486956e-05
4.114869537e-05
4.11486953e-05
4.114869564e-05
4.114869579e-05
4.114869587e-05
4.114869701e-05
4.114869678e-05
4.114869659e-05
4.114869678e-05
4.114869678e-05
4.11486967e-05
4.114869663e-05
4.114869651e-05
4.114869659e-05
4.114869682e-05
4.114869682e-05
4.114869682e-05
4.114869685e-05
4.114869704e-05
4.114869701e-05
4.11486972e-05
4.114869716e-05
4.114869723e-05
4.114869742e-05
4.114869754e-05
4.114869765e-05
4.114869799e-05
4.114869807e-05
4.114869826e-05
4.114869826e-05
4.114869837e-05
4.114869837e-05
4.114869852e-05
4.114869852e-05
4.114869826e-05
4.114869826e-05
4.114869837e-05
4.114869852e-05
4.11486986e-05
4.114869864e-05
4.11486986e-05
4.114869871e-05
4.114869898e-05
4.114869913e-05
4.114869924e-05
4.114869928e-05
4.114869936e-05
4.114869955e-05
4.114869966e-05
4.114869993e-05
4.114870008e-05
4.114870023e-05
4.114870046e-05
4.114870091e-05
4.114870072e-05
4.114870072e-05
4.114870076e-05
4.114870118e-05
4.114870122e-05
4.114870122e-05
4.114870137e-05
4.114870182e-05
4.114870182e-05
4.11487019e-05
4.11487019e-05
4.11487022e-05
4.114870258e-05
4.1148703e-05
4.11487033e-05