/*--------------------------------*- C++ -*----------------------------------*\
| =========                 |                                                 |
| \\      /  F ield         | OpenFOAM: The Open Source CFD Toolbox           |
|  \\    /   O peration     | Version:  2312                                  |
|   \\  /    A nd           | Website:  www.openfoam.com                      |
|    \\/     M anipulation  |                                                 |
\*---------------------------------------------------------------------------*/
FoamFile
{
    version     2.0;
    format      ascii;
    arch        "LSB;label=32;scalar=64";
    class       volScalarField;
    location    "6000";
    object      p;
}
// * * * * * * * * * * * * * * * * * * * * * * * * * * * * * * * * * * * * * //

dimensions      [1 -1 -2 0 0 0 0];

internalField   nonuniform List<scalar> 
20400
(
101322.7524
101322.7521
101322.7519
101322.7517
101322.7515
101322.7514
101322.7513
101322.7511
101322.751
101322.7509
101322.7508
101322.7507
101322.7506
101322.7504
101322.7503
101322.7503
101322.7502
101322.7501
101322.7501
101322.7501
101322.7501
101322.7501
101322.7501
101322.7502
101322.7503
101322.7504
101322.7505
101322.7507
101322.7509
101322.7511
101322.7514
101322.7517
101322.752
101322.7524
101322.7528
101322.7532
101322.7536
101322.7541
101322.7546
101322.7552
101322.7557
101322.7563
101322.757
101322.7576
101322.7583
101322.7591
101322.7598
101322.7606
101322.7615
101322.7624
101322.7633
101322.7642
101322.7652
101322.7662
101322.7673
101322.7683
101322.7695
101322.7706
101322.7718
101322.773
101322.7743
101322.7756
101322.7769
101322.7783
101322.7797
101322.7812
101322.7826
101322.7842
101322.7857
101322.7873
101322.789
101322.7906
101322.7923
101322.7941
101322.7959
101322.7977
101322.7996
101322.8014
101322.8034
101322.8054
101322.8074
101322.8094
101322.8115
101322.8137
101322.8158
101322.818
101322.8203
101322.8226
101322.8249
101322.8273
101322.8297
101322.8321
101322.8346
101322.8371
101322.8397
101322.8423
101322.845
101322.8477
101322.8504
101322.8532
101322.856
101322.8588
101322.8617
101322.8647
101322.8677
101322.8707
101322.8738
101322.8769
101322.88
101322.8833
101322.8865
101322.8898
101322.8932
101322.8965
101322.9
101322.9035
101322.907
101322.9106
101322.9142
101322.9179
101322.9217
101322.9255
101322.9293
101322.9332
101322.9372
101322.9412
101322.9453
101322.9494
101322.9536
101322.9579
101322.9622
101322.9666
101322.9711
101322.9756
101322.9802
101322.9849
101322.9897
101322.9946
101322.9995
101323.0045
101323.0096
101323.0148
101323.0201
101323.0256
101323.0311
101323.0367
101323.0425
101323.0483
101323.0544
101323.0605
101323.0668
101323.0732
101323.0798
101323.0866
101323.0936
101323.1007
101323.1081
101323.1156
101323.1234
101323.1315
101323.1398
101323.1484
101323.1573
101323.1665
101323.1761
101323.186
101323.1964
101323.2072
101323.2184
101323.2301
101323.2423
101323.2551
101323.2684
101323.2824
101323.297
101323.3122
101323.3282
101323.3448
101323.3623
101323.3805
101323.3995
101323.4194
101323.4402
101323.4618
101323.4843
101323.5076
101323.5319
101323.5571
101323.5832
101323.6101
101323.6379
101323.6665
101323.6959
101323.7261
101323.757
101323.7884
101323.8205
101323.853
101323.886
101323.9194
101323.953
101323.9867
101324.0205
101324.0541
101324.0879
101324.1214
101324.1545
101324.1872
101324.2193
101324.2508
101324.2817
101324.3116
101324.3407
101324.3687
101324.3957
101324.4215
101324.446
101324.469
101324.4907
101324.5109
101324.5297
101324.5471
101324.5631
101324.5776
101324.5906
101324.6023
101324.6125
101324.6213
101324.6287
101324.6347
101324.6393
101324.6426
101324.6446
101324.6454
101324.645
101324.6435
101324.6409
101324.6374
101324.633
101324.6278
101324.6218
101324.6151
101324.6078
101324.6
101324.5918
101324.5831
101324.5742
101324.5649
101324.5554
101324.5458
101324.536
101324.5262
101324.5164
101324.5066
101324.4968
101324.4872
101324.4776
101324.4683
101324.4591
101324.4501
101324.4414
101324.4328
101324.4246
101324.4166
101324.4089
101324.4015
101324.3944
101324.3876
101324.3811
101324.375
101324.3692
101324.3637
101324.3585
101324.3537
101324.3491
101324.3449
101324.3411
101324.3375
101324.3342
101324.3313
101324.3286
101324.3262
101324.3241
101324.3223
101324.3207
101324.3194
101324.3184
101324.3176
101324.317
101324.3167
101324.3166
101324.3168
101324.3171
101324.3177
101324.3184
101324.3194
101324.3205
101324.3219
101324.3234
101324.325
101324.3269
101324.3288
101324.331
101324.3333
101324.3357
101324.3382
101324.3409
101324.3438
101324.3467
101324.3497
101324.3529
101324.3562
101324.3595
101324.363
101324.3666
101324.3702
101324.374
101324.3778
101324.3817
101324.3857
101324.3897
101324.3938
101324.398
101324.4022
101324.4065
101324.4109
101324.4153
101324.4198
101324.4243
101324.4288
101324.4334
101324.438
101324.4427
101324.4474
101324.4521
101324.4569
101324.4617
101324.4665
101324.4713
101324.4761
101324.481
101324.4859
101324.4908
101324.4957
101324.5007
101324.5056
101324.5105
101324.5155
101324.5204
101324.5254
101324.5304
101324.5353
101324.5403
101324.5452
101324.5502
101324.5551
101324.5601
101324.565
101324.5699
101324.5748
101324.5797
101324.5846
101324.5895
101324.5944
101324.5992
101324.604
101324.6088
101324.6136
101324.6184
101324.6231
101324.6279
101324.6326
101324.6373
101324.6419
101324.6466
101324.6512
101324.6558
101324.6603
101324.6648
101324.6694
101324.6738
101324.6783
101324.6827
101324.6871
101324.6915
101324.6958
101324.7001
101324.7044
101324.7086
101324.7129
101324.717
101324.7212
101324.7253
101324.7294
101324.7335
101324.7375
101324.7415
101324.7454
101324.7494
101324.7533
101324.7571
101324.761
101324.7648
101324.7685
101324.7723
101324.776
101324.7797
101324.7833
101324.7869
101324.7905
101324.794
101324.7975
101324.801
101324.8045
101324.8079
101324.8113
101324.8146
101324.8179
101324.8212
101324.8245
101324.8277
101324.8309
101324.8341
101324.8372
101324.8403
101324.8434
101324.8465
101324.8495
101324.8525
101324.8554
101324.8584
101324.8613
101324.8641
101324.867
101324.8698
101324.8726
101324.8754
101324.8781
101324.8808
101324.8835
101324.8861
101324.8887
101324.8913
101324.8939
101324.8964
101324.8989
101324.9014
101324.9039
101324.9063
101324.9087
101324.9111
101324.9134
101324.9157
101324.918
101324.9203
101324.9225
101324.9247
101324.9269
101324.929
101324.9312
101324.9333
101324.9354
101324.9374
101324.9394
101324.9415
101324.9434
101324.9454
101324.9473
101324.9492
101324.9511
101324.953
101324.9548
101324.9567
101324.9585
101324.9603
101324.962
101324.9638
101324.9655
101324.9672
101324.9689
101324.9706
101324.9722
101324.9738
101324.9755
101324.9771
101324.9787
101324.9802
101324.9818
101324.9833
101324.9849
101324.9864
101324.9879
101324.9894
101324.9908
101324.9923
101324.9937
101324.9952
101324.9966
101324.9981
101324.9995
101322.7526
101322.7523
101322.7522
101322.752
101322.7519
101322.7518
101322.7516
101322.7515
101322.7514
101322.7512
101322.7511
101322.751
101322.7509
101322.7507
101322.7506
101322.7505
101322.7504
101322.7504
101322.7503
101322.7503
101322.7503
101322.7503
101322.7504
101322.7504
101322.7505
101322.7507
101322.7508
101322.751
101322.7512
101322.7514
101322.7517
101322.752
101322.7523
101322.7526
101322.753
101322.7534
101322.7539
101322.7544
101322.7549
101322.7554
101322.756
101322.7566
101322.7573
101322.7579
101322.7586
101322.7594
101322.7601
101322.7609
101322.7618
101322.7626
101322.7635
101322.7645
101322.7655
101322.7665
101322.7675
101322.7686
101322.7697
101322.7709
101322.7721
101322.7733
101322.7746
101322.7759
101322.7772
101322.7786
101322.78
101322.7814
101322.7829
101322.7844
101322.786
101322.7876
101322.7892
101322.7909
101322.7926
101322.7944
101322.7961
101322.798
101322.7998
101322.8017
101322.8037
101322.8056
101322.8076
101322.8097
101322.8118
101322.8139
101322.8161
101322.8183
101322.8206
101322.8228
101322.8252
101322.8275
101322.83
101322.8324
101322.8349
101322.8374
101322.84
101322.8426
101322.8452
101322.8479
101322.8507
101322.8534
101322.8563
101322.8591
101322.862
101322.865
101322.868
101322.871
101322.8741
101322.8772
101322.8803
101322.8836
101322.8868
101322.8901
101322.8935
101322.8969
101322.9003
101322.9038
101322.9073
101322.9109
101322.9146
101322.9183
101322.922
101322.9258
101322.9297
101322.9336
101322.9376
101322.9416
101322.9457
101322.9498
101322.954
101322.9583
101322.9627
101322.9671
101322.9715
101322.9761
101322.9807
101322.9854
101322.9902
101322.9951
101323
101323.0051
101323.0102
101323.0154
101323.0208
101323.0262
101323.0317
101323.0374
101323.0432
101323.0491
101323.0551
101323.0613
101323.0677
101323.0741
101323.0808
101323.0876
101323.0946
101323.1018
101323.1092
101323.1168
101323.1247
101323.1328
101323.1412
101323.1498
101323.1588
101323.1681
101323.1777
101323.1877
101323.1981
101323.209
101323.2203
101323.232
101323.2443
101323.2571
101323.2704
101323.2843
101323.2989
101323.3141
101323.33
101323.3466
101323.3639
101323.382
101323.4009
101323.4206
101323.4411
101323.4625
101323.4847
101323.5077
101323.5317
101323.5566
101323.5824
101323.6089
101323.6361
101323.6641
101323.6929
101323.7224
101323.7526
101323.7835
101323.8149
101323.8469
101323.8792
101323.912
101323.945
101323.9783
101324.0117
101324.0451
101324.0782
101324.1112
101324.1439
101324.1762
101324.2081
101324.2393
101324.2698
101324.2995
101324.3284
101324.3562
101324.383
101324.4087
101324.4332
101324.4566
101324.4787
101324.4996
101324.5191
101324.5372
101324.5539
101324.5692
101324.5831
101324.5956
101324.6066
101324.6161
101324.624
101324.6305
101324.6356
101324.6393
101324.6417
101324.6428
101324.6427
101324.6414
101324.639
101324.6356
101324.6313
101324.6261
101324.6202
101324.6135
101324.6063
101324.5985
101324.5903
101324.5816
101324.5727
101324.5635
101324.554
101324.5444
101324.5347
101324.525
101324.5152
101324.5055
101324.4958
101324.4863
101324.4768
101324.4676
101324.4585
101324.4496
101324.4409
101324.4324
101324.4243
101324.4164
101324.4087
101324.4014
101324.3943
101324.3876
101324.3811
101324.3751
101324.3693
101324.3639
101324.3587
101324.3539
101324.3495
101324.3453
101324.3414
101324.3379
101324.3346
101324.3317
101324.3291
101324.3267
101324.3246
101324.3228
101324.3212
101324.32
101324.3189
101324.3181
101324.3176
101324.3173
101324.3172
101324.3173
101324.3177
101324.3183
101324.319
101324.32
101324.3211
101324.3224
101324.3239
101324.3256
101324.3274
101324.3294
101324.3316
101324.3339
101324.3363
101324.3389
101324.3415
101324.3444
101324.3473
101324.3504
101324.3535
101324.3568
101324.3602
101324.3637
101324.3672
101324.3709
101324.3746
101324.3785
101324.3824
101324.3863
101324.3904
101324.3945
101324.3987
101324.4029
101324.4072
101324.4116
101324.416
101324.4204
101324.4249
101324.4295
101324.4341
101324.4387
101324.4434
101324.4481
101324.4528
101324.4575
101324.4623
101324.4671
101324.472
101324.4768
101324.4817
101324.4866
101324.4915
101324.4964
101324.5013
101324.5062
101324.5112
101324.5161
101324.5211
101324.526
101324.531
101324.5359
101324.5409
101324.5458
101324.5508
101324.5557
101324.5606
101324.5656
101324.5705
101324.5754
101324.5803
101324.5852
101324.59
101324.5949
101324.5997
101324.6045
101324.6093
101324.6141
101324.6189
101324.6236
101324.6284
101324.6331
101324.6377
101324.6424
101324.647
101324.6516
101324.6562
101324.6608
101324.6653
101324.6698
101324.6743
101324.6787
101324.6831
101324.6875
101324.6919
101324.6962
101324.7005
101324.7048
101324.709
101324.7132
101324.7174
101324.7215
101324.7256
101324.7297
101324.7338
101324.7378
101324.7418
101324.7457
101324.7497
101324.7535
101324.7574
101324.7612
101324.765
101324.7688
101324.7725
101324.7762
101324.7799
101324.7835
101324.7871
101324.7907
101324.7942
101324.7977
101324.8012
101324.8046
101324.808
101324.8114
101324.8148
101324.8181
101324.8214
101324.8246
101324.8278
101324.831
101324.8342
101324.8373
101324.8404
101324.8435
101324.8466
101324.8496
101324.8526
101324.8555
101324.8584
101324.8613
101324.8642
101324.8671
101324.8699
101324.8726
101324.8754
101324.8781
101324.8808
101324.8835
101324.8861
101324.8888
101324.8913
101324.8939
101324.8964
101324.8989
101324.9014
101324.9039
101324.9063
101324.9087
101324.9111
101324.9134
101324.9157
101324.918
101324.9203
101324.9225
101324.9247
101324.9269
101324.929
101324.9312
101324.9333
101324.9353
101324.9374
101324.9394
101324.9414
101324.9434
101324.9454
101324.9473
101324.9492
101324.9511
101324.953
101324.9548
101324.9566
101324.9584
101324.9602
101324.962
101324.9637
101324.9654
101324.9671
101324.9688
101324.9705
101324.9722
101324.9738
101324.9754
101324.977
101324.9786
101324.9802
101324.9817
101324.9833
101324.9848
101324.9863
101324.9878
101324.9893
101324.9908
101324.9923
101324.9937
101324.9951
101324.9966
101324.9981
101324.9995
101322.7529
101322.7525
101322.7524
101322.7523
101322.7522
101322.7521
101322.7519
101322.7518
101322.7517
101322.7515
101322.7514
101322.7513
101322.7511
101322.751
101322.7509
101322.7508
101322.7507
101322.7506
101322.7506
101322.7506
101322.7506
101322.7506
101322.7506
101322.7507
101322.7508
101322.7509
101322.7511
101322.7513
101322.7515
101322.7517
101322.7519
101322.7522
101322.7526
101322.7529
101322.7533
101322.7537
101322.7542
101322.7546
101322.7551
101322.7557
101322.7563
101322.7569
101322.7575
101322.7582
101322.7589
101322.7596
101322.7604
101322.7612
101322.762
101322.7629
101322.7638
101322.7647
101322.7657
101322.7667
101322.7678
101322.7689
101322.77
101322.7711
101322.7723
101322.7736
101322.7748
101322.7761
101322.7774
101322.7788
101322.7802
101322.7817
101322.7832
101322.7847
101322.7862
101322.7878
101322.7895
101322.7911
101322.7928
101322.7946
101322.7964
101322.7982
101322.8001
101322.802
101322.8039
101322.8059
101322.8079
101322.8099
101322.812
101322.8142
101322.8163
101322.8185
101322.8208
101322.8231
101322.8254
101322.8278
101322.8302
101322.8326
101322.8351
101322.8377
101322.8402
101322.8428
101322.8455
101322.8482
101322.8509
101322.8537
101322.8565
101322.8594
101322.8623
101322.8652
101322.8682
101322.8713
101322.8743
101322.8775
101322.8806
101322.8838
101322.8871
101322.8904
101322.8937
101322.8971
101322.9006
101322.9041
101322.9076
101322.9112
101322.9149
101322.9186
101322.9224
101322.9262
101322.93
101322.934
101322.9379
101322.942
101322.9461
101322.9502
101322.9545
101322.9587
101322.9631
101322.9675
101322.972
101322.9766
101322.9812
101322.986
101322.9908
101322.9956
101323.0006
101323.0057
101323.0108
101323.0161
101323.0214
101323.0269
101323.0325
101323.0382
101323.044
101323.0499
101323.056
101323.0622
101323.0686
101323.0751
101323.0818
101323.0886
101323.0957
101323.1029
101323.1103
101323.118
101323.1259
101323.134
101323.1424
101323.1511
101323.16
101323.1693
101323.1789
101323.1889
101323.1993
101323.21
101323.2212
101323.2328
101323.2449
101323.2575
101323.2706
101323.2844
101323.2987
101323.3137
101323.3294
101323.3457
101323.3628
101323.3806
101323.3992
101323.4186
101323.4388
101323.4598
101323.4818
101323.5045
101323.528
101323.5523
101323.5774
101323.6035
101323.6305
101323.6583
101323.687
101323.7164
101323.7465
101323.7773
101323.8087
101323.8406
101323.8729
101323.9057
101323.9387
101323.9719
101324.0054
101324.039
101324.0723
101324.1055
101324.1384
101324.171
101324.2031
101324.2347
101324.2655
101324.2956
101324.3248
101324.353
101324.3802
101324.4062
101324.431
101324.4546
101324.477
101324.4981
101324.5178
101324.536
101324.5527
101324.5679
101324.5815
101324.5936
101324.6043
101324.6135
101324.6212
101324.6276
101324.6325
101324.6361
101324.6385
101324.6396
101324.6395
101324.6383
101324.6361
101324.6329
101324.6288
101324.6238
101324.618
101324.6115
101324.6044
101324.5967
101324.5885
101324.58
101324.5711
101324.5619
101324.5525
101324.543
101324.5333
101324.5236
101324.5138
101324.5041
101324.4945
101324.485
101324.4756
101324.4663
101324.4573
101324.4485
101324.4398
101324.4315
101324.4233
101324.4155
101324.4079
101324.4006
101324.3936
101324.387
101324.3806
101324.3746
101324.3688
101324.3634
101324.3583
101324.3536
101324.3492
101324.3451
101324.3413
101324.3378
101324.3346
101324.3317
101324.3291
101324.3267
101324.3247
101324.3229
101324.3214
101324.3201
101324.3191
101324.3184
101324.3179
101324.3176
101324.3175
101324.3177
101324.318
101324.3186
101324.3194
101324.3203
101324.3215
101324.3228
101324.3243
101324.326
101324.3278
101324.3298
101324.332
101324.3343
101324.3367
101324.3393
101324.342
101324.3448
101324.3477
101324.3508
101324.354
101324.3572
101324.3606
101324.3641
101324.3677
101324.3713
101324.3751
101324.3789
101324.3828
101324.3868
101324.3908
101324.3949
101324.3991
101324.4034
101324.4077
101324.412
101324.4164
101324.4209
101324.4254
101324.43
101324.4346
101324.4392
101324.4438
101324.4485
101324.4533
101324.458
101324.4628
101324.4676
101324.4724
101324.4773
101324.4822
101324.487
101324.4919
101324.4969
101324.5018
101324.5067
101324.5117
101324.5166
101324.5216
101324.5265
101324.5315
101324.5364
101324.5414
101324.5463
101324.5513
101324.5562
101324.5611
101324.566
101324.571
101324.5759
101324.5808
101324.5856
101324.5905
101324.5953
101324.6002
101324.605
101324.6098
101324.6146
101324.6193
101324.6241
101324.6288
101324.6335
101324.6382
101324.6428
101324.6474
101324.652
101324.6566
101324.6611
101324.6657
101324.6702
101324.6746
101324.6791
101324.6835
101324.6879
101324.6922
101324.6965
101324.7008
101324.7051
101324.7093
101324.7135
101324.7177
101324.7218
101324.726
101324.73
101324.7341
101324.7381
101324.7421
101324.746
101324.7499
101324.7538
101324.7577
101324.7615
101324.7653
101324.769
101324.7728
101324.7765
101324.7801
101324.7837
101324.7873
101324.7909
101324.7944
101324.7979
101324.8014
101324.8048
101324.8082
101324.8116
101324.815
101324.8183
101324.8215
101324.8248
101324.828
101324.8312
101324.8344
101324.8375
101324.8406
101324.8437
101324.8467
101324.8497
101324.8527
101324.8556
101324.8586
101324.8615
101324.8643
101324.8672
101324.87
101324.8727
101324.8755
101324.8782
101324.8809
101324.8836
101324.8862
101324.8888
101324.8914
101324.894
101324.8965
101324.899
101324.9015
101324.9039
101324.9063
101324.9087
101324.9111
101324.9134
101324.9157
101324.918
101324.9203
101324.9225
101324.9247
101324.9269
101324.929
101324.9312
101324.9333
101324.9354
101324.9374
101324.9394
101324.9414
101324.9434
101324.9454
101324.9473
101324.9492
101324.9511
101324.953
101324.9548
101324.9566
101324.9584
101324.9602
101324.962
101324.9637
101324.9654
101324.9671
101324.9688
101324.9705
101324.9721
101324.9738
101324.9754
101324.977
101324.9786
101324.9802
101324.9817
101324.9833
101324.9848
101324.9863
101324.9878
101324.9893
101324.9908
101324.9922
101324.9937
101324.9951
101324.9966
101324.9981
101324.9995
101322.7532
101322.7527
101322.7525
101322.7525
101322.7524
101322.7523
101322.7522
101322.752
101322.7519
101322.7518
101322.7516
101322.7515
101322.7513
101322.7512
101322.7511
101322.751
101322.7509
101322.7508
101322.7508
101322.7508
101322.7508
101322.7508
101322.7509
101322.7509
101322.751
101322.7512
101322.7513
101322.7515
101322.7517
101322.7519
101322.7522
101322.7525
101322.7528
101322.7531
101322.7535
101322.7539
101322.7544
101322.7549
101322.7554
101322.7559
101322.7565
101322.7571
101322.7577
101322.7584
101322.7591
101322.7598
101322.7606
101322.7614
101322.7622
101322.7631
101322.764
101322.765
101322.7659
101322.7669
101322.768
101322.7691
101322.7702
101322.7714
101322.7725
101322.7738
101322.775
101322.7763
101322.7777
101322.779
101322.7804
101322.7819
101322.7834
101322.7849
101322.7864
101322.788
101322.7897
101322.7913
101322.7931
101322.7948
101322.7966
101322.7984
101322.8003
101322.8022
101322.8041
101322.8061
101322.8081
101322.8102
101322.8123
101322.8144
101322.8166
101322.8188
101322.821
101322.8233
101322.8256
101322.828
101322.8304
101322.8329
101322.8354
101322.8379
101322.8405
101322.8431
101322.8457
101322.8484
101322.8512
101322.854
101322.8568
101322.8597
101322.8626
101322.8655
101322.8685
101322.8715
101322.8746
101322.8778
101322.8809
101322.8841
101322.8874
101322.8907
101322.8941
101322.8975
101322.9009
101322.9045
101322.908
101322.9116
101322.9153
101322.919
101322.9228
101322.9266
101322.9304
101322.9344
101322.9384
101322.9424
101322.9465
101322.9507
101322.9549
101322.9592
101322.9636
101322.9681
101322.9726
101322.9771
101322.9818
101322.9865
101322.9914
101322.9963
101323.0013
101323.0063
101323.0115
101323.0168
101323.0222
101323.0276
101323.0332
101323.0389
101323.0448
101323.0507
101323.0568
101323.063
101323.0693
101323.0758
101323.0825
101323.0893
101323.0963
101323.1035
101323.1109
101323.1184
101323.1262
101323.1343
101323.1426
101323.1511
101323.16
101323.1691
101323.1786
101323.1884
101323.1986
101323.2091
101323.2201
101323.2314
101323.2433
101323.2556
101323.2685
101323.282
101323.2961
101323.3108
101323.3261
101323.3422
101323.3589
101323.3764
101323.3947
101323.4138
101323.4337
101323.4545
101323.4761
101323.4986
101323.5222
101323.5468
101323.5722
101323.5985
101323.6257
101323.6537
101323.6825
101323.7122
101323.7425
101323.7736
101323.8052
101323.8374
101323.8701
101323.9031
101323.9365
101323.97
101324.0037
101324.0375
101324.0713
101324.1049
101324.1382
101324.1711
101324.2035
101324.2353
101324.2664
101324.2967
101324.3261
101324.3545
101324.3818
101324.408
101324.4328
101324.4563
101324.4783
101324.499
101324.5182
101324.536
101324.5523
101324.5671
101324.5803
101324.592
101324.6023
101324.6111
101324.6186
101324.6246
101324.6293
101324.6327
101324.6349
101324.6358
101324.6357
101324.6344
101324.6321
101324.6289
101324.6248
101324.6199
101324.6142
101324.6078
101324.6008
101324.5932
101324.5852
101324.5767
101324.568
101324.5589
101324.5496
101324.5402
101324.5306
101324.521
101324.5113
101324.5017
101324.4921
101324.4826
101324.4733
101324.4641
101324.4552
101324.4464
101324.4378
101324.4295
101324.4215
101324.4137
101324.4062
101324.399
101324.3921
101324.3855
101324.3792
101324.3732
101324.3676
101324.3622
101324.3572
101324.3525
101324.3481
101324.3441
101324.3404
101324.3369
101324.3338
101324.331
101324.3284
101324.3262
101324.3242
101324.3224
101324.321
101324.3198
101324.3188
101324.3181
101324.3176
101324.3174
101324.3174
101324.3176
101324.318
101324.3186
101324.3194
101324.3204
101324.3216
101324.3229
101324.3244
101324.3261
101324.328
101324.33
101324.3321
101324.3344
101324.3369
101324.3395
101324.3422
101324.345
101324.3479
101324.351
101324.3542
101324.3575
101324.3608
101324.3643
101324.3679
101324.3715
101324.3753
101324.3791
101324.383
101324.387
101324.3911
101324.3952
101324.3994
101324.4036
101324.4079
101324.4123
101324.4167
101324.4212
101324.4257
101324.4302
101324.4348
101324.4394
101324.4441
101324.4488
101324.4535
101324.4583
101324.4631
101324.4679
101324.4727
101324.4776
101324.4825
101324.4874
101324.4923
101324.4972
101324.5021
101324.5071
101324.512
101324.5169
101324.5219
101324.5269
101324.5318
101324.5368
101324.5417
101324.5467
101324.5516
101324.5566
101324.5615
101324.5664
101324.5713
101324.5762
101324.5811
101324.586
101324.5909
101324.5957
101324.6006
101324.6054
101324.6102
101324.6149
101324.6197
101324.6244
101324.6292
101324.6339
101324.6385
101324.6432
101324.6478
101324.6524
101324.657
101324.6615
101324.666
101324.6705
101324.675
101324.6794
101324.6838
101324.6882
101324.6926
101324.6969
101324.7012
101324.7054
101324.7097
101324.7139
101324.718
101324.7222
101324.7263
101324.7303
101324.7344
101324.7384
101324.7424
101324.7463
101324.7502
101324.7541
101324.758
101324.7618
101324.7656
101324.7693
101324.773
101324.7767
101324.7804
101324.784
101324.7876
101324.7911
101324.7947
101324.7982
101324.8016
101324.8051
101324.8085
101324.8118
101324.8152
101324.8185
101324.8218
101324.825
101324.8282
101324.8314
101324.8345
101324.8377
101324.8408
101324.8438
101324.8469
101324.8499
101324.8528
101324.8558
101324.8587
101324.8616
101324.8645
101324.8673
101324.8701
101324.8729
101324.8756
101324.8783
101324.881
101324.8837
101324.8863
101324.8889
101324.8915
101324.8941
101324.8966
101324.8991
101324.9016
101324.904
101324.9064
101324.9088
101324.9112
101324.9135
101324.9158
101324.9181
101324.9204
101324.9226
101324.9248
101324.927
101324.9291
101324.9312
101324.9333
101324.9354
101324.9375
101324.9395
101324.9415
101324.9435
101324.9454
101324.9473
101324.9492
101324.9511
101324.953
101324.9548
101324.9566
101324.9584
101324.9602
101324.962
101324.9637
101324.9654
101324.9671
101324.9688
101324.9705
101324.9721
101324.9738
101324.9754
101324.977
101324.9786
101324.9802
101324.9817
101324.9832
101324.9848
101324.9863
101324.9878
101324.9893
101324.9908
101324.9922
101324.9937
101324.9951
101324.9966
101324.9981
101324.9995
101322.7535
101322.7529
101322.7527
101322.7526
101322.7525
101322.7524
101322.7523
101322.7522
101322.752
101322.7519
101322.7517
101322.7516
101322.7514
101322.7513
101322.7512
101322.7511
101322.7511
101322.751
101322.751
101322.751
101322.751
101322.751
101322.7511
101322.7511
101322.7512
101322.7514
101322.7515
101322.7517
101322.7519
101322.7521
101322.7524
101322.7527
101322.753
101322.7533
101322.7537
101322.7541
101322.7546
101322.7551
101322.7556
101322.7561
101322.7567
101322.7573
101322.758
101322.7586
101322.7593
101322.7601
101322.7608
101322.7616
101322.7625
101322.7633
101322.7642
101322.7652
101322.7662
101322.7672
101322.7682
101322.7693
101322.7704
101322.7716
101322.7728
101322.774
101322.7753
101322.7766
101322.7779
101322.7793
101322.7807
101322.7822
101322.7836
101322.7852
101322.7867
101322.7883
101322.79
101322.7916
101322.7933
101322.7951
101322.7969
101322.7987
101322.8006
101322.8025
101322.8044
101322.8064
101322.8084
101322.8105
101322.8126
101322.8147
101322.8169
101322.8191
101322.8213
101322.8236
101322.826
101322.8283
101322.8308
101322.8332
101322.8357
101322.8382
101322.8408
101322.8434
101322.8461
101322.8488
101322.8515
101322.8543
101322.8572
101322.86
101322.8629
101322.8659
101322.8689
101322.8719
101322.875
101322.8782
101322.8813
101322.8846
101322.8878
101322.8912
101322.8945
101322.8979
101322.9014
101322.9049
101322.9085
101322.9121
101322.9158
101322.9195
101322.9232
101322.9271
101322.9309
101322.9349
101322.9388
101322.9429
101322.947
101322.9512
101322.9554
101322.9597
101322.964
101322.9685
101322.973
101322.9775
101322.9822
101322.9869
101322.9917
101322.9966
101323.0016
101323.0066
101323.0118
101323.017
101323.0224
101323.0278
101323.0334
101323.0391
101323.0448
101323.0507
101323.0567
101323.0629
101323.0691
101323.0756
101323.0821
101323.0889
101323.0957
101323.1028
101323.1101
101323.1176
101323.1252
101323.1331
101323.1412
101323.1496
101323.1582
101323.1671
101323.1764
101323.186
101323.196
101323.2064
101323.2171
101323.2283
101323.24
101323.2522
101323.2649
101323.2782
101323.2921
101323.3067
101323.322
101323.338
101323.3547
101323.3722
101323.3905
101323.4097
101323.4298
101323.4507
101323.4725
101323.4953
101323.519
101323.5436
101323.5692
101323.5957
101323.6231
101323.6514
101323.6805
101323.7103
101323.741
101323.7723
101323.8042
101323.8366
101323.8695
101323.9029
101323.9364
101323.9702
101324.0041
101324.038
101324.0719
101324.1055
101324.1387
101324.1715
101324.2038
101324.2354
101324.2664
101324.2966
101324.3258
101324.354
101324.3811
101324.407
101324.4316
101324.4548
101324.4766
101324.4969
101324.5159
101324.5334
101324.5494
101324.5639
101324.5768
101324.5883
101324.5984
101324.607
101324.6142
101324.6201
101324.6246
101324.6278
101324.6298
101324.6306
101324.6303
101324.629
101324.6266
101324.6233
101324.6191
101324.6141
101324.6084
101324.602
101324.595
101324.5875
101324.5795
101324.5712
101324.5625
101324.5536
101324.5444
101324.5351
101324.5257
101324.5162
101324.5066
101324.4971
101324.4877
101324.4784
101324.4692
101324.4602
101324.4513
101324.4427
101324.4343
101324.4261
101324.4182
101324.4105
101324.4032
101324.3961
101324.3893
101324.3828
101324.3766
101324.3708
101324.3652
101324.36
101324.3551
101324.3505
101324.3462
101324.3422
101324.3386
101324.3352
101324.3322
101324.3295
101324.327
101324.3248
101324.3229
101324.3213
101324.3199
101324.3187
101324.3179
101324.3172
101324.3168
101324.3166
101324.3167
101324.3169
101324.3174
101324.318
101324.3189
101324.3199
101324.3211
101324.3225
101324.3241
101324.3258
101324.3277
101324.3298
101324.332
101324.3343
101324.3368
101324.3394
101324.3421
101324.345
101324.3479
101324.351
101324.3542
101324.3575
101324.3609
101324.3644
101324.368
101324.3716
101324.3754
101324.3792
101324.3831
101324.3871
101324.3912
101324.3953
101324.3995
101324.4038
101324.4081
101324.4124
101324.4168
101324.4213
101324.4258
101324.4304
101324.4349
101324.4396
101324.4443
101324.449
101324.4537
101324.4585
101324.4633
101324.4681
101324.4729
101324.4778
101324.4826
101324.4875
101324.4924
101324.4974
101324.5023
101324.5072
101324.5122
101324.5171
101324.5221
101324.5271
101324.532
101324.537
101324.542
101324.5469
101324.5519
101324.5568
101324.5618
101324.5667
101324.5716
101324.5765
101324.5814
101324.5863
101324.5912
101324.596
101324.6009
101324.6057
101324.6105
101324.6153
101324.62
101324.6248
101324.6295
101324.6342
101324.6389
101324.6435
101324.6481
101324.6527
101324.6573
101324.6619
101324.6664
101324.6709
101324.6753
101324.6798
101324.6842
101324.6886
101324.6929
101324.6972
101324.7015
101324.7058
101324.71
101324.7142
101324.7184
101324.7225
101324.7266
101324.7307
101324.7347
101324.7387
101324.7427
101324.7466
101324.7506
101324.7544
101324.7583
101324.7621
101324.7659
101324.7696
101324.7733
101324.777
101324.7807
101324.7843
101324.7879
101324.7914
101324.795
101324.7985
101324.8019
101324.8053
101324.8087
101324.8121
101324.8154
101324.8187
101324.822
101324.8252
101324.8285
101324.8316
101324.8348
101324.8379
101324.841
101324.8441
101324.8471
101324.8501
101324.8531
101324.856
101324.8589
101324.8618
101324.8647
101324.8675
101324.8703
101324.8731
101324.8758
101324.8785
101324.8812
101324.8839
101324.8865
101324.8891
101324.8917
101324.8942
101324.8968
101324.8993
101324.9017
101324.9042