/*--------------------------------*- C++ -*----------------------------------*\
| =========                 |                                                 |
| \\      /  F ield         | OpenFOAM: The Open Source CFD Toolbox           |
|  \\    /   O peration     | Version:  2312                                  |
|   \\  /    A nd           | Website:  www.openfoam.com                      |
|    \\/     M anipulation  |                                                 |
\*---------------------------------------------------------------------------*/
FoamFile
{
    version     2.0;
    format      ascii;
    arch        "LSB;label=32;scalar=64";
    class       surfaceScalarField;
    location    "6000";
    object      phi;
}
// * * * * * * * * * * * * * * * * * * * * * * * * * * * * * * * * * * * * * //

dimensions      [1 0 -1 0 0 0 0];

oriented        oriented;

internalField   nonuniform List<scalar> 
40240
(
1.67606924e-05
-1.676069339e-05
1.30049138e-05
3.755780438e-06
-7.714346696e-06
2.071926213e-05
-4.054772175e-05
3.283337337e-05
-8.249533754e-05
4.194762031e-05
-0.0001309693847
4.847404484e-05
-0.0001836376514
5.266826662e-05
-0.00023882379
5.518613658e-05
-0.0002955902083
5.676641982e-05
-0.0003535282829
5.793807356e-05
-0.0004125163088
5.89880294e-05
-0.0004724928145
5.997650537e-05
-0.0005334526923
6.095987743e-05
-0.0005953399866
6.188729447e-05
-0.000658102014
6.276202861e-05
-0.0007215561773
6.345416199e-05
-0.0007856016459
6.404546706e-05
-0.000849934698
6.433305125e-05
-0.0009146753253
6.474062836e-05
-0.0009795699074
6.489458121e-05
-0.001044481924
6.491201914e-05
-0.001109201488
6.471956366e-05
-0.001173600978
6.439948987e-05
-0.001237704941
6.410396793e-05
-0.001301611316
6.390637111e-05
-0.00136541207
6.380075734e-05
-0.00142916742
6.375534624e-05
-0.001492941917
6.377449989e-05
-0.001556781612
6.38396952e-05
-0.001620627109
6.384549692e-05
-0.001684314278
6.368716742e-05
-0.001747651191
6.33369128e-05
-0.001810489019
6.283782664e-05
-0.001872763205
6.227418658e-05
-0.001934488908
6.172570391e-05
-0.001995715188
6.122628114e-05
-0.002056488084
6.077289741e-05
-0.002116819784
6.033169983e-05
-0.002176671985
5.985220041e-05
-0.002236002228
5.933024369e-05
-0.002294853333
5.885110539e-05
-0.002353361647
5.850831233e-05
-0.0024117084
5.834675324e-05
-0.002470067929
5.835952975e-05
-0.002528591567
5.85236394e-05
-0.002587341435
5.874986852e-05
-0.002646101884
5.876044886e-05
-0.002704527692
5.842580778e-05
-0.002762512698
5.798500552e-05
-0.002820089582
5.757688271e-05
-0.002877311198
5.722161555e-05
-0.002934216874
5.690567949e-05
-0.00299083422
5.661734199e-05
-0.003047183876
5.634965495e-05
-0.003103281656
5.609778112e-05
-0.003159139572
5.585791291e-05
-0.00321476672
5.562714902e-05
-0.003270170204
5.540348476e-05
-0.003325355859
5.518565547e-05
-0.003380328786
5.497292876e-05
-0.003435093688
5.47648996e-05
-0.003489655016
5.456133028e-05
-0.003544016984
5.436196733e-05
-0.003598183399
5.416641762e-05
-0.003652157742
5.39743395e-05
-0.00370594374
5.378600268e-05
-0.003759546015
5.36022736e-05
-0.003812968545
5.342253061e-05
-0.003866210534
5.324199037e-05
-0.00391926639
5.305585141e-05
-0.003972139169
5.287278291e-05
-0.004024851719
5.271254909e-05
-0.004077406127
5.255440887e-05
-0.004129706909
5.230078251e-05
-0.004181636488
5.192957875e-05
-0.004233359821
5.172333599e-05
-0.004285286714
5.192689235e-05
-0.004337321272
5.203455696e-05
-0.004389179377
5.185810696e-05
-0.004440833299
5.165392208e-05
-0.004492313489
5.148019083e-05
-0.004543651567
5.133807627e-05
-0.004594871693
5.122012614e-05
-0.004645993728
5.112203483e-05
-0.004697035434
5.104170753e-05
-0.00474801343
5.097799393e-05
-0.004798943674
5.093024512e-05
-0.004849841451
5.089777792e-05
-0.004900720637
5.08791861e-05
-0.004951593037
5.087239971e-05
-0.0050024694
5.087636254e-05
-0.00505336193
5.089253055e-05
-0.005104285295
5.092336417e-05
-0.005155255968
5.097067415e-05
-0.005206292068
5.103609737e-05
-0.005257412588
5.112052269e-05
-0.005308636499
5.122391027e-05
-0.005359983314
5.134681722e-05
-0.005411472847
5.148953083e-05
-0.005463123959
5.165111415e-05
-0.005514954437
5.183047529e-05
-0.005566982421
5.202798357e-05
-0.005619228034
5.224561606e-05
-0.005671714186
5.248615016e-05
-0.005724466167
5.275197992e-05
-0.005777510282
5.304411833e-05
-0.005830872938
5.336265511e-05
-0.005884581652
5.370871201e-05
-0.005938667575
5.408592412e-05
-0.00599316776
5.45001846e-05
-0.006048125706
5.495794711e-05
-0.006103589282
5.546357628e-05
-0.006159605746
5.601646271e-05
-0.006216217767
5.661202209e-05
-0.006273467525
5.724975737e-05
-0.006331395012
5.79274904e-05
-0.006390027249
5.863223562e-05
-0.006449366559
5.933930871e-05
-0.00650942055
6.005399096e-05
-0.006570270763
6.085021264e-05
-0.006631989602
6.171883814e-05
-0.006694641927
6.265232685e-05
-0.00675828822
6.364629237e-05
-0.006822989027
6.47008047e-05
-0.006888811083
6.582205807e-05
-0.006955833438
6.702235477e-05
-0.007024144673
6.831123828e-05
-0.007093830461
6.968578789e-05
-0.007164968584
7.113812606e-05
-0.007237639132
7.267054567e-05
-0.007311923911
7.428478069e-05
-0.007387906376
7.598246129e-05
-0.007465673206
7.776683371e-05
-0.007545315169
7.964196096e-05
-0.007626927754
8.161258536e-05
-0.007710611569
8.368381561e-05
-0.007796472066
8.586049566e-05
-0.007884618705
8.81466433e-05
-0.007975165468
9.054676013e-05
-0.008068237553
9.307208486e-05
-0.008163986639
9.574908516e-05
-0.008262601666
9.861503143e-05
-0.008364295309
0.0001016936386
-0.008469274756
0.0001049794479
-0.008577745556
0.000108470801
-0.008689938884
0.0001121933302
-0.008806020779
0.0001160818942
-0.008926051413
0.0001200306351
-0.009050117673
0.0001240662592
-0.00917853431
0.0001284166362
-0.009311581133
0.0001330468276
-0.009449526759
0.0001379456219
-0.009592601239
0.0001430744841
-0.0097409814
0.00014838016
-0.009894833213
0.0001538518133
-0.01005442641
0.0001595932018
-0.01022019539
0.0001657689776
-0.01039258372
0.0001723883311
-0.01057185093
0.0001792672071
-0.01075826071
0.0001864097766
-0.01095195125
0.0001936905482
-0.01115304281
0.0002010915573
-0.01136161907
0.0002085762643
-0.01157773055
0.0002161114813
-0.0118013823
0.0002236517491
-0.01203250285
0.0002311205524
-0.0122709104
0.000238407542
-0.01251604215
0.000245131754
-0.01276711345
0.0002510713035
-0.01302404437
0.000256930919
-0.01328630443
0.0002622600595
-0.01355323645
0.0002669320152
-0.013823852
0.0002706155522
-0.01409698012
0.0002731281252
-0.01437134607
0.0002743659436
-0.01464552684
0.000274180772
-0.01491825411
0.0002727272692
-0.01518870858
0.0002704544765
-0.01545533553
0.0002666269409
-0.01571611873
0.0002607832075
-0.01596888892
0.0002527701858
-0.01621170123
0.0002428123141
-0.01644209497
0.0002303937402
-0.01665912734
0.0002170323655
-0.01686078852
0.0002016611725
-0.01704522713
0.0001844386178
-0.01721103261
0.000165805475
-0.01735503601
0.0001440034071
-0.01746968618
0.0001146501696
-0.01755642058
8.673439585e-05
-0.01761444046
5.801988386e-05
-0.01764412518
2.968471927e-05
-0.01764558179
1.456605805e-06
-0.01761469111
-3.089068125e-05
-0.01754712283
-6.756827576e-05
-0.01743964787
-0.0001074749589
-0.01729089715
-0.000148750717
-0.01710016168
-0.0001907354721
-0.01686668049
-0.0002334811815
-0.01658924289
-0.0002774376094
-0.01626530131
-0.000323941579
-0.01589081198
-0.0003744893282
-0.01546887011
-0.0004219418694
-0.01504455181
-0.000424318301
-0.01454070629
-0.0005038455137
-0.01400357273
-0.000537133557
-0.01342700869
-0.0005765640447
-0.01281087296
-0.0006161357324
-0.01215648241
-0.000654390549
-0.01146500487
-0.0006914775349
-0.010737887
-0.0007271178668
-0.009977090138
-0.0007607968671
-0.009184999718
-0.00079209042
-0.008364307932
-0.0008206917845
-0.007517942489
-0.0008463654425
-0.00664857365
-0.0008693688399
-0.005757659849
-0.0008909138023
-0.004853480106
-0.0009041797391
-0.003947393824
-0.000906086282
-0.003036675334
-0.0009107184891
-0.002121944505
-0.0009147308295
-0.001205601775
-0.0009163427317
-0.0002907748514
-0.0009148269204
0.0006211341177
-0.0009119089698
0.001533094592
-0.000911960477
0.002444370642
-0.0009112760494
0.003351027457
-0.000906656817
0.004248799785
-0.0008977723261
0.005133900652
-0.0008851008652
0.006003042887
-0.0008691422389
0.006853457445
-0.000850414557
0.007682882177
-0.0008294247313
0.00848928262
-0.0008064004435
0.009271849153
-0.0007825665353
0.01002703669
-0.000755187529
0.01075121858
-0.0007241819008
0.0114425338
-0.0006913152113
0.01210296682
-0.0006604330181
0.01273131152
-0.0006283447046
0.01332569495
-0.0005943834346
0.01388516973
-0.0005594747744
0.01440887445
-0.0005237047194
0.0148982759
-0.0004894014567
0.01535538238
-0.0004571064688
0.01578047199
-0.0004250896144
0.01617357543
-0.000393103443
0.01653488831
-0.000361312882
0.01686472376
-0.0003298354445
0.01716363392
-0.0002989101593
0.0174327727
-0.0002691387822
0.01767322965
-0.0002404569507
0.01788607767
-0.0002128480145
0.01807243165
-0.0001863539806
0.01823342128
-0.0001609896384
0.01837016877
-0.0001367474826
0.01848378321
-0.0001136144385
0.01857532972
-9.154650612e-05
0.01864574541
-7.041569501e-05
0.01869580072
-5.005531284e-05
0.01872649904
-3.069831457e-05
0.01874005146
-1.355241942e-05
0.01873747681
2.574647751e-06
0.01872187482
1.560198975e-05
0.01869328942
2.858539545e-05
0.01864931537
4.397405391e-05
0.01859143849
5.787687448e-05
0.01852142019
7.001830422e-05
0.01844007833
8.13418557e-05
0.01834868395
9.139437766e-05
0.01824790741
0.0001007765464
0.01813797891
0.0001099284914
0.01801966373
0.0001183151875
0.01789377736
0.0001258863646
0.01776100502
0.0001327723449
0.01762199722
0.0001390077929
0.0174773816
0.0001446156269
0.01732773565
0.0001496459438
0.01717358721
0.0001541484377
0.01701542649
0.0001581607283
0.01685371123
0.0001617152548
0.0166888669
0.000164844331
0.01652128743
0.0001675794718
0.01635133768
0.0001699497454
0.01617935612
0.0001719815636
0.01600565677
0.0001736993486
0.01583053045
0.0001751263189
0.01565424592
0.0001762845263
0.01547705024
0.0001771956859
0.01529917444
0.0001778757907
0.01512082554
0.0001783489081
0.0149421713
0.0001786542403
0.01476343687
0.0001787344232
0.01458484158
0.0001785952948
0.01440654704
0.0001782945339
0.01422869641
0.0001778506368
0.01405146443
0.0001772319761
0.01387482633
0.0001766381038
0.01369887532
0.0001759510056
0.01352376402
0.0001751113056
0.01334959669
0.0001741673211
0.01317644233
0.0001731543598
0.01300437653
0.0001720658066
0.01283348839
0.0001708881418
0.01266385921
0.0001696291765
0.01249566583
0.0001681933741
0.01232871715
0.0001669486786
0.01216299955
0.0001657176095
0.01199859164
0.0001644079058
0.01183555141
0.000163040234
0.01167391672
0.0001616346819
0.01151372764
0.0001601890855
0.01135502438
0.0001587032594
0.01119784149
0.0001571828867
0.01104221092
0.000155630574
0.01088815719
0.0001540537212
0.01073573394
0.0001524232551
0.01058494155
0.0001507923874
0.01043571273
0.000149228824
0.01028801129
0.0001477014459
0.01014183636
0.0001461749177
0.009997202995
0.0001446333702
0.009854129575
0.0001430734174
0.009712633448
0.0001414961319
0.009572729406
0.0001399040398
0.009434429699
0.0001382997095
0.009297744309
0.0001366853886
0.009162681596
0.0001350627116
0.009029248639
0.0001334329597
0.00889744825
0.0001318003894
0.008767297897
0.0001301503537
0.008638765972
0.0001285319201
0.008511816932
0.0001269490421
0.008386434185
0.0001253827496
0.008262614004
0.0001238201787
0.008140357195
0.000122256808
0.008019666377
0.0001206908195
0.007900544837
0.0001191215381
0.007782995221
0.0001175496178
0.007667019523
0.0001159756951
0.007552619691
0.0001143998324
0.007439797487
0.000112822206
0.007328553056
0.0001112444302
0.00721888738
0.0001096656759
0.007110799325
0.0001080880549
0.007004299761
0.000106499564
0.006899384288
0.0001049154736
0.006796035634
0.0001033486564
0.006694238602
0.0001017970333
0.006593984295
0.000100254307
0.00649526723
9.871706584e-05
0.006398083056
9.718417367e-05
0.006302428151
9.565490341e-05
0.006208299632
9.412851967e-05
0.006115695038
9.260459439e-05
0.006024612068
9.108297051e-05
0.005935048326
8.95637433e-05
0.005847001387
8.804693781e-05
0.00576046799
8.653339997e-05
0.00567544426
8.502372652e-05
0.005591925144
8.35191214e-05
0.005509906917
8.201822683e-05
0.005429387607
8.051931078e-05
0.005350359812
7.902779351e-05
0.005272811539
7.754827414e-05
0.005196730775
7.608076493e-05
0.005122107186
7.462358862e-05
0.00504893139
7.317579622e-05
0.004977194197
7.173719253e-05
0.004906886483
7.030771374e-05
0.004837999283
6.888720034e-05
0.004770523807
6.747547707e-05
0.00470445136
6.607244672e-05
0.004639773294
6.46780693e-05
0.004576480895
6.329239661e-05
0.004514565461
6.191543329e-05
0.004454017835
6.054762975e-05
0.004394828519
5.918931532e-05
0.004336987227
5.784129355e-05
0.00428048425
5.65029775e-05
0.004225310929
5.517332141e-05
0.004171456906
5.385402135e-05
0.004118909443
5.254746454e-05
0.00406765501
5.125443295e-05
0.004017680456
4.997455515e-05
0.003968973004
4.870745133e-05
0.003921519953
4.745305248e-05
0.003875308562
4.621138926e-05
0.003830326125
4.498243758e-05
0.003786559989
4.376613464e-05
0.003743997567
4.256242327e-05
0.003702626284
4.137128195e-05
0.003662433565
4.019272364e-05
0.003623406783
3.902677974e-05
0.003585533278
3.78735049e-05
0.003548800337
3.67329391e-05
0.003513195056
3.560528017e-05
0.003478704322
3.449073505e-05
0.003445314591
3.338973058e-05
0.003413012475
3.230211793e-05
0.003381785162
3.122731379e-05
0.003351619479
3.016568253e-05
0.00332250126
2.911821919e-05
0.003294415797
2.808546444e-05
0.003267348464
2.706732971e-05
0.003241284909
2.606355566e-05
0.003216210952
2.507395495e-05
0.003192112558
2.409839697e-05
0.003168975833
2.31367237e-05
0.0031467871
2.218873384e-05
0.003125532902
2.125419831e-05
0.003105200032
2.033286878e-05
0.003085775545
1.942448981e-05
0.003067246748
1.852879495e-05
0.00304960123
1.764552062e-05
0.003032826826
1.677440457e-05
0.003016911618
1.591520587e-05
0.003001843915
1.50677062e-05
0.002987612212
1.42317019e-05
0.0029742052
1.340701331e-05
0.002961611689
1.259350993e-05
0.002949820586
1.179110266e-05
0.002938820795
1.099979065e-05
0.002928601247
1.021955027e-05
0.002919151142
9.450103372e-06
0.002910459821
8.691324214e-06
0.00290251635
7.943471147e-06
0.002895309435
7.206915221e-06
0.002888827579
6.48185597e-06
0.002883059259
5.768318221e-06
0.002877993033
5.066228259e-06
0.002873617712
4.375320829e-06
0.002869923171
3.694543407e-06
0.002866902375
3.020796679e-06
0.002864553402
2.348970246e-06
0.002862874522
1.678879738e-06
0.00286184462
1.029904431e-06
0.002861407237
4.373818741e-07
0.002861503847
-9.661190376e-08
0.002862130223
-6.263747036e-07
0.002863324623
-1.194399369e-06
0.002865104072
-1.77944867e-06
0.002867452122
-2.348051521e-06
0.00287034069
-2.888568412e-06
0.00287374572
-3.405029882e-06
0.002877656093
-3.910373825e-06
0.00288206833
-4.412238144e-06
0.002886989005
-4.920674776e-06
0.002892342263
-5.353258833e-06
0.002898096114
-5.753853091e-06
0.002904228521
-6.132409438e-06
0.002910730446
-6.50192262e-06
0.002917602983
-6.872539002e-06
0.002924852384
-7.249398952e-06
0.002932483145
-7.630759271e-06
0.002940506468
-8.023324918e-06
0.00294887184
-8.365370231e-06
0.002957545864
-8.674024991e-06
0.002966488997
-8.943132295e-06
0.002975670991
-9.18199048e-06
0.002985080208
-9.409214263e-06
0.002994718962
-9.638754596e-06
0.003004590077
-9.871116995e-06
0.003014700293
-1.011021369e-05
0.003025038362
-1.033807054e-05
0.003035592378
-1.055401631e-05
0.003046340563
-1.074818358e-05
0.003057252768
-1.091220477e-05
0.003068303408
-1.105063969e-05
0.003079479616
-1.117620805e-05
0.003090778501
-1.129888291e-05
0.003102199366
-1.142086465e-05
0.003113742713
-1.154334867e-05
0.003125404473
-1.166175711e-05
0.003137178867
-1.177439541e-05
0.003149058383
-1.18795164e-05
0.003161029478
-1.197109509e-05
0.003173075063
-1.204558325e-05
0.003185179469
-1.210441089e-05
0.003197330746
-1.215127447e-05
0.003209520415
-1.218967153e-05
0.003221742437
-1.222201977e-05
0.003233992032
-1.224959364e-05
0.003246265349
-1.227331695e-05
0.003258558354
-1.229300491e-05
0.003270865732
-1.230737952e-05
0.003283179932
-1.231419904e-05
0.003295487347
-1.230741494e-05
0.003307769336
-1.228199032e-05
0.003320007353
-1.223801573e-05
0.003332185193
-1.217784283e-05
0.003344288683
-1.210348893e-05
0.00335630425
-1.201556828e-05
0.003368218463
-1.191421027e-05
0.003380013373
-1.179490841e-05
0.00339164962
-1.163624884e-05
0.003403073736
-1.14241157e-05
0.003414368675
-1.129493919e-05
0.003426199854
-1.183117965e-05
0.00344011112
-1.39112636e-05
-1.739454718e-05
-1.053344532e-06
-1.570734679e-05
-3.229500868e-05
3.499744094e-05
-9.932897121e-05
8.775322575e-05
-0.0001972479725
0.0001307523716
-0.000319825697
0.0001645253456
-0.0004609555706
0.0001896039171
-0.0006151341172
0.0002068468145
-0.0007780574067
0.0002181094282
-0.0009467769621
0.0002254859765
-0.001119476026
0.0002306371345
-0.001295136223
0.0002346482266
-0.001473106067
0.0002379463456
-0.001653027904
0.0002408817166
-0.001834572788
0.0002434321798
-0.002017536736
0.0002457259793
-0.002201418966
0.0002473363897
-0.002386206102
0.0002488326061
-0.002571274108
0.0002494010571
-0.002756030668
0.0002494971881
-0.00294028206
0.0002491459766
-0.003123569347
0.0002481992997
-0.003305657943
0.0002468081587
-0.003486545462
0.0002452870059
-0.003666357776
0.0002439162839
-0.0038453085
0.0002428570924
-0.004023599171
0.0002420914282
-0.004201364653
0.0002415208294
-0.004378704278
0.000241114126
-0.004555630021
0.0002407654334
-0.004731963269
0.0002401787491
-0.004907385124
0.0002391090232
-0.005081555678
0.0002375074635
-0.005254217421
0.0002354995745
-0.005425262996
0.0002333197602
-0.005594720071
0.0002311827797
-0.00576266479
0.0002291709997
-0.005929165077
0.0002272731807
-0.006094246483
0.000225413112
-0.006257881936
0.0002234876489
-0.006420070574
0.0002215188822
-0.006580978438
0.0002197589682
-0.006740933623
0.0002184635016
-0.006900333986
0.0002177471162
-0.007059504677
0.0002175302197
-0.007218604532
0.0002176234957
-0.007377604445
0.0002177497804
-0.007536103389
0.0002172593887
-0.007693565724
0.0002158881455
-0.007849864512
0.0002142837931
-0.008005046413
0.0002127587846
-0.00815918869
0.0002113638952
-0.008312360536
0.0002100775213
-0.008464619361
0.0002088761699
-0.008616012447
0.0002077427417
-0.00876657822
0.0002066635568
-0.008916347553
0.0002056272432
-0.00906534533
0.0002046249283
-0.009213592178
0.0002036503301
-0.009361105896
0.0002026993758
-0.009507902531
0.0002017695631
-0.009653997089
0.000200859455
-0.009799403887
0.0001999681343
-0.00994413677
0.0001990948466
-0.01008820892
0.0001982385653
-0.0102316326
0.0001973980162
-0.01037441943
0.0001965728323
-0.01051658127
0.0001957641128
-0.01065812926
0.00019497052
-0.01079906818
0.0001941809135
-0.01093939156
0.0001933792327
-0.01107909321
0.0001925744285
-0.01121819062
0.0001918099653
-0.01135670083
0.0001910646184
-0.01149454791
0.0001901478641
-0.0116316201
0.0001890017656
-0.01176817075
0.0001882739801
-0.01190482495
0.0001885810946
-0.01204135779
0.0001885673979
-0.01217733619
0.0001878365084
-0.0123127805
0.0001870982319
-0.01244773925
0.0001864389343
-0.01258226554
0.0001858643651
-0.01271640898
0.0001853635758
-0.01285021574
0.0001849287872
-0.01298372921
0.0001845551822
-0.01311699084
0.0001842396146
-0.01325004075
0.0001839801567
-0.01338291839
0.0001837754159
-0.01351566301
0.0001836238068
-0.01364831397
0.000183523359
-0.01378090936
0.0001834717481
-0.01391348312
0.0001834662945
-0.01404606672
0.0001835069628
-0.01417869626
0.0001836002193
-0.01431141604
0.0001837558768
-0.01444427489
0.0001839793746
-0.01457732224
0.000184271261
-0.01471060855
0.0001846331211
-0.01484418505
0.0001850660374
-0.01497810221
0.0001855682701
-0.01511240949
0.0001861377516
-0.01524715738
0.0001867758728
-0.01538239991
0.0001874881439
-0.01551819624
0.0001882824813
-0.01565461067
0.000189166408
-0.01579171094
0.0001901443965
-0.0159295669
0.0001912186124
-0.01606825168
0.0001923934918
-0.0162078453
0.0001936795416
-0.01634843819
0.0001950930745
-0.01649013247
0.0001966522317
-0.0166330394
0.0001983705014
-0.01677727158
0.0002002486425
-0.01692293365
0.0002022740975
-0.01707012793
0.0002044440277
-0.01721895438
0.0002067539383
-0.01736950031
0.0002091781703
-0.01752181343
0.000211652426
-0.01767592585
0.0002141664117
-0.01783200389
0.000216928258
-0.01799020496
0.0002199199032
-0.01815068707
0.0002231344409
-0.01831360278
0.0002265620049
-0.01847910243
0.0002302004508
-0.01864734274
0.0002340623693
-0.01881849934
0.0002381789498
-0.0189927671
0.0002425789967
-0.01917034096
0.0002472596482
-0.01935140247
0.0002521996288
-0.01953613536
0.000257403441
-0.01972472438
0.0002628738036
-0.01991735653
0.0002686146164
-0.02011422487
0.0002746351719
-0.02031553036
0.0002809474511
-0.02052148325
0.0002875654703
-0.02073230385
0.0002945044232
-0.0209482228
0.0003017794394
-0.02116948055
0.0003094043894
-0.02139632792
0.0003173941313
-0.02162903368
0.0003257778503
-0.02186790568
0.0003346210793
-0.02211331115
0.0003440205029
-0.02236566458
0.0003540470616
-0.02262537427
0.0003646891432
-0.02289282629
0.00037592282
-0.02316846303
0.0003878300667
-0.02345265831
0.0004002771797
-0.02374556578
0.0004129380983
-0.02404725878
0.0004257592616
-0.02435826741
0.0004394252603
-0.02467904848
0.0004538278927
-0.02501004085
0.0004689379977
-0.02535160907
0.0004846427028
-0.02570401119
0.0005007822801
-0.02606743714
0.0005172777631
-0.02644215397
0.0005343100246
-0.02682862812
0.0005522431344
-0.02722736906
0.0005711292707
-0.02763851821
0.0005904163588
-0.02806216485
0.0006100564153
-0.0284980987
0.0006296243952
-0.02894599516
0.0006489880141
-0.02940537073
0.0006679518333
-0.02987557552
0.0006863162729
-0.03035580378
0.0007038800094
-0.03084509995
0.000720416725
-0.03134246865
0.0007357762357
-0.03184642075
0.0007490838636
-0.03235463399
0.0007592845346
-0.0328657979
0.0007680948235
-0.03337730169
0.0007737638459
-0.03388631157
0.0007759419011
-0.03438984281
0.000774146793
-0.03488485804
0.0007681433554
-0.03536838321
0.0007578911106
-0.0358371105
0.0007429080639
-0.03628747167
0.0007230884335
-0.0367170759
0.0007000587106
-0.0371220249
0.0006715759469
-0.03749805858
0.000636816879
-0.03784039502
0.0005951066295
-0.03814472728
0.0005471445773
-0.03840530522
0.0004909716802
-0.03861878942
0.0004305165652
-0.03878119374
0.000364065492
-0.03889068315
0.0002939280345
-0.03895104015
0.0002261624672
-0.03895855526
0.0001515185126
-0.03889817885
5.427376607e-05
-0.03876650672
-4.493774405e-05
-0.03856857632
-0.0001399105137
-0.03829551185
-0.000243379749
-0.0379417483
-0.0003523069428
-0.03750477624
-0.0004678627423
-0.03698302025
-0.0005893242658
-0.03637591111
-0.000714584099
-0.03568297186
-0.0008416899634
-0.03490392895
-0.0009697783917
-0.03403878287
-0.001098627259
-0.03308776007
-0.00122846041
-0.03205175374
-0.001359947903
-0.03093297537
-0.001493267699
-0.02973020867
-0.001624708575
-0.02841110059
-0.001743426377
-0.0270734264
-0.001841519713
-0.02565812258
-0.001952437374
-0.0241723444
-0.002062342223
-0.02261715953
-0.002171320604
-0.02099498162
-0.002276568463
-0.01930966059
-0.00237679857
-0.01756605663
-0.002470721822
-0.01576925824
-0.002557595257
-0.01392452105
-0.002636827607
-0.01203748082
-0.002707732023
-0.01011442238
-0.002769423877
-0.008162889819
-0.002820901403
-0.006192049408
-0.002861754213
-0.004198525122
-0.002897704029
-0.002175165831
-0.002929445572
-0.0001293268043
-0.002956557516
0.001931239408
-0.002975297041
0.003997841647
-0.002982944969
0.006060125526
-0.002977110804
0.008115595561
-0.002967379002
0.01017337302
-0.002969737941
0.01222304881
-0.002960951831
0.01425683875
-0.002940446759
0.01626828673
-0.002909220303
0.01825144854
-0.002868262674
0.02020092722
-0.002818620925
0.02211196071
-0.002761448044
0.02398046058
-0.002697924598
0.02580290183
-0.002628841692
0.02757718965
-0.002556854363
0.02929722764
-0.002475225522
0.03095968494
-0.002386639194
0.03256480764
-0.002296437916
0.03410652476
-0.002202150133
0.03558249355
-0.002104313499
0.03699195975
-0.002003849629
0.03833450728
-0.00190202231
0.03961037742
-0.001799574862
0.04081981925
-0.001698843289
0.04196279255
-0.001600079769
0.0430391811
-0.001501478158
0.04404909674
-0.001403019082
0.04499292937
-0.001305145517
0.04587113909
-0.001208045162
0.04668456915
-0.001112340226
0.04743509446
-0.001019664091
0.04812401316
-0.0009293756449
0.04875280369
-0.0008416385488
0.04932307298
-0.0007566232742
0.04983647986
-0.0006743965158
0.05029472632
-0.0005949939485
0.05069956946
-0.0005184575759
0.05105284496
-0.00044482201
0.05135650495
-0.0003740756879
0.05161259849
-0.0003061488452
0.0518229372
-0.0002410370218
0.05198830572
-0.0001789209451
0.05211116805
-0.0001202876832
0.05219182861
-6.50585727e-05
0.05223297047
-1.255646576e-05
0.05223992045
3.702408159e-05
0.05221507195
8.272537903e-05
0.05216236075
0.0001227294986
0.05207939003
0.0001643125855
0.05196697591
0.0002038084893
0.05182647284
0.0002412796145
0.05165899502
0.0002774063142
0.05146685465
0.0003104555634
0.05125184648
0.0003408945337
0.05101538916
0.0003692296656
0.05075890724
0.0003954897185
0.05048380352
0.0004197193401
0.05019142551
0.0004420239598
0.04988307382
0.0004625001227
0.04956000046
0.0004812340909
0.04922339738
0.000498318337
0.04887438904
0.0005138526656
0.04851403227
0.0005279362485
0.04814332033
0.000540661683
0.04776318784
0.0005521140546
0.04737451466
0.0005623725269
0.04697812849
0.0005715124914
0.04657480696
0.0005796060539
0.04616527818
0.0005867244675
0.04575021795
0.0005929360136
0.04533023592
0.0005983309478
0.04490590274
0.0006029874134
0.04447784881
0.0006067883569
0.04404660456
0.0006098395386
0.04361268345
0.0006122156458
0.04317660625
0.0006139278384
0.04273873326
0.0006151049659
0.04229964943
0.0006157219334
0.0418598005
0.0006157999368
0.0414194814
0.0006154304017
0.0409789795
0.0006146692284
0.04053860315
0.0006135307049
0.04009864759
0.0006120213748
0.03965935534
0.0006101803931
0.03922095007
0.0006080344405
0.03878363988
0.0006055035696
0.03834763002
0.0006029585365
0.03791314872
0.0006001989105
0.03748038907
0.0005971675545
0.03704949777
0.0005939315309
0.03662061301
0.0005905194531
0.0361938794
0.0005869226821
0.03576943319
0.0005831494778
0.03534740256
0.0005792135169
0.03492791919
0.0005751139388
0.03451109641
0.0005708765066
0.03409710864
0.0005664110208
0.03368599362
0.0005619074081
0.03327768196
0.0005575404806
0.03287221779
0.0005531656205
0.03246967888
0.0005487138325
0.03207014969
0.0005441625534
0.03167371136
0.0005395117531
0.03128043894
0.0005347685458
0.03089040064
0.0005299423396
0.03050365906
0.0005250412885
0.03012027317
0.0005200712787
0.02974030023
0.0005150356597
0.02936379718
0.0005099359985
0.02899080303
0.0005047945414
0.02862138485
0.0004995685283
0.02825548563
0.0004944311466
0.02789308129
0.0004893533866
0.02753418775
0.0004842762817
0.02717883546
0.0004791724778
0.02682705779
0.00047403448
0.02647888913
0.0004688594759
0.02613436287
0.0004636478022
0.02579350907
0.0004584034106
0.02545635536
0.0004531294083
0.02512292845
0.0004478267386
0.02479325481
0.0004424958414
0.02446735836
0.0004371408839
0.02414526677
0.0004317572681
0.02382699921
0.0004263556157
0.02351259078
0.0004209079972
0.02320204371
0.0004154625424
0.02289534249
0.0004100498722
0.02259248018
0.0004046593459
0.02229346012
0.0003992743582
0.02199828986
0.0003938873283
0.02170697832
0.0003884957128
0.02141953554
0.0003830976846
0.02113597241
0.0003776916487
0.02085629988
0.0003722771318
0.02058052844
0.0003668544024
0.02030866776
0.0003614244221
0.02004072686
0.00035598784
0.01977671285
0.0003505474112
0.01951663188
0.0003451046965
0.01926048756
0.0003396634329
0.01900828321
0.0003342225834
0.01876002304
0.0003287794841
0.01851570088
0.0003233499505
0.01827530285
0.0003179462966
0.01803881565
0.0003125679716
0.01780622859
0.0003072106451
0.01757753217
0.0003018722206
0.01735271701
0.0002965523506
0.01713177376
0.0002912509579
0.01691469314
0.0002859678244
0.01670146579
0.0002807028222
0.0164920821
0.0002754561416
0.016286532
0.0002702281671
0.0160848047
0.0002650196968
0.01588688879
0.0002598313398
0.01569277148
0.0002546649442
0.01550243901
0.0002495217808
0.01531587572
0.0002444045872
0.01513306556
0.0002393131368
0.0149539929
0.0002342459807
0.01477863803
0.0002292088947
0.01460697666
0.0002242088334
0.01443898303
0.0002192480666
0.01427463169
0.0002143258913
0.01411389741
0.0002094417244
0.01395675471
0.0002045957568
0.01380317772
0.0001997883816
0.0136531403
0.0001950198576
0.01350661604
0.0001902903913
0.01336357823
0.0001856002394
0.01322399974
0.0001809497678
0.01308785303
0.0001763394248
0.01295511008
0.0001717697314
0.01282574232
0.000167241269
0.01269972068
0.0001627545751
0.01257701533
0.0001583106375
0.01245759576
0.000153910305
0.01234143043
0.0001495550578
0.01222848744
0.0001452451035
0.0121187352
0.0001409795532
0.0120121409
0.0001367599876
0.01190866975
0.0001325893676
0.01180828596
0.0001284692558
0.01171095373
0.0001243995541
0.01161663756
0.0001203797321
0.01152530204
0.0001164094685
0.0114369119
0.0001124885487
0.01135143194
0.0001086166749
0.01126882723
0.0001047934432
0.01118906304
0.0001010183856
0.01111210492
9.729099485e-05
0.01103791866
9.361075018e-05
0.01096647033
8.997712129e-05
0.01089772627
8.638958477e-05
0.01083165302
8.284764853e-05
0.01076821735
7.935087619e-05
0.01070738615
7.589890423e-05
0.01064912642
7.249143138e-05
0.01059340522
6.912822007e-05
0.01054018953
6.580919424e-05
0.01048944627
6.253436246e-05
0.01044114209
5.930396893e-05
0.01039524339
5.611824982e-05
0.01035171666
5.297684008e-05
0.01031052822
4.987975864e-05
0.01027164368
4.682800548e-05
0.01023502781
4.382278574e-05
0.01020064486
4.086480832e-05
0.01016845879
3.795438231e-05
0.01013843331
3.509171292e-05
0.01011053175
3.227687295e-05
0.0100847171
2.950919685e-05
0.01006095161
2.678629078e-05
0.01003919568
2.410489468e-05
0.01001940682
2.146774278e-05
0.01000154299
1.889372765e-05
0.00998556918
1.641119664e-05
0.009971450694
1.402187214e-05
0.009959138808
1.168550942e-05
0.009948580656
9.363752908e-06
0.009939743069