/*--------------------------------*- C++ -*----------------------------------*\
| =========                 |                                                 |
| \\      /  F ield         | OpenFOAM: The Open Source CFD Toolbox           |
|  \\    /   O peration     | Version:  2312                                  |
|   \\  /    A nd           | Website:  www.openfoam.com                      |
|    \\/     M anipulation  |                                                 |
\*---------------------------------------------------------------------------*/
FoamFile
{
    version     2.0;
    format      ascii;
    arch        "LSB;label=32;scalar=64";
    class       surfaceScalarField;
    location    "6000";
    object      phiByRho;
}
// * * * * * * * * * * * * * * * * * * * * * * * * * * * * * * * * * * * * * //

dimensions      [0 3 -1 0 0 0 0];

oriented        oriented;

internalField   nonuniform List<scalar> 
40240
(
1.676068149e-08
-1.676068248e-08
1.300490534e-08
3.755777993e-09
-7.714341673e-09
2.071924864e-08
-4.054769536e-08
3.2833352e-08
-8.249528384e-08
4.1947593e-08
-1.309692995e-07
4.847401328e-08
-1.836375319e-07
5.266823233e-08
-2.388236345e-07
5.518610066e-08
-2.955900159e-07
5.676638286e-08
-3.535280527e-07
5.793803584e-08
-4.125160402e-07
5.8987991e-08
-4.72492507e-07
5.997646633e-08
-5.334523451e-07
6.095983775e-08
-5.953395991e-07
6.188725418e-08
-6.581015856e-07
6.276198775e-08
-7.215557076e-07
6.345412069e-08
-7.856011346e-07
6.404542537e-08
-8.499341448e-07
6.433300937e-08
-9.146747299e-07
6.474058622e-08
-9.795692697e-07
6.489453896e-08
-1.044481244e-06
6.491197689e-08
-1.109200766e-06
6.471952154e-08
-1.173600214e-06
6.439944795e-08
-1.237704136e-06
6.410392621e-08
-1.301610468e-06
6.390632951e-08
-1.365411182e-06
6.380071581e-08
-1.429166489e-06
6.375530474e-08
-1.492940946e-06
6.377445837e-08
-1.556780598e-06
6.383965364e-08
-1.620626054e-06
6.384545536e-08
-1.684313182e-06
6.368712596e-08
-1.747650053e-06
6.333687157e-08
-1.81048784e-06
6.283778574e-08
-1.872761985e-06
6.227414604e-08
-1.934487649e-06
6.172566373e-08
-1.995713889e-06
6.122624129e-08
-2.056486745e-06
6.077285785e-08
-2.116818406e-06
6.033166056e-08
-2.176670568e-06
5.985216145e-08
-2.236000773e-06
5.933020507e-08
-2.294851839e-06
5.885106708e-08
-2.353360115e-06
5.850827424e-08
-2.41170683e-06
5.834671526e-08
-2.470066321e-06
5.835949176e-08
-2.528589921e-06
5.85236013e-08
-2.58733975e-06
5.874983028e-08
-2.646100162e-06
5.876041061e-08
-2.704525932e-06
5.842576975e-08
-2.7625109e-06
5.798496777e-08
-2.820087746e-06
5.757684522e-08
-2.877309325e-06
5.72215783e-08
-2.934214964e-06
5.690564245e-08
-2.990832273e-06
5.661730513e-08
-3.047181892e-06
5.634961826e-08
-3.103279636e-06
5.60977446e-08
-3.159137516e-06
5.585787655e-08
-3.214764628e-06
5.562711281e-08
-3.270168075e-06
5.54034487e-08
-3.325353695e-06
5.518561954e-08
-3.380326585e-06
5.497289297e-08
-3.435091451e-06
5.476486395e-08
-3.489652744e-06
5.456129476e-08
-3.544014677e-06
5.436193194e-08
-3.598181056e-06
5.416638236e-08
-3.652155365e-06
5.397430436e-08
-3.705941328e-06
5.378596767e-08
-3.759543567e-06
5.360223871e-08
-3.812966062e-06
5.342249583e-08
-3.866208017e-06
5.324195571e-08
-3.919263839e-06
5.305581687e-08
-3.972136583e-06
5.287274849e-08
-4.024849098e-06
5.271251477e-08
-4.077403473e-06
5.255437465e-08
-4.129704221e-06
5.230074846e-08
-4.181633766e-06
5.192954494e-08
-4.233357065e-06
5.172330231e-08
-4.285283924e-06
5.192685854e-08
-4.337318449e-06
5.203452308e-08
-4.389176519e-06
5.18580732e-08
-4.440830408e-06
5.165388846e-08
-4.492310564e-06
5.148015731e-08
-4.543648609e-06
5.133804285e-08
-4.594868702e-06
5.12200928e-08
-4.645990703e-06
5.112200155e-08
-4.697032377e-06
5.10416743e-08
-4.748010339e-06
5.097796074e-08
-4.79894055e-06
5.093021197e-08
-4.849838294e-06
5.089774478e-08
-4.900717447e-06
5.087915298e-08
-4.951589813e-06
5.087236659e-08
-5.002466143e-06
5.087632942e-08
-5.053358641e-06
5.089249741e-08
-5.104281972e-06
5.092333102e-08
-5.155252612e-06
5.097064097e-08
-5.206288678e-06
5.103606414e-08
-5.257409165e-06
5.112048941e-08
-5.308633043e-06
5.122387692e-08
-5.359979825e-06
5.134678379e-08
-5.411469324e-06
5.148949731e-08
-5.463120403e-06
5.165108053e-08
-5.514950846e-06
5.183044155e-08
-5.566978796e-06
5.202794969e-08
-5.619224375e-06
5.224558205e-08
-5.671710494e-06
5.248611599e-08
-5.72446244e-06
5.275194558e-08
-5.777506521e-06
5.30440838e-08
-5.830869142e-06
5.336262036e-08
-5.884577821e-06
5.370867704e-08
-5.938663709e-06
5.408588891e-08
-5.993163858e-06
5.450014912e-08
-6.048121768e-06
5.495791133e-08
-6.103585308e-06
5.546354017e-08
-6.159601736e-06
5.601642624e-08
-6.21621372e-06
5.661198523e-08
-6.273463441e-06
5.72497201e-08
-6.33139089e-06
5.792745268e-08
-6.390023089e-06
5.863219745e-08
-6.44936236e-06
5.933927008e-08
-6.509416312e-06
6.005395186e-08
-6.570266485e-06
6.085017302e-08
-6.631985284e-06
6.171879796e-08
-6.694637568e-06
6.265228606e-08
-6.75828382e-06
6.364625094e-08
-6.822984585e-06
6.470076257e-08
-6.888806597e-06
6.582201521e-08
-6.955828909e-06
6.702231114e-08
-7.024140099e-06
6.831119381e-08
-7.093825843e-06
6.968574252e-08
-7.164963919e-06
7.113807974e-08
-7.23763442e-06
7.267049835e-08
-7.31191915e-06
7.428473232e-08
-7.387901565e-06
7.598241182e-08
-7.465668345e-06
7.776678308e-08
-7.545310256e-06
7.964190911e-08
-7.626922788e-06
8.161253223e-08
-7.710606549e-06
8.368376113e-08
-7.796466989e-06
8.586043976e-08
-7.884613572e-06
8.814658591e-08
-7.975160275e-06
9.054670117e-08
-8.0682323e-06
9.307202426e-08
-8.163981323e-06
9.574902282e-08
-8.262596286e-06
9.861496722e-08
-8.364289863e-06
1.016935724e-07
-8.469269241e-06
1.049793795e-07
-8.57773997e-06
1.084707304e-07
-8.689933225e-06
1.121932572e-07
-8.806015045e-06
1.160818186e-07
-8.926045601e-06
1.20030557e-07
-9.05011178e-06
1.240661785e-07
-9.178528333e-06
1.284165526e-07
-9.31157507e-06
1.330467409e-07
-9.449520606e-06
1.37945532e-07
-9.592594993e-06
1.430743909e-07
-9.740975057e-06
1.483800634e-07
-9.89482677e-06
1.538517131e-07
-1.005441987e-05
1.595930978e-07
-1.022018874e-05
1.657688696e-07
-1.039257696e-05
1.723882189e-07
-1.057184404e-05
1.792670904e-07
-1.07582537e-05
1.864096552e-07
-1.095194412e-05
1.936904221e-07
-1.115303555e-05
2.010914264e-07
-1.136161168e-05
2.085761285e-07
-1.157772302e-05
2.161113406e-07
-1.180137462e-05
2.236516035e-07
-1.203249502e-05
2.311204019e-07
-1.227090241e-05
2.384073867e-07
-1.2516034e-05
2.451315944e-07
-1.276710514e-05
2.5107114e-07
-1.302403589e-05
2.569307517e-07
-1.328629577e-05
2.622598887e-07
-1.355322762e-05
2.669318414e-07
-1.382384299e-05
2.70615376e-07
-1.409697094e-05
2.731279473e-07
-1.437133671e-05
2.743657649e-07
-1.46455173e-05
2.741805934e-07
-1.491824439e-05
2.727270916e-07
-1.518869869e-05
2.704543003e-07
-1.545532546e-05
2.666267673e-07
-1.57161085e-05
2.607830376e-07
-1.596887852e-05
2.527700212e-07
-1.621169067e-05
2.428121559e-07
-1.644208426e-05
2.303935902e-07
-1.665911649e-05
2.170322241e-07
-1.686077753e-05
2.016610412e-07
-1.704521603e-05
1.844384977e-07
-1.72110214e-05
1.65805367e-07
-1.735502471e-05
1.440033133e-07
-1.74696748e-05
1.146500949e-07
-1.755640914e-05
8.673433935e-08
-1.761442899e-05
5.801984606e-08
-1.764411369e-05
2.968469993e-08
-1.764557029e-05
1.456604856e-09
-1.761467963e-05
-3.089066113e-08
-1.75471114e-05
-6.756823174e-08
-1.743963651e-05
-1.074748889e-07
-1.729088588e-05
-1.487506201e-07
-1.710015054e-05
-1.907353479e-07
-1.68666695e-05
-2.334810294e-07
-1.658923208e-05
-2.774374287e-07
-1.626529071e-05
-3.239413679e-07
-1.589080162e-05
-3.744890842e-07
-1.546886003e-05
-4.219415944e-07
-1.504454201e-05
-4.243180245e-07
-1.454069682e-05
-5.038451853e-07
-1.400356361e-05
-5.371332069e-07
-1.342699994e-05
-5.76563669e-07
-1.281086461e-05
-6.161353309e-07
-1.215647448e-05
-6.543901225e-07
-1.14649974e-05
-6.914770842e-07
-1.073788e-05
-7.271173929e-07
-9.977083635e-06
-7.607963712e-07
-9.184993731e-06
-7.920899037e-07
-8.36430248e-06
-8.206912496e-07
-7.517937588e-06
-8.463648908e-07
-6.648569316e-06
-8.693682732e-07
-5.757656095e-06
-8.909132216e-07
-4.853476942e-06
-9.041791497e-07
-3.947391251e-06
-9.060856913e-07
-3.036673354e-06
-9.107178954e-07
-2.121943122e-06
-9.147302332e-07
-1.205600989e-06
-9.163421344e-07
-2.907746619e-07
-9.14826324e-07
6.211337127e-07
-9.119083754e-07
1.533093593e-06
-9.119598825e-07
2.444369048e-06
-9.112754554e-07
3.351025273e-06
-9.066562259e-07
4.248797015e-06
-8.977717408e-07
5.133897305e-06
-8.851002882e-07
6.003038974e-06
-8.691416723e-07
6.853452977e-06
-8.504140026e-07
7.682877168e-06
-8.294241906e-07
8.489277085e-06
-8.063999178e-07
9.271843109e-06
-7.825660251e-07
1.002703015e-05
-7.551870366e-07
1.075121158e-05
-7.241814286e-07
1.144252634e-05
-6.913147606e-07
1.210295893e-05
-6.604325875e-07
1.273130322e-05
-6.283442949e-07
1.332568626e-05
-5.943830471e-07
1.388516067e-05
-5.594744096e-07
1.440886506e-05
-5.23704378e-07
1.489826619e-05
-4.894011376e-07
1.535537236e-05
-4.571061708e-07
1.57804617e-05
-4.250893373e-07
1.617356489e-05
-3.931031867e-07
1.653487753e-05
-3.613126464e-07
1.686471276e-05
-3.298352295e-07
1.716362273e-05
-2.989099644e-07
1.743276134e-05
-2.691386068e-07
1.767321813e-05
-2.404567939e-07
1.788606601e-05
-2.128478757e-07
1.807241987e-05
-1.863538591e-07
1.82334094e-05
-1.609895334e-07
1.83701568e-05
-1.367473935e-07
1.848377116e-05
-1.136143644e-07
1.857531761e-05
-9.154644644e-08
1.864573326e-05
-7.041564911e-08
1.869578854e-05
-5.005528022e-08
1.872648683e-05
-3.069829456e-08
1.874003924e-05
-1.355241059e-08
1.873746459e-05
2.574646073e-09
1.872186261e-05
1.560197958e-08
1.869327724e-05
2.858537682e-08
1.864930321e-05
4.397402524e-08
1.859142637e-05
5.787683675e-08
1.852140812e-05
7.001825858e-08
1.844006631e-05
8.134180268e-08
1.834867199e-05
9.139431809e-08
1.824789551e-05
1.007764808e-07
1.813796709e-05
1.099284198e-07
1.801965198e-05
1.183151104e-07
1.78937657e-05
1.258862825e-07
1.776099344e-05
1.327722584e-07
1.762198574e-05
1.390077023e-07
1.74773702e-05
1.446155326e-07
1.732772436e-05
1.496458462e-07
1.717357602e-05
1.541483372e-07
1.70154154e-05
1.581606252e-07
1.685370025e-05
1.617151494e-07
1.668885602e-05
1.648442236e-07
1.652127666e-05
1.675793626e-07
1.635132703e-05
1.699496346e-07
1.617934557e-05
1.719814515e-07
1.600564634e-05
1.736992354e-07
1.583052013e-05
1.751262048e-07
1.565423572e-05
1.762844114e-07
1.547704015e-05
1.771955704e-07
1.529916447e-05
1.778756748e-07
1.512081568e-05
1.783487918e-07
1.494216156e-05
1.786541238e-07
1.476342725e-05
1.787343067e-07
1.458483207e-05
1.785951784e-07
1.440653765e-05
1.782944177e-07
1.422868714e-05
1.778505208e-07
1.405145527e-05
1.772318605e-07
1.387481729e-05
1.766379887e-07
1.369886639e-05
1.75950891e-07
1.35237552e-05
1.751111915e-07
1.334958799e-05
1.741672076e-07
1.317643374e-05
1.731542469e-07
1.300436805e-05
1.720656945e-07
1.283348002e-05
1.708880304e-07
1.266385095e-05
1.69629066e-07
1.249565769e-05
1.681932644e-07
1.232870912e-05
1.669485698e-07
1.216299162e-05
1.657175015e-07
1.199858382e-05
1.644077986e-07
1.183554369e-05
1.630401278e-07
1.167390911e-05
1.616345765e-07
1.151372013e-05
1.601889811e-07
1.135501698e-05
1.587031559e-07
1.119783419e-05
1.571827843e-07
1.104220372e-05
1.556304725e-07
1.08881501e-05
1.540536208e-07
1.073572694e-05
1.524231557e-07
1.058493466e-05
1.507922891e-07
1.043570593e-05
1.492287267e-07
1.028800458e-05
1.477013497e-07
1.014182975e-05
1.461748224e-07
9.997196479e-06
1.446332759e-07
9.854123152e-06
1.430733242e-07
9.712627118e-06
1.414960397e-07
9.572723166e-06
1.399039486e-07
9.434423549e-06
1.382996194e-07
9.297738249e-06
1.366852995e-07
9.162675624e-06
1.350626235e-07
9.029242754e-06
1.334328728e-07
8.897442451e-06
1.318003035e-07
8.767292183e-06
1.301502689e-07
8.638760341e-06
1.285318363e-07
8.511811384e-06
1.269489594e-07
8.386428718e-06
1.253826679e-07
8.262608619e-06
1.23820098e-07
8.140351889e-06
1.222567283e-07
8.019661149e-06
1.206907408e-07
7.900539687e-06
1.191214605e-07
7.782990148e-06
1.175495412e-07
7.667014526e-06
1.159756195e-07
7.552614768e-06
1.143997578e-07
7.439792637e-06
1.128221324e-07
7.328548279e-06
1.112443577e-07
7.218882674e-06
1.096656044e-07
7.11079469e-06
1.080879844e-07
7.004295195e-06
1.064994946e-07
6.89937979e-06
1.049154053e-07
6.796031205e-06
1.03348589e-07
6.694234238e-06
1.017969669e-07
6.593979997e-06
1.002542417e-07
6.495262996e-06
9.87170015e-08
6.398078886e-06
9.718411032e-08
6.302424043e-06
9.565484106e-08
6.208295585e-06
9.412845831e-08
6.115691051e-06
9.260453402e-08
6.024608141e-06
9.108291113e-08
5.935044457e-06
8.956368491e-08
5.846997576e-06
8.804688042e-08
5.760464235e-06
8.653334356e-08
5.675440561e-06
8.50236711e-08
5.591921498e-06
8.351906695e-08
5.509903325e-06
8.201817336e-08
5.429384068e-06
8.051925829e-08
5.350356324e-06
7.902774199e-08
5.272808102e-06
7.754822359e-08
5.196727387e-06
7.608071533e-08
5.122103847e-06
7.462353998e-08
5.048928099e-06
7.317574852e-08
4.977190953e-06
7.173714577e-08
4.906883284e-06
7.030766791e-08
4.837996129e-06
6.888715544e-08
4.770520697e-06
6.747543308e-08
4.704448293e-06
6.607240364e-08
4.639770269e-06
6.467802714e-08
4.576477912e-06
6.329235535e-08
4.514562518e-06
6.191539293e-08
4.454014931e-06
6.054759028e-08
4.394825654e-06
5.918927673e-08
4.336984399e-06
5.784125584e-08
4.280481459e-06
5.650294066e-08
4.225308174e-06
5.517328545e-08
4.171454186e-06
5.385398624e-08
4.118906758e-06
5.254743028e-08
4.067652358e-06
5.125439953e-08
4.017677837e-06
4.997452257e-08
3.968970417e-06
4.870741958e-08
3.921517396e-06
4.745302155e-08
3.875306035e-06
4.621135913e-08
3.830323628e-06
4.498240825e-08
3.78655752e-06
4.37661061e-08
3.743995126e-06
4.256239553e-08
3.702623871e-06
4.137125498e-08
3.662431178e-06
4.019269743e-08
3.623404421e-06
3.90267543e-08
3.58553094e-06
3.787348021e-08
3.548798023e-06
3.673291515e-08
3.513192766e-06
3.560525696e-08
3.478702054e-06
3.449071256e-08
3.445312345e-06
3.338970881e-08
3.41301025e-06
3.230209687e-08
3.381782957e-06
3.122729343e-08
3.351617294e-06
3.016566286e-08
3.322499094e-06
2.91182002e-08
3.294413649e-06
2.808544613e-08
3.267346334e-06
2.706731206e-08
3.241282796e-06
2.606353867e-08
3.216208855e-06
2.507393861e-08
3.192110477e-06
2.409838126e-08
3.168973767e-06
2.313670861e-08
3.146785048e-06
2.218871937e-08
3.125530864e-06
2.125418445e-08
3.105198008e-06
2.033285552e-08
3.085773533e-06
1.942447714e-08
3.067244748e-06
1.852878287e-08
3.049599241e-06
1.764550911e-08
3.032824849e-06
1.677439364e-08
3.016909651e-06
1.591519549e-08
3.001841958e-06
1.506769637e-08
2.987610264e-06
1.423169262e-08
2.974203261e-06
1.340700457e-08
2.961609758e-06
1.259350172e-08
2.949818663e-06
1.179109497e-08
2.938818879e-06
1.099978348e-08
2.928599338e-06
1.021954361e-08
2.919149238e-06
9.450097211e-09
2.910457923e-06
8.691318547e-09
2.902514458e-06
7.943465968e-09
2.895307548e-06
7.206910522e-09
2.888825696e-06
6.481851744e-09
2.88305738e-06
5.76831446e-09
2.877991156e-06
5.066224955e-09
2.873615838e-06
4.375317976e-09
2.8699213e-06
3.694540999e-09
2.866900505e-06
3.020794709e-09
2.864551534e-06
2.348968715e-09
2.862872656e-06
1.678878644e-09
2.861842754e-06
1.02990376e-09
2.861405372e-06
4.373815889e-10
2.861501982e-06
-9.661184077e-11
2.862128357e-06
-6.263742952e-10
2.863322756e-06
-1.194398591e-09
2.865102204e-06
-1.779447509e-09
2.867450253e-06
-2.34804999e-09
2.870338818e-06
-2.888566528e-09
2.873743846e-06
-3.405027662e-09
2.877654217e-06
-3.910371275e-09
2.882066451e-06
-4.412235267e-09
2.886987122e-06
-4.920671568e-09
2.892340377e-06
-5.353255343e-09
2.898094225e-06
-5.753849339e-09
2.904226627e-06
-6.132405439e-09
2.910728548e-06
-6.501918381e-09
2.917601081e-06
-6.872534521e-09
2.924850477e-06
-7.249394226e-09
2.932481233e-06
-7.630754295e-09
2.940504551e-06
-8.023319687e-09
2.948869917e-06
-8.365364777e-09
2.957543936e-06
-8.674019335e-09
2.966487063e-06
-8.943126464e-09
2.97566905e-06
-9.181984494e-09
2.985078261e-06
-9.409208128e-09
2.99471701e-06
-9.638748312e-09
3.004588118e-06
-9.871110559e-09
3.014698328e-06
-1.01102071e-08
3.02503639e-06
-1.03380638e-08
3.035590399e-06
-1.055400942e-08
3.046338576e-06
-1.074817657e-08
3.057250775e-06
-1.091219765e-08
3.068301408e-06
-1.105063248e-08
3.079477609e-06
-1.117620076e-08
3.090776486e-06
-1.129887554e-08
3.102197343e-06
-1.14208572e-08
3.113740683e-06
-1.154334115e-08
3.125402435e-06
-1.166174951e-08
3.137176822e-06
-1.177438773e-08
3.14905633e-06
-1.187950865e-08
3.161027417e-06
-1.197108728e-08
3.173072994e-06
-1.204557539e-08
3.185177393e-06
-1.210440299e-08
3.197328662e-06
-1.215126655e-08
3.209518322e-06
-1.218966358e-08
3.221740336e-06
-1.22220118e-08
3.233989923e-06
-1.224958565e-08
3.246263232e-06
-1.227330895e-08
3.258556229e-06
-1.229299689e-08
3.270863599e-06
-1.230737149e-08
3.283177792e-06
-1.231419101e-08
3.295485198e-06
-1.230740692e-08
3.307767179e-06
-1.228198231e-08
3.320005188e-06
-1.223800775e-08
3.33218302e-06
-1.217783489e-08
3.344286502e-06
-1.210348104e-08
3.356302061e-06
-1.201556045e-08
3.368216267e-06
-1.19142025e-08
3.38001117e-06
-1.179490072e-08
3.391647409e-06
-1.163624125e-08
3.403071517e-06
-1.142410825e-08
3.414366449e-06
-1.129493182e-08
3.42619762e-06
-1.183117193e-08
3.440108877e-06
-1.391125453e-08
-1.739453584e-08
-1.053343846e-09
-1.570733657e-08
-3.229498765e-08
3.499741815e-08
-9.932890654e-08
8.775316862e-08
-1.972478441e-07
1.307522864e-07
-3.198254888e-07
1.645252385e-07
-4.609552706e-07
1.896037936e-07
-6.151337168e-07
2.068466799e-07
-7.780569002e-07
2.181092862e-07
-9.467763458e-07
2.254858297e-07
-1.119475298e-06
2.306369844e-07
-1.29513538e-06
2.346480739e-07
-1.473105108e-06
2.379461907e-07
-1.653026828e-06
2.408815598e-07
-1.834571594e-06
2.434320214e-07
-2.017535422e-06
2.457258194e-07
-2.201417533e-06
2.473362287e-07
-2.386204549e-06
2.488324441e-07
-2.571272434e-06
2.494008947e-07
-2.756028874e-06
2.494970257e-07
-2.940280146e-06
2.491458144e-07
-3.123567314e-06
2.481991381e-07
-3.305655791e-06
2.468079981e-07
-3.486543193e-06
2.452868463e-07
-3.66635539e-06
2.439161251e-07
-3.845305997e-06
2.428569343e-07
-4.023596552e-06
2.420912706e-07
-4.201361918e-06
2.415206722e-07
-4.378701428e-06
2.41113969e-07
-4.555627055e-06
2.407652767e-07
-4.731960189e-06
2.401785927e-07
-4.90738193e-06
2.391088675e-07
-5.08155237e-06
2.375073089e-07
-5.254214e-06
2.354994212e-07
-5.425259464e-06
2.333196083e-07
-5.594716429e-06
2.311826293e-07
-5.762661039e-06
2.291708505e-07
-5.929161217e-06
2.272730328e-07
-6.094242516e-06
2.254129653e-07
-6.257877862e-06
2.234875034e-07
-6.420066394e-06
2.21518738e-07
-6.580974154e-06
2.197588252e-07
-6.740929234e-06
2.184633594e-07
-6.900329494e-06
2.177469744e-07
-7.059500082e-06
2.175300781e-07
-7.218599833e-06
2.17623354e-07
-7.377599643e-06
2.177496387e-07
-7.536098483e-06
2.172592473e-07
-7.693560716e-06
2.158880049e-07
-7.849859402e-06
2.142836536e-07
-8.005041202e-06
2.127586461e-07
-8.159183379e-06
2.113637576e-07
-8.312355125e-06
2.100773845e-07
-8.46461385e-06
2.08876034e-07
-8.616006838e-06
2.077426064e-07
-8.766572513e-06
2.066634223e-07
-8.916341748e-06
2.056271093e-07
-9.065339428e-06
2.04624795e-07
-9.21358618e-06
2.036501975e-07
-9.361099802e-06
2.026992439e-07
-9.507896342e-06
2.017694318e-07
-9.653990804e-06
2.008593243e-07
-9.799397508e-06
1.999680042e-07
-9.944130297e-06
1.990947169e-07
-1.008820235e-05
1.982384363e-07
-1.023162594e-05
1.973978877e-07
-1.037441267e-05
1.965727043e-07
-1.051657442e-05
1.957639854e-07
-1.065812232e-05
1.949703931e-07
-1.079906115e-05
1.941807871e-07
-1.093938444e-05
1.933791068e-07
-1.1079086e-05
1.925743032e-07
-1.121818332e-05
1.918098404e-07
-1.135669344e-05
1.91064494e-07
-1.149454043e-05
1.901477403e-07
-1.163161253e-05
1.890016426e-07
-1.176816309e-05
1.882738575e-07
-1.19048172e-05
1.885809718e-07
-1.204134995e-05
1.885672751e-07
-1.217732827e-05
1.878363861e-07
-1.231277249e-05
1.870981101e-07
-1.244773114e-05
1.864388129e-07
-1.258225735e-05
1.858642441e-07
-1.271640071e-05
1.853634551e-07
-1.285020737e-05
1.849286668e-07
-1.298372076e-05
1.84555062e-07
-1.31169823e-05
1.842394946e-07
-1.325003212e-05
1.839800369e-07
-1.338290967e-05
1.837752963e-07
-1.351565421e-05
1.836236873e-07
-1.364830508e-05
1.835232395e-07
-1.378090039e-05
1.834716287e-07
-1.391347406e-05
1.834661751e-07
-1.404605758e-05
1.835068433e-07
-1.417868703e-05
1.836000998e-07
-1.431140672e-05
1.837557572e-07
-1.444426549e-05
1.839792548e-07
-1.457731275e-05
1.84271141e-07
-1.471059897e-05
1.846330009e-07
-1.484417539e-05
1.85065917e-07
-1.497809246e-05
1.855681493e-07
-1.511239965e-05
1.861376304e-07
-1.524714745e-05
1.867757512e-07
-1.538238989e-05
1.874880219e-07
-1.551818613e-05
1.882823587e-07
-1.565460047e-05
1.891662849e-07
-1.579170066e-05
1.901442727e-07
-1.592955653e-05
1.912184879e-07
-1.606824122e-05
1.923933666e-07
-1.620783475e-05
1.936794155e-07
-1.634842754e-05
1.950929475e-07
-1.649012174e-05
1.966521036e-07
-1.663302857e-05
1.983703723e-07
-1.677726065e-05
2.002485121e-07
-1.692292264e-05
2.022739658e-07
-1.707011681e-05
2.044438946e-07
-1.721894317e-05
2.067538037e-07
-1.7369489e-05
2.091780341e-07
-1.752180202e-05
2.116522882e-07
-1.767591434e-05
2.141662722e-07
-1.783199228e-05
2.169281168e-07
-1.799019325e-05
2.199197601e-07
-1.815067526e-05
2.231342956e-07
-1.831359086e-05
2.265618574e-07
-1.84790904e-05
2.302003009e-07
-1.86473306e-05
2.34062217e-07
-1.881848709e-05
2.381787947e-07
-1.899275473e-05
2.425788387e-07
-1.917032848e-05
2.472594872e-07
-1.935138987e-05
2.521994646e-07
-1.953612264e-05
2.574032734e-07
-1.972471154e-05
2.628736325e-07
-1.991734357e-05
2.686144415e-07
-2.011421178e-05
2.74634993e-07
-2.031551714e-05
2.809472682e-07
-2.052146988e-05
2.87565283e-07
-2.073229036e-05
2.945042314e-07
-2.094820916e-05
3.017792429e-07
-2.116946676e-05
3.09404188e-07
-2.139631399e-05
3.173939247e-07
-2.16290196e-05
3.257776382e-07
-2.186789144e-05
3.346208614e-07
-2.211329675e-05
3.440202789e-07
-2.236565001e-05
3.540468311e-07
-2.262535954e-05
3.646889057e-07
-2.289281139e-05
3.759225752e-07
-2.316844794e-05
3.878298142e-07
-2.345264304e-05
4.00276919e-07
-2.374555032e-05
4.129378294e-07
-2.404724312e-05
4.257589844e-07
-2.435825154e-05
4.394249742e-07
-2.467903241e-05
4.538275972e-07
-2.501002456e-05
4.689376924e-07
-2.535159256e-05
4.846423872e-07
-2.570399445e-05
5.007819541e-07
-2.606742017e-05
5.172774263e-07
-2.644213675e-05
5.343096767e-07
-2.682861065e-05
5.522427748e-07
-2.722735133e-05
5.711288988e-07
-2.763850021e-05
5.904159744e-07
-2.806214658e-05
6.100560181e-07
-2.849808014e-05
6.296239852e-07
-2.894597631e-05
6.489875915e-07
-2.940535158e-05
6.679513984e-07
-2.987555606e-05
6.86315826e-07
-3.035578401e-05
7.03879551e-07
-3.084507987e-05
7.204162559e-07
-3.134244824e-05
7.357757565e-07
-3.184640001e-05
7.490833758e-07
-3.235461292e-05
7.592840401e-07
-3.286577649e-05
7.680943233e-07
-3.337727995e-05
7.73763342e-07
-3.38862895e-05
7.759413957e-07
-3.438982041e-05
7.741462889e-07
-3.488483533e-05
7.681428551e-07
-3.536836018e-05
7.57890617e-07
-3.583708716e-05
7.4290758e-07
-3.628744803e-05
7.230879625e-07
-3.671705199e-05
7.000582546e-07
-3.712200072e-05
6.715755095e-07
-3.749803415e-05
6.368164643e-07
-3.784037037e-05
5.951062419e-07
-3.814470244e-05
5.47144221e-07
-3.840528021e-05
4.909713604e-07
-3.861876427e-05
4.305162848e-07
-3.878116848e-05
3.640652549e-07
-3.889065782e-05
2.93927843e-07
-3.895101477e-05
2.261623199e-07
-3.895852988e-05
1.515184139e-07
-3.889815352e-05
5.427373071e-08
-3.876648146e-05
-4.493771478e-08
-3.856855119e-05
-1.399104225e-07
-3.82954869e-05
-2.433795904e-07
-3.794172358e-05
-3.523067133e-07
-3.75047518e-05
-4.678624375e-07
-3.698299615e-05
-5.893238818e-07
-3.637588741e-05
-7.145836334e-07
-3.568294862e-05
-8.41689415e-07
-3.490390621e-05
-9.697777598e-07
-3.403876069e-05
-1.098626543e-06
-3.308773851e-05
-1.22845961e-06
-3.205173286e-05
-1.359947017e-06
-3.093295522e-05
-1.493266726e-06
-2.97301893e-05
-1.624707516e-06
-2.841108208e-05
-1.743425241e-06
-2.707340876e-05
-1.841518513e-06
-2.565810586e-05
-1.952436102e-06
-2.417232865e-05
-2.062340879e-06
-2.261714479e-05
-2.171319189e-06
-2.099496794e-05
-2.276566979e-06
-1.9309648e-05
-2.376797021e-06
-1.756604518e-05
-2.470720212e-06
-1.576924797e-05
-2.55759359e-06
-1.392451198e-05
-2.636825888e-06
-1.203747297e-05
-2.707730258e-06
-1.011441579e-05
-2.769422072e-06
-8.162884498e-06
-2.820899564e-06
-6.192045372e-06
-2.861752348e-06
-4.198522385e-06
-2.89770214e-06
-2.175164413e-06
-2.929443663e-06
-1.2932672e-07
-2.956555589e-06
1.93123815e-06
-2.975295102e-06
3.997839041e-06
-2.982943025e-06
6.060121575e-06
-2.977108863e-06
8.11559027e-06
-2.967377067e-06
1.017336639e-05
-2.969736005e-06
1.222304084e-05
-2.960949901e-06
1.425682945e-05
-2.940444843e-06
1.626827612e-05
-2.909218406e-06
1.825143664e-05
-2.868260804e-06
2.020091405e-05
-2.818619087e-06
2.211194629e-05
-2.761446244e-06
2.398044494e-05
-2.697922839e-06
2.5802885e-05
-2.628839978e-06
2.757717167e-05
-2.556852696e-06
2.929720854e-05
-2.475223908e-06
3.095966475e-05
-2.386637638e-06
3.256478641e-05
-2.296436419e-06
3.410650252e-05
-2.202148697e-06
3.558247036e-05
-2.104312127e-06
3.699193563e-05
-2.003848323e-06
3.833448229e-05
-1.90202107e-06
3.96103516e-05
-1.799573689e-06
4.081979264e-05
-1.698842181e-06
4.19627652e-05
-1.600078725e-06
4.303915304e-05
-1.501477179e-06
4.404906802e-05
-1.403018167e-06
4.499290004e-05
-1.305144666e-06
4.587110919e-05
-1.208044374e-06
4.668453872e-05
-1.112339501e-06
4.743506354e-05
-1.019663426e-06
4.812398178e-05
-9.293750391e-07
4.875277191e-05
-8.416380001e-07
4.932304083e-05
-7.566227809e-07
4.983644737e-05
-6.743960761e-07
5.029469354e-05
-5.949935607e-07
5.069953641e-05
-5.18457238e-07
5.105281169e-05
-4.448217201e-07
5.135647148e-05
-3.740754441e-07
5.161256484e-05
-3.061486456e-07
5.182290341e-05
-2.410368647e-07
5.198827183e-05
-1.789208284e-07
5.211113408e-05
-1.202876048e-07
5.219179459e-05
-6.50585303e-08
5.223293643e-05
-1.255645758e-08
5.22398864e-05
3.702405746e-08
5.221503791e-05
8.272532511e-08
5.216232675e-05
1.227294186e-07
5.207935608e-05
1.643124784e-07
5.196694204e-05
2.038083565e-07
5.182643906e-05
2.412794572e-07
5.165896135e-05
2.774061334e-07
5.14668211e-05
3.104553611e-07
5.125181308e-05
3.408943115e-07
5.101535591e-05
3.692294249e-07
5.075887415e-05
3.954894607e-07
5.048377062e-05
4.197190665e-07
5.019139279e-05
4.420236717e-07
4.988304131e-05
4.624998212e-07
4.955996816e-05
4.812337773e-07
4.922336529e-05
4.983180122e-07
4.887435719e-05
5.138523307e-07
4.851400065e-05
5.279359044e-07
4.814328895e-05
5.406613306e-07
4.776315671e-05
5.521136947e-07
4.737448378e-05
5.623721603e-07
4.697809787e-05
5.715121189e-07
4.657477661e-05
5.796056761e-07
4.616524809e-05
5.867240851e-07
4.575018814e-05
5.929356272e-07
4.533020637e-05
5.983305578e-07
4.490587347e-05
6.029870204e-07
4.447781982e-05
6.067879614e-07
4.404657585e-05
6.098391411e-07
4.361265503e-05
6.122152468e-07
4.317657811e-05
6.139274383e-07
4.27387054e-05
6.15104565e-07
4.229962186e-05
6.15721532e-07
4.185977322e-05
6.157995354e-07
4.141945441e-05
6.154300006e-07
4.097895279e-05
6.146688278e-07
4.053857673e-05
6.13530305e-07
4.009862145e-05
6.120209759e-07
3.965932949e-05
6.101799954e-07
3.922092451e-05
6.080340442e-07
3.87836146e-05
6.055031749e-07
3.834760503e-05
6.029581435e-07
3.791312401e-05
6.001985193e-07
3.748036464e-05
5.971671652e-07
3.704947363e-05
5.939311437e-07
3.662058914e-05
5.905190682e-07
3.619385581e-05
5.869222996e-07
3.576940987e-05
5.831490977e-07
3.534737952e-05
5.792131394e-07
3.492789643e-05
5.75113564e-07
3.451107391e-05
5.708761345e-07
3.409708642e-05
5.664106516e-07
3.368597167e-05
5.619070418e-07
3.327766027e-05
5.575401172e-07
3.287219636e-05
5.531652599e-07
3.246965771e-05
5.487134748e-07
3.207012879e-05
5.441621987e-07
3.167369071e-05
5.395114015e-07
3.128041855e-05
5.347681972e-07
3.089038051e-05
5.299419942e-07
3.050363918e-05
5.250409462e-07
3.012025354e-05
5.200709397e-07
2.974028084e-05
5.15035324e-07
2.936377804e-05
5.099356661e-07
2.899078413e-05
5.047942124e-07
2.86213662e-05
4.995682026e-07
2.825546721e-05
4.944308243e-07
2.789306311e-05
4.893530676e-07
2.753416981e-05
4.842759661e-07
2.717881774e-05
4.791721655e-07
2.68270403e-05
4.74034171e-07
2.647887187e-05
4.688591703e-07
2.613434583e-05
4.636475e-07
2.579349226e-05
4.584031118e-07
2.545633876e-05
4.531291129e-07
2.512291207e-05
4.478264467e-07
2.479323865e-05
4.424955529e-07
2.446734241e-05
4.371405989e-07
2.414525103e-05
4.317569866e-07
2.382698368e-05
4.263553378e-07
2.351257545e-05
4.209077228e-07
2.320202858e-05
4.154622715e-07
2.289532757e-05
4.100496049e-07
2.259246545e-05
4.046590821e-07
2.229344559e-05
3.992740979e-07
2.199827552e-05
3.938870716e-07
2.170696417e-05
3.884954596e-07
2.141952158e-05
3.830974349e-07
2.113595864e-05
3.776914025e-07
2.085628628e-05
3.722768891e-07
2.058051503e-05
3.668541633e-07
2.030865453e-05
3.614241865e-07
2.00407138e-05
3.55987608e-07
1.977669996e-05
3.505471827e-07
1.951661916e-05
3.451044715e-07
1.926047501e-05
3.396632115e-07
1.900827082e-05
3.342223655e-07
1.876001081e-05
3.287792697e-07
1.851568881e-05
3.233497397e-07
1.827529094e-05
3.179460893e-07
1.803880389e-05
3.125677679e-07
1.780621698e-05
3.072104448e-07
1.757752071e-05
3.018720239e-07
1.73527057e-05
2.965521573e-07
1.71317626e-05
2.91250768e-07
1.691468211e-05
2.85967638e-07
1.670145491e-05
2.807026392e-07
1.649207135e-05
2.754559621e-07
1.628652138e-05
2.702279909e-07
1.608479422e-05
2.65019524e-07
1.588687844e-05
2.598311704e-07
1.569276125e-05
2.546647781e-07
1.550242891e-05
2.495216181e-07
1.531586574e-05
2.444044279e-07
1.513305569e-05
2.393129808e-07
1.495398315e-05
2.34245828e-07
1.477862839e-05
2.292087453e-07
1.460696714e-05
2.242086873e-07
1.443897361e-05
2.192479237e-07
1.427462238e-05
2.143257516e-07
1.411388821e-05
2.094415879e-07
1.395674561e-05
2.045956235e-07
1.380316872e-05
1.997882514e-07
1.36531314e-05
1.950197304e-07
1.350660724e-05
1.902902673e-07
1.336356951e-05
1.856001184e-07
1.322399112e-05
1.809496499e-07
1.30878445e-05
1.763393099e-07
1.295510164e-05
1.717696195e-07
1.282573396e-05
1.6724116e-07