/*--------------------------------*- C++ -*----------------------------------*\
| =========                 |                                                 |
| \\      /  F ield         | OpenFOAM: The Open Source CFD Toolbox           |
|  \\    /   O peration     | Version:  2312                                  |
|   \\  /    A nd           | Website:  www.openfoam.com                      |
|    \\/     M anipulation  |                                                 |
\*---------------------------------------------------------------------------*/
FoamFile
{
    version     2.0;
    format      ascii;
    arch        "LSB;label=32;scalar=64";
    class       volScalarField;
    location    "6000";
    object      thermo:psiGasEff;
}
// * * * * * * * * * * * * * * * * * * * * * * * * * * * * * * * * * * * * * //

dimensions      [-2 4 2 0 0 0 0];

internalField   nonuniform List<scalar> 
20400
(
8.190974305e-06
8.19097434e-06
8.190974384e-06
8.190974416e-06
8.19097444e-06
8.190974462e-06
8.190974483e-06
8.190974504e-06
8.190974523e-06
8.190974543e-06
8.190974563e-06
8.190974582e-06
8.190974601e-06
8.190974618e-06
8.190974635e-06
8.190974649e-06
8.190974661e-06
8.190974671e-06
8.190974678e-06
8.190974682e-06
8.190974683e-06
8.19097468e-06
8.190974673e-06
8.190974662e-06
8.190974647e-06
8.190974628e-06
8.190974605e-06
8.190974577e-06
8.190974545e-06
8.190974508e-06
8.190974467e-06
8.19097442e-06
8.190974368e-06
8.190974311e-06
8.190974248e-06
8.190974181e-06
8.190974108e-06
8.190974031e-06
8.190973948e-06
8.19097386e-06
8.190973767e-06
8.190973669e-06
8.190973566e-06
8.190973458e-06
8.190973346e-06
8.190973228e-06
8.190973104e-06
8.190972974e-06
8.190972839e-06
8.190972697e-06
8.190972551e-06
8.190972398e-06
8.19097224e-06
8.190972076e-06
8.190971907e-06
8.190971731e-06
8.19097155e-06
8.190971364e-06
8.190971171e-06
8.190970973e-06
8.190970768e-06
8.190970558e-06
8.190970342e-06
8.190970121e-06
8.190969893e-06
8.190969659e-06
8.190969419e-06
8.190969173e-06
8.190968921e-06
8.190968663e-06
8.190968399e-06
8.190968129e-06
8.190967853e-06
8.190967571e-06
8.190967282e-06
8.190966987e-06
8.190966686e-06
8.19096638e-06
8.190966067e-06
8.190965747e-06
8.190965421e-06
8.190965089e-06
8.190964751e-06
8.190964406e-06
8.190964055e-06
8.190963698e-06
8.190963334e-06
8.190962964e-06
8.190962588e-06
8.190962205e-06
8.190961816e-06
8.19096142e-06
8.190961018e-06
8.190960609e-06
8.190960194e-06
8.190959772e-06
8.190959344e-06
8.190958909e-06
8.190958467e-06
8.190958019e-06
8.190957564e-06
8.190957102e-06
8.190956633e-06
8.190956157e-06
8.190955674e-06
8.190955185e-06
8.190954688e-06
8.190954184e-06
8.190953673e-06
8.190953154e-06
8.190952629e-06
8.190952095e-06
8.190951555e-06
8.190951006e-06
8.19095045e-06
8.190949886e-06
8.190949314e-06
8.190948734e-06
8.190948145e-06
8.190947549e-06
8.190946943e-06
8.19094633e-06
8.190945707e-06
8.190945075e-06
8.190944435e-06
8.190943785e-06
8.190943125e-06
8.190942456e-06
8.190941776e-06
8.190941086e-06
8.190940386e-06
8.190939675e-06
8.190938952e-06
8.190938218e-06
8.190937472e-06
8.190936714e-06
8.190935942e-06
8.190935158e-06
8.19093436e-06
8.190933547e-06
8.19093272e-06
8.190931878e-06
8.190931019e-06
8.190930144e-06
8.190929252e-06
8.190928341e-06
8.19092741e-06
8.19092646e-06
8.190925488e-06
8.190924494e-06
8.190923476e-06
8.190922434e-06
8.190921366e-06
8.19092027e-06
8.190919144e-06
8.190917988e-06
8.190916799e-06
8.190915575e-06
8.190914314e-06
8.190913013e-06
8.190911669e-06
8.190910279e-06
8.19090884e-06
8.190907348e-06
8.1909058e-06
8.190904192e-06
8.190902519e-06
8.190900777e-06
8.19089896e-06
8.190897067e-06
8.190895091e-06
8.190893027e-06
8.190890869e-06
8.190888614e-06
8.190886254e-06
8.190883787e-06
8.190881207e-06
8.190878509e-06
8.19087569e-06
8.190872743e-06
8.190869664e-06
8.190866449e-06
8.190863096e-06
8.190859602e-06
8.190855966e-06
8.190852184e-06
8.190848257e-06
8.190844183e-06
8.190839963e-06
8.190835608e-06
8.190831121e-06
8.190826497e-06
8.190821735e-06
8.190816851e-06
8.190811862e-06
8.190806776e-06
8.190801597e-06
8.190796335e-06
8.190791001e-06
8.190785608e-06
8.190780172e-06
8.190774713e-06
8.190769259e-06
8.190763819e-06
8.19075835e-06
8.190752937e-06
8.190747587e-06
8.190742305e-06
8.190737106e-06
8.190732007e-06
8.190727026e-06
8.190722179e-06
8.19071748e-06
8.190712944e-06
8.190708586e-06
8.19070442e-06
8.190700461e-06
8.190696728e-06
8.190693231e-06
8.190689961e-06
8.190686918e-06
8.190684105e-06
8.190681526e-06
8.190679182e-06
8.190677069e-06
8.190675185e-06
8.19067353e-06
8.190672105e-06
8.190670911e-06
8.190669943e-06
8.190669196e-06
8.190668665e-06
8.190668341e-06
8.190668213e-06
8.190668276e-06
8.190668522e-06
8.190668937e-06
8.190669506e-06
8.190670218e-06
8.190671064e-06
8.190672033e-06
8.190673114e-06
8.19067429e-06
8.190675549e-06
8.190676881e-06
8.190678278e-06
8.190679729e-06
8.190681226e-06
8.190682759e-06
8.190684319e-06
8.190685896e-06
8.190687483e-06
8.190689074e-06
8.19069066e-06
8.190692236e-06
8.190693796e-06
8.190695335e-06
8.190696849e-06
8.190698332e-06
8.190699783e-06
8.1907012e-06
8.190702582e-06
8.190703918e-06
8.190705207e-06
8.190706451e-06
8.190707649e-06
8.190708798e-06
8.190709895e-06
8.19071094e-06
8.190711933e-06
8.190712874e-06
8.190713762e-06
8.190714598e-06
8.190715381e-06
8.190716112e-06
8.190716791e-06
8.190717419e-06
8.190717997e-06
8.190718525e-06
8.190719005e-06
8.190719437e-06
8.190719822e-06
8.190720162e-06
8.190720457e-06
8.190720709e-06
8.190720918e-06
8.190721086e-06
8.190721214e-06
8.190721302e-06
8.190721353e-06
8.190721367e-06
8.190721345e-06
8.190721289e-06
8.190721199e-06
8.190721076e-06
8.190720922e-06
8.190720738e-06
8.190720524e-06
8.190720282e-06
8.190720013e-06
8.190719717e-06
8.190719396e-06
8.19071905e-06
8.190718681e-06
8.190718288e-06
8.190717874e-06
8.19071744e-06
8.190716985e-06
8.19071651e-06
8.190716017e-06
8.190715506e-06
8.190714978e-06
8.190714432e-06
8.190713871e-06
8.190713295e-06
8.190712704e-06
8.1907121e-06
8.190711482e-06
8.190710851e-06
8.190710209e-06
8.190709555e-06
8.19070889e-06
8.190708214e-06
8.190707529e-06
8.190706834e-06
8.19070613e-06
8.190705418e-06
8.190704697e-06
8.190703969e-06
8.190703234e-06
8.190702492e-06
8.190701744e-06
8.19070099e-06
8.190700231e-06
8.190699467e-06
8.190698698e-06
8.190697925e-06
8.190697147e-06
8.190696366e-06
8.190695582e-06
8.190694794e-06
8.190694004e-06
8.190693211e-06
8.190692417e-06
8.19069162e-06
8.190690822e-06
8.190690022e-06
8.190689222e-06
8.190688421e-06
8.190687619e-06
8.190686817e-06
8.190686016e-06
8.190685214e-06
8.190684413e-06
8.190683612e-06
8.190682813e-06
8.190682014e-06
8.190681217e-06
8.190680421e-06
8.190679627e-06
8.190678835e-06
8.190678045e-06
8.190677257e-06
8.190676472e-06
8.190675689e-06
8.190674908e-06
8.190674131e-06
8.190673357e-06
8.190672585e-06
8.190671818e-06
8.190671053e-06
8.190670292e-06
8.190669535e-06
8.190668782e-06
8.190668032e-06
8.190667286e-06
8.190666545e-06
8.190665808e-06
8.190665075e-06
8.190664346e-06
8.190663622e-06
8.190662902e-06
8.190662187e-06
8.190661476e-06
8.190660771e-06
8.19066007e-06
8.190659373e-06
8.190658682e-06
8.190657996e-06
8.190657314e-06
8.190656638e-06
8.190655966e-06
8.1906553e-06
8.190654639e-06
8.190653983e-06
8.190653332e-06
8.190652686e-06
8.190652045e-06
8.19065141e-06
8.190650779e-06
8.190650154e-06
8.190649535e-06
8.19064892e-06
8.190648311e-06
8.190647706e-06
8.190647108e-06
8.190646514e-06
8.190645925e-06
8.190645342e-06
8.190644764e-06
8.190644191e-06
8.190643624e-06
8.190643061e-06
8.190642504e-06
8.190641951e-06
8.190641404e-06
8.190640862e-06
8.190640325e-06
8.190639793e-06
8.190639266e-06
8.190638743e-06
8.190638226e-06
8.190637714e-06
8.190637206e-06
8.190636704e-06
8.190636206e-06
8.190635713e-06
8.190635224e-06
8.190634741e-06
8.190634262e-06
8.190633788e-06
8.190633319e-06
8.190632854e-06
8.190632394e-06
8.190631938e-06
8.190631488e-06
8.190631041e-06
8.190630599e-06
8.190630162e-06
8.19062973e-06
8.190629302e-06
8.190628878e-06
8.19062846e-06
8.190628045e-06
8.190627635e-06
8.19062723e-06
8.190626829e-06
8.190626432e-06
8.19062604e-06
8.190625653e-06
8.19062527e-06
8.190624891e-06
8.190624516e-06
8.190624146e-06
8.190623781e-06
8.190623419e-06
8.190623062e-06
8.190622709e-06
8.190622361e-06
8.190622017e-06
8.190621676e-06
8.19062134e-06
8.190621008e-06
8.19062068e-06
8.190620356e-06
8.190620035e-06
8.190619719e-06
8.190619406e-06
8.190619097e-06
8.190618792e-06
8.19061849e-06
8.190618191e-06
8.190617896e-06
8.190617605e-06
8.190617316e-06
8.190617031e-06
8.190616749e-06
8.19061647e-06
8.190616194e-06
8.190615921e-06
8.190615651e-06
8.190615384e-06
8.190615119e-06
8.190614857e-06
8.190614598e-06
8.190614341e-06
8.190614087e-06
8.190613835e-06
8.190613585e-06
8.190613338e-06
8.190613093e-06
8.19061285e-06
8.19061261e-06
8.190612371e-06
8.190612135e-06
8.190611901e-06
8.190611669e-06
8.190611434e-06
8.190611194e-06
8.190610971e-06
8.190974274e-06
8.190974311e-06
8.190974338e-06
8.190974359e-06
8.190974379e-06
8.1909744e-06
8.190974422e-06
8.190974444e-06
8.190974467e-06
8.190974489e-06
8.19097451e-06
8.190974531e-06
8.190974552e-06
8.190974571e-06
8.190974589e-06
8.190974605e-06
8.190974619e-06
8.19097463e-06
8.190974638e-06
8.190974642e-06
8.190974643e-06
8.190974639e-06
8.190974632e-06
8.19097462e-06
8.190974605e-06
8.190974585e-06
8.190974561e-06
8.190974533e-06
8.190974501e-06
8.190974464e-06
8.190974422e-06
8.190974375e-06
8.190974323e-06
8.190974266e-06
8.190974204e-06
8.190974136e-06
8.190974064e-06
8.190973986e-06
8.190973904e-06
8.190973816e-06
8.190973723e-06
8.190973625e-06
8.190973522e-06
8.190973414e-06
8.190973301e-06
8.190973183e-06
8.190973059e-06
8.190972929e-06
8.190972794e-06
8.190972652e-06
8.190972506e-06
8.190972353e-06
8.190972195e-06
8.190972031e-06
8.190971862e-06
8.190971687e-06
8.190971506e-06
8.190971319e-06
8.190971127e-06
8.190970928e-06
8.190970724e-06
8.190970514e-06
8.190970298e-06
8.190970076e-06
8.190969849e-06
8.190969615e-06
8.190969375e-06
8.190969129e-06
8.190968877e-06
8.19096862e-06
8.190968356e-06
8.190968086e-06
8.190967809e-06
8.190967527e-06
8.190967238e-06
8.190966943e-06
8.190966643e-06
8.190966336e-06
8.190966023e-06
8.190965704e-06
8.190965378e-06
8.190965046e-06
8.190964707e-06
8.190964363e-06
8.190964012e-06
8.190963654e-06
8.190963291e-06
8.190962921e-06
8.190962544e-06
8.190962161e-06
8.190961772e-06
8.190961376e-06
8.190960974e-06
8.190960565e-06
8.19096015e-06
8.190959728e-06
8.190959299e-06
8.190958864e-06
8.190958422e-06
8.190957974e-06
8.190957518e-06
8.190957056e-06
8.190956587e-06
8.190956111e-06
8.190955628e-06
8.190955138e-06
8.190954641e-06
8.190954136e-06
8.190953625e-06
8.190953106e-06
8.19095258e-06
8.190952046e-06
8.190951505e-06
8.190950956e-06
8.190950399e-06
8.190949834e-06
8.190949261e-06
8.19094868e-06
8.190948091e-06
8.190947493e-06
8.190946887e-06
8.190946273e-06
8.190945649e-06
8.190945016e-06
8.190944374e-06
8.190943723e-06
8.190943062e-06
8.190942391e-06
8.19094171e-06
8.190941019e-06
8.190940316e-06
8.190939603e-06
8.190938879e-06
8.190938143e-06
8.190937395e-06
8.190936634e-06
8.19093586e-06
8.190935073e-06
8.190934272e-06
8.190933457e-06
8.190932627e-06
8.190931781e-06
8.190930919e-06
8.19093004e-06
8.190929144e-06
8.190928229e-06
8.190927294e-06
8.190926338e-06
8.190925361e-06
8.190924361e-06
8.190923337e-06
8.190922288e-06
8.190921213e-06
8.190920109e-06
8.190918976e-06
8.190917812e-06
8.190916614e-06
8.190915381e-06
8.19091411e-06
8.190912799e-06
8.190911445e-06
8.190910045e-06
8.190908596e-06
8.190907094e-06
8.190905535e-06
8.190903917e-06
8.190902235e-06
8.190900483e-06
8.190898658e-06
8.190896756e-06
8.190894774e-06
8.190892706e-06
8.190890548e-06
8.190888293e-06
8.190885938e-06
8.190883478e-06
8.190880908e-06
8.190878224e-06
8.190875422e-06
8.190872496e-06
8.190869443e-06
8.190866259e-06
8.190862942e-06
8.19085949e-06
8.1908559e-06
8.190852169e-06
8.190848292e-06
8.190844264e-06
8.190840094e-06
8.190835804e-06
8.190831403e-06
8.190826878e-06
8.190822225e-06
8.190817451e-06
8.190812565e-06
8.190807577e-06
8.190802496e-06
8.190797331e-06
8.190792095e-06
8.1907868e-06
8.19078146e-06
8.190776084e-06
8.190770678e-06
8.190765268e-06
8.190759922e-06
8.190754592e-06
8.1907493e-06
8.190744071e-06
8.190738926e-06
8.190733878e-06
8.190728942e-06
8.190724135e-06
8.190719471e-06
8.190714966e-06
8.190710633e-06
8.190706483e-06
8.190702522e-06
8.190698746e-06
8.19069516e-06
8.190691784e-06
8.19068863e-06
8.190685703e-06
8.190683005e-06
8.190680532e-06
8.190678278e-06
8.190676261e-06
8.190674487e-06
8.190672956e-06
8.190671667e-06
8.190670615e-06
8.190669795e-06
8.190669197e-06
8.190668814e-06
8.190668636e-06
8.190668656e-06
8.190668863e-06
8.190669244e-06
8.190669791e-06
8.19067049e-06
8.190671327e-06
8.190672289e-06
8.190673364e-06
8.190674537e-06
8.190675795e-06
8.190677126e-06
8.19067852e-06
8.190679968e-06
8.190681459e-06
8.190682985e-06
8.190684535e-06
8.190686102e-06
8.190687678e-06
8.190689255e-06
8.190690829e-06
8.190692392e-06
8.190693939e-06
8.190695465e-06
8.190696965e-06
8.190698437e-06
8.190699875e-06
8.190701278e-06
8.190702642e-06
8.190703964e-06
8.190705242e-06
8.190706476e-06
8.190707667e-06
8.19070881e-06
8.1907099e-06
8.190710936e-06
8.19071192e-06
8.190712852e-06
8.190713731e-06
8.190714559e-06
8.190715335e-06
8.19071606e-06
8.190716733e-06
8.190717356e-06
8.19071793e-06
8.190718454e-06
8.19071893e-06
8.190719359e-06
8.190719742e-06
8.190720079e-06
8.190720372e-06
8.190720622e-06
8.19072083e-06
8.190720996e-06
8.190721123e-06
8.190721211e-06
8.190721261e-06
8.190721275e-06
8.190721252e-06
8.190721196e-06
8.190721106e-06
8.190720983e-06
8.190720829e-06
8.190720645e-06
8.190720431e-06
8.190720188e-06
8.190719918e-06
8.190719622e-06
8.1907193e-06
8.190718954e-06
8.190718584e-06
8.190718191e-06
8.190717777e-06
8.190717341e-06
8.190716885e-06
8.190716409e-06
8.190715915e-06
8.190715403e-06
8.190714873e-06
8.190714327e-06
8.190713765e-06
8.190713188e-06
8.190712597e-06
8.190711991e-06
8.190711373e-06
8.190710742e-06
8.190710099e-06
8.190709445e-06
8.190708779e-06
8.190708104e-06
8.190707418e-06
8.190706723e-06
8.190706019e-06
8.190705307e-06
8.190704586e-06
8.190703858e-06
8.190703123e-06
8.190702382e-06
8.190701634e-06
8.190700881e-06
8.190700122e-06
8.190699358e-06
8.190698589e-06
8.190697816e-06
8.190697039e-06
8.190696259e-06
8.190695475e-06
8.190694688e-06
8.190693898e-06
8.190693106e-06
8.190692312e-06
8.190691516e-06
8.190690718e-06
8.19068992e-06
8.19068912e-06
8.19068832e-06
8.190687519e-06
8.190686718e-06
8.190685917e-06
8.190685116e-06
8.190684316e-06
8.190683516e-06
8.190682718e-06
8.19068192e-06
8.190681124e-06
8.190680329e-06
8.190679536e-06
8.190678745e-06
8.190677956e-06
8.190677169e-06
8.190676384e-06
8.190675602e-06
8.190674823e-06
8.190674047e-06
8.190673274e-06
8.190672504e-06
8.190671737e-06
8.190670973e-06
8.190670214e-06
8.190669458e-06
8.190668705e-06
8.190667957e-06
8.190667213e-06
8.190666472e-06
8.190665736e-06
8.190665004e-06
8.190664277e-06
8.190663554e-06
8.190662835e-06
8.190662121e-06
8.190661412e-06
8.190660708e-06
8.190660008e-06
8.190659313e-06
8.190658623e-06
8.190657938e-06
8.190657258e-06
8.190656582e-06
8.190655912e-06
8.190655247e-06
8.190654587e-06
8.190653932e-06
8.190653282e-06
8.190652638e-06
8.190651998e-06
8.190651364e-06
8.190650735e-06
8.190650111e-06
8.190649493e-06
8.190648879e-06
8.190648271e-06
8.190647668e-06
8.19064707e-06
8.190646478e-06
8.19064589e-06
8.190645308e-06
8.190644731e-06
8.19064416e-06
8.190643593e-06
8.190643032e-06
8.190642475e-06
8.190641924e-06
8.190641378e-06
8.190640837e-06
8.190640301e-06
8.19063977e-06
8.190639243e-06
8.190638722e-06
8.190638206e-06
8.190637694e-06
8.190637188e-06
8.190636686e-06
8.190636189e-06
8.190635697e-06
8.19063521e-06
8.190634727e-06
8.190634249e-06
8.190633776e-06
8.190633307e-06
8.190632843e-06
8.190632384e-06
8.190631929e-06
8.190631479e-06
8.190631034e-06
8.190630593e-06
8.190630156e-06
8.190629724e-06
8.190629297e-06
8.190628874e-06
8.190628456e-06
8.190628042e-06
8.190627633e-06
8.190627228e-06
8.190626827e-06
8.190626431e-06
8.190626039e-06
8.190625652e-06
8.19062527e-06
8.190624892e-06
8.190624518e-06
8.190624148e-06
8.190623783e-06
8.190623422e-06
8.190623065e-06
8.190622712e-06
8.190622364e-06
8.19062202e-06
8.19062168e-06
8.190621344e-06
8.190621013e-06
8.190620685e-06
8.190620361e-06
8.190620041e-06
8.190619724e-06
8.190619412e-06
8.190619103e-06
8.190618798e-06
8.190618496e-06
8.190618198e-06
8.190617903e-06
8.190617612e-06
8.190617323e-06
8.190617038e-06
8.190616757e-06
8.190616478e-06
8.190616202e-06
8.190615929e-06
8.190615659e-06
8.190615392e-06
8.190615127e-06
8.190614865e-06
8.190614606e-06
8.190614349e-06
8.190614095e-06
8.190613843e-06
8.190613593e-06
8.190613346e-06
8.190613101e-06
8.190612858e-06
8.190612617e-06
8.190612379e-06
8.190612143e-06
8.190611909e-06
8.190611677e-06
8.19061144e-06
8.190611197e-06
8.190610972e-06
8.19097422e-06
8.190974278e-06
8.190974305e-06
8.19097432e-06
8.190974335e-06
8.190974354e-06
8.190974374e-06
8.190974396e-06
8.190974418e-06
8.190974441e-06
8.190974464e-06
8.190974486e-06
8.190974508e-06
8.190974529e-06
8.190974549e-06
8.190974566e-06
8.190974581e-06
8.190974592e-06
8.190974599e-06
8.190974602e-06
8.190974602e-06
8.190974598e-06
8.19097459e-06
8.190974578e-06
8.190974563e-06
8.190974543e-06
8.190974519e-06
8.190974491e-06
8.190974458e-06
8.190974421e-06
8.19097438e-06
8.190974333e-06
8.190974281e-06
8.190974224e-06
8.190974161e-06
8.190974094e-06
8.190974022e-06
8.190973945e-06
8.190973862e-06
8.190973774e-06
8.190973681e-06
8.190973583e-06
8.19097348e-06
8.190973372e-06
8.190973259e-06
8.190973141e-06
8.190973018e-06
8.190972888e-06
8.190972753e-06
8.190972612e-06
8.190972465e-06
8.190972313e-06
8.190972155e-06
8.190971991e-06
8.190971822e-06
8.190971647e-06
8.190971466e-06
8.190971279e-06
8.190971087e-06
8.190970889e-06
8.190970685e-06
8.190970475e-06
8.190970259e-06
8.190970037e-06
8.190969809e-06
8.190969576e-06
8.190969336e-06
8.19096909e-06
8.190968839e-06
8.190968581e-06
8.190968317e-06
8.190968047e-06
8.190967771e-06
8.190967489e-06
8.1909672e-06
8.190966905e-06
8.190966605e-06
8.190966298e-06
8.190965985e-06
8.190965666e-06
8.19096534e-06
8.190965008e-06
8.190964669e-06
8.190964325e-06
8.190963974e-06
8.190963616e-06
8.190963253e-06
8.190962882e-06
8.190962506e-06
8.190962123e-06
8.190961733e-06
8.190961337e-06
8.190960935e-06
8.190960526e-06
8.190960111e-06
8.190959688e-06
8.19095926e-06
8.190958824e-06
8.190958382e-06
8.190957933e-06
8.190957478e-06
8.190957015e-06
8.190956546e-06
8.190956069e-06
8.190955586e-06
8.190955095e-06
8.190954598e-06
8.190954093e-06
8.190953581e-06
8.190953061e-06
8.190952534e-06
8.190952e-06
8.190951458e-06
8.190950908e-06
8.190950351e-06
8.190949785e-06
8.190949212e-06
8.19094863e-06
8.190948039e-06
8.19094744e-06
8.190946833e-06
8.190946217e-06
8.190945592e-06
8.190944957e-06
8.190944314e-06
8.190943661e-06
8.190942998e-06
8.190942325e-06
8.190941642e-06
8.190940949e-06
8.190940244e-06
8.190939529e-06
8.190938802e-06
8.190938063e-06
8.190937312e-06
8.190936549e-06
8.190935772e-06
8.190934982e-06
8.190934178e-06
8.190933359e-06
8.190932525e-06
8.190931676e-06
8.19093081e-06
8.190929927e-06
8.190929026e-06
8.190928106e-06
8.190927167e-06
8.190926206e-06
8.190925224e-06
8.190924219e-06
8.19092319e-06
8.190922136e-06
8.190921056e-06
8.190919947e-06
8.190918809e-06
8.190917639e-06
8.190916436e-06
8.190915198e-06
8.190913923e-06
8.190912608e-06
8.190911251e-06
8.190909849e-06
8.190908398e-06
8.190906897e-06
8.190905341e-06
8.190903728e-06
8.190902054e-06
8.190900317e-06
8.190898511e-06
8.190896632e-06
8.190894676e-06
8.190892636e-06
8.190890508e-06
8.190888285e-06
8.190885965e-06
8.190883543e-06
8.190881013e-06
8.190878371e-06
8.190875613e-06
8.190872733e-06
8.190869723e-06
8.190866583e-06
8.190863314e-06
8.190859912e-06
8.190856368e-06
8.190852685e-06
8.190848886e-06
8.190844958e-06
8.190840894e-06
8.190836683e-06
8.190832321e-06
8.190827819e-06
8.190823185e-06
8.190818428e-06
8.190813556e-06
8.190808578e-06
8.190803504e-06
8.190798345e-06
8.190793113e-06
8.190787821e-06
8.190782482e-06
8.190777103e-06
8.190771689e-06
8.19076626e-06
8.190760879e-06
8.190755512e-06
8.190750182e-06
8.190744913e-06
8.190739721e-06
8.190734622e-06
8.190729633e-06
8.190724769e-06
8.190720048e-06
8.190715485e-06
8.190711093e-06
8.190706887e-06
8.190702874e-06
8.190699056e-06
8.190695435e-06
8.190692029e-06
8.190688851e-06
8.190685907e-06
8.190683202e-06
8.190680746e-06
8.190678545e-06
8.190676586e-06
8.190674864e-06
8.190673376e-06
8.190672122e-06
8.190671096e-06
8.190670294e-06
8.190669709e-06
8.190669333e-06
8.190669155e-06
8.190669164e-06
8.190669352e-06
8.19066971e-06
8.19067023e-06
8.190670901e-06
8.190671709e-06
8.190672644e-06
8.190673691e-06
8.190674842e-06
8.190676083e-06
8.190677402e-06
8.190678787e-06
8.190680225e-06
8.190681709e-06
8.190683228e-06
8.190684774e-06
8.190686337e-06
8.190687909e-06
8.190689482e-06
8.19069105e-06
8.190692607e-06
8.190694147e-06
8.190695666e-06
8.190697159e-06
8.190698622e-06
8.190700052e-06
8.190701446e-06
8.1907028e-06
8.190704113e-06
8.190705381e-06
8.190706605e-06
8.190707786e-06
8.190708916e-06
8.190709993e-06
8.19071102e-06
8.190712e-06
8.190712928e-06
8.190713802e-06
8.190714621e-06
8.190715388e-06
8.190716103e-06
8.190716767e-06
8.190717382e-06
8.190717947e-06
8.190718464e-06
8.190718933e-06
8.190719355e-06
8.190719732e-06
8.190720063e-06
8.19072035e-06
8.190720595e-06
8.190720798e-06
8.190720959e-06
8.190721082e-06
8.190721166e-06
8.190721212e-06
8.190721222e-06
8.190721197e-06
8.190721138e-06
8.190721046e-06
8.190720921e-06
8.190720766e-06
8.19072058e-06
8.190720365e-06
8.190720121e-06
8.190719851e-06
8.190719555e-06
8.190719233e-06
8.190718887e-06
8.190718517e-06
8.190718125e-06
8.19071771e-06
8.190717274e-06
8.190716817e-06
8.190716341e-06
8.190715847e-06
8.190715334e-06
8.190714805e-06
8.190714259e-06
8.190713697e-06
8.19071312e-06
8.190712528e-06
8.190711923e-06
8.190711304e-06
8.190710672e-06
8.190710028e-06
8.190709373e-06
8.190708707e-06
8.190708031e-06
8.190707344e-06
8.190706649e-06
8.190705944e-06
8.190705231e-06
8.19070451e-06
8.190703782e-06
8.190703046e-06
8.190702304e-06
8.190701556e-06
8.190700802e-06
8.190700043e-06
8.190699279e-06
8.19069851e-06
8.190697737e-06
8.19069696e-06
8.190696179e-06
8.190695395e-06
8.190694608e-06
8.190693818e-06
8.190693026e-06
8.190692232e-06
8.190691436e-06
8.190690639e-06
8.19068984e-06
8.19068904e-06
8.19068824e-06
8.19068744e-06
8.190686639e-06
8.190685838e-06
8.190685038e-06
8.190684238e-06
8.190683439e-06
8.19068264e-06
8.190681843e-06
8.190681047e-06
8.190680253e-06
8.19067946e-06
8.19067867e-06
8.190677881e-06
8.190677095e-06
8.190676311e-06
8.190675529e-06
8.190674751e-06
8.190673975e-06
8.190673202e-06
8.190672433e-06
8.190671667e-06
8.190670904e-06
8.190670145e-06
8.19066939e-06
8.190668638e-06
8.190667891e-06
8.190667147e-06
8.190666408e-06
8.190665672e-06
8.190664941e-06
8.190664215e-06
8.190663492e-06
8.190662775e-06
8.190662062e-06
8.190661353e-06
8.190660649e-06
8.190659951e-06
8.190659256e-06
8.190658567e-06
8.190657883e-06
8.190657204e-06
8.190656529e-06
8.19065586e-06
8.190655196e-06
8.190654537e-06
8.190653883e-06
8.190653234e-06
8.19065259e-06
8.190651952e-06
8.190651318e-06
8.19065069e-06
8.190650067e-06
8.190649449e-06
8.190648837e-06
8.19064823e-06
8.190647628e-06
8.190647031e-06
8.190646439e-06
8.190645853e-06
8.190645272e-06
8.190644696e-06
8.190644125e-06
8.190643559e-06
8.190642998e-06
8.190642443e-06
8.190641893e-06
8.190641347e-06
8.190640807e-06
8.190640272e-06
8.190639741e-06
8.190639216e-06
8.190638696e-06
8.19063818e-06
8.19063767e-06
8.190637164e-06
8.190636663e-06
8.190636167e-06
8.190635676e-06
8.190635189e-06
8.190634707e-06
8.19063423e-06
8.190633757e-06
8.190633289e-06
8.190632826e-06
8.190632368e-06
8.190631914e-06
8.190631464e-06
8.190631019e-06
8.190630579e-06
8.190630143e-06
8.190629712e-06
8.190629285e-06
8.190628863e-06
8.190628445e-06
8.190628032e-06
8.190627623e-06
8.190627218e-06
8.190626818e-06
8.190626423e-06
8.190626032e-06
8.190625645e-06
8.190625263e-06
8.190624885e-06
8.190624512e-06
8.190624143e-06
8.190623778e-06
8.190623417e-06
8.190623061e-06
8.190622709e-06
8.190622361e-06
8.190622017e-06
8.190621678e-06
8.190621342e-06
8.190621011e-06
8.190620683e-06
8.190620359e-06
8.19062004e-06
8.190619724e-06
8.190619411e-06
8.190619103e-06
8.190618798e-06
8.190618497e-06
8.190618199e-06
8.190617904e-06
8.190617613e-06
8.190617325e-06
8.190617041e-06
8.190616759e-06
8.19061648e-06
8.190616205e-06
8.190615932e-06
8.190615662e-06
8.190615395e-06
8.190615131e-06
8.190614869e-06
8.19061461e-06
8.190614353e-06
8.190614099e-06
8.190613847e-06
8.190613598e-06
8.19061335e-06
8.190613106e-06
8.190612863e-06
8.190612622e-06
8.190612383e-06
8.190612147e-06
8.190611914e-06
8.190611681e-06
8.190611444e-06
8.1906112e-06
8.190610973e-06
8.190974167e-06
8.190974243e-06
8.190974276e-06
8.190974289e-06
8.190974303e-06
8.19097432e-06
8.19097434e-06
8.190974361e-06
8.190974382e-06
8.190974405e-06
8.190974429e-06
8.190974453e-06
8.190974477e-06
8.1909745e-06
8.19097452e-06
8.190974536e-06
8.190974549e-06
8.190974558e-06
8.190974564e-06
8.190974566e-06
8.190974566e-06
8.190974561e-06
8.190974553e-06
8.190974541e-06
8.190974525e-06
8.190974505e-06
8.190974481e-06
8.190974453e-06
8.19097442e-06
8.190974384e-06
8.190974342e-06
8.190974296e-06
8.190974244e-06
8.190974186e-06
8.190974124e-06
8.190974057e-06
8.190973985e-06
8.190973908e-06
8.190973826e-06
8.190973738e-06
8.190973645e-06
8.190973547e-06
8.190973443e-06
8.190973335e-06
8.190973222e-06
8.190973105e-06
8.190972982e-06
8.190972853e-06
8.190972717e-06
8.190972576e-06
8.19097243e-06
8.190972277e-06
8.190972119e-06
8.190971956e-06
8.190971786e-06
8.190971612e-06
8.190971431e-06
8.190971244e-06
8.190971052e-06
8.190970854e-06
8.19097065e-06
8.19097044e-06
8.190970224e-06
8.190970002e-06
8.190969775e-06
8.190969541e-06
8.190969301e-06
8.190969056e-06
8.190968804e-06
8.190968546e-06
8.190968283e-06
8.190968013e-06
8.190967737e-06
8.190967455e-06
8.190967165e-06
8.190966869e-06
8.190966569e-06
8.190966263e-06
8.19096595e-06
8.190965631e-06
8.190965305e-06
8.190964972e-06
8.190964634e-06
8.190964288e-06
8.190963937e-06
8.190963579e-06
8.190963215e-06
8.190962845e-06
8.190962468e-06
8.190962085e-06
8.190961695e-06
8.190961298e-06
8.190960896e-06
8.190960486e-06
8.19096007e-06
8.190959648e-06
8.190959218e-06
8.190958782e-06
8.19095834e-06
8.19095789e-06
8.190957434e-06
8.190956971e-06
8.190956501e-06
8.190956023e-06
8.190955539e-06
8.190955048e-06
8.19095455e-06
8.190954044e-06
8.190953531e-06
8.19095301e-06
8.190952482e-06
8.190951947e-06
8.190951404e-06
8.190950853e-06
8.190950294e-06
8.190949727e-06
8.190949152e-06
8.190948569e-06
8.190947977e-06
8.190947377e-06
8.190946768e-06
8.19094615e-06
8.190945524e-06
8.190944888e-06
8.190944242e-06
8.190943588e-06
8.190942923e-06
8.190942248e-06
8.190941563e-06
8.190940868e-06
8.190940161e-06
8.190939443e-06
8.190938714e-06
8.190937973e-06
8.190937219e-06
8.190936453e-06
8.190935674e-06
8.190934881e-06
8.190934073e-06
8.190933252e-06
8.190932414e-06
8.190931561e-06
8.190930692e-06
8.190929806e-06
8.190928901e-06
8.190927979e-06
8.190927037e-06
8.190926076e-06
8.190925095e-06
8.190924092e-06
8.190923066e-06
8.190922016e-06
8.19092094e-06
8.190919838e-06
8.190918706e-06
8.190917543e-06
8.190916349e-06
8.190915123e-06
8.190913861e-06
8.190912561e-06
8.19091122e-06
8.190909837e-06
8.190908407e-06
8.190906929e-06
8.190905398e-06
8.190903811e-06
8.190902165e-06
8.190900459e-06
8.190898688e-06
8.190896848e-06
8.190894933e-06
8.190892937e-06
8.190890853e-06
8.190888674e-06
8.190886397e-06
8.19088402e-06
8.190881538e-06
8.190878944e-06
8.190876236e-06
8.190873405e-06
8.190870445e-06
8.190867353e-06
8.190864133e-06
8.190860783e-06
8.190857289e-06
8.190853645e-06
8.190849829e-06
8.190845858e-06
8.190841747e-06
8.190837494e-06
8.190833099e-06
8.190828565e-06
8.190823899e-06
8.190819107e-06
8.190814198e-06
8.190809181e-06
8.190804064e-06
8.190798858e-06
8.190793577e-06
8.190788233e-06
8.19078284e-06
8.190777412e-06
8.190771963e-06
8.190766506e-06
8.190761033e-06
8.190755602e-06
8.190750222e-06
8.190744905e-06
8.190739664e-06
8.19073452e-06
8.190729489e-06
8.190724588e-06
8.190719834e-06
8.190715241e-06
8.190710826e-06
8.190706602e-06
8.190702586e-06
8.190698793e-06
8.190695228e-06
8.190691888e-06
8.190688777e-06
8.190685901e-06
8.190683266e-06
8.190680879e-06
8.190678744e-06
8.190676849e-06
8.190675187e-06
8.190673755e-06
8.19067255e-06
8.19067157e-06
8.190670808e-06
8.190670257e-06
8.190669909e-06
8.190669756e-06
8.190669785e-06
8.190669988e-06
8.190670357e-06
8.190670878e-06
8.190671542e-06
8.19067234e-06
8.190673261e-06
8.190674294e-06
8.190675427e-06
8.190676648e-06
8.190677946e-06
8.19067931e-06
8.190680728e-06
8.190682191e-06
8.190683691e-06
8.19068522e-06
8.190686769e-06
8.190688328e-06
8.19068989e-06
8.190691447e-06
8.190692994e-06
8.190694524e-06
8.190696032e-06
8.190697514e-06
8.190698967e-06
8.190700386e-06
8.190701768e-06
8.190703111e-06
8.190704411e-06
8.190705668e-06
8.190706879e-06
8.190708044e-06
8.190709164e-06
8.190710232e-06
8.190711247e-06
8.190712213e-06
8.190713126e-06
8.190713989e-06
8.190714803e-06
8.190715564e-06
8.19071627e-06
8.190716924e-06
8.190717527e-06
8.190718081e-06
8.190718586e-06
8.190719045e-06
8.190719457e-06
8.190719824e-06
8.190720146e-06
8.190720424e-06
8.19072066e-06
8.190720855e-06
8.190721009e-06
8.190721124e-06
8.190721201e-06
8.19072124e-06
8.190721244e-06
8.190721213e-06
8.190721148e-06
8.19072105e-06
8.19072092e-06
8.19072076e-06
8.190720569e-06
8.19072035e-06
8.190720104e-06
8.190719831e-06
8.190719531e-06
8.190719207e-06
8.190718859e-06
8.190718487e-06
8.190718092e-06
8.190717675e-06
8.190717238e-06
8.190716781e-06
8.190716304e-06
8.190715809e-06
8.190715297e-06
8.190714767e-06
8.190714221e-06
8.190713659e-06
8.190713082e-06
8.19071249e-06
8.190711885e-06
8.190711266e-06
8.190710634e-06
8.19070999e-06
8.190709334e-06
8.190708668e-06
8.190707991e-06
8.190707304e-06
8.190706608e-06
8.190705903e-06
8.19070519e-06
8.190704469e-06
8.19070374e-06
8.190703005e-06