/*--------------------------------*- C++ -*----------------------------------*\
| =========                 |                                                 |
| \\      /  F ield         | OpenFOAM: The Open Source CFD Toolbox           |
|  \\    /   O peration     | Version:  2312                                  |
|   \\  /    A nd           | Website:  www.openfoam.com                      |
|    \\/     M anipulation  |                                                 |
\*---------------------------------------------------------------------------*/
FoamFile
{
    version     2.0;
    format      ascii;
    arch        "LSB;label=32;scalar=64";
    class       volVectorField;
    location    "6000";
    object      U;
}
// * * * * * * * * * * * * * * * * * * * * * * * * * * * * * * * * * * * * * //

dimensions      [0 1 -1 0 0 0 0];

internalField   nonuniform List<vector> 
20400
(
(5.275267469e-06 -5.311976308e-06 0)
(6.82337731e-06 -4.141800226e-07 0)
(2.388052045e-06 3.771582266e-06 0)
(-8.207186843e-06 4.912932428e-06 0)
(-2.36453644e-05 4.907769584e-06 0)
(-4.217196115e-05 4.525294074e-06 0)
(-6.260863501e-05 4.038819555e-06 0)
(-8.427402333e-05 3.601843132e-06 0)
(-0.0001067331161 3.296296191e-06 0)
(-0.0001297226541 3.12950756e-06 0)
(-0.0001531288583 3.065456958e-06 0)
(-0.0001769268695 3.053215046e-06 0)
(-0.0002011173937 3.069747181e-06 0)
(-0.0002256938737 3.095351763e-06 0)
(-0.0002506325983 3.129421835e-06 0)
(-0.0002758879135 3.152121762e-06 0)
(-0.0003013970866 3.175665038e-06 0)
(-0.0003270909523 3.147053897e-06 0)
(-0.0003529205185 3.090493972e-06 0)
(-0.0003788584831 3.024433464e-06 0)
(-0.0004048417994 3.022743073e-06 0)
(-0.0004307738293 3.078437593e-06 0)
(-0.0004565915386 3.136645174e-06 0)
(-0.0004822869768 3.19024879e-06 0)
(-0.0005078831859 3.248281193e-06 0)
(-0.0005334173376 3.310256012e-06 0)
(-0.0005589245705 3.373398137e-06 0)
(-0.0005844293051 3.443261453e-06 0)
(-0.000609953538 3.52233115e-06 0)
(-0.0006355030168 3.597604314e-06 0)
(-0.0006610248908 3.653705639e-06 0)
(-0.0006864382007 3.684664676e-06 0)
(-0.0007116773733 3.694395911e-06 0)
(-0.0007367003553 3.693437156e-06 0)
(-0.0007614985991 3.692417707e-06 0)
(-0.0007860878127 3.696152818e-06 0)
(-0.000810489643 3.704871906e-06 0)
(-0.0008347137978 3.713700397e-06 0)
(-0.0008587498764 3.713097937e-06 0)
(-0.0008825792621 3.699187794e-06 0)
(-0.0009062026402 3.682417995e-06 0)
(-0.0009296594442 3.675536453e-06 0)
(-0.0009530213682 3.685989986e-06 0)
(-0.0009763593329 3.717707702e-06 0)
(-0.0009997324893 3.776134772e-06 0)
(-0.00102319321 3.853966234e-06 0)
(-0.001046711628 3.905347006e-06 0)
(-0.001070158324 3.904138486e-06 0)
(-0.00109344255 3.886655024e-06 0)
(-0.001116555508 3.874629236e-06 0)
(-0.001139513488 3.870042547e-06 0)
(-0.001162336294 3.869720211e-06 0)
(-0.001185038569 3.871663024e-06 0)
(-0.001207630237 3.875004702e-06 0)
(-0.001230118437 3.879238691e-06 0)
(-0.001252508577 3.88397704e-06 0)
(-0.001274804784 3.888934733e-06 0)
(-0.001297010234 3.893932163e-06 0)
(-0.001319127467 3.898872329e-06 0)
(-0.00134115864 3.903712836e-06 0)
(-0.001363105722 3.908444512e-06 0)
(-0.001384970553 3.913074265e-06 0)
(-0.001406754799 3.917598616e-06 0)
(-0.001428459925 3.921972568e-06 0)
(-0.001450087421 3.926149116e-06 0)
(-0.001471639186 3.930238538e-06 0)
(-0.00149311729 3.934579657e-06 0)
(-0.001514522546 3.939280559e-06 0)
(-0.001535853563 3.943434382e-06 0)
(-0.001557109808 3.945861174e-06 0)
(-0.001578297173 3.948451257e-06 0)
(-0.001599424457 3.956452364e-06 0)
(-0.001620483645 3.966870257e-06 0)
(-0.001641439227 3.957979776e-06 0)
(-0.001662266359 3.919724559e-06 0)
(-0.001683008008 3.904674946e-06 0)
(-0.001703743608 3.962863235e-06 0)
(-0.001724528756 4.007210302e-06 0)
(-0.001745311166 4.002993006e-06 0)
(-0.001766016414 3.994445065e-06 0)
(-0.001786643574 3.991009087e-06 0)
(-0.00180720561 3.991841939e-06 0)
(-0.00182771519 3.995179329e-06 0)
(-0.001848181777 4.000252476e-06 0)
(-0.001868612917 4.006771455e-06 0)
(-0.001889015381 4.014598226e-06 0)
(-0.001909395578 4.023667483e-06 0)
(-0.001929759661 4.033867829e-06 0)
(-0.001950113577 4.044875694e-06 0)
(-0.001970462895 4.056235346e-06 0)
(-0.001990811734 4.067811992e-06 0)
(-0.002011164241 4.080113679e-06 0)
(-0.002031526008 4.093746195e-06 0)
(-0.002051903288 4.108887747e-06 0)
(-0.002072302979 4.125625275e-06 0)
(-0.002092732523 4.144020503e-06 0)
(-0.002113199599 4.163962834e-06 0)
(-0.002133711969 4.185458279e-06 0)
(-0.002154277456 4.208536522e-06 0)
(-0.002174903766 4.233042468e-06 0)
(-0.002195598259 4.258773458e-06 0)
(-0.002216368112 4.285742477e-06 0)
(-0.002237220896 4.31420134e-06 0)
(-0.002258165135 4.34450994e-06 0)
(-0.002279210435 4.376947073e-06 0)
(-0.002300367132 4.411546611e-06 0)
(-0.002321645808 4.448179187e-06 0)
(-0.002343057253 4.486876331e-06 0)
(-0.002364613121 4.528069196e-06 0)
(-0.002386326951 4.572555699e-06 0)
(-0.002408214826 4.621250369e-06 0)
(-0.002430295054 4.674763227e-06 0)
(-0.002452586822 4.732898644e-06 0)
(-0.002475108652 4.794899835e-06 0)
(-0.002497877892 4.860948103e-06 0)
(-0.002520910548 4.930981293e-06 0)
(-0.00254421909 5.002550668e-06 0)
(-0.002567809803 5.070403498e-06 0)
(-0.002591686803 5.134984261e-06 0)
(-0.002615864492 5.209474836e-06 0)
(-0.002640371362 5.291457386e-06 0)
(-0.002665238383 5.378808448e-06 0)
(-0.002690492092 5.470875346e-06 0)
(-0.002716155991 5.567908289e-06 0)
(-0.002742254747 5.670962252e-06 0)
(-0.002768817211 5.782031183e-06 0)
(-0.002795876726 5.90258808e-06 0)
(-0.002823468429 6.031894004e-06 0)
(-0.002851625926 6.16850751e-06 0)
(-0.002880380898 6.312973208e-06 0)
(-0.002909765059 6.465633194e-06 0)
(-0.002939811242 6.626636203e-06 0)
(-0.002970553527 6.796360434e-06 0)
(-0.003002027406 6.975298875e-06 0)
(-0.003034270091 7.164024172e-06 0)
(-0.003067320767 7.363138442e-06 0)
(-0.003101220553 7.573150943e-06 0)
(-0.003136012205 7.794301934e-06 0)
(-0.003171740152 8.026693344e-06 0)
(-0.003208452172 8.27142525e-06 0)
(-0.003246203588 8.5323108e-06 0)
(-0.003285061872 8.815216678e-06 0)
(-0.00332510666 9.1235782e-06 0)
(-0.00336642372 9.455747924e-06 0)
(-0.003409099359 9.811759614e-06 0)
(-0.003453218856 1.019664573e-05 0)
(-0.00349885752 1.059629418e-05 0)
(-0.003546065061 1.098712783e-05 0)
(-0.003594877718 1.137437261e-05 0)
(-0.003645362554 1.180408066e-05 0)
(-0.003697632908 1.227155498e-05 0)
(-0.003751810015 1.277630858e-05 0)
(-0.003807996416 1.331482504e-05 0)
(-0.00386627109 1.387971846e-05 0)
(-0.003926702368 1.446991272e-05 0)
(-0.003989377774 1.510600748e-05 0)
(-0.004054432259 1.582180234e-05 0)
(-0.00412203722 1.662413185e-05 0)
(-0.004192349046 1.748700812e-05 0)
(-0.004265477306 1.842141314e-05 0)
(-0.004341496975 1.941419288e-05 0)
(-0.004420458658 2.047128126e-05 0)
(-0.004502401153 2.159634422e-05 0)
(-0.004587353434 2.279675407e-05 0)
(-0.004675329628 2.408167528e-05 0)
(-0.004766317218 2.54529904e-05 0)
(-0.004860253977 2.689611131e-05 0)
(-0.00495699267 2.834117412e-05 0)
(-0.005056305185 2.976006917e-05 0)
(-0.005157989014 3.131721654e-05 0)
(-0.005261902945 3.296387251e-05 0)
(-0.005367823833 3.468475959e-05 0)
(-0.005475417189 3.640807507e-05 0)
(-0.005584252889 3.809934653e-05 0)
(-0.005693888635 3.973997712e-05 0)
(-0.005803738239 4.129249626e-05 0)
(-0.005913239094 4.279211974e-05 0)
(-0.00602200914 4.434260406e-05 0)
(-0.006129570291 4.57690171e-05 0)
(-0.006235214708 4.694185621e-05 0)
(-0.006338107656 4.781604473e-05 0)
(-0.006437378667 4.846003482e-05 0)
(-0.006532191574 4.882397944e-05 0)
(-0.006621815329 4.91916742e-05 0)
(-0.006705638227 4.919929024e-05 0)
(-0.006783045194 4.878757738e-05 0)
(-0.006853336937 4.797880907e-05 0)
(-0.00691533538 4.623743031e-05 0)
(-0.006967314187 4.297093318e-05 0)
(-0.007008164531 4.033504561e-05 0)
(-0.00703733986 3.820894709e-05 0)
(-0.007054191962 3.640014762e-05 0)
(-0.007059652112 3.453200001e-05 0)
(-0.007054826268 3.10111847e-05 0)
(-0.007036077095 2.57236974e-05 0)
(-0.007001018482 1.892632644e-05 0)
(-0.006949557777 1.122726738e-05 0)
(-0.006881649992 2.8548666e-06 0)
(-0.00679688894 -6.238879665e-06 0)
(-0.006694627806 -1.628204852e-05 0)
(-0.006574028302 -2.789938871e-05 0)
(-0.00643456092 -4.179380818e-05 0)
(-0.00627718753 -5.556341805e-05 0)
(-0.006104534341 -5.979222705e-05 0)
(-0.005918940752 -8.034459785e-05 0)
(-0.005713075303 -8.747752311e-05 0)
(-0.005489451707 -9.713390798e-05 0)
(-0.005250310501 -0.0001071139629 0)
(-0.004996151235 -0.0001167678688 0)
(-0.004726965855 -0.0001262344697 0)
(-0.004443106436 -0.0001354923933 0)
(-0.004145312846 -0.0001443841287 0)
(-0.00383451572 -0.0001527733256 0)
(-0.003511734203 -0.0001605761811 0)
(-0.003178025548 -0.0001677586749 0)
(-0.002834419442 -0.0001745076758 0)
(-0.002482067253 -0.000181299789 0)
(-0.002122985991 -0.0001859407599 0)
(-0.001760802846 -0.0001904438021 0)
(-0.001397095365 -0.0001962383685 0)
(-0.001031840159 -0.0002019846832 0)
(-0.0006652890896 -0.0002070121079 0)
(-0.0002990902009 -0.0002105018831 0)
(6.599326233e-05 -0.0002051892302 0)
(0.0004306913656 -0.000183938272 0)
(0.0007958399847 -0.0001637841802 0)
(0.001159793411 -0.000144963153 0)
(0.001520920061 -0.0001273082184 0)
(0.001877731224 -0.0001108473711 0)
(0.002228786603 -9.563042723e-05 0)
(0.00257282362 -8.169437597e-05 0)
(0.002908859615 -6.903896546e-05 0)
(0.003236245929 -5.761812125e-05 0)
(0.00355439747 -4.796152289e-05 0)
(0.003862124813 -4.508384744e-05 0)
(0.004157865242 -4.469008276e-05 0)
(0.004441046318 -4.450368179e-05 0)
(0.004711721848 -4.683401862e-05 0)
(0.004969574261 -4.865549668e-05 0)
(0.005214139217 -4.90720613e-05 0)
(0.00544485433 -4.833837073e-05 0)
(0.005661402488 -4.661781141e-05 0)
(0.00586405314 -4.422811924e-05 0)
(0.006053391414 -4.137829275e-05 0)
(0.00622980196 -3.812096043e-05 0)
(0.006393415852 -3.46141237e-05 0)
(0.006544273925 -3.099088426e-05 0)
(0.006682449948 -2.731603462e-05 0)
(0.006808138551 -2.366037669e-05 0)
(0.00692169457 -2.016133329e-05 0)
(0.007023543803 -1.683152411e-05 0)
(0.007114127369 -1.367629403e-05 0)
(0.007193891037 -1.0703843e-05 0)
(0.007263283582 -7.91463188e-06 0)
(0.007322750141 -5.305686347e-06 0)
(0.00737273169 -2.872106427e-06 0)
(0.007413677692 -5.968198475e-07 0)
(0.007446044125 1.559357083e-06 0)
(0.007470210963 3.628423835e-06 0)
(0.007486344814 5.525018698e-06 0)
(0.007494602334 6.964239595e-06 0)
(0.00749639082 7.692984503e-06 0)
(0.00749326226 8.258164009e-06 0)
(0.007484575429 9.058103571e-06 0)
(0.00746982917 1.02527504e-05 0)
(0.007449289924 1.158912818e-05 0)
(0.007423620969 1.276015155e-05 0)
(0.007393317764 1.367239249e-05 0)
(0.007358747451 1.423538292e-05 0)
(0.00732023349 1.463618078e-05 0)
(0.00727801672 1.500418182e-05 0)
(0.007232323293 1.525167773e-05 0)
(0.007183428654 1.538835503e-05 0)
(0.00713163239 1.546077699e-05 0)
(0.007077217869 1.548634872e-05 0)
(0.007020442253 1.546908808e-05 0)
(0.006961542095 1.541200933e-05 0)
(0.00690073721 1.53162441e-05 0)
(0.006838231849 1.518219193e-05 0)
(0.006774215824 1.501214101e-05 0)
(0.006708865607 1.481046168e-05 0)
(0.006642344996 1.458208394e-05 0)
(0.006574805711 1.433132052e-05 0)
(0.006506388268 1.406166583e-05 0)
(0.006437222951 1.377604795e-05 0)
(0.006367430574 1.347711049e-05 0)
(0.006297123066 1.316729112e-05 0)
(0.006226404022 1.284882645e-05 0)
(0.006155369047 1.25225234e-05 0)
(0.006084102983 1.219164933e-05 0)
(0.006012680119 1.191828202e-05 0)
(0.005941179435 1.18073771e-05 0)
(0.005869691798 1.173172393e-05 0)
(0.005798303656 1.166776536e-05 0)
(0.005727068638 1.160633381e-05 0)
(0.005656038042 1.153752923e-05 0)
(0.005585242456 1.157963003e-05 0)
(0.005514714534 1.166440721e-05 0)
(0.00544449694 1.173246799e-05 0)
(0.005374632554 1.17886259e-05 0)
(0.005305156483 1.184132239e-05 0)
(0.005236100115 1.188855008e-05 0)
(0.005167498865 1.192513095e-05 0)
(0.005099398227 1.194886131e-05 0)
(0.005031833654 1.193767416e-05 0)
(0.004964791627 1.190954322e-05 0)
(0.004898253197 1.18482113e-05 0)
(0.004832225999 1.175872843e-05 0)
(0.004766731999 1.165681293e-05 0)
(0.004701791955 1.154977389e-05 0)
(0.004637423197 1.143733439e-05 0)
(0.004573641133 1.131934539e-05 0)
(0.00451045918 1.119710633e-05 0)
(0.004447890326 1.107176765e-05 0)
(0.004385950546 1.09446173e-05 0)
(0.004324657324 1.081006421e-05 0)
(0.004264014951 1.067857943e-05 0)
(0.004204008992 1.056302307e-05 0)
(0.004144621727 1.045688661e-05 0)
(0.004085845338 1.035262709e-05 0)
(0.004027682032 1.024694581e-05 0)
(0.003970138666 1.013903617e-05 0)
(0.003913222771 1.002884541e-05 0)
(0.003856940997 9.916558931e-06 0)
(0.003801298741 9.802422594e-06 0)
(0.003746300136 9.686736042e-06 0)
(0.003691948463 9.569821805e-06 0)
(0.003638247266 9.452007528e-06 0)
(0.003585201092 9.333623451e-06 0)
(0.003532812916 9.212196581e-06 0)
(0.003481076813 9.097736486e-06 0)
(0.003429980603 8.99090776e-06 0)
(0.003379514328 8.88740712e-06 0)
(0.003329673519 8.78443942e-06 0)
(0.003280457531 8.68110956e-06 0)
(0.003231867298 8.577053245e-06 0)
(0.003183904126 8.472067748e-06 0)
(0.003136569204 8.366202033e-06 0)
(0.00308986354 8.259518092e-06 0)
(0.003043788011 8.151967547e-06 0)
(0.002998343188 8.043570544e-06 0)
(0.002953529126 7.934672601e-06 0)
(0.002909345924 7.825240709e-06 0)
(0.002865794766 7.715462185e-06 0)
(0.002822877994 7.602817358e-06 0)
(0.002780595519 7.489943423e-06 0)
(0.00273894293 7.379094339e-06 0)
(0.002697914093 7.269733431e-06 0)
(0.002657504136 7.16069111e-06 0)
(0.002617710024 7.051476153e-06 0)
(0.002578529789 6.942030323e-06 0)
(0.002539961918 6.832307067e-06 0)
(0.002502005154 6.722202901e-06 0)
(0.002464658438 6.61164344e-06 0)
(0.002427920832 6.50059057e-06 0)
(0.002391791459 6.38903931e-06 0)
(0.002356269384 6.276963515e-06 0)
(0.002321353403 6.164491368e-06 0)
(0.002287041932 6.051720739e-06 0)
(0.002253333254 5.938849757e-06 0)
(0.002220226036 5.825471035e-06 0)
(0.002187719134 5.711041674e-06 0)
(0.00215581032 5.596394319e-06 0)
(0.002124495675 5.482362102e-06 0)
(0.002093770482 5.368986874e-06 0)
(0.002063630254 5.256018373e-06 0)
(0.00203407099 5.143353214e-06 0)
(0.002005088965 5.031017655e-06 0)
(0.001976680537 4.919042803e-06 0)
(0.001948842102 4.80742254e-06 0)
(0.001921570113 4.696139476e-06 0)
(0.001894861071 4.585184477e-06 0)
(0.001868711515 4.474553853e-06 0)
(0.001843118005 4.36425123e-06 0)
(0.001818077081 4.254261315e-06 0)
(0.001793585151 4.144647294e-06 0)
(0.001769638401 4.035458205e-06 0)
(0.001746232875 3.926837168e-06 0)
(0.00172336475 3.818615142e-06 0)
(0.001701030398 3.710507137e-06 0)
(0.001679225889 3.602773945e-06 0)
(0.00165794656 3.495859092e-06 0)
(0.00163718718 3.389919407e-06 0)
(0.001616942415 3.28489644e-06 0)
(0.001597207055 3.180732585e-06 0)
(0.001577975992 3.077434054e-06 0)
(0.001559244139 2.975024172e-06 0)
(0.001541006415 2.873513797e-06 0)
(0.00152325775 2.772904714e-06 0)
(0.001505993097 2.673198174e-06 0)
(0.001489207423 2.574402171e-06 0)
(0.001472895697 2.476530315e-06 0)
(0.001457052879 2.379599852e-06 0)
(0.001441673924 2.28362958e-06 0)
(0.001426753768 2.18863242e-06 0)
(0.001412287285 2.094649285e-06 0)
(0.001398269231 2.001729399e-06 0)
(0.001384694262 1.909970356e-06 0)
(0.001371557055 1.819345422e-06 0)
(0.001358852403 1.729737249e-06 0)
(0.001346575069 1.641216055e-06 0)
(0.001334719554 1.553980889e-06 0)
(0.001323280089 1.468148667e-06 0)
(0.001312250809 1.38372072e-06 0)
(0.001301625908 1.300670354e-06 0)
(0.001291399671 1.218989497e-06 0)
(0.001281566453 1.13868211e-06 0)
(0.001272120668 1.059745747e-06 0)
(0.001263056803 9.821706172e-07 0)
(0.001254369429 9.059391254e-07 0)
(0.001246053213 8.310299548e-07 0)
(0.001238102923 7.574192522e-07 0)
(0.001230513434 6.850793575e-07 0)
(0.001223279725 6.139816993e-07 0)
(0.001216396883 5.440952339e-07 0)
(0.001209860092 4.753912986e-07 0)
(0.001203664631 4.0784321e-07 0)
(0.001197805865 3.414244679e-07 0)
(0.001192279238 2.761103221e-07 0)
(0.001187080253 2.118815025e-07 0)
(0.001182204449 1.487252761e-07 0)
(0.001177647376 8.664666875e-08 0)
(0.001173404614 2.564224399e-08 0)
(0.00116947181 -3.434448811e-08 0)
(0.001165844678 -9.33446696e-08 0)
(0.001162518895 -1.513187533e-07 0)
(0.001159490017 -2.08206684e-07 0)
(0.001156753471 -2.639805743e-07 0)
(0.001154304621 -3.18642878e-07 0)
(0.001152138884 -3.722171861e-07 0)
(0.001150251854 -4.24792011e-07 0)
(0.001148639311 -4.767161239e-07 0)
(0.001147297165 -5.289299526e-07 0)
(0.001146221991 -5.827785749e-07 0)
(0.001145413146 -6.378853295e-07 0)
(0.00114487397 -6.886909343e-07 0)
(0.001144600097 -7.273791564e-07 0)
(0.001144540369 -7.549693619e-07 0)
(0.001144667342 -7.829231754e-07 0)
(0.001145024081 -8.222276584e-07 0)
(0.001145624655 -8.678126046e-07 0)
(0.001146455058 -9.102154937e-07 0)
(0.001147503349 -9.453168396e-07 0)
(0.001148762617 -9.748026406e-07 0)
(0.001150229058 -1.006314145e-06 0)
(0.001151899553 -1.045121522e-06 0)
(0.001153768177 -1.089252511e-06 0)
(0.001155821231 -1.121158127e-06 0)
(0.001158043048 -1.141224005e-06 0)
(0.001160421943 -1.15366677e-06 0)
(0.001162950643 -1.164979958e-06 0)
(0.001165626731 -1.179308472e-06 0)
(0.00116845186 -1.197920247e-06 0)
(0.001171429296 -1.220143695e-06 0)
(0.001174560845 -1.246308182e-06 0)
(0.001177839876 -1.264417478e-06 0)
(0.001181250891 -1.277116795e-06 0)
(0.001184776776 -1.283090328e-06 0)
(0.001188403525 -1.284157651e-06 0)
(0.001192122906 -1.28408072e-06 0)
(0.001195932849 -1.285489053e-06 0)
(0.001199834965 -1.288520598e-06 0)
(0.001203831413 -1.29373651e-06 0)
(0.001207921804 -1.297519646e-06 0)
(0.001212101919 -1.30004179e-06 0)
(0.0012163641 -1.300075179e-06 0)
(0.001220697864 -1.296288818e-06 0)
(0.001225092159 -1.289429022e-06 0)
(0.001229538839 -1.281509792e-06 0)
(0.001234034365 -1.273940575e-06 0)
(0.001238578407 -1.266918791e-06 0)
(0.001243171405 -1.260646242e-06 0)
(0.001247812923 -1.254305867e-06 0)
(0.001252501142 -1.247835746e-06 0)
(0.001257233061 -1.241262832e-06 0)
(0.001262004328 -1.233722045e-06 0)
(0.001266808993 -1.224661046e-06 0)
(0.001271640405 -1.214335611e-06 0)
(0.001276492735 -1.20331363e-06 0)
(0.001281361785 -1.192071464e-06 0)
(0.001286244777 -1.180916842e-06 0)
(0.001291139736 -1.170037262e-06 0)
(0.001296045016 -1.159623503e-06 0)
(0.001300958979 -1.149731871e-06 0)
(0.001305879645 -1.140273974e-06 0)
(0.001310805145 -1.130831061e-06 0)
(0.001315731545 -1.120296433e-06 0)
(0.00132065198 -1.108137621e-06 0)
(0.001325558343 -1.095142754e-06 0)
(0.001330441226 -1.081913731e-06 0)
(0.001335294074 -1.067941317e-06 0)
(0.001340119394 -1.052942446e-06 0)
(0.001344923736 -1.038836304e-06 0)
(0.001349688098 -1.027800127e-06 0)
(0.001354339575 -1.013215865e-06 0)
(0.001358806757 -9.794987132e-07 0)
(0.001363160327 -9.259497071e-07 0)
(0.00136810218 -9.622676658e-07 0)
(0.001375526941 -1.522638134e-06 0)
(0.001382412729 -2.865192163e-06 0)
(1.50986777e-06 -7.445288363e-06 0)
(-2.954812821e-06 4.188966878e-06 0)
(-2.254809569e-05 1.539566605e-05 0)
(-5.619088943e-05 2.495060998e-05 0)
(-0.0001012068218 3.274527698e-05 0)
(-0.0001546870722 3.85498986e-05 0)
(-0.0002142169336 4.240115555e-05 0)
(-0.0002779449428 4.475252715e-05 0)
(-0.0003444975788 4.618268044e-05 0)
(-0.0004129346377 4.715363408e-05 0)
(-0.0004826919856 4.795202395e-05 0)
(-0.00055346216 4.867851596e-05 0)
(-0.0006250702321 4.939999017e-05 0)
(-0.0006973943215 5.008054401e-05 0)
(-0.0007703254349 5.071255086e-05 0)
(-0.0008437383961 5.117413985e-05 0)
(-0.0009175058173 5.149595199e-05 0)
(-0.0009915175625 5.161637232e-05 0)
(-0.001065540749 5.188537655e-05 0)
(-0.001139367447 5.197611549e-05 0)
(-0.001212882955 5.196260774e-05 0)
(-0.001285962003 5.177464334e-05 0)
(-0.001358552308 5.149341174e-05 0)
(-0.001430679743 5.123514819e-05 0)
(-0.001502416175 5.105065032e-05 0)
(-0.001573845734 5.093705944e-05 0)
(-0.001645042836 5.087155335e-05 0)
(-0.001716064484 5.085122775e-05 0)
(-0.001786934029 5.085598806e-05 0)
(-0.001857612109 5.081148483e-05 0)
(-0.001927991017 5.064818731e-05 0)
(-0.001997930425 5.034867534e-05 0)
(-0.002067306855 4.994365127e-05 0)
(-0.002136049093 4.949257832e-05 0)
(-0.002204145559 4.905148445e-05 0)
(-0.002271623104 4.864405561e-05 0)
(-0.002338515062 4.826814232e-05 0)
(-0.002404835712 4.790153767e-05 0)
(-0.002470574303 4.751258807e-05 0)
(-0.00253572067 4.710160753e-05 0)
(-0.002600310072 4.67289721e-05 0)
(-0.002664446537 4.646052121e-05 0)
(-0.0027282843 4.632830915e-05 0)
(-0.002791982695 4.632236156e-05 0)
(-0.0028556532 4.641271193e-05 0)
(-0.002919307125 4.65310777e-05 0)
(-0.002982827612 4.649708997e-05 0)
(-0.003046029998 4.622990558e-05 0)
(-0.003108790202 4.588956832e-05 0)
(-0.003171086923 4.556820243e-05 0)
(-0.00323294685 4.528165431e-05 0)
(-0.003294403477 4.502289525e-05 0)
(-0.003355484237 4.478466872e-05 0)
(-0.003416210384 4.456223363e-05 0)
(-0.003476598813 4.43521139e-05 0)
(-0.003536663124 4.415151002e-05 0)
(-0.003596414286 4.3958258e-05 0)
(-0.003655861261 4.3770832e-05 0)
(-0.00371501162 4.358824982e-05 0)
(-0.003773872069 4.340991665e-05 0)
(-0.003832448805 4.323549205e-05 0)
(-0.003890747678 4.306477506e-05 0)
(-0.003948774215 4.289757097e-05 0)
(-0.004006533654 4.273360436e-05 0)
(-0.004064031193 4.257260208e-05 0)
(-0.004121272261 4.241460968e-05 0)
(-0.004178262019 4.226001418e-05 0)
(-0.004235003744 4.21083498e-05 0)
(-0.00429149804 4.195663385e-05 0)
(-0.004347746073 4.180158893e-05 0)
(-0.004403754484 4.164774164e-05 0)
(-0.004459530176 4.150685538e-05 0)
(-0.004515059844 4.136724369e-05 0)
(-0.004570303833 4.11696091e-05 0)
(-0.004625248421 4.089941704e-05 0)
(-0.004679980262 4.073749216e-05 0)
(-0.004734644012 4.084912449e-05 0)
(-0.004789276482 4.089963345e-05 0)
(-0.004843776976 4.076040344e-05 0)
(-0.004898067377 4.060020946e-05 0)
(-0.004952147252 4.045821261e-05 0)
(-0.00500603983 4.033744288e-05 0)
(-0.005059768812 4.023419855e-05 0)
(-0.005113354321 4.014594341e-05 0)
(-0.005166814231 4.00713167e-05 0)
(-0.005220165341 4.000952689e-05 0)
(-0.005273423836 3.996011854e-05 0)
(-0.005326605492 3.992266393e-05 0)
(-0.005379725902 3.989641719e-05 0)
(-0.005432800787 3.988032408e-05 0)
(-0.00548584614 3.987364429e-05 0)
(-0.005538877402 3.98765006e-05 0)
(-0.005591906281 3.988981243e-05 0)
(-0.005644944911 3.991519719e-05 0)
(-0.005698010184 3.995449257e-05 0)
(-0.005751121148 4.000852138e-05 0)
(-0.005804297464 4.007726165e-05 0)
(-0.005857559254 4.016122062e-05 0)
(-0.005910926894 4.026075231e-05 0)
(-0.005964420672 4.037521883e-05 0)
(-0.00601806056 4.050376776e-05 0)
(-0.006071866485 4.064658243e-05 0)
(-0.006125859191 4.080506148e-05 0)
(-0.00618006116 4.09812359e-05 0)
(-0.006234497024 4.117694214e-05 0)
(-0.006289193226 4.139310233e-05 0)
(-0.006344177361 4.162997328e-05 0)
(-0.006399478006 4.188845577e-05 0)
(-0.006455125601 4.217114245e-05 0)
(-0.006511154014 4.248219596e-05 0)
(-0.006567601721 4.282620673e-05 0)
(-0.006624511547 4.32063982e-05 0)
(-0.006681928604 4.362262459e-05 0)
(-0.006739897279 4.407174465e-05 0)
(-0.006798459689 4.455294655e-05 0)
(-0.00685765591 4.506434797e-05 0)
(-0.006917521889 4.559749404e-05 0)
(-0.00697808454 4.61358936e-05 0)
(-0.00703936367 4.668106656e-05 0)
(-0.007101392369 4.728332064e-05 0)
(-0.007164231518 4.793937571e-05 0)
(-0.00722795084 4.864592263e-05 0)
(-0.007292615235 4.940031906e-05 0)
(-0.007358284171 5.020233513e-05 0)
(-0.007425017472 5.105574999e-05 0)
(-0.007492880877 5.196866655e-05 0)
(-0.007561948187 5.294782094e-05 0)
(-0.007632297996 5.399194116e-05 0)
(-0.007704007404 5.509601864e-05 0)
(-0.007777149687 5.626139862e-05 0)
(-0.007851797325 5.748919575e-05 0)
(-0.007928024186 5.878065793e-05 0)
(-0.008005906265 6.013820622e-05 0)
(-0.008085522311 6.156488996e-05 0)
(-0.008166954485 6.306429681e-05 0)
(-0.00825028886 6.46403807e-05 0)
(-0.008335615534 6.629710438e-05 0)
(-0.00842302842 6.803816735e-05 0)
(-0.008512625286 6.986790066e-05 0)
(-0.008604509693 7.179520261e-05 0)
(-0.008698796625 7.383899654e-05 0)
(-0.008795620166 7.602573679e-05 0)
(-0.008895135726 7.837393041e-05 0)
(-0.008997510757 8.08830155e-05 0)
(-0.009102911885 8.355271166e-05 0)
(-0.009211502678 8.640211001e-05 0)
(-0.009323437086 8.939957931e-05 0)
(-0.009438825276 9.24909287e-05 0)
(-0.009557731257 9.568919575e-05 0)
(-0.009680250414 9.912989292e-05 0)
(-0.009806568136 0.0001027896145 0)
(-0.009936886124 0.0001066625478 0)
(-0.01007137232 0.0001107217126 0)
(-0.01021014749 0.0001149293873 0)
(-0.01035329799 0.0001192759431 0)
(-0.01050091332 0.0001238285812 0)
(-0.01065313361 0.0001286980463 0)
(-0.01081015067 0.0001338953874 0)
(-0.01097212443 0.0001392957066 0)
(-0.01113910667 0.0001448896443 0)
(-0.01131106493 0.0001505841382 0)
(-0.01148788897 0.0001563577877 0)
(-0.01166941462 0.0001621785091 0)
(-0.01185542456 0.0001680166347 0)
(-0.01204563104 0.0001738328528 0)
(-0.01223966888 0.0001795683465 0)
(-0.01243712572 0.0001851736513 0)
(-0.01263749323 0.0001904613005 0)
(-0.01284008761 0.000195260804 0)
(-0.01304423806 0.0001998694426 0)
(-0.01324913807 0.0002038758207 0)
(-0.01345352682 0.0002071588227 0)
(-0.01365627493 0.0002095096582 0)
(-0.01385628361 0.0002107925682 0)
(-0.01405229896 0.0002109443387 0)
(-0.01424302461 0.0002099022846 0)
(-0.01442718531 0.000207712537 0)
(-0.01460356264 0.0002046000761 0)
(-0.01477081629 0.000200141688 0)
(-0.01492734872 0.0001940399339 0)
(-0.0150714267 0.0001861181206 0)
(-0.01520121618 0.0001764801568 0)
(-0.015314695 0.0001648499592 0)
(-0.0154099623 0.0001521060008 0)
(-0.01548545112 0.000137611071 0)
(-0.01553985125 0.0001218608298 0)
(-0.0155731664 0.0001061298204 0)
(-0.01558684807 8.977397753e-05 0)
(-0.0155769629 6.819373073e-05 0)
(-0.01554029903 4.53664485e-05 0)
(-0.01547502341 1.963691452e-05 0)
(-0.01538030174 -6.72980752e-06 0)
(-0.01525492724 -3.361511826e-05 0)
(-0.01509700653 -6.2280073e-05 0)
(-0.01490540722 -9.298081093e-05 0)
(-0.0146796125 -0.0001248608087 0)
(-0.01441949415 -0.000157029192 0)
(-0.01412500343 -0.0001891824039 0)
(-0.01379612561 -0.0002213193749 0)
(-0.01343301034 -0.0002536098904 0)
(-0.01303591574 -0.0002865059063 0)
(-0.01260465414 -0.0003201287557 0)
(-0.01213769158 -0.0003498105069 0)
(-0.01163394205 -0.0003492363327 0)
(-0.01110465312 -0.000403937968 0)
(-0.0105507343 -0.0004300629968 0)
(-0.009971292063 -0.0004579136613 0)
(-0.009363627704 -0.0004854794075 0)
(-0.00872786665 -0.0005123461396 0)
(-0.0080657946 -0.0005383375758 0)
(-0.007379497175 -0.0005631309518 0)
(-0.00667096514 -0.0005864194386 0)
(-0.005942190265 -0.000607959319 0)
(-0.005195334779 -0.0006275371414 0)
(-0.00443289687 -0.0006449358355 0)
(-0.003657817654 -0.000660059613 0)
(-0.002873062183 -0.0006729815746 0)
(-0.002079712646 -0.0006791069287 0)
(-0.00127611958 -0.0006731089739 0)
(-0.0004622518466 -0.0006671540552 0)
(0.0003595221042 -0.0006601837741 0)
(0.001185731121 -0.0006514060273 0)
(0.002011784045 -0.0006408070837 0)
(0.002835750874 -0.0006363576096 0)
(0.003659084914 -0.0006483734761 0)
(0.00448073314 -0.0006581736009 0)
(0.005297785412 -0.0006636640621 0)
(0.006107291252 -0.0006649298615 0)
(0.006906654518 -0.0006623688765 0)
(0.00769356236 -0.0006563711711 0)
(0.008465968358 -0.0006473424236 0)
(0.009222159112 -0.0006356921123 0)
(0.009960759641 -0.0006216755848 0)
(0.01068048143 -0.00060596449 0)
(0.01137947453 -0.0005818121086 0)
(0.01205632421 -0.0005529929128 0)
(0.01271015656 -0.0005230964538 0)
(0.01333960144 -0.0004945316593 0)
(0.01394334419 -0.0004672571961 0)
(0.01452058177 -0.0004404412733 0)
(0.01507098043 -0.0004140713222 0)
(0.01559453934 -0.0003879625119 0)
(0.01609165116 -0.0003637059542 0)
(0.01656232172 -0.0003413584568 0)
(0.01700627975 -0.0003192868396 0)
(0.01742355354 -0.0002971207798 0)
(0.01781426279 -0.0002749140582 0)
(0.01817857269 -0.0002527477949 0)
(0.01851681488 -0.0002307449922 0)
(0.01882954997 -0.0002092442663 0)
(0.01911733699 -0.0001882781948 0)
(0.01938076147 -0.0001679225615 0)
(0.01962045009 -0.0001482567297 0)
(0.01983705727 -0.0001293185563 0)
(0.02003125305 -0.0001111190777 0)
(0.02020372497 -9.366270338e-05 0)
(0.02035519572 -7.694437828e-05 0)
(0.02048643732 -6.092650934e-05 0)
(0.02059823877 -4.553834758e-05 0)
(0.02069133112 -3.079786474e-05 0)
(0.0207663696 -1.701857231e-05 0)
(0.02082399419 -4.784709029e-06 0)
(0.02086455593 6.554023309e-06 0)
(0.02088874296 1.708738595e-05 0)
(0.02089794077 2.904776833e-05 0)
(0.02089335919 3.920841333e-05 0)
(0.02087823964 4.798509046e-05 0)
(0.02085139744 5.650339102e-05 0)
(0.0208122603 6.468600429e-05 0)
(0.02076140893 7.268663123e-05 0)
(0.02069959994 8.044902258e-05 0)
(0.02062754969 8.755544466e-05 0)
(0.02054597504 9.400097303e-05 0)
(0.0204555281 9.983818938e-05 0)
(0.02035680212 0.0001050903815 0)
(0.02025035861 0.0001098074089 0)
(0.02013674093 0.0001140568525 0)
(0.02001647694 0.0001178928027 0)
(0.01989007727 0.0001213490613 0)
(0.01975803131 0.0001244484587 0)
(0.01962080333 0.0001272112267 0)
(0.01947883036 0.0001296578339 0)
(0.01933252256 0.0001318088257 0)
(0.01918226512 0.0001336841415 0)
(0.01902842041 0.000135302801 0)
(0.01887132959 0.0001366829838 0)
(0.01871131356 0.0001378419637 0)
(0.01854867336 0.0001387969314 0)
(0.01838368989 0.0001395625944 0)
(0.0182166219 0.0001401615961 0)
(0.01804770533 0.0001405761976 0)
(0.0178771695 0.0001406606686 0)
(0.01770525031 0.0001405293002 0)
(0.0175321651 0.0001402436449 0)
(0.01735811171 0.0001398288221 0)
(0.01718327034 0.0001392824695 0)
(0.01700784602 0.0001387063571 0)
(0.016832027 0.000138074627 0)
(0.01665596395 0.0001373648634 0)
(0.01647976355 0.0001365890876 0)
(0.01630354225 0.0001357561683 0)
(0.01612744966 0.0001348632065 0)
(0.01595157788 0.0001339093706 0)
(0.01577601717 0.0001329023987 0)
(0.01560085657 0.0001317903129 0)
(0.01542616795 0.0001308702291 0)
(0.01525204723 0.0001300092733 0)
(0.01507857894 0.0001291171261 0)
(0.01490582967 0.0001281901094 0)
(0.01473385911 0.0001272355718 0)
(0.01456272258 0.0001262507401 0)
(0.01439247372 0.0001252349917 0)
(0.01422316332 0.0001241908044 0)
(0.01405484303 0.0001231183618 0)
(0.013887571 0.0001220218591 0)
(0.01372140753 0.0001208825636 0)
(0.0135563801 0.0001197218519 0)
(0.01339248392 0.0001185736286 0)
(0.01322972134 0.0001174277705 0)
(0.01306811344 0.0001162709962 0)