/*--------------------------------*- C++ -*----------------------------------*\
| =========                 |                                                 |
| \\      /  F ield         | OpenFOAM: The Open Source CFD Toolbox           |
|  \\    /   O peration     | Version:  2312                                  |
|   \\  /    A nd           | Website:  www.openfoam.com                      |
|    \\/     M anipulation  |                                                 |
\*---------------------------------------------------------------------------*/
FoamFile
{
    version     2.0;
    format      ascii;
    arch        "LSB;label=32;scalar=64";
    class       volScalarField;
    location    "0.001";
    object      alphat;
}
// * * * * * * * * * * * * * * * * * * * * * * * * * * * * * * * * * * * * * //

dimensions      [1 -1 -1 0 0 0 0];

internalField   nonuniform List<scalar> 
48128
(
1.50246e-08
3.36541e-08
4.73688e-08
4.28104e-08
3.13919e-08
2.05233e-08
1.87129e-07
9.35385e-07
2.39719e-06
3.95283e-06
5.3547e-06
6.57952e-06
7.64407e-06
8.59239e-06
9.46454e-06
1.02852e-05
1.10843e-05
1.18811e-05
1.26875e-05
1.35109e-05
1.43585e-05
1.52393e-05
1.6164e-05
1.71454e-05
1.81986e-05
1.93383e-05
2.05848e-05
2.19813e-05
2.35125e-05
2.51911e-05
2.70454e-05
2.91027e-05
3.1378e-05
3.39015e-05
3.66956e-05
3.98596e-05
4.3232e-05
4.68563e-05
5.07243e-05
5.48848e-05
5.9423e-05
6.41187e-05
6.91841e-05
7.42721e-05
7.97008e-05
8.51682e-05
9.08085e-05
9.60229e-05
0.000101516
0.000106287
0.00011127
0.000115825
0.000122038
0.000128407
0.000134838
0.000141161
0.000147047
0.000152692
0.000157978
0.000163029
0.000167825
0.000172326
0.000176562
0.000180468
0.000180811
0.000173205
0.000166235
0.00015982
0.000153939
0.000148574
0.000143538
0.000138919
0.000134575
0.000130443
0.000126745
0.000123174
0.000119881
0.000116844
0.000113876
0.000111178
0.000108508
0.000106118
0.000103834
0.00010177
9.98027e-05
9.79279e-05
9.62199e-05
9.45892e-05
9.30486e-05
9.16364e-05
9.03373e-05
8.91434e-05
8.80004e-05
8.68602e-05
8.58184e-05
8.48444e-05
8.39552e-05
8.31374e-05
8.23944e-05
8.17236e-05
8.11085e-05
8.05464e-05
8.00317e-05
7.95604e-05
7.91242e-05
7.87009e-05
7.82901e-05
7.79074e-05
7.75602e-05
7.72328e-05
7.693e-05
7.66442e-05
7.63957e-05
7.61705e-05
7.5949e-05
7.56551e-05
7.53099e-05
7.48506e-05
7.44828e-05
7.44913e-05
7.42683e-05
7.41105e-05
7.41403e-05
7.40909e-05
7.3981e-05
7.3821e-05
7.36014e-05
7.33999e-05
7.32241e-05
7.30918e-05
7.30114e-05
7.29338e-05
7.29062e-05
7.28634e-05
7.28172e-05
7.27575e-05
7.26893e-05
7.26123e-05
7.25342e-05
7.24529e-05
7.23728e-05
7.22942e-05
7.22174e-05
7.21255e-05
7.20343e-05
7.19376e-05
7.18459e-05
7.17511e-05
7.16539e-05
7.15546e-05
7.14419e-05
7.13202e-05
7.12068e-05
7.11233e-05
7.10361e-05
7.09557e-05
7.0898e-05
7.08502e-05
7.08151e-05
7.07703e-05
7.07069e-05
7.0624e-05
7.05267e-05
7.04188e-05
7.02967e-05
7.01889e-05
7.00763e-05
6.9977e-05
6.99035e-05
6.98461e-05
6.98085e-05
6.9788e-05
6.97821e-05
6.97723e-05
6.97343e-05
6.96844e-05
6.96302e-05
6.95658e-05
6.94922e-05
6.94156e-05
6.93406e-05
6.92689e-05
6.92e-05
6.91352e-05
6.90745e-05
6.90181e-05
6.89693e-05
6.89376e-05
6.89122e-05
6.889e-05
6.88621e-05
6.88248e-05
6.87712e-05
6.86897e-05
6.86019e-05
6.85269e-05
6.84575e-05
6.83934e-05
6.8334e-05
6.82801e-05
6.82347e-05
6.81965e-05
6.8165e-05
6.81326e-05
6.8096e-05
6.80478e-05
6.79941e-05
6.79254e-05
6.77961e-05
6.77105e-05
6.76264e-05
6.75498e-05
6.74918e-05
6.74409e-05
6.73937e-05
6.73449e-05
6.72961e-05
6.72425e-05
6.71766e-05
6.71038e-05
6.70093e-05
6.68743e-05
6.6781e-05
6.66881e-05
6.66011e-05
6.65438e-05
6.64815e-05
6.63606e-05
6.62969e-05
6.62286e-05
6.6047e-05
6.59425e-05
6.58412e-05
6.57261e-05
6.55655e-05
6.5439e-05
6.53128e-05
6.51619e-05
6.50075e-05
6.47746e-05
2.23937e-07
1.80502e-07
1.06345e-07
1.10964e-07
2.40867e-07
6.32326e-07
1.79669e-06
4.15983e-06
7.95266e-06
1.30375e-05
1.85895e-05
2.46111e-05
3.08561e-05
3.71558e-05
4.33916e-05
4.95782e-05
5.58753e-05
6.24071e-05
6.92831e-05
7.6628e-05
8.45675e-05
9.32097e-05
0.000102675
0.000113046
0.000124459
0.000136938
0.000150484
0.000165488
0.000182774
0.000201238
0.000221024
0.000242645
0.00026615
0.000291799
0.000317889
0.000344555
0.000372871
0.000402355
0.000432913
0.000464993
0.000499355
0.000533772
0.000569447
0.000603914
0.000640747
0.000677679
0.000717272
0.000753489
0.00079195
0.000826251
0.000861474
0.000893054
0.000922896
0.000950663
0.000977048
0.00100276
0.00102597
0.00104695
0.0010658
0.00108283
0.0010982
0.00111168
0.00112346
0.00113308
0.00114156
0.00114973
0.00115633
0.00116202
0.00116431
0.00116579
0.00116445
0.00116214
0.00115893
0.00115319
0.00114829
0.00114148
0.00113363
0.00112574
0.00111622
0.00110712
0.00109646
0.00108623
0.00107498
0.00106414
0.00105347
0.00104222
0.00103157
0.00102097
0.00101014
0.000999574
0.000989432
0.000979471
0.000969575
0.000959186
0.000949118
0.000939358
0.000929988
0.000920947
0.000912225
0.00090404
0.000896204
0.000888738
0.000881656
0.000874857
0.000868438
0.000862133
0.000855983
0.000849974
0.000844245
0.000838625
0.00083324
0.000827985
0.000823102
0.000818283
0.000813928
0.000808868
0.000803487
0.000797231
0.000791265
0.000787265
0.000782013
0.000777508
0.000774452
0.000771411
0.00076831
0.000764798
0.000760842
0.00075669
0.000752696
0.000749077
0.000745796
0.000742798
0.000740169
0.00073768
0.000735052
0.000731271
0.000727505
0.000723663
0.000719812
0.000715975
0.000712153
0.000708351
0.000704594
0.000700801
0.000697071
0.000693393
0.000689799
0.000686278
0.000682755
0.000679329
0.000675782
0.000672314
0.000668865
0.00066539
0.000661939
0.000658429
0.000655261
0.000651942
0.000649117
0.000646301
0.000643572
0.000640887
0.000638275
0.000635524
0.000632921
0.000630347
0.000627825
0.000625355
0.000623179
0.000621089
0.000619131
0.000617366
0.000615751
0.000614298
0.000612988
0.000611787
0.000610528
0.000609288
0.000607894
0.000606463
0.000604927
0.000603297
0.000601586
0.000599849
0.000598112
0.000596389
0.00059474
0.000593229
0.000591858
0.000590667
0.000589589
0.000588635
0.000587776
0.000587101
0.000586384
0.000585698
0.000584932
0.00058409
0.000583188
0.000582227
0.000581216
0.000580233
0.000579226
0.000578219
0.000577253
0.000576297
0.000575413
0.000574575
0.000573961
0.000573335
0.000572742
0.00057233
0.000571901
0.000571519
0.000571134
0.00057073
0.000570254
0.000569674
0.000568949
0.000568141
0.000567174
0.000566151
0.000565166
0.000564318
0.000563671
0.000563107
0.00056275
0.000562059
0.000561405
0.000560722
0.000559596
0.000558468
0.000557202
0.000555797
0.000554129
0.000552608
0.000551109
0.000549577
0.000547903
0.000545605
3.94925e-07
5.30633e-07
5.58949e-07
8.65765e-07
1.8755e-06
4.23364e-06
9.25341e-06
1.85338e-05
3.35075e-05
5.32832e-05
7.54085e-05
9.83264e-05
0.000120596
0.000141535
0.000161032
0.000179383
0.00019731
0.000214677
0.000232365
0.000250557
0.000269601
0.00028964
0.000310944
0.000333522
0.000357686
0.000383683
0.000411149
0.000440662
0.000472454
0.000505685
0.000540779
0.000577927
0.000616589
0.000657372
0.000699281
0.000744165
0.000790712
0.000838081
0.000886674
0.000936598
0.000989494
0.00104201
0.0010964
0.00114761
0.00120155
0.00125401
0.00131011
0.00136175
0.00141564
0.00146475
0.00151435
0.00155962
0.00160282
0.00164347
0.00168235
0.00172022
0.00175513
0.00178734
0.00181684
0.00184399
0.00186893
0.00189128
0.00191132
0.00192816
0.00194309
0.00195562
0.00196496
0.00197312
0.00197634
0.00197908
0.00197835
0.00197649
0.00197293
0.00196618
0.00195983
0.00195122
0.001941
0.00193052
0.00191732
0.0019046
0.00188953
0.00187511
0.0018594
0.00184399
0.0018286
0.0018123
0.00179656
0.0017807
0.00176447
0.00174829
0.00173277
0.00171754
0.00170208
0.00168568
0.0016696
0.0016539
0.00163871
0.00162398
0.0016096
0.00159594
0.0015827
0.0015699
0.00155762
0.00154566
0.00153427
0.00152287
0.0015117
0.00150061
0.00148999
0.00147938
0.00146916
0.00145902
0.00144951
0.00143997
0.00143135
0.00142117
0.00141064
0.00139864
0.00138688
0.00137849
0.00136848
0.00135916
0.00135235
0.00134543
0.00133835
0.0013304
0.00132167
0.00131287
0.00130397
0.00129588
0.00128813
0.001281
0.00127445
0.00126813
0.00126227
0.00125644
0.00125088
0.00124523
0.00123984
0.0012345
0.00122936
0.00122414
0.00121912
0.00121388
0.00120879
0.00120362
0.00119859
0.00119353
0.00118849
0.00118347
0.00117826
0.00117298
0.0011677
0.00116266
0.00115764
0.00115295
0.0011483
0.00114418
0.00114016
0.0011361
0.00113203
0.00112767
0.00112326
0.00111849
0.00111354
0.00110863
0.00110394
0.00109945
0.00109554
0.00109195
0.00108878
0.00108614
0.00108387
0.0010819
0.00107981
0.00107764
0.00107529
0.00107277
0.00106996
0.00106696
0.0010638
0.00106063
0.00105734
0.00105405
0.00105085
0.00104776
0.00104489
0.00104242
0.00104023
0.00103836
0.00103665
0.001035
0.00103343
0.00103186
0.00102998
0.00102807
0.00102608
0.00102404
0.00102203
0.00102003
0.0010181
0.00101641
0.00101472
0.0010131
0.0010116
0.00100996
0.00100842
0.00100696
0.00100517
0.00100364
0.00100227
0.00100105
0.0010001
0.000999286
0.000998621
0.000997949
0.000997375
0.000996507
0.00099526
0.000994048
0.000992362
0.000990469
0.000988969
0.00098778
0.000986821
0.00098626
0.00098573
0.000984558
0.000984258
0.000983146
0.000981146
0.000979664
0.000977755
0.000975454
0.000972809
0.000970545
0.000968223
0.000965826
0.000963383
0.000959563
5.5784e-07
1.26353e-06
1.96249e-06
3.36213e-06
6.95333e-06
1.48866e-05
3.0554e-05
5.75243e-05
9.38264e-05
0.000136401
0.000179292
0.000219026
0.000254628
0.00028631
0.000315261
0.000341112
0.000366217
0.000390383
0.000414782
0.000439573
0.000465261
0.000492017
0.000520129
0.000549767
0.000581154
0.000614216
0.000648803
0.00068538
0.000723774
0.000763874
0.000805416
0.000848589
0.000893226
0.0009399
0.000987759
0.00103889
0.0010911
0.00114375
0.00119777
0.00125247
0.00130993
0.00136654
0.00142537
0.00147977
0.00153644
0.00159012
0.0016472
0.00170088
0.00175644
0.00180883
0.00186079
0.00190867
0.0019552
0.00199935
0.00204148
0.00208231
0.00212094
0.00215735
0.00219166
0.00222401
0.00225438
0.00228198
0.0023078
0.00232982
0.00235015
0.00236724
0.00238143
0.00239392
0.00240248
0.00241078
0.00241591
0.00242011
0.00242187
0.002421
0.00241939
0.00241562
0.00241057
0.00240436
0.00239534
0.00238592
0.0023741
0.00236273
0.00235045
0.00233825
0.00232555
0.00231198
0.00229858
0.00228468
0.00227044
0.00225583
0.00224178
0.00222816
0.00221397
0.00219865
0.00218344
0.00216846
0.0021539
0.00213978
0.00212596
0.00211278
0.00210004
0.00208761
0.00207568
0.00206397
0.00205283
0.00204145
0.00203023
0.00201892
0.0020081
0.00199708
0.00198649
0.00197577
0.00196577
0.00195563
0.00194648
0.00193505
0.00192306
0.00190944
0.00189538
0.00188589
0.00187523
0.00186472
0.001857
0.00184938
0.00184115
0.00183165
0.00182102
0.00181043
0.00179959
0.00178964
0.0017802
0.00177147
0.00176346
0.0017556
0.00174819
0.00174066
0.00173348
0.00172606
0.00171897
0.0017119
0.00170508
0.00169807
0.00169135
0.00168424
0.00167733
0.00167028
0.00166342
0.00165645
0.00164956
0.00164257
0.00163542
0.00162806
0.00162076
0.0016137
0.00160673
0.00160004
0.00159348
0.00158752
0.00158177
0.00157588
0.00157001
0.00156371
0.00155737
0.00155053
0.0015435
0.00153657
0.00152988
0.00152325
0.00151747
0.0015121
0.00150722
0.00150306
0.00149933
0.0014959
0.00149231
0.00148864
0.00148475
0.00148078
0.00147643
0.00147192
0.00146724
0.00146261
0.00145788
0.00145327
0.00144872
0.00144428
0.00144008
0.00143636
0.00143293
0.00142987
0.00142698
0.00142428
0.00142162
0.00141874
0.00141541
0.00141214
0.00140886
0.00140559
0.00140245
0.00139944
0.00139661
0.00139405
0.00139184
0.00138951
0.00138743
0.00138511
0.001383
0.00138066
0.00137793
0.00137553
0.00137335
0.00137134
0.00136974
0.0013684
0.00136737
0.0013664
0.00136572
0.00136484
0.00136351
0.00136225
0.00136035
0.00135811
0.00135632
0.00135486
0.00135372
0.00135311
0.00135261
0.0013514
0.00135128
0.00135033
0.00134824
0.00134677
0.00134488
0.00134243
0.00133949
0.0013369
0.00133425
0.00133144
0.00132856
0.00132406
7.18089e-07
3.96794e-06
5.06299e-06
8.90351e-06
1.8372e-05
3.73246e-05
7.24924e-05
0.000122297
0.000180141
0.000238842
0.000292978
0.000341189
0.000383953
0.000421833
0.000455257
0.000485897
0.000515215
0.000543427
0.000571611
0.000600038
0.000629208
0.000659322
0.00069074
0.000723563
0.000757814
0.000793474
0.000830413
0.000868897
0.0009086
0.000949411
0.000991439
0.00103491
0.00107959
0.00112588
0.00117291
0.00122272
0.00127309
0.00132282
0.00137328
0.00142387
0.00147654
0.0015277
0.00158023
0.00160937
0.0016263
0.00164605
0.0016659
0.00169543
0.00172688
0.00175865
0.00179252
0.00182379
0.00186635
0.00189336
0.00192387
0.00196056
0.00198861
0.00203139
0.00206492
0.00210954
0.00214478
0.00218697
0.00222296
0.00226368
0.00229793
0.00233329
0.00236611
0.002396
0.00243203
0.00246334
0.00249824
0.00252952
0.00255999
0.00259332
0.00261316
0.00261505
0.00261625
0.00261537
0.00261198
0.00260761
0.00260092
0.00259459
0.00258784
0.00258126
0.00257374
0.00256553
0.00255731
0.00254829
0.00253896
0.00252889
0.00251921
0.00251
0.00250001
0.00248896
0.00247792
0.00246697
0.00245621
0.00244587
0.00243576
0.00242614
0.00241698
0.00240796
0.00239938
0.00239089
0.00238288
0.00237447
0.00236613
0.00235754
0.00234933
0.00234082
0.00233269
0.00232427
0.00231657
0.00230867
0.00230143
0.00229176
0.00228109
0.00226911
0.00225596
0.00224776
0.00223939
0.00223067
0.00222412
0.00221797
0.00221089
0.00220232
0.00219251
0.00218274
0.00217277
0.00216356
0.00215504
0.00214722
0.00214017
0.00213322
0.00212655
0.00211962
0.002113
0.00210601
0.00209931
0.00209255
0.00208601
0.00207919
0.00207264
0.00206559
0.0020587
0.00205159
0.00204467
0.00203755
0.00203048
0.00202322
0.00201574
0.00200799
0.00200023
0.00199272
0.00198534
0.00197813
0.00197117
0.00196468
0.00195853
0.00195221
0.00194584
0.00193897
0.001932
0.00192456
0.00191676
0.00190908
0.00190167
0.00189427
0.00188769
0.00188166
0.00187612
0.00187133
0.001867
0.00186292
0.0018586
0.00185418
0.00184941
0.00184465
0.00183942
0.00183409
0.0018286
0.00182319
0.00181775
0.00181252
0.00180735
0.00180237
0.00179754
0.00179327
0.00178923
0.00178557
0.00178221
0.0017788
0.00177551
0.00177183
0.00176749
0.00176327
0.00175909
0.00175492
0.001751
0.00174729
0.00174385
0.00174075
0.00173818
0.00173556
0.00173341
0.00173071
0.00172827
0.00172563
0.00172223
0.00171915
0.00171645
0.00171385
0.00171176
0.00171001
0.00170869
0.00170749
0.0017067
0.00170593
0.00170471
0.0017036
0.00170183
0.00169956
0.00169775
0.00169633
0.00169525
0.0016948
0.00169456
0.00169352
0.00169367
0.00169316
0.0016913
0.00169011
0.00168863
0.00168655
0.00168385
0.00168144
0.00167898
0.00167627
0.00167344
0.00166906
9.45474e-07
7.86811e-06
1.0283e-05
1.90955e-05
3.86519e-05
7.50919e-05
0.000132242
0.000199321
0.000269617
0.000336372
0.000396334
0.000449563
0.000496361
0.000536856
0.000573251
0.000606712
0.000638348
0.000668658
0.00069857
0.000728421
0.000758685
0.000789663
0.000821605
0.000854583
0.000888553
0.000923542
0.000959331
0.000996009
0.00103321
0.00107142
0.00111043
0.00115002
0.00119027
0.00123144
0.00127222
0.00131484
0.00135708
0.00139118
0.00140399
0.00141151
0.00141629
0.00142424
0.00142978
0.00144054
0.00144743
0.00146473
0.00148523
0.00150709
0.00154438
0.00156689
0.00160669
0.0016262
0.00166686
0.00168718
0.0017032
0.00173989
0.00175847
0.00179863
0.00182299
0.00186351
0.00189076
0.00192919
0.00195897
0.00199704
0.00202618
0.00205956
0.00208815
0.00211716
0.00215003
0.00218157
0.00221579
0.00224752
0.00227943
0.00231552
0.00234371
0.00237405
0.00240589
0.00243483
0.00246652
0.00248705
0.0025119
0.0025364
0.00256197
0.00258692
0.00260755
0.0026176
0.00261697
0.00261518
0.00261277
0.00260924
0.0026059
0.00260287
0.00259899
0.00259428
0.00258933
0.00258432
0.00257916
0.00257436
0.0025696
0.00256513
0.00256101
0.00255686
0.00255306
0.0025492
0.00254563
0.00254158
0.00253752
0.00253304
0.00252877
0.00252418
0.0025199
0.00251528
0.00251132
0.00250696
0.00250279
0.00249638
0.00248882
0.00248036
0.00247032
0.0024647
0.00245988
0.00245462
0.00245031
0.00244652
0.00244181
0.00243565
0.00242832
0.00242094
0.00241349
0.0024066
0.00240057
0.00239518
0.00239062
0.00238616
0.00238178
0.00237704
0.00237255
0.00236757
0.00236275
0.00235779
0.00235297
0.00234783
0.00234287
0.0023374
0.002332
0.00232634
0.0023208
0.00231503
0.00230919
0.00230312
0.00229673
0.00229008
0.00228325
0.00227671
0.00227027
0.00226388
0.00225783
0.00225206
0.00224667
0.0022412
0.00223561
0.00222948
0.00222317
0.00221649
0.00220928
0.00220231
0.00219546
0.00218857
0.00218249
0.00217689
0.00217184
0.00216749
0.00216354
0.00215978
0.00215569
0.00215144
0.00214677
0.00214211
0.00213687
0.00213162
0.00212623
0.00212097
0.00211568
0.00211071
0.00210581
0.00210118
0.00209664
0.00209266
0.00208885
0.00208539
0.0020822
0.00207893
0.00207576
0.002072
0.00206745
0.00206298
0.00205865
0.00205426
0.00205023
0.00204641
0.00204296
0.00203988
0.00203745
0.00203504
0.00203326
0.00203087
0.00202879
0.00202634
0.00202288
0.00201966
0.00201694
0.00201425
0.00201207
0.00201028
0.002009
0.00200789
0.00200727
0.00200682
0.00200597
0.00200529
0.00200404
0.00200213
0.00200065
0.00199961
0.00199895
0.00199896
0.00199927
0.00199873
0.00199931
0.00199947
0.00199815
0.00199746
0.00199671
0.0019954
0.00199337
0.00199159
0.0019898
0.00198767
0.00198539
0.00198187
1.30918e-06
1.29727e-05
1.87627e-05
3.57144e-05
6.9216e-05
0.000125922
0.000197675
0.000275068
0.000351902
0.000422454
0.000485441
0.000541775
0.000589592
0.000631903
0.000670005
0.000704911
0.000737509
0.000768414
0.000798457
0.000828015
0.00085759
0.000887472
0.000917827
0.000948768
0.000980179
0.00101215
0.00104429
0.00107679
0.00110913
0.00114187
0.00117483
0.00120745
0.00124039
0.00127385
0.00127084
0.00126789
0.00125195
0.00124724
0.00125033
0.00125107
0.00124647
0.001252
0.00125492
0.00126815
0.00128924
0.00130364
0.00133127
0.00133906
0.00137951
0.00139111
0.00142409
0.00143426
0.00145805
0.00147729
0.00148049
0.00151175
0.00152143
0.00155287
0.00156824
0.0015983
0.00161576
0.00164606
0.00166705
0.00169753
0.0017183
0.00174386
0.00176509
0.00178801
0.00181254
0.00184166
0.00186662
0.0018955
0.00192032
0.00195298
0.00198182
0.00200832
0.0020423
0.00206892
0.00210446
0.00213537
0.00215929
0.00219913
0.00222412
0.00226327
0.0022863
0.00232228
0.00235247
0.00237439
0.00240476
0.00243006
0.00245398
0.00247414
0.00249054
0.00251714
0.0025419
0.00254703
0.00254948
0.00255188
0.00255392
0.00255596
0.00255808
0.00255999
0.00256212
0.00256395
0.00256586
0.0025672
0.00256856
0.00256928
0.00257001
0.00257043
0.00257092
0.00257105
0.00257167
0.00257156
0.00257107
0.00256882
0.00256564
0.00256184
0.00255642
0.00255406
0.00255332
0.0025524
0.00255095
0.0025499
0.00254818
0.00254538
0.00254148
0.00253739
0.00253336
0.0025297
0.00252699
0.00252476
0.00252358
0.00252239
0.00252113
0.00251951
0.00251811
0.00251603
0.002514
0.00251173
0.00250949
0.00250693
0.0025044
0.00250143
0.00249847
0.00249521
0.002492
0.00248852
0.00248489
0.002481
0.00247673
0.0024722
0.00246737
0.00246278
0.00245825
0.00245367
0.00244945
0.00244535
0.00244149
0.00243776
0.00243388
0.00242943
0.00242484
0.00241989
0.00241441
0.00240918
0.00240399
0.00239872
0.00239414
0.00238988
0.00238627
0.00238327
0.0023805
0.00237788
0.00237488
0.00237161
0.00236793
0.00236416
0.00235975
0.00235546
0.00235104
0.00234681
0.00234253
0.00233863
0.00233482
0.00233132
0.00232792
0.00232502
0.00232226
0.00231976
0.00231737
0.002315
0.00231267
0.00230965
0.00230575
0.00230186
0.00229816
0.00229434
0.00229099
0.00228777
0.00228502
0.00228263
0.00228097
0.00227939
0.00227852
0.0022771
0.00227599
0.00227441
0.00227172
0.00226906
0.00226689
0.00226471
0.00226298
0.0022617
0.00226094
0.00226041
0.00226043
0.00226068
0.00226052
0.00226065
0.00226039
0.00225932
0.00225857
0.00225834
0.00225853
0.00225936
0.0022606
0.00226094
0.00226221
0.00226332
0.00226288
0.00226295
0.00226315
0.00226294
0.00226195
0.00226117
0.00226043
0.00225934
0.00225802
0.00225603
1.75888e-06
1.90608e-05
3.11592e-05
5.90235e-05
0.000109072
0.000180967
0.000260796
0.000344015
0.000423643
0.000495828
0.000560874
0.0006174
0.000665954
0.000709238
0.000748096
0.000783437
0.00081594
0.00084625
0.000875184
0.000903166
0.000930638
0.000957895
0.000985069
0.00101233
0.00103948
0.00106666
0.00109337
0.00111991
0.00114558
0.00117093
0.00119602
0.0011763
0.0011619
0.00114743
0.00113191
0.00112013
0.00109819
0.00109576
0.00110027
0.00110677
0.00110458
0.00111232
0.00112607
0.00113183
0.00116615
0.00116641
0.00119136
0.00118426
0.00121265
0.00121665
0.00123198
0.00124307
0.00124953
0.00127392
0.00127654
0.0012974
0.00130686
0.00132599
0.00134404
0.00136111
0.00137959
0.00139996
0.00142043
0.00144128
0.00146027
0.0014759
0.00149597
0.00151013
0.00153208
0.00155912
0.00157233
0.00160304
0.00161594
0.00164781
0.00167364
0.00169192
0.00172606
0.00174035
0.00177334
0.00180301
0.00182357
0.00185961
0.00187859
0.00191196
0.00193202
0.00196238
0.00199385
0.00201617
0.00204558
0.00207473
0.00210296
0.00212846
0.00215077
0.00218159
0.00221329
0.00224306
0.00227003
0.00229837
0.00232309
0.00234473
0.00236665
0.00238725
0.00240825
0.00242823
0.00244642
0.00246545
0.00247374
0.00248101
0.00248794
0.0024944
0.00250074
0.00250655
0.00251266
0.00251774
0.00252174
0.00252477
0.00252704
0.00252882
0.00252943
0.00253138
0.00253524
0.0025393
0.0025416
0.00254359
0.00254541
0.00254665
0.00254696
0.00254681
0.00254688
0.00254705
0.00254823
0.00254985
0.00255228
0.00255479
0.00255724
0.00255935
0.00256152
0.00256297
0.0025644
0.00256544
0.00256632
0.00256682
0.00256722
0.0025673
0.00256729
0.00256701
0.0025667
0.0025661
0.00256529
0.00256421
0.00256275
0.00256101
0.00255893
0.00255691
0.00255496
0.00255283
0.00255104
0.0025492
0.00254755
0.00254599
0.00254439
0.00254222
0.00254001
0.00253749
0.00253452
0.00253176
0.00252906
0.00252619
0.00252384
0.00252165
0.00252011
0.00251905
0.00251811
0.00251726
0.00251595
0.0025143
0.00251221
0.00250995
0.00250709
0.00250442
0.00250171
0.00249923
0.00249666
0.00249451
0.00249243
0.00249074
0.00248913
0.00248796
0.00248687
0.00248595
0.00248492
0.00248402
0.00248311
0.0024815
0.002479
0.00247644
0.00247409
0.0024716
0.00246964
0.00246772
0.00246637
0.00246532
0.00246506
0.00246491
0.0024655
0.00246566
0.00246612
0.00246605
0.00246488
0.00246351
0.0024625
0.00246149
0.00246085
0.00246059
0.00246094
0.0024615
0.00246272
0.00246407
0.0024651
0.00246639
0.00246775
0.0024679
0.00246838
0.0024695
0.00247098
0.00247305
0.00247566
0.00247728
0.00247955
0.00248194
0.00248276
0.00248391
0.00248532
0.00248647
0.00248685
0.00248737
0.00248804
0.00248835
0.00248834
0.00248847
2.4843e-06
2.66832e-05
4.7406e-05
8.80549e-05
0.000153498
0.000233091
0.000318206
0.000403979
0.000484454
0.000557124
0.000622912
0.000678774
0.000727721
0.000771318
0.000810233
0.000845199
0.000876787
0.000905556
0.000932369
0.000957677
0.000981872
0.00100525
0.00102792
0.00105016
0.00107159
0.00109258
0.00111249
0.00113175
0.00112726
0.00109811
0.00107258
0.00104576
0.00102661
0.0010087
0.000996046
0.000984617
0.00096774
0.000972672
0.000983517
0.0009919
0.000998095
0.000999805
0.00102417
0.00101176
0.00104461
0.00103052
0.00104878
0.00103791
0.00105199
0.00105629
0.00106217
0.00107529
0.00107363
0.00109147
0.00110162
0.00110374
0.00111816
0.00112206
0.00114576
0.00114993
0.00117467
0.00118157
0.00120824
0.00121541
0.00124246
0.00124543
0.00127546
0.00128124
0.00130946
0.00133269
0.00134661
0.00137621
0.00138446
0.00141831
0.00143297
0.00146187
0.00149129
0.00149918
0.00152968
0.001547
0.00157192
0.00159843
0.00161299
0.00163359
0.00165192
0.00167482
0.00169538
0.00171436
0.00173625
0.0017578
0.00178045
0.0017985
0.0018207
0.00184694
0.00187305
0.00190169
0.00192677
0.00195477
0.00198036
0.00200495
0.00203099
0.00205546
0.00208105
0.0021053
0.00212911
0.00215346
0.00217834
0.0022024
0.00222579
0.00224925
0.00227088
0.00229473
0.00231214
0.0023247
0.00233953
0.00235355
0.00237772
0.00238677
0.00239475
0.00240302
0.00241246
0.00242175
0.002429
0.00243521
0.00244145
0.00244748
0.00245296
0.00245772
0.00246279
0.00246777
0.00247344
0.00247943
0.00248607
0.00249286
0.00249975
0.00250615
0.0025126
0.0025181
0.00252368
0.00252846
0.00253314
0.00253716
0.00254093
0.00254447
0.00254786
0.00255101
0.00255406
0.00255678
0.00255928
0.00256148
0.00256336
0.0025649
0.00256612
0.00256724
0.00256834
0.00256919
0.00257022
0.00257112
0.00257204
0.00257303
0.00257402
0.00257457
0.00257517
0.00257549
0.00257558
0.00257581
0.00257614
0.00257626
0.0025767
0.00257708
0.00257811
0.00257938
0.00258072
0.00258208
0.00258292
0.00258333
0.00258323
0.00258294
0.00258213
0.00258157
0.00258107
0.00258088
0.00258059
0.00258072
0.00258084
0.00258145
0.00258211
0.0025832
0.00258424
0.00258534
0.00258611
0.00258706
0.00258798
0.00258827
0.00258777
0.00258713
0.00258673
0.00258618
0.00258621
0.0025862
0.00258682
0.00258768
0.00258936
0.00259116
0.00259372
0.00259596
0.00259851
0.00260051
0.00260148
0.00260204
0.00260283
0.00260357
0.00260456
0.00260588
0.00260786
0.00261014
0.00261286
0.00261575
0.00261846
0.00262147
0.00262472
0.0026269
0.00262913
0.00263202
0.00263535
0.00263906
0.00264366
0.00264668
0.00265034
0.00265447
0.00265683
0.00265939
0.00266232
0.00266515
0.0026672
0.00266931
0.00267167
0.00267371
0.00267523
0.00267811
3.31896e-06
3.67853e-05
6.67116e-05
0.000120543
0.000195688
0.000280285
0.000368208
0.000454609
0.000534796
0.000607536
0.000672578
0.000727944
0.000776907
0.000820341
0.000858765
0.000892686
0.000922597
0.000949022
0.000972796
0.000994396
0.00101419
0.0010325
0.00104941
0.00106531
0.00107977
0.00109344
0.00107356
0.00103591
0.00100234
0.00096984
0.000944196
0.000921492
0.000906305
0.000889673
0.000880676
0.000880315
0.00086922
0.000877693
0.000898766
0.000895829
0.000913026
0.00089712
0.000924733
0.000902964
0.000927057
0.000910882
0.000922337
0.000910114
0.000905369
0.000903603
0.000900966
0.000905955
0.000906265
0.000906531
0.000926051
0.000912126
0.000934091
0.000923938
0.00095382
0.000947489
0.000978348
0.000972987
0.00100601
0.00100038
0.00103752
0.00103261
0.00107362
0.00107574
0.00108786
0.00109878
0.0011075
0.00111804
0.00112875
0.00113942
0.00115155
0.00116544
0.00117949
0.00119149
0.00120678
0.00122176
0.00123802
0.00125656
0.0012735
0.00129358
0.00131291
0.00133506
0.00135701
0.00137891
0.00140228
0.00142663
0.00145097
0.00147545
0.00150122
0.00152896
0.00155828
0.00158686
0.00161541
0.00164366
0.00167255
0.00170061
0.00172584
0.00174578
0.00176648
0.00178643
0.00180729
0.00182877
0.00185118
0.00187366
0.00189674
0.00192036
0.00194283
0.0019675
0.00198598
0.00200131
0.00202003
0.0020443
0.00207428
0.00210549
0.00214391
0.00216391
0.0021811
0.00219745
0.00221107
0.0022231
0.0022351
0.00224749
0.00225925
0.00227044
0.00228158
0.00229253
0.00230381
0.00231518
0.00232703
0.00233905
0.00235136
0.00236295
0.00237451
0.00238514
0.00239562
0.00240513
0.00241438
0.00242262
0.00243051
0.00243805
0.00244546
0.00245259
0.00245963
0.00246626
0.00247267
0.00247873
0.00248458
0.00248997
0.00249507
0.00249991
0.00250458
0.00250896
0.0025133
0.00251733
0.00252127
0.00252516
0.00252909
0.0025327
0.00253643
0.00254001
0.00254358
0.00254725
0.00255107
0.00255462
0.0025583
0.00256171
0.00256572
0.00256971
0.00257371
0.0025776
0.002581
0.00258385
0.002586
0.00258804
0.00258962
0.00259153
0.00259363
0.00259613
0.00259854
0.00260137
0.00260409
0.00260735
0.00261064
0.00261437
0.00261787
0.0026214
0.00262429
0.0026273
0.00263033
0.00263287
0.00263479
0.00263651
0.00263849
0.00264037
0.00264284
0.00264524
0.00264829
0.00265152
0.00265558
0.00265973
0.00266466
0.0026694
0.00267445
0.002679
0.00268263
0.00268562
0.00268875
0.00269175
0.00269487
0.00269825
0.0027024
0.00270655
0.00271119
0.00271619
0.00272107
0.00272624
0.00273169
0.00273652
0.00274104
0.00274615
0.00275179
0.00275757
0.00276433
0.00276948
0.0027749
0.00278119
0.00278531
0.00278958
0.00279436
0.00279932
0.00280319
0.00280719
0.00281151
0.00281562
0.00281892
0.00282498
4.18195e-06
4.68673e-05
8.75466e-05
0.000152022
0.000233223
0.000321091
0.000410339
0.000496252
0.000575426
0.000647651
0.000711493
0.000766426
0.000815126
0.000858032
0.000895463
0.000927737
0.000955248
0.000978513
0.000998233
0.00101499
0.00102917
0.00104114
0.00105093
0.00105931
0.0010368
0.000993267
0.000950052
0.00091044
0.000881446
0.000855741
0.000835988
0.000814997
0.000804347
0.000791461
0.000788611
0.000817335
0.00080787
0.000801656
0.000829964
0.000809094
0.000835601
0.000813421
0.000834592
0.000814
0.000818636
0.000795346
0.000794417
0.000780718
0.000765319
0.000756014
0.000752457
0.000745072
0.000755302
0.00073987
0.000769931
0.000753803
0.000780753
0.000768569
0.000792048
0.000793038
0.000796526
0.000802782
0.000806851
0.000813972
0.000819376
0.000825819
0.0008311
0.00083749
0.000842246
0.000850101
0.000855862
0.000863859
0.000870821
0.000877182
0.000884409
0.000891916
0.00089927
0.000906266
0.000914014
0.000920975
0.0009299
0.000939709
0.000948382
0.000959126
0.000970397
0.000982932
0.000996332
0.00100962
0.00102464
0.00104026
0.00105725
0.00107418
0.00109233
0.00111275
0.00113424
0.00115756
0.00118151
0.00120648
0.00123197
0.00125822
0.00128536
0.00131259
0.00134074
0.00136911
0.00139802
0.00142725
0.00145652
0.00148574
0.00151453
0.00154344
0.00157192
0.00160085
0.00162883
0.00165583
0.00168241
0.00170979
0.00173742
0.00176546
0.00179293
0.00181873
0.00184288
0.00186646
0.00188677
0.0019064
0.00192542
0.00194445
0.00196341
0.00198231
0.00200071
0.00201878
0.002037
0.00205491
0.00207323
0.0020916
0.00211041
0.00212853
0.00214611
0.00216295
0.00217927
0.00219448
0.00220909
0.00222259
0.00223565
0.00224802
0.00226036
0.00227228
0.00228417
0.00229558
0.00230675
0.0023175
0.00232813
0.00233823
0.00234791
0.00235716
0.00236611
0.0023746
0.00238287
0.00239069
0.00239827
0.00240557
0.00241291
0.00242004
0.00242737
0.0024347
0.0024422
0.0024498
0.0024576
0.00246506
0.00247248
0.00247951
0.00248697
0.00249419
0.00250121
0.00250801
0.00251426
0.00251998
0.00252481
0.00252946
0.00253378
0.00253851
0.00254356
0.00254908
0.00255456
0.00256045
0.00256619
0.00257245
0.00257869
0.00258532
0.00259159
0.00259783
0.00260324
0.00260845
0.00261381
0.00261886
0.00262349
0.00262791
0.00263264