/*--------------------------------*- C++ -*----------------------------------*\
| =========                 |                                                 |
| \\      /  F ield         | OpenFOAM: The Open Source CFD Toolbox           |
|  \\    /   O peration     | Version:  2312                                  |
|   \\  /    A nd           | Website:  www.openfoam.com                      |
|    \\/     M anipulation  |                                                 |
\*---------------------------------------------------------------------------*/
FoamFile
{
    version     2.0;
    format      ascii;
    arch        "LSB;label=32;scalar=64";
    class       volScalarField;
    location    "0.001";
    object      cSound;
}
// * * * * * * * * * * * * * * * * * * * * * * * * * * * * * * * * * * * * * //

dimensions      [0 1 -1 0 0 0 0];

internalField   nonuniform List<scalar> 
48128
(
378.423
378.429
378.416
378.333
378.038
377.235
376.087
375.324
374.648
374.058
373.448
372.775
372.062
371.377
370.741
370.136
369.564
369.028
368.511
368.003
367.513
367.049
366.617
366.227
365.887
365.608
365.4
365.275
365.226
365.219
365.312
365.51
365.782
366.118
366.518
366.985
367.507
368.062
368.662
369.259
369.857
370.466
371.048
371.6
372.093
372.545
372.945
373.291
373.566
373.758
373.853
373.865
373.79
373.636
373.399
373.095
372.734
372.321
371.86
371.359
370.822
370.252
369.65
369.017
368.342
367.625
366.879
366.096
365.315
364.518
363.739
362.968
362.191
361.426
360.65
359.878
359.139
358.389
357.66
356.922
356.205
355.515
354.868
354.24
353.634
353.064
352.51
351.971
351.459
350.971
350.504
350.08
349.655
349.238
348.836
348.45
348.091
347.763
347.46
347.181
346.917
346.668
346.43
346.207
345.994
345.783
345.571
345.372
345.184
345.001
344.826
344.654
344.493
344.346
344.187
344.013
343.825
343.611
343.308
343.315
343.254
343.149
343.19
343.17
343.13
343.075
343.012
342.951
342.909
342.87
342.867
342.852
342.861
342.852
342.835
342.814
342.79
342.765
342.745
342.729
342.716
342.706
342.698
342.69
342.681
342.67
342.658
342.646
342.634
342.621
342.613
342.604
342.604
342.618
342.64
342.673
342.723
342.787
342.862
342.926
342.991
343.031
343.065
343.085
343.083
343.087
343.09
343.1
343.118
343.148
343.189
343.242
343.308
343.377
343.434
343.481
343.513
343.542
343.56
343.565
343.57
343.576
343.586
343.601
343.623
343.654
343.696
343.752
343.818
343.893
343.97
344.042
344.112
344.167
344.2
344.225
344.242
344.255
344.27
344.289
344.312
344.34
344.375
344.413
344.454
344.49
344.527
344.563
344.572
344.591
344.611
344.635
344.666
344.702
344.741
344.782
344.827
344.865
344.899
344.941
344.966
344.997
345.048
345.106
345.169
345.246
345.325
345.381
345.472
345.567
345.623
345.706
345.807
345.919
346.035
346.173
346.329
346.493
346.677
346.952
378.235
378.266
378.275
378.205
377.684
376.706
375.572
374.627
373.819
372.971
371.928
370.787
369.716
368.767
367.919
367.153
366.479
365.891
365.368
364.891
364.472
364.114
363.824
363.61
363.478
363.427
363.429
363.547
363.767
364.066
364.457
364.928
365.472
366.078
366.735
367.432
368.158
368.887
369.61
370.298
370.948
371.557
372.098
372.56
372.931
373.216
373.412
373.51
373.51
373.397
373.176
372.852
372.422
371.897
371.286
370.601
369.858
369.063
368.219
367.326
366.389
365.416
364.409
363.372
362.299
361.202
360.095
358.961
357.846
356.727
355.632
354.556
353.486
352.444
351.406
350.378
349.393
348.406
347.443
346.486
345.541
344.633
343.763
342.922
342.1
341.316
340.563
339.823
339.115
338.442
337.785
337.175
336.573
335.977
335.403
334.844
334.311
333.811
333.34
332.901
332.48
332.082
331.696
331.332
330.978
330.634
330.291
329.962
329.648
329.341
329.048
328.759
328.483
328.226
327.957
327.672
327.369
327.032
326.607
326.466
326.265
326.02
325.938
325.821
325.681
325.527
325.364
325.197
325.058
324.923
324.836
324.741
324.683
324.615
324.541
324.46
324.372
324.28
324.188
324.096
324.009
323.924
323.844
323.762
323.681
323.599
323.517
323.435
323.351
323.266
323.18
323.094
323.005
322.94
322.883
322.828
322.799
322.799
322.808
322.823
322.838
322.855
322.864
322.88
322.875
322.879
322.875
322.873
322.868
322.871
322.882
322.902
322.934
322.969
322.995
323.015
323.036
323.052
323.066
323.072
323.081
323.093
323.11
323.132
323.16
323.197
323.245
323.311
323.391
323.482
323.578
323.677
323.772
323.847
323.911
323.968
324.022
324.076
324.133
324.194
324.263
324.342
324.431
324.53
324.638
324.748
324.865
324.975
325.053
325.138
325.222
325.301
325.385
325.473
325.566
325.662
325.766
325.875
325.991
326.111
326.235
326.338
326.45
326.563
326.667
326.781
326.9
326.986
327.099
327.241
327.316
327.423
327.553
327.701
327.839
327.995
328.169
328.345
328.538
328.833
377.975
378.06
378.111
377.854
376.992
375.789
374.691
373.773
372.838
371.896
370.964
370.087
369.277
368.551
367.906
367.33
366.834
366.419
366.059
365.746
365.487
365.286
365.147
365.08
365.065
365.12
365.262
365.504
365.832
366.23
366.697
367.223
367.791
368.392
369.021
369.666
370.313
370.939
371.529
372.061
372.522
372.913
373.213
373.407
373.49
373.456
373.306
373.046
372.672
372.184
371.585
370.889
370.083
369.184
368.208
367.161
366.072
364.945
363.79
362.602
361.389
360.158
358.908
357.648
356.363
355.075
353.79
352.493
351.235
349.986
348.777
347.591
346.423
345.294
344.174
343.088
342.057
341.028
340.027
339.039
338.064
337.136
336.248
335.386
334.538
333.725
332.941
332.173
331.442
330.748
330.072
329.441
328.818
328.206
327.617
327.041
326.488
325.963
325.471
325.008
324.564
324.145
323.737
323.352
322.976
322.608
322.242
321.891
321.555
321.227
320.915
320.604
320.311
320.033
319.743
319.438
319.114
318.762
318.33
318.156
317.927
317.658
317.524
317.362
317.181
316.99
316.795
316.598
316.436
316.275
316.164
316.048
315.968
315.88
315.787
315.689
315.586
315.479
315.371
315.262
315.158
315.057
314.96
314.863
314.766
314.669
314.572
314.474
314.375
314.273
314.169
314.063
313.952
313.861
313.779
313.695
313.641
313.597
313.581
313.57
313.559
313.551
313.542
313.535
313.521
313.513
313.503
313.493
313.481
313.478
313.482
313.493
313.516
313.541
313.56
313.576
313.59
313.604
313.614
313.62
313.628
313.638
313.651
313.668
313.69
313.719
313.759
313.817
313.889
313.974
314.068
314.166
314.266
314.356
314.434
314.51
314.581
314.652
314.726
314.804
314.889
314.982
315.085
315.198
315.32
315.446
315.578
315.711
315.816
315.929
316.043
316.155
316.271
316.391
316.515
316.642
316.776
316.915
317.059
317.21
317.366
317.506
317.654
317.804
317.945
318.092
318.244
318.359
318.5
318.665
318.766
318.892
319.039
319.2
319.351
319.52
319.704
319.891
320.092
320.398
377.748
377.872
377.818
377.208
376.038
374.883
373.955
373.107
372.327
371.622
370.934
370.263
369.648
369.093
368.618
368.211
367.866
367.587
367.348
367.147
366.991
366.886
366.841
366.836
366.889
367.023
367.237
367.529
367.888
368.303
368.77
369.277
369.811
370.36
370.918
371.466
371.991
372.464
372.876
373.2
373.415
373.526
373.527
373.399
373.124
372.707
372.142
371.457
370.648
369.732
368.7
367.586
366.359
365.055
363.686
362.257
360.814
359.355
357.901
356.436
354.974
353.523
352.076
350.642
349.196
347.776
346.372
344.987
343.664
342.358
341.119
339.909
338.726
337.594
336.473
335.413
334.421
333.432
332.474
331.527
330.594
329.714
328.878
328.067
327.261
326.492
325.747
325.019
324.333
323.682
323.05
322.46
321.878
321.311
320.765
320.229
319.714
319.224
318.767
318.337
317.923
317.533
317.155
316.797
316.447
316.103
315.761
315.432
315.116
314.809
314.518
314.225
313.956
313.693
313.42
313.134
312.826
312.498
312.102
311.93
311.711
311.469
311.314
311.144
310.959
310.765
310.57
310.372
310.214
310.056
309.95
309.84
309.764
309.682
309.595
309.503
309.407
309.305
309.202
309.096
308.996
308.898
308.805
308.712
308.62
308.528
308.436
308.343
308.249
308.151
308.051
307.947
307.838
307.745
307.658
307.569
307.511
307.453
307.425
307.406
307.386
307.372
307.356
307.345
307.326
307.317
307.308
307.3
307.289
307.289
307.291
307.301
307.32
307.341
307.357
307.373
307.387
307.401
307.413
307.423
307.435
307.45
307.467
307.486
307.508
307.536
307.572
307.624
307.689
307.768
307.856
307.951
308.047
308.142
308.227
308.313
308.396
308.479
308.565
308.655
308.751
308.855
308.968
309.09
309.219
309.353
309.493
309.634
309.753
309.879
310.008
310.138
310.273
310.412
310.557
310.704
310.857
311.016
311.179
311.349
311.525
311.687
311.857
312.032
312.199
312.371
312.549
312.689
312.851
313.035
313.156
313.3
313.46
313.633
313.796
313.974
314.167
314.362
314.571
314.886
377.582
377.642
377.315
376.378
375.253
374.288
373.477
372.79
372.221
371.734
371.217
370.729
370.297
369.917
369.591
369.31
369.071
368.884
368.728
368.603
368.517
368.478
368.472
368.513
368.618
368.794
369.039
369.347
369.71
370.118
370.562
371.027
371.501
371.967
372.414
372.82
373.171
373.431
373.598
373.641
373.523
373.258
372.844
372.273
371.51
370.566
369.439
368.194
366.815
365.353
363.771
362.139
360.409
358.614
356.778
354.91
353.068
351.266
349.502
347.782
346.091
344.463
342.86
341.32
339.776
338.302
336.856
335.46
334.163
332.889
331.714
330.571
329.471
328.437
327.403
326.449
325.57
324.695
323.857
323.014
322.19
321.415
320.693
319.991
319.289
318.625
317.976
317.34
316.751
316.188
315.644
315.135
314.636
314.154
313.691
313.234
312.797
312.38
311.996
311.633
311.283
310.956
310.639
310.34
310.046
309.756
309.468
309.19
308.921
308.662
308.417
308.171
307.948
307.725
307.491
307.25
306.983
306.703
306.371
306.217
306.03
305.843
305.685
305.531
305.365
305.191
305.015
304.835
304.699
304.562
304.473
304.387
304.33
304.27
304.205
304.135
304.059
303.978
303.893
303.804
303.719
303.636
303.558
303.482
303.405
303.329
303.254
303.178
303.099
303.018
302.933
302.844
302.749
302.666
302.588
302.508
302.455
302.4
302.371
302.355
302.336
302.325
302.311
302.305
302.291
302.29
302.29
302.29
302.289
302.296
302.305
302.319
302.339
302.36
302.378
302.396
302.413
302.429
302.446
302.464
302.485
302.509
302.536
302.563
302.591
302.623
302.661
302.712
302.776
302.852
302.937
303.028
303.122
303.217
303.307
303.399
303.491
303.584
303.68
303.78
303.887
304.001
304.123
304.254
304.391
304.533
304.679
304.828
304.956
305.09
305.229
305.37
305.517
305.67
305.828
305.991
306.159
306.333
306.512
306.698
306.888
307.068
307.256
307.449
307.639
307.831
308.03
308.192
308.373
308.573
308.714
308.874
309.048
309.235
309.409
309.598
309.8
310.004
310.221
310.547
377.47
377.36
376.736
375.722
374.719
373.894
373.236
372.74
372.363
372.003
371.654
371.339
371.059
370.814
370.599
370.411
370.249
370.13
370.032
369.966
369.933
369.929
369.96
370.041
370.183
370.385
370.645
370.955
371.305
371.684
372.079
372.471
372.844
373.178
373.454
373.643
373.736
373.682
373.492
373.115
372.507
371.687
370.653
369.406
367.888
366.153
364.201
362.165
360.016
357.817
355.547
353.232
350.938
348.548
346.128
343.819
341.511
339.422
337.349
335.468
333.594
331.899
330.219
328.697
327.168
325.773
324.403
323.121
321.974
320.854
319.87
318.91
318.019
317.207
316.372
315.628
314.954
314.289
313.662
313.008
312.38
311.795
311.268
310.752
310.234
309.747
309.254
308.77
308.332
307.905
307.497
307.111
306.739
306.386
306.046
305.708
305.39
305.083
304.804
304.537
304.28
304.044
303.817
303.602
303.39
303.18
302.971
302.769
302.572
302.385
302.209
302.032
301.875
301.711
301.537
301.361
301.156
300.945
300.698
300.575
300.444
300.325
300.187
300.067
299.936
299.799
299.659
299.515
299.416
299.316
299.256
299.207
299.182
299.156
299.125
299.09
299.047
298.998
298.944
298.885
298.826
298.768
298.713
298.663
298.61
298.56
298.51
298.459
298.405
298.349
298.288
298.223
298.152
298.088
298.029
297.967
297.927
297.886
297.867
297.86
297.85
297.847
297.846
297.85
297.85
297.862
297.877
297.895
297.909
297.929
297.95
297.974
298.003
298.028
298.052
298.075
298.099
298.122
298.146
298.175
298.207
298.244
298.285
298.324
298.364
298.406
298.451
298.508
298.574
298.651
298.736
298.827
298.921
299.017
299.111
299.209
299.309
299.412
299.518
299.629
299.745
299.869
300.002
300.142
300.289
300.438
300.593
300.748
300.886
301.028
301.174
301.324
301.48
301.643
301.812
301.987
302.167
302.354
302.546
302.745
302.949
303.145
303.348
303.557
303.765
303.975
304.192
304.375
304.572
304.787
304.947
305.123
305.312
305.511
305.698
305.898
306.111
306.324
306.549
306.887
377.381
377.105
376.26
375.254
374.367
373.677
373.18
372.854
372.605
372.376
372.172
371.99
371.827
371.677
371.542
371.426
371.329
371.267
371.224
371.205
371.205
371.232
371.298
371.41
371.573
371.785
372.042
372.332
372.643
372.959
373.265
373.534
373.742
373.861
373.877
373.728
373.405
372.865
372.089
371.029
369.622
367.91
365.882
363.605
360.978
358.146
355.135
352.039
349.055
345.939
343.008
339.913
337.103
334.198
331.16
328.58
325.858
323.67
321.358
319.49
317.523
315.926
314.268
312.919
311.497
310.3
309.088
308.024
307.1
306.233
305.524
304.835
304.236
303.712
303.178
302.718
302.335
301.964
301.637
301.264
300.903
300.619
300.349
300.112
299.844
299.624
299.357
299.085
298.867
298.636
298.417
298.206
298.007
297.837
297.673
297.498
297.336
297.173
297.033
296.891
296.756
296.639
296.526
296.423
296.319
296.215
296.11
296.009
295.906
295.813
295.726
295.636
295.562
295.476
295.375
295.284
295.157
295.033
294.887
294.809
294.759
294.707
294.617
294.543
294.459
294.37
294.285
294.192
294.144
294.094
294.075
294.075
294.087
294.104
294.122
294.132
294.133
294.126
294.115
294.094
294.073
294.049
294.027
294.01
293.99
293.973
293.956
293.938
293.917
293.893
293.863
293.83
293.791
293.754
293.722
293.688
293.669
293.649
293.648
293.654
293.661
293.672
293.69
293.71
293.733
293.764
293.8
293.841
293.875
293.915
293.953
293.994
294.035
294.07
294.105
294.139
294.173
294.206
294.242
294.284
294.33
294.382
294.44
294.498
294.553
294.61
294.668
294.733
294.808
294.891
294.979
295.074
295.171
295.271
295.37
295.475
295.584
295.697
295.814
295.936
296.064
296.199
296.342
296.492
296.649
296.809
296.974
297.138
297.285
297.435
297.589
297.748
297.911
298.083
298.262
298.447
298.637
298.835
299.039
299.25
299.466
299.679
299.895
300.118
300.343
300.569
300.802
301.004
301.216
301.444
301.622
301.814
302.017
302.231
302.43
302.642
302.865
303.089
303.323
303.674
377.312
376.844
375.887
374.926
374.158
373.602
373.247
373.051
372.915
372.8
372.71
372.624
372.54
372.464
372.395
372.34
372.304
372.291
372.286
372.298
372.327
372.383
372.471
372.598
372.764
372.965
373.192
373.431
373.663
373.866
374.017
374.086
374.027
373.802
373.368
372.643
371.604
370.239
368.52
366.404
363.774
360.763
357.363
353.724
349.889
345.775
341.804
337.537
333.944
329.986
326.578
322.909
319.642
316.473
313.033
310.454
307.605
305.515
303.235
301.522
299.666
298.301
296.827
295.746
294.542
293.604
292.623
291.824
291.11
290.573
290.06
289.678
289.305
289.053
288.857
288.597
288.531
288.382
288.352
288.306
288.159
288.241
288.182
288.284
288.233
288.327
288.333
288.297
288.361
288.374
288.39
288.409
288.406
288.465
288.525
288.546
288.577
288.596
288.624
288.639
288.656
288.687
288.717
288.755
288.784
288.813
288.836
288.855
288.868
288.885
288.906
288.919
288.95
288.952
288.941
288.942
288.909
288.899
288.856
288.852
288.89
288.903
288.888
288.866
288.843
288.812
288.798
288.77
288.783
288.797
288.827
288.875
288.939
289.008
289.083
289.145
289.205
289.245
289.287
289.309
289.335
289.355
289.375
289.397
289.419
289.44
289.463
289.484
289.502
289.517
289.525
289.531
289.528
289.527
289.529
289.529
289.537
289.549
289.568
289.594
289.624
289.657
289.699
289.741
289.79
289.846
289.906
289.974
290.034
290.102
290.16
290.224
290.282
290.332
290.382
290.431
290.48
290.528
290.579
290.636
290.698
290.769
290.846
290.925
291.001
291.077
291.151
291.231
291.318
291.411
291.507
291.609
291.713
291.819
291.927
292.04
292.159
292.283
292.412
292.546
292.687
292.834
292.99
293.151
293.32
293.491
293.668
293.842
294.001
294.161
294.325
294.492
294.664
294.844
295.032
295.226
295.427
295.635
295.85
296.072
296.3
296.528
296.757
296.993
297.234
297.474
297.722
297.942
298.168
298.409
298.606
298.813
299.03
299.257
299.47
299.694
299.927
300.162
300.406
300.77
377.194
376.583
375.61
374.714
374.055
373.62
373.392
373.302
373.25
373.229
373.218
373.205
373.187
373.169
373.157
373.153
373.16
373.181
373.207
373.243
373.294
373.364
373.459
373.58
373.726
373.886
374.048
374.187
374.279
374.291
374.18
373.893
373.37
372.541
371.346
369.668
367.486
364.889
361.825
358.304
354.108
349.534
344.833
339.723
335.035
329.729
325.181
319.911
316.03
311.601
308.033
304.244
300.841
297.857
294.574
292.198
289.644
287.734
285.895
284.35
282.935
281.787
280.723
279.859
279.021
278.264
277.627
277.028
276.55
276.347
275.885
275.85
275.508
275.529
275.549
275.375
275.582
275.48
275.665
275.83
275.827
276.116
276.19
276.487
276.602
276.861
277.105
277.249
277.485
277.701
277.915
278.135
278.315
278.562
278.823
279.051
279.271
279.488
279.695
279.882
280.071
280.263
280.455
280.649
280.828
281.004
281.17
281.326
281.469
281.613
281.756
281.891
282.032
282.142
282.237
282.327
282.415
282.524
282.601
282.683
282.807
282.919
282.977
283.017
283.063
283.105
283.168
283.225
283.301
283.383
283.476
283.582
283.701
283.828
283.96
284.085
284.206
284.303
284.403
284.478
284.558
284.626
284.695
284.763
284.832
284.898
284.965
285.031
285.093
285.152
285.203
285.254
285.293
285.333
285.375
285.413
285.455
285.5
285.548
285.601
285.659
285.72
285.789
285.86
285.938
286.022
286.112
286.209
286.299
286.398
286.483
286.572
286.652
286.722
286.791
286.859
286.926
286.994
287.063
287.138
287.221
287.311
287.41
287.513
287.613
287.711
287.806
287.903
288.006
288.113
288.221
288.334
288.448
288.564
288.682
288.805
288.936
289.073
289.216
289.365
289.519
289.68
289.848
290.023
290.205
290.388
290.578
290.766
290.939
291.11
291.285
291.463
291.644
291.833
292.03
292.233
292.444
292.663
292.888
293.121
293.361
293.604
293.846
294.096
294.351
294.604
294.866
295.105
295.344
295.597
295.812
296.035
296.264
296.505
296.732
296.967
297.212
297.457
297.71
298.089
377.014
376.371
375.411
374.586
374.022
373.701
373.592
373.57
373.584
373.63
373.681
373.723
373.757
373.788
373.819
373.853
373.893
373.937
373.983
374.032
374.09
374.159
374.239
374.33
374.424
374.5
374.54
374.508
374.354
374.021
373.444
372.541
371.241
369.436
367.072
364.008
360.267
356.094
351.523
346.446
340.853
334.723
329.227
322.813
317.754
311.701
307.036
301.39
297.58
293.128
289.796
286.291
283.272
280.658
278.128
275.937
274.139
272.393
271.283
269.899
269.156
268.131
267.648
266.851
266.539
265.784
265.663
265.111
264.986
264.924
264.599
264.77
264.419
264.672
264.654
264.682
264.978
264.846
265.147
265.317
265.385
265.759
265.85
266.2
266.384
266.692
267.015
267.234
267.55
267.833
268.135
268.443
268.727
269.077
269.436
269.793
270.132
270.477
270.81
271.127
271.446
271.765
272.084
272.403
272.707
273.007
273.301
273.585
273.854
274.123
274.386
274.646
274.894
275.105
275.312
275.508
275.725
275.955
276.169
276.356
276.57
276.772
276.907
277.03
277.154
277.278
277.421
277.562
277.714
277.869
278.03
278.199
278.377
278.563
278.756
278.945
279.128
279.29
279.451
279.587
279.724
279.846
279.969
280.089
280.207
280.323
280.439
280.553
280.661
280.768
280.867
280.966
281.053
281.138
281.223
281.304
281.386
281.466
281.548
281.633
281.723
281.816
281.916
282.02
282.131
282.247
282.369
282.498
282.621
282.752
282.869
282.987
283.092
283.186
283.279
283.369
283.458
283.548
283.639
283.736
283.84
283.953
284.075
284.202
284.33
284.454
284.572
284.691
284.812
284.936
285.06
285.187
285.314
285.443
285.574
285.71
285.854
286.006
286.164
286.328
286.497
286.673
286.856
287.045
287.24
287.439
287.642
287.846
288.036
288.219
288.407
288.597
288.789
288.989
289.194
289.408
289.628
289.858
290.094
290.338
290.592
290.848
291.103
291.366
291.636
291.902
292.178
292.434
292.686
292.952
293.185
293.422
293.665
293.918
294.159
294.406
294.662
294.918
295.181
295.574
376.788
376.159
375.248
374.505
374.039
373.834
373.807
373.827
373.896
373.997
374.095
374.178
374.251
374.318
374.38
374.44
374.499
374.555
374.607
374.656
374.704
374.751
374.791
374.817
374.81
374.74
374.562
374.215
373.623
372.703
371.364
369.5
367.034
363.812
359.87
355.259
349.849
343.882
338.076
331.497
325.106
317.714
311.948
304.876
299.839
293.59
289.249
283.823
280.45
276.302
273.614
270.523
268.375
266.047
264.566
262.564
261.728
260.083
259.859
258.535
258.544
257.543
257.701
256.864
257.136
256.356
256.76
256.2
256.521
256.306
256.444
256.507
256.372
256.752
256.583
256.926
257.167
257.047
257.417
257.439
257.604
257.984
258.009
258.346
258.507
258.765
259.084
259.257
259.566
259.795
260.092
260.375
260.652
261.001
261.344
261.711
262.066
262.431
262.791
263.15
263.514
263.88
264.25
264.624
264.989
265.357
265.723
266.083
266.434
266.788
267.136
267.484
267.813
268.106
268.401
268.699
269.019
269.357
269.688
269.993
270.285
270.559
270.775
270.979
271.186
271.394
271.618
271.844
272.075
272.302
272.533
272.765
273.003
273.248
273.5
273.751
273.997
274.225
274.45
274.648
274.846
275.026
275.206
275.379
275.551
275.718
275.884
276.049
276.205
276.362
276.511
276.658
276.798
276.93
277.064
277.188
277.314
277.432
277.551
277.673
277.798
277.926
278.061
278.2
278.347
278.498
278.655
278.817
278.974
279.14
279.292
279.44
279.575
279.696
279.815
279.93
280.045
280.159
280.274
280.396
280.524
280.661
280.807
280.96
281.117
281.269
281.414
281.555
281.699
281.843
281.984
282.128
282.271
282.416
282.562
282.714
282.873
283.04
283.215
283.395
283.581
283.773
283.971
284.176
284.386
284.6
284.819
285.04
285.249
285.447
285.65
285.853
286.057
286.268
286.484
286.709
286.94
287.181
287.429
287.684
287.951
288.221
288.489
288.765
289.048
289.327
289.617
289.891
290.156
290.434
290.686
290.937
291.192
291.458
291.712
291.972
292.238
292.505
292.778
293.185
376.554
375.94
375.094
374.446
374.094
373.988
374.006
374.067
374.185
374.326
374.456
374.569
374.669
374.758
374.839
374.913
374.977
375.032
375.076
375.109
375.126
375.125
375.087
374.996
374.811
374.472
373.904
373.021
371.723
369.904
367.45
364.223
360.216
355.278
349.591
343.756
336.86
329.051
322.481
314.642
308.071
300.139
294.433
287.366
282.646
276.625
272.926
268.05
265.424
261.74
260.042
257.282
256.24
254.085
253.757
251.911
252.01
250.525
251.001
249.858
250.442
249.578
250.237
249.467
250.214
249.546
250.353
249.903
250.561
250.235
250.834
250.65
251.086
251.362
251.322
251.826
251.863
251.992
252.427
252.282
252.603
252.944
252.904
253.234
253.35
253.521
253.819
253.9
254.172
254.286
254.533
254.714
254.911
255.188
255.421
255.703
255.968
256.254
256.537
256.832
257.137
257.45
257.774
258.106
258.442
258.789
259.141
259.495
259.853
260.216
260.582
260.946
261.296
261.62
261.951
262.301
262.674
263.069
263.459
263.84
264.177
264.499
264.778
265.049
265.324
265.603
265.897
266.195
266.498
266.791
267.086
267.372
267.663
267.96
268.264
268.571
268.874
269.164
269.451
269.71
269.968
270.204
270.44
270.666
270.891
271.108
271.325
271.539
271.744
271.951
272.149
272.347
272.539
272.722
272.903
273.076
273.246
273.405
273.563
273.723
273.885
274.05
274.222
274.398
274.583
274.771
274.964
275.16
275.353
275.553
275.742
275.92
276.087
276.239
276.386
276.529
276.672
276.813
276.955
277.102
277.255
277.418
277.589
277.768
277.954
278.135
278.31
278.477
278.645
278.811
278.971
279.134
279.295
279.458
279.622
279.791
279.967
280.151
280.343
280.541
280.744
280.953
281.167
281.388
281.615
281.845
282.081
282.32
282.55
282.765
282.983
283.202
283.419
283.642
283.87
284.106
284.348
284.602
284.862
285.129
285.408
285.691
285.973
286.261
286.558
286.85
287.155
287.445
287.722
288.011
288.285
288.547
288.816
289.095
289.363
289.634
289.911
290.189
290.472
290.893
376.34
375.72
374.95
374.415
374.176
374.14
374.185
374.289
374.446
374.614
374.764
374.895
375.01
375.11
375.196
375.27
375.327
375.367
375.387
375.385
375.344
375.254
375.081
374.776
374.269
373.469
372.269
370.568
368.25
365.184
361.267
356.336
350.611
344.165
336.918
329.99
322.002
312.756
305.807
297.276
290.814
283.051
277.689
271.193
267.021
261.643
258.736
254.642
252.855
249.68
249.01
246.399
246.447
244.409
244.932
243.368
244.136
242.915
243.908
243.029
244.12
243.438
244.577
243.946
245.131
244.647
245.799
245.491
246.468
246.181
247.086
246.905
247.708
247.765
248.183
248.742
248.573
249.094
249.493
249.35
249.765
250.069
250.047
250.412
250.506
250.62
250.937
250.969
251.232
251.262
251.49
251.583
251.716
251.939
252.063
252.262
252.411
252.602
252.769
252.959
253.155
253.356
253.566
253.778
253.999
254.234
254.476
254.727
254.992
255.267
255.551
255.834
256.113
256.364
256.642
256.954
257.294
257.661
258.038
258.417
258.739
259.057
259.346
259.635
259.934
260.24
260.565
260.898
261.239
261.57
261.901
262.219
262.541
262.871
263.207
263.549
263.894
264.231
264.567
264.875
265.183
265.467
265.753
266.025
266.299
266.56
266.822
267.082
267.333
267.587
267.833
268.078
268.319
268.551
268.779
268.997
269.211
269.411
269.608
269.806
270.006
270.208
270.417
270.631
270.853
271.078
271.307
271.539
271.766
271.998
272.225
272.434
272.633
272.818
272.995
273.166
273.338
273.507
273.677
273.851
274.031
274.22
274.417
274.622
274.836
275.046
275.252
275.445
275.64
275.829
276.01
276.193
276.374
276.557
276.74
276.927
277.122
277.324
277.534
277.75
277.97
278.197
278.428
278.665
278.908
279.156
279.409
279.666
279.919
280.152
280.387
280.622
280.853
281.089
281.329
281.576
281.83
282.095
282.366
282.644
282.936
283.233
283.528
283.829
284.139
284.444
284.761
285.068
285.357
285.655
285.952
286.226
286.508
286.799
287.082
287.365
287.653
287.943
288.236
288.672
376.149
375.51
374.823
374.412
374.265
374.275
374.349
374.491
374.676
374.859
375.02
375.159
375.277
375.376
375.455
375.515
375.552
375.562
375.539
375.472
375.333
375.084
374.662
373.987
372.946
371.433
369.313
366.483
362.843
358.208
352.644
346.022
338.582
331.156
322.74
314.19
305.91
296.15
288.949
280.409
274.272
267.333
262.468
257.031
253.37
248.996
246.672
243.625
242.269
240.09
239.709
237.793
238.343
236.747
237.863
236.582
237.944
236.917
238.489
237.802
239.416
238.793
240.455
239.902
241.546
241.196
242.689
242.455
243.78
243.545
244.744
244.644
245.669
245.608
246.36
246.932
246.863
247.554
247.807
247.864
248.397
248.586
248.683
249.134
249.184
249.314
249.677
249.697
249.975
249.969
250.207
250.275
250.383
250.591
250.668
250.832
250.919
251.069
251.167
251.304
251.436
251.562
251.691
251.807
251.935
252.072
252.208
252.35
252.506
252.666
252.834
252.979
253.131
253.231
253.383
253.577
253.796
254.052
254.311
254.576
254.8
255.019
255.232
255.455
255.693
255.946
256.224
256.516
256.824
257.133
257.438
257.74
258.049
258.367
258.694
259.03
259.373
259.719
260.069
260.396
260.727
261.035
261.347
261.646
261.949
262.24
262.533
262.823
263.106
263.392
263.674
263.956
264.237
264.508
264.775
265.032
265.283
265.519
265.752
265.983
266.216
266.451
266.695
266.942
267.198
267.458
267.72
267.984
268.243
268.505
268.766
269.005
269.234
269.452
269.658
269.858
270.057
270.255
270.453
270.654
270.86
271.075
271.297
271.527
271.767
272.004
272.24
272.461
272.683
272.895
273.098
273.301
273.504
273.707
273.911
274.118
274.332
274.552
274.78
275.014
275.252
275.496
275.744
275.998
276.257
276.522
276.792
277.067
277.341
277.594
277.845
278.096
278.342
278.591
278.842
279.1
279.363
279.638
279.919
280.208
280.512
280.821
281.13
281.443
281.765
282.082
282.41
282.734
283.035
283.345
283.658
283.947
284.242
284.545
284.843
285.138
285.438
285.739
286.043
286.496
375.966
375.322
374.72
374.424
374.35
374.393
374.501
374.673
374.874
375.063
375.227
375.364
375.474
375.559
375.617
375.649
375.651
375.615
375.521
375.341
375.022
374.492
373.648
372.386
370.553
368.041
364.721
360.487
355.3
348.999
341.772
333.835
324.758
316.62
307.343
297.212
289.245
279.812
272.663
264.987
259.304
253.765
249.297
245.092
241.641
238.658
236.603
235.241
234.06
233.623
232.621
232.13
232.26
231.035
232.363
231.527
233.266
232.448
234.649
234.026
236.15
235.458
237.627
237.089
239.169
238.919
240.753
240.54
242.191
241.999
243.453
243.403
244.609
244.544
245.543
245.852
246.144
246.93
246.837
247.369
247.956
247.885
248.282
248.752
248.73
248.945
249.35
249.348
249.644
249.632
249.902
249.976
250.07
250.282
250.346
250.502
250.566
250.707
250.783
250.912
251.024
251.125
251.228
251.305
251.402
251.501
251.591
251.69
251.802
251.907
252.015
252.073
252.148
252.152
252.24
252.362
252.495
252.664
252.815
252.952
253.073
253.151
253.241
253.343
253.462
253.6
253.765
253.947
254.151
254.352
254.559
254.762
254.971
255.191
255.424
255.671
255.936
256.213
256.501
256.786
257.079
257.359
257.648
257.927
258.215
258.496
258.783
259.068
259.352
259.639
259.927
260.219
260.511
260.798
261.082
261.356
261.626
261.882
262.137
262.387
262.641
262.897
263.163
263.432
263.712
263.996
264.283
264.571
264.854
265.139
265.425
265.687
265.942
266.188
266.419
266.643
266.868
267.092
267.315
267.54
267.771
268.008
268.253
268.506
268.767
269.029
269.292
269.54
269.788
270.021
270.247
270.469
270.692
270.917
271.14
271.367
271.6
271.838
272.083
272.334
272.589
272.849
273.113
273.383
273.659
273.94
274.225
274.517
274.81
275.083
275.35
275.618
275.878
276.138
276.399
276.666
276.938
277.22
277.511
277.81
278.122
278.442
278.763
279.088
279.422
279.75
280.089
280.428
280.74
281.061
281.389
281.691
281.999
282.314
282.627
282.934
283.245
283.557
283.872
284.341
375.805
375.164
374.653
374.449
374.429
374.503
374.643
374.835
375.042
375.231
375.389
375.513
375.603
375.659
375.685
375.677
375.628
375.513
375.294
374.913
374.28
373.293
371.802
369.698
366.815
363.057
358.326
352.503
345.628
337.861
328.958
320.108
309.56
300.693
290.957
280.51
272.808
264.481
257.874
251.836
246.812
242.384
238.471
235.13
232.725
231.46
229.812
228.874
227.05
226.821
224.736
225.67
224.18
225.945
226.162
226.514
227.828
227.823
230.614
229.882
232.52
231.695
234.491
234.113
236.772
236.68
238.91
238.704
240.753
240.695
242.472
242.513
243.946
243.923
245.153
245.148
246.024
246.766
246.652
247.379
247.942
247.898
248.418
248.858
248.789
249.121
249.531
249.483