/*--------------------------------*- C++ -*----------------------------------*\
| =========                 |                                                 |
| \\      /  F ield         | OpenFOAM: The Open Source CFD Toolbox           |
|  \\    /   O peration     | Version:  2312                                  |
|   \\  /    A nd           | Website:  www.openfoam.com                      |
|    \\/     M anipulation  |                                                 |
\*---------------------------------------------------------------------------*/
FoamFile
{
    version     2.0;
    format      ascii;
    arch        "LSB;label=32;scalar=64";
    class       volScalarField;
    location    "0.001";
    object      k;
}
// * * * * * * * * * * * * * * * * * * * * * * * * * * * * * * * * * * * * * //

dimensions      [0 2 -2 0 0 0 0];

internalField   nonuniform List<scalar> 
48128
(
1.15532
2.58864
3.65536
3.30398
2.41866
1.57305
14.2733
71.9069
187.205
316.511
440.214
554.248
657.163
750.368
836.085
916.175
991.973
1064.83
1135.8
1205.26
1273.19
1339.69
1404.93
1469.12
1532.6
1595.78
1659.14
1724.4
1790.73
1856.78
1924.29
1994.22
2066.15
2140.89
2218.57
2304.52
2388.07
2469.2
2548.58
2628.31
2711.67
2790.33
2869.77
2938.85
3007.4
3067
3118.46
3142.42
3165.95
3154.49
3146.63
3122.23
3166.47
3214.52
3261.65
3299.59
3319.48
3330.81
3330.69
3324.8
3313.39
3296.46
3275.76
3250.55
3222.42
3189.94
3155.01
3119.4
3080.33
3040.59
2998.23
2955.37
2912.91
2868.68
2829.21
2789.13
2749.03
2711.68
2673.79
2639.49
2604.69
2572.13
2539.2
2508.16
2478.74
2449.82
2423.05
2398.24
2374.3
2352.04
2331.55
2311.91
2293.24
2274.92
2257.95
2242.12
2227.42
2213.44
2200.22
2187.83
2176.17
2165.09
2154.71
2144.82
2135.48
2126.52
2118.13
2110.27
2102.95
2095.98
2089.4
2083.23
2077.55
2072.03
2066.91
2061.6
2056.58
2050.65
2049.49
2047.19
2043.38
2041.35
2038.76
2035.67
2032.47
2029.26
2026.03
2023.54
2021.04
2019.09
2016.84
2014.53
2011.94
2009.16
2006.33
2003.41
2000.44
1997.51
1994.57
1991.73
1988.89
1986.18
1983.41
1980.6
1977.86
1975.18
1972.64
1970.16
1967.8
1965.54
1963.4
1961.26
1959.68
1958.12
1956.52
1954.94
1953.26
1951.42
1949.29
1946.8
1944.02
1941.02
1937.94
1934.71
1931.67
1928.6
1925.61
1922.89
1920.53
1918.25
1916.02
1913.78
1911.44
1908.91
1906.28
1903.84
1901.48
1899.32
1897.26
1895.33
1893.44
1891.5
1889.44
1887.23
1884.82
1882.18
1879.32
1876.17
1872.68
1868.84
1864.7
1860.36
1855.85
1851.59
1847.88
1844.6
1841.57
1838.63
1835.65
1832.56
1829.25
1825.62
1821.52
1816.86
1811.61
1805.84
1799.66
1792.97
1786.52
1780.9
1775.3
1770.41
1765.77
1761.3
1756.8
1752.25
1747.52
1742.47
1737.03
1731.22
1724.93
1718.71
1713.04
1707.32
1702.13
1697.35
1692.34
1687.98
1683.85
1679.16
1674.89
1671.21
1667.38
1663.19
1659.08
1655.25
1651.29
1647.54
1643.6
1638.61
6.17017
2.93748
1.53214
1.80751
5.15844
18.0105
59.0532
145.234
274.858
421.19
566.744
711.575
854.267
995.019
1134.69
1274.6
1417.96
1566.84
1723.42
1888.85
2064.52
2251.3
2450.3
2661.83
2887.25
3126.67
3377.98
3645.95
3933.43
4228.51
4534.81
4853.94
5183.16
5523.4
5864.72
6214.47
6561.67
6897.7
7221.47
7538.2
7854.06
8146.7
8418.16
8648.49
8874.36
9074.68
9269.61
9394.65
9505.83
9548.59
9576.43
9558.22
9535.25
9495.4
9433.62
9352.46
9244.82
9114.87
8965.42
8801.54
8627.49
8444.11
8254.93
8059.23
7863.4
7671.59
7479.58
7289.93
7095.45
6903.23
6709.18
6518.6
6334.28
6149.19
5975.97
5806.1
5640.9
5480.85
5325.23
5175.57
5030.91
4892.66
4758.89
4630.93
4509.45
4393.23
4282.41
4178.32
4078.1
3982.75
3892.63
3807.62
3726.23
3647.67
3572.82
3501.78
3434.66
3371.02
3310.7
3253.84
3200.28
3149.48
3101.62
3056.13
3013.26
2972.14
2932.98
2895.42
2859.82
2825.76
2793.23
2762.06
2732.7
2704.23
2677.42
2650.27
2623.45
2596.21
2568.46
2546.37
2524.02
2501.22
2483.13
2465.89
2449.39
2432.74
2416.35
2400.09
2385.05
2370.77
2357.92
2345.7
2334.46
2323.43
2312.79
2301.96
2291.02
2280.03
2269.29
2258.79
2248.63
2238.68
2229.13
2219.82
2210.73
2201.89
2193.22
2184.78
2176.43
2168.32
2160.11
2152.24
2144.25
2137.14
2129.91
2123.84
2117.85
2112.69
2108.02
2103.6
2099.28
2094.86
2090.34
2085.62
2080.75
2075.8
2070.8
2065.92
2061.48
2057.27
2053.36
2049.9
2046.74
2044.01
2041.22
2038.31
2035.27
2032.02
2028.53
2024.81
2020.93
2016.94
2012.89
2008.91
2005.05
2001.41
1998.14
1995.38
1993.01
1991.05
1989.29
1987.56
1985.78
1983.73
1981.29
1978.48
1975.37
1972.02
1968.52
1964.94
1961.36
1958
1954.72
1951.48
1948.36
1945.14
1942.08
1938.86
1935.22
1931.44
1927.55
1923.55
1919.51
1915.42
1911.28
1907.08
1902.81
1898.37
1893.73
1888.9
1883.72
1878.23
1873
1868.04
1862.97
1858.28
1853.27
1847.8
1842.95
1837.58
1831.68
1826.11
1820.67
1815.14
1809.52
1804.54
1799.71
1795.17
1790.45
1784.32
10.8578
6.18877
4.3079
9.44385
30.6648
82.4231
188.913
366.444
603.584
875.195
1149.05
1420.18
1683.44
1937.64
2183.88
2424.47
2664.09
2905.24
3153.09
3409.59
3677.05
3956.68
4250.44
4559.05
4883.94
5226.72
5581.75
5952.85
6339.24
6737.41
7148.25
7571.14
8003.12
8448.35
8901.23
9375.27
9844.95
10296.2
10725.5
11134.8
11540.9
11914.3
12261.9
12538.6
12802.7
13013.5
13214
13328.4
13404.8
13403.6
13369.2
13278
13155.2
13006.7
12833.6
12641.9
12425.9
12187.1
11928.1
11653.7
11369.6
11076.8
10780.3
10478.3
10178.6
9880.45
9583.72
9294.26
9002.59
8719.37
8439.78
8167.98
7905.74
7647.48
7403.17
7167.1
6938.83
6718.11
6504.88
6299.95
6103.57
5916.2
5736.35
5563.77
5399.89
5242.87
5092.79
4951.3
4815.09
4685.07
4561.68
4445.09
4333.32
4225.53
4122.37
4024.21
3930.98
3842.29
3757.67
3677.33
3601.2
3528.62
3459.82
3394.02
3331.78
3271.74
3214.58
3159.42
3107.03
3056.56
3008.25
2961.82
2917.64
2874.73
2834.41
2793.73
2754.13
2714.35
2674.09
2639.3
2604.77
2569.65
2539.15
2510.1
2482.25
2454.56
2427.69
2401.34
2376.43
2352.44
2330.16
2308.77
2288.72
2269.25
2250.69
2232.56
2214.98
2197.69
2180.9
2164.51
2148.64
2132.98
2117.87
2103.04
2088.64
2074.52
2060.76
2047.23
2033.95
2020.91
2007.88
1995.13
1982.37
1970.23
1958.38
1947.06
1936.35
1926.18
1916.95
1908.21
1899.83
1891.71
1883.9
1876.08
1868.36
1860.86
1853.32
1845.83
1838.81
1831.92
1825.3
1819.16
1813.26
1807.92
1802.68
1797.52
1792.5
1787.43
1782.33
1777.18
1771.97
1766.7
1761.43
1756.17
1751.07
1746.15
1741.58
1737.55
1733.98
1730.92
1728.16
1725.77
1723.38
1720.88
1718.22
1715.39
1712.38
1709.23
1705.99
1702.73
1699.48
1696.55
1693.76
1691.2
1688.88
1686.54
1684.5
1682.38
1679.95
1677.4
1674.78
1672.01
1669.19
1666.32
1663.47
1660.55
1657.75
1654.9
1651.96
1648.87
1645.59
1641.92
1638.16
1634.48
1630.64
1626.81
1622.81
1618.3
1614.08
1609.7
1604.66
1599.68
1594.86
1589.94
1584.83
1579.98
1575.45
1571
1566.43
1560.52
15.3123
11.7873
15.1268
37.6224
96.5901
217.753
433.391
745.965
1118.16
1506.48
1877.65
2226.35
2554.54
2865.22
3162.63
3452.73
3740.55
4029.96
4326.17
4632.15
4950.86
5284.54
5635.99
6006.51
6396.24
6805.97
7232.65
7678.83
8144
8628.18
9128.35
9643.87
10172
10715.9
11266.8
11841.6
12412.9
12955.3
13467
13939.4
14399.6
14814
15198.1
15487.3
15742.9
15924.4
16068.5
16122.6
16112.6
16028.1
15886.7
15685.5
15444.9
15176.9
14885.1
14575.2
14247.8
13901.5
13542.5
13171.3
12796
12415.7
12039.2
11659.7
11288.2
10921.1
10562.2
10213.9
9872.99
9543.48
9223.4
8914.09
8615.84
8325.8
8048.84
7784.63
7531
7286.24
7051.12
6824.62
6608.97
6403.15
6207.13
6018.41
5838.72
5666.63
5501.34
5345.07
5194.82
5050.96
4914.03
4784.8
4660.83
4541.48
4426.74
4317.41
4213.1
4113.69
4018.54
3927.8
3841.69
3759.33
3681.03
3605.87
3534.66
3465.71
3399.99
3336.3
3275.76
3217.18
3161.13
3107.01
3055.38
3005.22
2958.03
2910.49
2864.25
2818.21
2771.24
2730.19
2689.88
2648.69
2611.69
2576.41
2542.27
2508.33
2475.43
2443.3
2412.81
2383.25
2355.68
2329.18
2304.18
2279.94
2256.68
2234.04
2212.13
2190.67
2169.85
2149.57
2129.92
2110.54
2091.85
2073.47
2055.67
2038.2
2021.22
2004.5
1988.13
1971.99
1955.97
1940.17
1924.48
1909.22
1894.49
1879.96
1866.16
1852.8
1840.3
1828.41
1817
1806.02
1795.48
1785.15
1775.16
1765.48
1756.05
1746.59
1737.69
1728.99
1720.47
1712.41
1704.51
1697.13
1689.95
1683.01
1676.28
1669.71
1663.24
1656.86
1650.5
1644.16
1637.87
1631.6
1625.47
1619.45
1613.72
1608.47
1603.64
1599.33
1595.39
1591.93
1588.66
1585.44
1582.16
1578.9
1575.62
1572.3
1568.99
1565.72
1562.47
1559.54
1556.8
1554.27
1552.02
1549.77
1547.88
1545.94
1543.8
1541.69
1539.65
1537.51
1535.4
1533.29
1531.25
1529.17
1527.26
1525.35
1523.41
1521.38
1519.19
1516.67
1514.02
1511.34
1508.48
1505.53
1502.38
1498.74
1495.23
1491.6
1487.41
1483.17
1478.93
1474.55
1469.98
1465.44
1461.18
1456.96
1452.6
1446.99
19.6563
28.7148
42.3441
95.195
213.688
433.486
777.544
1212.1
1657.74
2081.49
2480.54
2859.17
3219.32
3563.98
3896.95
4223.18
4547.15
4873.39
5207.61
5553.63
5915.41
6296.28
6698.85
7124.8
7574.89
8049.94
8548.27
9070.69
9616.31
10185.7
10775.7
11383.4
12005.6
12642.8
13280.4
13940
14597
15206.3
15774.6
16277.5
16745.1
17149.3
17506.9
17758.2
17937.7
18024.1
18026.3
17945.8
17774.4
17529.3
17218.1
16877.5
16495.5
16092.4
15677.9
15247
14813.1
14368.9
13928.4
13482.1
13044
12608.4
12185.7
11767.1
11361.6
10964.1
10584.8
10216.3
9867.31
9529.27
9207.05
8898.7
8601.61
8317.17
8042.36
7781.63
7533.18
7293.27
7063.76
6841.79
6631.71
6430.15
6239.73
6055.91
5880.36
5712.34
5550.52
5397.07
5249.57
5107.84
4972.44
4844.59
4722.08
4604.17
4490.34
4381.66
4277.38
4177.82
4082.28
3990.84
3904.03
3820.68
3741.31
3664.85
3592.27
3521.78
3454.42
3388.83
3326.38
3265.7
3207.67
3151.3
3097.61
3045.27
2995.92
2946.32
2898
2850.17
2800.97
2757.81
2715.71
2672.69
2632.88
2594.98
2558.13
2521.49
2485.92
2451.14
2418.09
2385.89
2355.83
2326.92
2299.59
2273.17
2247.66
2222.83
2198.72
2175.15
2152.21
2129.87
2108.18
2086.84
2066.26
2046.01
2026.41
2007.18
1988.54
1970.17
1952.23
1934.49
1916.93
1899.59
1882.38
1865.5
1849.24
1833.02
1817.52
1802.39
1787.99
1774.29
1760.99
1748.35
1735.98
1724.2
1712.7
1701.64
1690.97
1680.33
1670.17
1660.31
1650.56
1641.24
1632.02
1623.3
1614.77
1606.58
1598.61
1590.95
1583.48
1576.21
1569.08
1562.03
1555.08
1548.16
1541.36
1534.63
1528.11
1522
1516.23
1510.93
1506.02
1501.63
1497.51
1493.6
1489.68
1485.93
1482.3
1478.7
1475.22
1471.85
1468.53
1465.53
1462.75
1460.19
1457.93
1455.68
1453.74
1451.81
1449.71
1447.68
1445.87
1444
1442.26
1440.58
1439.07
1437.53
1436.22
1435.01
1433.78
1432.54
1431.18
1429.5
1427.7
1425.85
1423.82
1421.67
1419.32
1416.5
1413.69
1410.82
1407.42
1403.93
1400.37
1396.64
1392.67
1388.63
1384.79
1380.94
1376.93
1371.83
25.8026
59.696
88.5359
186.716
384.594
713.944
1163.94
1635.38
2088.51
2522.36
2937.19
3335.17
3717.59
4087.24
4447.71
4803.04
5157.11
5514.79
5882.08
6263.74
6664.42
7088.09
7537.91
8016.61
8525.23
9065.33
9634.72
10232.9
10856.9
11509.5
12185.9
12878.9
13586.2
14306.2
15012.8
15726.5
16434.4
17066.7
17644.1
18117.5
18516
18824.1
19042.3
19147.5
19131.2
19040.3
18834
18548.6
18153.8
17711.1
17193.7
16651.1
16062.9
15458.5
14879.9
14294.8
13731.5
13189.6
12668.6
12174.7
11698.1
11250.8
10822.6
10417.7
10029.7
9658.55
9316.91
8984.25
8689.86
8400.1
8136.26
7883.97
7643.95
7419.68
7196.89
6992.73
6798.51
6610.83
6432.85
6255.09
6090.65
5927.54
5777.05
5628.47
5487
5349.35
5213.89
5084.55
4958.91
4836.77
4719.51
4608
4501.67
4398.94
4298.78
4203.05
4110.66
4022.18
3936.87
3854.75
3776.65
3701.11
3629.04
3559.17
3492.56
3427.63
3365.28
3304.21
3245.77
3188.85
3134.23
3081.01
3030.23
2980.44
2933.38
2886.16
2840.22
2794.78
2747.79
2706.09
2665.48
2624.28
2584.89
2547.49
2511.04
2474.94
2439.72
2405.14
2372.2
2339.93
2309.8
2280.82
2253.45
2227.14
2201.56
2176.69
2152.35
2128.64
2105.31
2082.65
2060.45
2038.74
2017.69
1997.05
1977.03
1957.39
1938.38
1919.64
1901.35
1883.26
1865.37
1847.69
1830.12
1812.81
1796.12
1779.35
1763.28
1747.45
1732.22
1717.81
1703.67
1690.29
1677.01
1664.63
1652.33
1640.72
1629.48
1618.36
1607.58
1597.15
1586.82
1576.84
1566.94
1557.45
1548.15
1539.18
1530.44
1522.11
1514.01
1506.21
1498.66
1491.26
1484
1476.8
1469.7
1462.63
1455.71
1449.1
1442.76
1436.79
1431.21
1426.13
1421.39
1416.92
1412.51
1408.33
1404.4
1400.58
1396.94
1393.48
1390.12
1387.08
1384.28
1381.73
1379.47
1377.27
1375.31
1373.39
1371.32
1369.28
1367.57
1365.82
1364.26
1362.85
1361.65
1360.52
1359.64
1358.95
1358.28
1357.67
1357.01
1356.04
1354.94
1353.81
1352.52
1351.13
1349.56
1347.53
1345.44
1343.32
1340.71
1337.97
1335.16
1332.16
1328.89
1325.49
1322.2
1318.87
1315.37
1311
35.5547
103.929
156.657
313.562
598.638
1020.67
1499.74
1966.98
2418.93
2854.86
3276.68
3685.7
4083.09
4471.47
4853.57
5232.71
5612.08
5996.54
6392.56
6805.26
7239.88
7701.9
8195.3
8723.52
9287.84
9890.53
10527.3
11197.7
11895.3
12623.5
13377.1
14140.9
14912.4
15689.2
16437.4
17149.6
17836.1
18404.3
18893.5
19223.3
19447.2
19568.2
19536.8
19391.6
19062.9
18596.9
17966.8
17304.2
16544.2
15795.5
14992.7
14222.4
13445
12695.5
11973.7
11332
10691
10158.5
9622.79
9177.7
8732.46
8359.18
7992.12
7678.55
7372.11
7099.72
6853.57
6619.19
6430.33
6238.79
6082.25
5927.76
5790.33
5666.46
5538.26
5431
5323.83
5225.53
5132.11
5035.06
4947.76
4857.31
4776.5
4693.67
4615.06
4535.46
4453.48
4373.23
4293.17
4212.7
4134.22
4057.58
3984.88
3914.19
3843.89
3775.08
3707.39
3641.36
3576.76
3513.77
3453.36
3394.11
3337.27
3281.41
3227.86
3175.25
3124.45
3074.38
3025.97
2978.81
2932.99
2888.47
2845.39
2803.05
2762.58
2722.37
2683.42
2644.36
2604.04
2566.91
2531.16
2495.16
2459.5
2425.67
2392.68
2360.23
2328.26
2296.68
2266.47
2236.69
2208.87
2182.1
2156.9
2132.81
2109.18
2086.33
2063.71
2041.75
2019.8
1998.52
1977.43
1956.89
1936.78
1917.2
1898.08
1879.38
1861.21
1843.34
1825.86
1808.6
1791.53
1774.59
1757.75
1741.1
1724.97
1708.7
1693.05
1677.55
1662.48
1648.23
1634.23
1620.87
1607.66
1595.36
1583.13
1571.64
1560.51
1549.57
1538.87
1528.46
1518.19
1508.18
1498.2
1488.53
1479.02
1469.76
1460.75
1452.16
1443.81
1435.86
1428.26
1420.86
1413.65
1406.52
1399.49
1392.47
1385.53
1378.8
1372.28
1366
1360.06
1354.58
1349.5
1344.72
1340.03
1335.62
1331.52
1327.6
1323.91
1320.45
1317.13
1314.16
1311.42
1308.98
1306.79
1304.74
1302.86
1301.04
1299.08
1297.09
1295.46
1293.81
1292.38
1291.17
1290.21
1289.39
1288.87
1288.6
1288.37
1288.31
1288.26
1287.91
1287.45
1286.98
1286.38
1285.72
1284.91
1283.65
1282.3
1280.94
1279.12
1277.15
1275.1
1272.89
1270.39
1267.73
1265.11
1262.43
1259.56
1256.09
47.6209
159.604
246.606
468.766
831.308
1296.35
1763.16
2220.84
2665.12
3097.2
3519.3
3932.7
4339.17
4740.48
5138.57
5536.07
5935.62
6341.49
6760.79
7198.79
7662.3
8158.02
8690.32
9263.94
9879.51
10539.7
11238
11974.6
12736.9
13526.1
14335.5
15145.1
15940.2
16710.7
17439.9
18057.2
18610.5
19011.1
19286.2
19353.3
19232.3
18943.8
18421.5
17771.4
16918.9
15965.6
14900.7
13897.9
12875.1
11950.5
11041.8
10259.6
9493.57
8830.84
8155.09
7622.77
7079.37
6665.32
6240.93
5914.33
5579.65
5322.99
5062.07
4860.22
4655
4490.92
4335.9
4200
4094.32
3988.67
3911.98
3834.42
3774.79
3724.16
3671.74
3634.9
3596.33
3566.89
3540.09
3511.34
3488.25
3462.91
3442.08
3419.83
3397.64
3374.79
3349.84
3324.17
3297.74
3270.28
3241.63
3212.07
3183.89
3156.23
3128
3098.67
3068.38
3036.88
3004.16
2970.6
2936.75
2902.7
2869.11
2835.32
2802.13
2769.22
2736.4
2703.34
2670.66
2638.42
2606.59
2575.27
2544.38
2514.04
2483.96
2455.23
2426.57
2397.62
2367.73
2338.73
2311.01
2282.92
2254.3
2226.79
2200.09
2174.01
2148.09
2122.09
2097.14
2072.48
2049.25
2026.91
2005.88
1985.87
1966.23
1947.27
1928.32
1909.82
1891.14
1872.89
1854.54
1836.64
1818.96
1801.81
1784.94
1768.45
1752.38
1736.57
1721.06
1705.77
1690.61
1675.5
1660.45
1645.49
1630.87
1616.14
1601.78
1587.57
1573.63
1560.34
1547.32
1534.77
1522.51
1511
1499.65
1488.95
1478.62
1468.52
1458.58
1448.85
1439.23
1429.79
1420.33
1411.08
1401.92
1392.89
1384.11
1375.69
1367.54
1359.83
1352.55
1345.52
1338.72
1332.02
1325.42
1318.81
1312.24
1305.77
1299.45
1293.23
1287.26
1281.72
1276.59
1271.77
1267.08
1262.67
1258.62
1254.8
1251.22
1247.92
1244.78
1242.01
1239.46
1237.25
1235.27
1233.48
1231.81
1230.23
1228.5
1226.7
1225.22
1223.73
1222.47
1221.46
1220.73
1220.22
1220.06
1220.12
1220.3
1220.68
1221.28
1221.46
1221.62
1221.81
1221.89
1221.93
1221.89
1221.39
1220.76
1220.18
1219.15
1217.96
1216.7
1215.31
1213.63
1211.78
1209.92
1208
1205.85
1203.44
67.3029
223.349
352.888
637.785
1054.02
1511.92
1964.28
2407.57
2839.69
3263.05
3680
4092.42
4502.3
4910.7
5318.88
5728.63
6142.47
6563.66
7000.04
7457.95
7945.29
8469.72
9035.96
9650.42
10311.2
11022.9
11774.8
12566.1
13375.9
14197.2
15015.8
15821.5
16575.8
17252.8
17864.2
18272.5
18561.4
18578.3
18390.5
17991.7
17324
16498.6
15423.2
14279
13068.1
11857.1
10747
9710.64
8780.64
7959.45
7187.72
6549.13
5916.27
5422.19
4911.75
4531.69
4146.56
3866.96
3582.48
3372.86
3158.07
3002.74
2844.04
2729
2610.48
2524.33
2437.78
2371.86
2316.19
2271.11
2236.69
2206.22
2187.25
2172.26
2162.19
2157.96
2155.86
2158.02
2162.37
2168.41
2177.05
2185.91
2195.98
2205.17
2214.19
2223.88
2231.27
2238.91
2246.25
2253.43
2258.31
2262.74
2267.5
2272.75
2277.39
2279.89
2279.92
2278.73
2275.93
2271.6
2266.11
2259.69
2252.47
2244.42
2235.63
2226.2
2215.95
2204.82
2192.94
2180.35
2166.96
2152.91
2138.26
2123.25
2107.87
2093.12
2078.05
2062.31
2045.19
2027.61
2010.16
1992.12
1973.5
1954.82
1936.69
1918.96
1901.21
1883.16
1865.58
1848.23
1831.57
1815.6
1800.5
1786.23
1772.39
1758.88
1745.37
1731.86
1718.14
1704.36
1690.37
1676.48
1662.59
1649.11
1635.74
1622.68
1609.88
1597.26
1584.84
1572.58
1560.34
1548.14
1535.87
1523.58
1511.39
1499.12
1486.94
1474.86
1462.93
1451.43
1440.16
1429.25
1418.67
1408.69
1398.94
1389.72
1380.85
1372.22
1363.66
1355.26
1346.88
1338.57
1330.24
1321.99
1313.72
1305.48
1297.41
1289.63
1282.14
1275.09
1268.5
1262.22
1256.19
1250.29
1244.47
1238.64
1232.81
1226.98
1221.24
1215.47
1209.82
1204.53
1199.67
1195.12
1190.71
1186.6
1182.83
1179.34
1176.09
1173.14
1170.36
1167.95
1165.77
1163.93
1162.31
1160.92
1159.63
1158.44
1157.08
1155.63
1154.43
1153.23
1152.22
1151.48
1151.04
1150.92
1151.06
1151.44
1152.04
1152.89
1154.02
1154.87
1155.66
1156.49
1157.29
1158.01
1158.83
1158.94
1159.08
1159.33
1159.06
1158.67
1158.23
1157.7
1156.88
1155.87
1154.85
1153.76
1152.37
1151.2
90.225
291.081
467.059
806.433
1235.9
1676.66
2111.27
2536.44
2952.74
3363.19
3770.44
4177.06
4584.98
4994.64
5406.7
5822.32
6244
6674.57
7122.58
7595.52
8102.06
8650.8
9246.32
9896.53
10597.1
11351.8
12142.7
12962.3
13785.7
14592.8
15360.8
16082.6
16712.8
17190.6
17510.6
17473.7
17253.6
16828.1
16098.6
15173.8
13995.8
12734.8
11458.9
10181.9
9068.7
7949.23
7023.87
6139.14
5406.73
4782.08
4210.28
3757.17
3320.83
2997.8
2676.08
2438.54
2210.22
2044.27
1882.86
1763.94
1646.63
1562.55
1478.6
1418.72
1358.71
1315.62
1272.97
1243.6
1213.04
1195.97
1177.8
1166.66
1160.13
1153.95
1155.2
1157.41
1162.13
1169.45
1178.87
1191.25
1205.97
1221.66
1238.92
1257
1276.01
1295.84
1315
1334.91
1354.73
1375.37
1394.85
1414.57
1435.01
1455.79
1477.01
1496.37
1514.44
1530.91
1546.86
1561.22
1575.09
1587.57
1599.26
1609.71
1619.19
1627.68
1635.06
1641.27
1646.25
1650.37
1653.23
1655.53
1656.58
1656.77
1656.62
1656.54
1656.24
1655.34
1653.14
1649.43
1644.61
1638.61
1631.43
1623.52
1615.33
1607.04
1598.59
1589.85
1580.89
1572.01
1563.26
1554.88
1547
1539.72
1532.81
1525.91
1518.87
1511.6
1503.9
1495.82
1487.3
1478.51
1469.48
1460.66
1451.76
1443.11
1434.54
1426.05
1417.62
1409.28
1400.88
1392.41
1383.78
1375.01
1366.1
1357.05
1347.89
1338.67
1329.47
1320.52
1311.69
1303.16
1294.92
1287.14
1279.63
1272.55
1265.76
1259.17
1252.57
1246.06
1239.49
1232.87
1226.21
1219.49
1212.67
1205.75
1198.86
1192.21
1185.81
1179.84
1174.35
1169.18
1164.29
1159.54
1154.85
1150.14
1145.4
1140.61
1135.78
1130.86
1125.89
1121.17
1116.89
1112.91
1109.09
1105.56
1102.35
1099.43
1096.76
1094.37
1092.17
1090.32
1088.69
1087.39
1086.31
1085.48
1084.74
1084.1
1083.3
1082.37
1081.6
1080.83
1080.22
1079.87
1079.86
1080.06
1080.56
1081.38
1082.46
1083.83
1085.48
1087.05
1088.53
1090.04
1091.57
1093
1094.58
1095.48
1096.38
1097.52
1097.98
1098.39
1098.8
1099.21
1099.21
1099.09
1098.96
1098.77
1098.18
1098.34
114.276
359.506
581.424
950.814
1374.94
1796.71
2210.8
2615.07
3012.5
3406.44
3800.04
4196.47
4597.47
5002.77
5412.58
5828.01
6251.53
6686.56
7141.91
7626.13
8148.58
8718.59
9339.75
10020.9
10752.4
11529.8
12335.1
13149.3
13938.8
14668.6
15309.3
15829.1
16180.2
16267.1
16139.2
15662.5
14919.7
14008.4
12832.9
11566.7
10267.3
8946.51
7819.47
6669.82
5772.39
4879.91
4198.85
3561.86
3062.15
2646.94
2287.29
2010.14
1760.26
1572.99
1403.61
1273.85
1157.88
1071.04
990.651
931.353
872.972
831.077
788.804
758.573
728.054
705.822
683.352
667.053
649.624
639.179
627.137
621.051
614.762
609.341
607.861
606.109
607.242
609.449
612.543
617.743
624.469
632.296
641.57
651.921
663.473
676.155
689.51
704
719.15
735.492
752.389
770.153
789.197
809.083
830.039
851.423
873.247
894.597
916.04
936.827
957.713
977.954
998.065
1017.54
1036.65
1055.13
1072.75
1089.59
1105.28
1120.32
1134.34
1148.15
1160.88
1173.21
1185.2
1197.33
1208.99
1220.18
1230.16
1238.04
1243.74
1248.42
1251.44
1253.81
1255.44
1256.9
1257.86
1258.64
1258.7
1258.59
1258.3
1258
1257.97
1258.2
1258.74
1259.08
1258.88
1258.29
1257.03
1255.14
1252.55
1249.46
1245.95
1242.3
1238.49
1234.77
1231.02
1227.24
1223.41
1219.56
1215.59
1211.44
1206.99
1202.24
1197.21
1191.9
1186.31
1180.52
1174.62
1168.73
1162.9
1157.28
1151.88
1146.86
1142.07
1137.64
1133.45
1129.34
1125.2
1121.04
1116.76
1112.35
1107.78
1103.03
1098.1
1093
1087.76
1082.65
1077.77
1073.29
1069.26
1065.56
1062.13
1058.84
1055.62
1052.36
1049.04
1045.6
1042.02
1038.28
1034.38
1030.55
1027.14
1024.02
1021.09
1018.42
1016.04
1013.96
1012.1
1010.51
1009.1
1008.03
1007.16
1006.58
1006.21
1006.09
1006.1
1006.19
1006.11
1005.89
1005.72
1005.56
1005.56
1005.71
1006.13
1006.83
1007.84
1009.19
1010.84
1012.79
1015.04
1017.36
1019.59
1021.84
1024.13
1026.32
1028.66
1030.42
1032.13
1034.14
1035.41
1036.67
1037.94
1039.26
1040.21
1040.96
1041.72
1042.56
1042.85
1044.17
138.469
420.788
681.516
1065.7
1475.69
1877.72
2268.77
2649.78
3025.44
3401.97
3781.6
4165.47
4555.27
4950.7
5352.15
5761.36
6181.28
6616.3
7075.27
7568.23
8104.86
8695.22
9339.3
10039.8
10788.5
11569.6
12354.6
13110.4
13794.1
14351.2
14750.8
14956.6
14908.6
14586.4
14022
13136.6
11981.3
10739.5
9450.16
8129.26
6977.82
5823.07
4924.43
4045.72
3401.54
2790.72
2351.1
1956.44
1664.9
1422.53
1228.45
1081.1
953.191
858.669
776.373
714.729
660.123
619.097
581.429
553.035
525.004
503.851
482.362
465.718
448.796
435.506
421.98
411.094
399.706
391.127
381.911
375.576
368.64
363.585
359.351
354.713
352.153
350.066
347.985
347.242
347.418
348.118
349.534
351.528
354.184
357.607
361.575
366.314
371.637
377.817
384.669
392.371
401.041
410.48
420.942
432.228
444.375
457.15
470.564
484.536
499.059
514.164
529.86
546.155
563.036
580.378
598.073
616.022
634.078
652.234
669.984
687.883
705.517
723.416
741.606
760.134
778.36
796.525
813.464
828.98
842.066
854.16
865.014
875.55
885.288
894.861
903.825
912.845
920.998
928.928
936.28
943.457
950.505
957.695
964.726
971.783
977.885
983.796
988.474
992.757
995.845
998.556
1000.55
1002.48
1003.97
1005.48
1006.8
1008.09
1009.14
1010.14
1010.87
1011.19
1011.03
1010.53
1009.6
1008.26
1006.5
1004.4
1002.06
999.614
997.099
994.71
992.466
990.524
988.77
987.311
985.988
984.686
983.305
981.845
980.179
978.275
976.079
973.592
970.849
967.884
964.728
961.503
958.474
955.811
953.564
951.596
949.878
948.301
946.82
945.297
943.642
941.799
939.737
937.435
934.924
932.292
930.006
928.026
926.226
924.689
923.397
922.372
921.561
920.988
920.589
920.51
920.6
920.897
921.421
922.161
923.063
924.098
924.953
925.56
926.192
926.821
927.519
928.352
929.417
930.762
932.429
934.443
936.779
939.426
942.376
945.461
948.49
951.555
954.67
957.679
960.828
963.497
966.051
968.864
971.092
973.262
975.423
977.661
979.569
981.233
982.921
984.723
985.944
988.592
160.512
470.186
761.826
1149.88
1542.52
1923.39
2289.83
2647.88
3005.83
3363.84
3724.05
4090.05
4463.44
4843.81
5232.03
5630.9
6044.21
6477.49
6939.28
7442.07
7993.41
8598.32
9257.99
9968.38
10712.6
11464.8
12179.3
12812.8
13322.4
13627.1
13703.1
13540.9
13157.1
12418.5
11446.5
10311.1
9014.59
7656.37
6471.81
5305.3
4383.27
3523.56
2880.36
2305.32
1898.87
1536.49
1287.73
1071.63
924.067
795.895
703.965
631.408
573.673
529.765
493.584
465.898
440.936
421.191
402.095
386.79
371.257
358.442
345.296
334.113
322.667
313.116
303.375
295.073
286.437
279.104
271.539
265.473
259.14
254.203
249.685
245.015
241.28
237.558
234.427
231.675
229.305
227.179
225.691
224.327
223.017
222.393
221.703
221.617
221.743
222.2
222.981
224.162
225.787
227.777
230.238
233.117
236.466
240.214
244.415
249.052
254.147
259.742
265.873
272.614
280.009
288.055
296.768
306.145
316.15
326.745
337.872
349.587
361.927
375.106
389.162
404.002
419.432
435.325
451.302
467.423
482.133
496.766
510.82
524.934
538.598
552.277
565.679
579.257
592.377
605.57
618.236
630.836
643.114
655.574
667.557
679.751
691.045
702.341
712.334
722.05
730.423
738.465
745.589
752.642
759.082
765.451
771.47
777.359
782.895
788.272
793.277
798
802.16
805.844
808.908
811.562
813.588
815.25
816.564
817.665
818.693
819.763
820.914
822.228
823.7
825.314
826.978
828.725
830.174
831.609
832.722
833.452
833.662
833.576
833.23
832.602
831.732
830.703
829.754
829.13
828.874
828.847
828.961
829.231
829.674
830.103
830.203
830.095
829.728
829.042
828.076
826.93
825.99
825.334
824.85
824.65
824.666
824.856
825.258
825.875
826.678
827.685
828.879
830.264
831.843
833.617
835.571
837.658
839.64
841.225
842.821
844.365
845.943
847.613
849.468
851.562
853.96
856.705
859.797
863.211
866.953
870.883
874.809
878.744
882.739
886.595
890.566
894.207
897.631
901.223
904.515
907.668
910.758
913.929
916.861
919.518
922.168
924.957
927.165
931.255
180.625
507.812
821.723
1203.75
1578.6
1936.88
2283.16
2622.92
2957.86
3292.79
3630.74
3975.81
4329.54
4691.55
5063.6
5450.05
5856.01
6288.77
6755.44
7266.72
7829.62
8447.43
9114.16
9820.77
10539.9
11226.8
11827.2
12283.4
12557.3
12537.2
12334
11820.5
11082.6
10027.3
8786.66
7531.96
6298.13
5062.4
4084.02
3199.77
2544.2
1991.5
1594.33
1273.22
1050.7
865.596
740.205
633.321
563.539
497.733
457.327
421.079
396.442
375.483
359.14
344.494
331.214
319.605
307.582
297.208
286.525
277.223
267.633
259.186
250.501
243.064
235.407
228.806
221.979
216.131
210.154
205.242
200.201
195.995
192.079
188.272
185.073
181.824
178.886
176.356
173.843
171.454
169.526
167.614
165.645
164.035
162.407
161.03
159.702
158.587
157.652
156.749
156.205
155.643
155.358
155.078
155.086
155.176
155.415
155.807
156.364
157.105
158.045
159.223
160.668
162.394
164.429
166.797
169.503
172.547
175.946
179.738
183.974
188.786
194.198
200.217
206.821
213.989
221.594
229.604
237.828
246.397
255.338
264.675
274.376
284.461
294.909
305.788
317.026
328.684
340.684
353.04
365.765
378.883
392.311
406.133
419.748
433.557
446.507
459.438
471.275
482.969
493.822
504.648
514.926
525.101
534.939
544.598
553.894
562.976
571.71
580.247
588.28
595.838
602.711
609.118
614.831
620.109
624.933
629.467
633.779
638.077
642.391
646.778
651.225
655.758
660.267
664.882
669.151
673.403
677.308
680.734
683.657
686.155
688.189
689.888
691.353
692.739
694.151
695.706
697.489
699.46
701.582
703.819
706.222
708.59
710.666
712.403
713.749
714.674
715.273
715.812
716.43
717.215
718.173
719.355
720.753
722.342
724.105
726.039
728.122
730.359
732.747
735.299
738.019
740.916
743.97
747.122
750.277
752.968
755.629
758.168
760.712
763.302
766.023
768.934
772.119
775.634
779.51
783.729
788.302
793.112
797.989
802.846
807.771
812.522
817.338
821.976
826.314
830.754
835.092
839.28
843.353
847.496
851.483
855.203
858.866
862.685
865.938
871.571
197.411
531.762
861.635
1232.1
1587.17
1928.54
2257.28
2574.55
2884.85
3194.64
3508.49
3830.6
4162.75
4504.76
4859.59
5233.8
5634.5
6067.81
6539.12
7060.03
7635.4
8266.49
8938.15
9632.55
10304.1
10889.3
11332.3
11559.2
11538
11267.2
10752.7
9891.62
8814.71
7547.94
6239.46
5017.42
3992.13
3059.41
2370.89
1814.93
1418.36
1117.21
904.342
745.092
630.751
540.181
475.092
422.888
385.524
351.109
331.207
311.197
299.206
285.847
275.966
265.799
257.403
249.26
240.669
233.223
225.466
218.636
211.533
205.273
198.81
193.234
187.469
182.592
177.59
173.411
169.177
165.63
161.976
158.892
155.785
153.016
150.686
148.322
145.929
144.034
142.113
140.144
138.579
136.989
135.331
133.915
132.485
131.127
129.817
128.619
127.545
126.452
125.519
124.574
123.72
122.854
122.099
121.351
120.683
120.058
119.472
118.942
118.447
118.032
117.685
117.462
117.271
117.272
117.341
117.495
117.749
118.113
118.618
119.324
120.254
121.416
122.801
124.408
126.181
128.151
130.281
132.626
135.23
138.128
141.335
144.884
148.783
153.09
157.796
162.985
168.643
174.8
181.492
188.756
196.605
205.057
214.033
223.492
233.267
243.304
253.432
263.677
273.934
284.327
294.807
305.426
316.161
327.015
337.902
348.894
359.726
370.501
380.955
391.068
400.665
409.839
418.425
426.605
434.315
441.752
448.89
455.958
462.969
470.039
477.093
484.228
491.322
498.52
505.436
512.286
518.806
524.846
530.339
535.344
539.756
543.73
547.408
551.007
554.597
558.242
562.003
565.904
569.95
574.104
578.416
582.703
586.735
590.344
593.491
596.14
598.407
600.613
602.872
605.249
607.756
610.442
613.296
616.31
619.465
622.757
626.164
629.687
633.319
637.081
640.984
645.044
649.214
653.402
657.64
661.488
665.224
668.78
672.285
675.799
679.395
683.14
687.13
691.43
696.094
701.114
706.5
712.162
717.933
723.715
729.564
735.263
740.93
746.555
751.836
757.192
762.521
767.745
772.826
777.969
783.003
787.801
792.507
797.378
801.719
808.962
211.682
547.676
883.728
1236.84
1578.84
1904.44
2212.81
2506.69
2792.18
3076.05
3364.46
3662.48
3972.5
4294.85
4633.6
4998.45
5394.07
5829.74
6310.42
6848.97
7447.01
8101.05
8781.55
9449.34
10040.4
10478.5
10706.7
10647
10399.5
9797.06
8933.85
7752.83
6411.64
5118.34
3999.62
3028.7
2317.45
1747.85
1341.97
1044.13
833.497
681.939
571.59
489.188
426.645
378.387
338.389
308.303
282.159
264.158
250.494
238.936
229.269
219.443
212.232
204.604
198.912
192.931
187.648
182.806
177.744
173.168
168.145
164.064
159.817
156.312
152.718
149.63
146.469
143.827
141.148
138.703
136.176
133.962
131.718
129.82
128.189
126.476
124.744
123.408
122.021
120.611
119.461
118.254
116.971
115.913
114.827
113.712
112.631
111.662
110.77
109.856
109.01