/*--------------------------------*- C++ -*----------------------------------*\
| =========                 |                                                 |
| \\      /  F ield         | OpenFOAM: The Open Source CFD Toolbox           |
|  \\    /   O peration     | Version:  2312                                  |
|   \\  /    A nd           | Website:  www.openfoam.com                      |
|    \\/     M anipulation  |                                                 |
\*---------------------------------------------------------------------------*/
FoamFile
{
    version     2.0;
    format      ascii;
    arch        "LSB;label=32;scalar=64";
    class       volScalarField;
    location    "0.001";
    object      nut;
}
// * * * * * * * * * * * * * * * * * * * * * * * * * * * * * * * * * * * * * //

dimensions      [0 2 -1 0 0 0 0];

internalField   nonuniform List<scalar> 
48128
(
4.84594e-07
1.08556e-06
1.53035e-06
1.38318e-06
1.01344e-06
6.60865e-07
6.00767e-06
3.00712e-05
7.72905e-05
0.000128373
0.000175372
0.000217223
0.000254033
0.000286874
0.000316876
0.000344829
0.000371482
0.000397403
0.00042298
0.00044839
0.000473729
0.000499141
0.00052479
0.00055087
0.000577618
0.000605253
0.00063407
0.000664863
0.000697144
0.000730671
0.000765966
0.000803349
0.000842679
0.000884195
0.000927867
0.000975405
0.00102274
0.00107002
0.00111706
0.00116444
0.00121316
0.00125968
0.00130638
0.00134867
0.00139042
0.00142819
0.00146282
0.00148764
0.00151175
0.00152378
0.00153613
0.00154217
0.0015682
0.0015943
0.00161906
0.00164032
0.00165541
0.00166722
0.00167499
0.00168046
0.00168374
0.00168487
0.00168441
0.00168213
0.0016485
0.00154649
0.00145564
0.00137363
0.00130083
0.00123497
0.00117525
0.00112127
0.00107166
0.00102609
0.000985248
0.000947102
0.000912533
0.00088074
0.000851048
0.000823921
0.000798238
0.000775013
0.000753326
0.000733573
0.000715036
0.000697754
0.00068187
0.000667036
0.00065315
0.000640406
0.000628621
0.000617769
0.000607489
0.000597635
0.000588605
0.000580181
0.00057242
0.000565212
0.000558549
0.0005524
0.000546648
0.000541288
0.000536277
0.000531598
0.000527201
0.000522971
0.000518947
0.000515157
0.000511635
0.000508289
0.000505147
0.000502153
0.000499404
0.000496826
0.000494283
0.000491603
0.000488901
0.000485821
0.000483369
0.000482336
0.000480615
0.000478988
0.000478103
0.00047685
0.000475367
0.000473748
0.000472067
0.000470534
0.000469196
0.000467994
0.00046707
0.000466082
0.000465276
0.000464387
0.000463459
0.000462502
0.000461532
0.000460568
0.00045962
0.000458697
0.000457792
0.000456916
0.000456051
0.000455171
0.000454309
0.000453461
0.000452652
0.000451855
0.000451085
0.000450324
0.000449582
0.000448822
0.000448162
0.00044763
0.000447092
0.000446585
0.000446169
0.000445753
0.00044537
0.000444914
0.000444374
0.000443771
0.00044312
0.000442456
0.000441773
0.000441149
0.000440526
0.000439985
0.000439551
0.000439174
0.000438855
0.000438573
0.000438307
0.000438003
0.000437594
0.000437161
0.000436731
0.000436292
0.000435862
0.000435445
0.000435056
0.000434689
0.000434339
0.000433998
0.000433659
0.000433324
0.000432999
0.000432694
0.000432369
0.00043201
0.000431594
0.000431122
0.000430581
0.00042996
0.000429399
0.00042893
0.000428515
0.000428137
0.000427776
0.000427429
0.000427091
0.000426746
0.000426378
0.000425954
0.000425461
0.000424885
0.000424259
0.000423533
0.00042266
0.000422016
0.000421382
0.000420828
0.000420356
0.000419917
0.000419481
0.00041903
0.000418568
0.000418052
0.000417479
0.000416849
0.00041613
0.000415316
0.000414702
0.000414092
0.000413523
0.000413081
0.000412569
0.000411967
0.000411557
0.000411091
0.000410346
0.000409879
0.000409444
0.000408981
0.000408405
0.000407964
0.000407538
0.000407065
0.000406578
0.000405982
7.21724e-06
5.81824e-06
3.4339e-06
3.58191e-06
7.75714e-06
2.02941e-05
5.74845e-05
0.000133245
0.000255551
0.000421422
0.000604623
0.000804852
0.00101336
0.00122322
0.00143081
0.00163553
0.00184145
0.002052
0.00227041
0.00250013
0.0027441
0.00300441
0.00328311
0.00358066
0.00389852
0.00423535
0.00458674
0.00496109
0.0053801
0.00580454
0.00623586
0.00668367
0.0071448
0.00762018
0.00806201
0.00846968
0.00887243
0.0092532
0.00960889
0.00995036
0.0102884
0.010585
0.0108532
0.0110642
0.0112735
0.0114526
0.0116346
0.0117402
0.0118438
0.0118772
0.0119051
0.0118808
0.0118277
0.0117478
0.0116525
0.0115491
0.011423
0.0112809
0.0111265
0.0109643
0.0107978
0.0106264
0.0104535
0.0102763
0.0101046
0.009945
0.00978803
0.00963413
0.00947051
0.00930871
0.00914008
0.00897427
0.00881304
0.00864638
0.00849384
0.00833778
0.00818347
0.00803466
0.00788611
0.00774498
0.00760281
0.00746633
0.00732895
0.00719749
0.00707206
0.00694801
0.00683051
0.00671835
0.00660762
0.00650171
0.0064
0.00630153
0.00620641
0.00611232
0.00602204
0.00593536
0.00585218
0.00577199
0.0056945
0.00562106
0.00555039
0.00548279
0.00541814
0.00535599
0.00529684
0.00523964
0.00518484
0.00513154
0.00508057
0.00503087
0.00498336
0.00493714
0.00489331
0.00485025
0.0048103
0.00476948
0.0047298
0.00468805
0.00464864
0.00461069
0.00457264
0.0045364
0.00450549
0.00447586
0.00444788
0.00441942
0.00439125
0.00436213
0.00433443
0.00430776
0.00428283
0.00425888
0.00423639
0.00421488
0.00419267
0.00416442
0.00413648
0.00410866
0.0040809
0.00405362
0.00402659
0.00399992
0.00397357
0.00394776
0.00392253
0.00389804
0.00387416
0.00385098
0.00382815
0.00380607
0.00378408
0.00376294
0.00374202
0.00372072
0.00369975
0.00367817
0.00365828
0.00363737
0.00361887
0.00360075
0.00358341
0.00356732
0.00355195
0.00353666
0.00352273
0.00350883
0.00349535
0.003482
0.00346963
0.00345734
0.00344519
0.00343355
0.00342216
0.00341156
0.00340237
0.00339427
0.00338639
0.00337902
0.00337146
0.00336404
0.00335625
0.00334797
0.00333925
0.00333026
0.00332108
0.00331182
0.00330271
0.00329378
0.00328525
0.00327739
0.00327006
0.0032636
0.00325786
0.00325376
0.00325037
0.00324724
0.0032439
0.00324024
0.00323617
0.00323163
0.00322656
0.00322133
0.00321557
0.00320956
0.00320355
0.00319768
0.00319218
0.00318679
0.00318424
0.00318127
0.00317843
0.00317666
0.00317451
0.00317254
0.0031704
0.00316817
0.00316551
0.00316234
0.0031587
0.00315443
0.00314997
0.00314592
0.00314142
0.00313756
0.00313461
0.00313161
0.00312952
0.00312744
0.00312422
0.00312107
0.00311816
0.00311378
0.00310887
0.00310372
0.00309815
0.00309276
0.0030876
0.00308296
0.00307752
0.00307176
1.27068e-05
1.70982e-05
1.80344e-05
2.78981e-05
6.01912e-05
0.000135296
0.000295287
0.0005924
0.00107468
0.00171828
0.00244529
0.00320741
0.00395481
0.00466026
0.00531498
0.00592718
0.00651777
0.00708067
0.00764448
0.00821399
0.00879774
0.00939699
0.0100157
0.0106513
0.0113058
0.0119837
0.0126649
0.0133625
0.0140784
0.0147763
0.0154655
0.0161439
0.0167923
0.0174194
0.0179977
0.0185651
0.0190923
0.0195539
0.0199553
0.0203096
0.0206443
0.0209054
0.0211168
0.0212183
0.021308
0.0213236
0.0213483
0.0212732
0.0211865
0.0210263
0.0208547
0.0206331
0.0203845
0.0201103
0.0198275
0.0195386
0.0192321
0.0189158
0.0185932
0.0182693
0.0179479
0.0176275
0.0173124
0.0169974
0.016693
0.0163956
0.0161018
0.0158188
0.0155292
0.0152505
0.0149723
0.0147024
0.0144408
0.0141785
0.0139333
0.0136912
0.0134523
0.0132225
0.0129933
0.0127755
0.0125587
0.0123506
0.0121439
0.0119436
0.0117518
0.0115621
0.0113804
0.0112065
0.011035
0.0108695
0.0107106
0.0105567
0.0104066
0.0102577
0.0101137
0.0099747
0.00984051
0.00971054
0.0095838
0.00946255
0.00934496
0.00923142
0.00912199
0.00901576
0.00891405
0.00881442
0.00871862
0.00862449
0.00853427
0.00844518
0.00835981
0.00827574
0.00819581
0.00811621
0.00804274
0.00796602
0.00789255
0.0078153
0.00774119
0.00767007
0.00759897
0.00752866
0.00746781
0.00740741
0.00734983
0.00729114
0.00723277
0.00717446
0.00711675
0.00706168
0.0070084
0.00695728
0.00690865
0.00686152
0.00681722
0.00677413
0.00673277
0.00669194
0.00665257
0.00661401
0.00657678
0.00653964
0.00650369
0.00646771
0.00643292
0.00639846
0.00636494
0.00633174
0.00629925
0.00626719
0.00623526
0.00620362
0.00617208
0.00614133
0.00611098
0.00608176
0.00605269
0.00602544
0.00599883
0.00597242
0.0059465
0.00592059
0.00589531
0.00586942
0.00584384
0.00581835
0.00579429
0.00577108
0.00574987
0.00572974
0.00571088
0.00569376
0.00567757
0.00566283
0.00564853
0.00563464
0.0056206
0.00560658
0.00559208
0.00557722
0.00556188
0.00554651
0.00553049
0.00551415
0.00549801
0.00548211
0.00546692
0.00545285
0.00543968
0.00542773
0.00541655
0.00540606
0.0053965
0.00538823
0.00538008
0.00537186
0.0053636
0.00535523
0.00534687
0.00533835
0.00532974
0.00532183
0.00531329
0.0053047
0.00529636
0.00528745
0.00527903
0.005271
0.00526404
0.00525781
0.00525244
0.00524802
0.00524458
0.00524171
0.00523937
0.00523699
0.00523505
0.00523165
0.00522679
0.00522193
0.00521569
0.00520969
0.00520475
0.00520122
0.00519852
0.00519701
0.00519523
0.00519295
0.00519314
0.00518923
0.00518507
0.00518125
0.00517537
0.00516821
0.00516094
0.00515468
0.00514821
0.00514249
0.00513654
0.00512871
1.79243e-05
4.07136e-05
6.3226e-05
0.000108013
0.000222178
0.00047436
0.00097401
0.00183913
0.00301376
0.00440866
0.00583736
0.00717683
0.00838773
0.00947116
0.0104577
0.0113332
0.0121706
0.0129614
0.0137444
0.0145231
0.0153097
0.016105
0.016914
0.0177343
0.0185641
0.0193991
0.0202215
0.0210392
0.0218413
0.022611
0.0233386
0.0240219
0.0246546
0.0252406
0.0257617
0.0262568
0.0266789
0.0270105
0.0272595
0.0274388
0.0275784
0.0276324
0.0276236
0.0274863
0.0273148
0.0270575
0.0267923
0.026461
0.0261117
0.02573
0.0253286
0.0248979
0.0244593
0.0240064
0.0235571
0.0231051
0.0226561
0.0222124
0.0217794
0.0213572
0.020949
0.0205498
0.0201677
0.0197901
0.019431
0.0190819
0.0187462
0.0184247
0.0181125
0.017814
0.0175254
0.0172475
0.0169787
0.0167162
0.0164663
0.0162267
0.0159923
0.0157644
0.0155395
0.0153213
0.0151083
0.0149026
0.014702
0.0145056
0.0143163
0.0141303
0.0139498
0.0137767
0.0136069
0.0134418
0.0132828
0.0131295
0.0129796
0.0128311
0.012686
0.0125455
0.0124092
0.0122769
0.0121475
0.0120228
0.0119019
0.0117844
0.0116708
0.0115598
0.0114532
0.0113479
0.0112462
0.0111454
0.0110487
0.0109523
0.0108599
0.0107678
0.0106804
0.0105925
0.0105116
0.0104253
0.0103428
0.0102561
0.01017
0.0100904
0.0100107
0.00992976
0.00985881
0.0097885
0.00971978
0.00964964
0.00957934
0.00950967
0.00944037
0.00937364
0.00930961
0.00924756
0.00918859
0.00913061
0.00907565
0.00902147
0.00896924
0.00891717
0.00886678
0.00881715
0.00876909
0.00872086
0.00867424
0.00862719
0.00858174
0.00853647
0.00849258
0.00844872
0.00840603
0.00836331
0.00832116
0.00827876
0.00823681
0.00819521
0.00815447
0.00811427
0.00807467
0.00803656
0.00799967
0.00796253
0.0079264
0.00789014
0.00785478
0.00781873
0.00778342
0.00774858
0.00771535
0.00768246
0.00765246
0.00762379
0.00759624
0.00757086
0.00754639
0.0075233
0.00750073
0.00747887
0.00745702
0.00743592
0.00741449
0.00739305
0.00737129
0.00734987
0.00732783
0.00730589
0.00728378
0.00726176
0.00724021
0.0072198
0.00720009
0.00718163
0.00716404
0.00714788
0.00713269
0.00711839
0.00710437
0.00709083
0.00707773
0.00706493
0.00705263
0.00704063
0.00702891
0.0070179
0.00700771
0.00699636
0.00698576
0.00697414
0.00696342
0.00695162
0.0069416
0.00693262
0.00692471
0.00691804
0.00691298
0.00690901
0.0069063
0.00690396
0.00690293
0.00690104
0.00689752
0.00689417
0.00688885
0.00688374
0.00687979
0.0068772
0.00687576
0.00687586
0.00687592
0.0068759
0.00687891
0.00687768
0.00687627
0.0068751
0.00687181
0.00686658
0.00686106
0.00685605
0.00685078
0.00684619
0.00684127
0.00683544
2.30288e-05
0.000127707
0.000162635
0.0002848
0.00058558
0.00118888
0.00231401
0.00392092
0.00581049
0.0077613
0.0095907
0.0112447
0.0127251
0.0140417
0.0152001
0.0162529
0.0172438
0.0181775
0.0190902
0.0199879
0.0208834
0.0217785
0.022676
0.0235717
0.0244599
0.0253324
0.0261724
0.0269804
0.0277408
0.0284383
0.0290748
0.0296486
0.0301567
0.0305903
0.03094
0.0312364
0.0314406
0.0315249
0.0314923
0.0313856
0.0312151
0.030962
0.0306237
0.0298255
0.0287638
0.0277852
0.0267863
0.025991
0.025209
0.0244891
0.0238067
0.0231431
0.0226403
0.0219845
0.0214096
0.020923
0.0203829
0.0200239
0.0196068
0.019321
0.0189784
0.0187279
0.0184499
0.018244
0.0180103
0.01782
0.0176391
0.0174612
0.017361
0.0172334
0.0171606
0.0170713
0.0170005
0.0169664
0.0168589
0.0166611
0.0164686
0.0162786
0.0160933
0.0159108
0.0157364
0.0155666
0.0154052
0.0152464
0.0150935
0.0149445
0.0147987
0.0146586
0.0145216
0.0143873
0.0142579
0.0141336
0.0140127
0.013893
0.0137755
0.0136616
0.0135505
0.0134427
0.013337
0.0132347
0.0131359
0.0130393
0.0129458
0.012854
0.0127656
0.0126777
0.0125926
0.0125073
0.0124256
0.0123435
0.0122649
0.0121859
0.0121112
0.0120355
0.0119657
0.0118905
0.0118181
0.011742
0.0116635
0.0115939
0.0115237
0.011451
0.0113855
0.0113214
0.0112576
0.0111923
0.0111266
0.0110615
0.0109973
0.0109348
0.0108758
0.0108185
0.0107644
0.0107108
0.0106595
0.0106086
0.0105591
0.0105094
0.0104607
0.0104126
0.0103655
0.0103181
0.0102722
0.0102257
0.0101806
0.0101355
0.0100917
0.0100478
0.0100049
0.00996165
0.00991894
0.00987559
0.00983249
0.00978943
0.0097472
0.00970479
0.0096634
0.00962261
0.0095833
0.00954365
0.00950484
0.00946599
0.00942782
0.00938963
0.00935166
0.00931441
0.00927915
0.00924402
0.00921153
0.00918056
0.00915037
0.00912212
0.00909459
0.00906819
0.00904186
0.0090164
0.00899055
0.00896625
0.00894169
0.00891754
0.00889335
0.00886983
0.00884595
0.00882244
0.00879856
0.00877486
0.008751
0.00872818
0.00870549
0.00868385
0.00866371
0.00864393
0.00862564
0.00860803
0.00859056
0.00857396
0.00855832
0.00854303
0.00852874
0.00851515
0.00850211
0.00848988
0.0084792
0.00846754
0.00845752
0.0084449
0.00843344
0.00842104
0.00840928
0.00839857
0.00838965
0.00838182
0.00837606
0.0083717
0.00836925
0.00836739
0.00836752
0.00836779
0.00836668
0.00836603
0.00836334
0.00836072
0.00835929
0.00835928
0.0083605
0.00836356
0.00836679
0.0083702
0.00837674
0.00837976
0.00838257
0.00838566
0.00838715
0.00838648
0.00838528
0.00838416
0.00838274
0.00838179
0.00838046
0.00838052
3.02519e-05
0.00025239
0.000329043
0.000609077
0.00123097
0.00239508
0.00423439
0.00641901
0.00874522
0.0109984
0.0130577
0.0149133
0.0165597
0.01799
0.0192697
0.0204342
0.0215164
0.0225305
0.0235074
0.0244566
0.0253897
0.0263091
0.0272149
0.0281025
0.0289625
0.0297847
0.030552
0.0312574
0.0318867
0.0324406
0.0329158
0.0332942
0.0335922
0.0337849
0.0338623
0.0338497
0.0337281
0.0333209
0.0322882
0.0311234
0.02987
0.0287135
0.027461
0.0263654
0.0251741
0.024205
0.0232659
0.022408
0.0217608
0.0209764
0.0204251
0.0196804
0.0192024
0.0185472
0.0178814
0.0174605
0.0169031
0.0165897
0.0161636
0.0159114
0.0155746
0.0153634
0.0151056
0.0149462
0.0147414
0.0146036
0.0144551
0.0143352
0.0142683
0.0141967
0.0141699
0.0141318
0.0141179
0.0141422
0.014132
0.0141539
0.0141852
0.0142111
0.014265
0.0142602
0.0142973
0.014331
0.0143783
0.0144181
0.0144457
0.0144181
0.0143329
0.0142496
0.0141663
0.0140831
0.014003
0.0139261
0.0138529
0.0137801
0.0137072
0.0136367
0.013567
0.0134991
0.0134315
0.0133657
0.0133023
0.0132397
0.0131792
0.0131189
0.013061
0.0130026
0.0129458
0.012888
0.0128326
0.0127765
0.012723
0.0126687
0.0126177
0.0125651
0.012517
0.0124642
0.0124136
0.0123593
0.0123013
0.0122513
0.0122002
0.0121468
0.012096
0.0120471
0.0119978
0.0119474
0.0118965
0.0118457
0.0117964
0.0117479
0.0117035
0.0116607
0.011621
0.0115819
0.0115441
0.0115063
0.0114692
0.0114314
0.0113938
0.0113562
0.0113189
0.0112813
0.0112446
0.0112074
0.0111711
0.0111348
0.0110995
0.011064
0.0110291
0.0109937
0.0109584
0.0109224
0.010886
0.0108494
0.0108133
0.0107763
0.0107405
0.0107043
0.0106695
0.0106346
0.0106002
0.0105657
0.0105315
0.0104981
0.0104645
0.0104322
0.0104014
0.0103708
0.0103425
0.0103152
0.0102887
0.0102634
0.0102386
0.0102144
0.0101896
0.0101655
0.0101409
0.0101179
0.0100948
0.0100726
0.0100506
0.0100297
0.0100085
0.00998803
0.00996702
0.0099463
0.0099249
0.00990421
0.00988302
0.0098625
0.00984326
0.00982426
0.00980681
0.00978945
0.00977247
0.00975626
0.00974166
0.00972724
0.00971433
0.00970205
0.00969069
0.00968016
0.00967157
0.00966224
0.00965514
0.00964517
0.00963644
0.00962592
0.00961534
0.0096055
0.00959801
0.00959123
0.00958669
0.0095838
0.00958315
0.0095834
0.00958602
0.00958954
0.009592
0.00959547
0.00959712
0.00959873
0.00960149
0.00960574
0.00961129
0.00961886
0.0096268
0.00963496
0.00964604
0.00965455
0.00966277
0.00967125
0.00967894
0.00968472
0.00968973
0.00969466
0.00969925
0.00970415
0.00970864
0.00971794
4.17359e-05
0.000414684
0.000598511
0.00113742
0.00220594
0.00402685
0.00635475
0.00890306
0.0114854
0.0139041
0.0161004
0.0180913
0.0197989
0.0213125
0.0226682
0.0238963
0.0250234
0.026069
0.0270598
0.0280074
0.0289219
0.0298062
0.0306591
0.0314749
0.0322416
0.0329486
0.0335763
0.0341186
0.03456
0.0349017
0.035146
0.0352572
0.0352843
0.0351876
0.0340224
0.0327582
0.03115
0.0298479
0.028629
0.027362
0.0259616
0.0248131
0.0235593
0.0225544
0.0216541
0.0206795
0.0198945
0.0188921
0.0183289
0.0174842
0.0169063
0.0161494
0.0155551
0.014988
0.0142925
0.0139134
0.0133777
0.0130804
0.0126757
0.012428
0.0121071
0.0119192
0.0116826
0.0115475
0.0113642
0.0112486
0.0111216
0.0110327
0.0109711
0.0109435
0.0109139
0.0109107
0.0109058
0.0109508
0.0109896
0.0110292
0.011108
0.0111595
0.0112643
0.0113513
0.011414
0.011559
0.0116306
0.0117708
0.0118397
0.0119745
0.0120785
0.0121448
0.0122546
0.0123424
0.0124232
0.012486
0.0125365
0.0126397
0.0127342
0.0127315
0.0127159
0.0126986
0.012679
0.0126593
0.01264
0.01262
0.0126007
0.01258
0.0125605
0.0125393
0.0125191
0.0124967
0.0124753
0.0124526
0.0124308
0.012408
0.0123864
0.012363
0.0123422
0.0123185
0.0122966
0.01227
0.0122402
0.0122136
0.012188
0.0121586
0.0121283
0.0120997
0.0120706
0.0120411
0.0120106
0.0119796
0.0119503
0.0119214
0.0118965
0.0118731
0.0118529
0.0118335
0.0118146
0.0117956
0.0117765
0.0117563
0.0117351
0.0117136
0.0116913
0.0116687
0.0116463
0.0116238
0.0116015
0.0115794
0.0115578
0.0115361
0.0115145
0.0114924
0.01147
0.0114467
0.0114225
0.0113978
0.0113731
0.0113471
0.0113218
0.0112955
0.0112701
0.0112449
0.0112198
0.0111946
0.0111698
0.011146
0.0111221
0.0110998
0.0110788
0.0110579
0.0110387
0.0110198
0.0110019
0.0109845
0.0109668
0.0109494
0.0109308
0.0109123
0.0108934
0.0108758
0.0108582
0.010842
0.0108263
0.0108122
0.0107978
0.0107843
0.0107702
0.0107564
0.0107417
0.0107272
0.0107116
0.0106962
0.0106813
0.0106669
0.0106539
0.0106408
0.010628
0.0106161
0.0106061
0.0105961
0.0105881
0.0105805
0.0105741
0.0105685
0.010565
0.010561
0.0105595
0.0105553
0.0105523
0.010547
0.0105412
0.0105355
0.010532
0.0105289
0.0105281
0.010529
0.0105324
0.0105369
0.0105442
0.0105526
0.0105601
0.0105693
0.0105773
0.0105849
0.0105937
0.010604
0.0106157
0.0106295
0.0106438
0.0106582
0.0106751
0.0106904
0.0107052
0.0107202
0.0107351
0.0107486
0.0107612
0.0107737
0.010786
0.0107985
0.0108106
0.0108318
5.59004e-05
0.000607236
0.000991763
0.00187928
0.00348223
0.00580554
0.00841865
0.0111984
0.0139147
0.0164241
0.0187219
0.0207457
0.0224994
0.0240638
0.0254606
0.0267163
0.0278526
0.0288908
0.029855
0.0307577
0.0316085
0.0324104
0.0331608
0.0338538
0.0344757
0.0350145
0.0354515
0.0357808
0.0359854
0.0360608
0.0360303
0.0345553
0.033205
0.031778
0.0303165
0.0288712
0.0271519
0.0259553
0.0247918
0.0236824
0.0223702
0.0212918
0.0202667
0.0191491
0.0184812
0.0173575
0.0165853
0.0154896
0.0148428
0.0140287
0.0133561
0.0127368
0.0120836
0.0116725
0.0111026
0.0107438
0.0103256
0.0100296
0.00974738
0.0094954
0.00927136
0.009095
0.00893267
0.00880403
0.00867867
0.00856481
0.00848738
0.0084042
0.00836837
0.00837432
0.00831745
0.00836042
0.00832713
0.00839251
0.00844497
0.00846551
0.0085647
0.00858032
0.00868764
0.00878828
0.00885535
0.00899481
0.00905609
0.00918269
0.0092557
0.00937738
0.00950093
0.00958862
0.00970834
0.00982942
0.00994599
0.0100514
0.0101465
0.010281
0.0104203
0.0105502
0.0106666
0.0107874
0.0108896
0.0109774
0.0110655
0.0111468
0.0112293
0.0113068
0.0113761
0.0114498
0.0114732
0.0114925
0.0115105
0.0115261
0.0115411
0.0115538
0.0115666
0.011577
0.0115879
0.0115987
0.0116088
0.0116145
0.011618
0.0116196
0.0116223
0.01162
0.0116155
0.0116108
0.0116058
0.0116007
0.0115943
0.0115864
0.01158
0.0115739
0.0115712
0.0115697
0.0115713
0.0115739
0.0115771
0.0115798
0.011582
0.0115819
0.0115808
0.0115784
0.0115743
0.0115695
0.0115642
0.011559
0.0115537
0.0115485
0.0115436
0.0115385
0.0115333
0.0115277
0.0115213
0.011514
0.0115054
0.0114958
0.0114858
0.011474
0.0114623
0.0114493
0.0114365
0.0114238
0.0114112
0.0113983
0.0113861
0.0113751
0.0113641
0.011355
0.0113471
0.0113393
0.0113325
0.0113256
0.0113193
0.011313
0.0113058
0.0112984
0.0112893
0.0112797
0.0112694
0.0112602
0.0112513
0.0112442
0.0112379
0.0112335
0.011229
0.0112256
0.0112214
0.0112175
0.0112125
0.0112074
0.0112006
0.0111932
0.0111855
0.0111786
0.0111728
0.0111672
0.0111618
0.0111574
0.0111551
0.0111527
0.0111527
0.0111526
0.0111543
0.0111564
0.0111608
0.0111649
0.0111715
0.0111758
0.0111814
0.0111841
0.0111861
0.0111879
0.011191
0.0111943
0.0111999
0.0112069
0.0112167
0.0112277
0.011242
0.011257
0.0112714
0.0112879
0.0113047
0.0113198
0.0113364
0.0113551
0.0113747
0.0113964
0.011419
0.011441
0.011465
0.0114885
0.0115111
0.0115339
0.0115569
0.0115791
0.0116004
0.0116216
0.0116427
0.0116642
0.0116851
0.0117203
7.87859e-05
0.000847907
0.00150717
0.0028056
0.00491141
0.00750251
0.0103202
0.0132267
0.0160063
0.0185645
0.020914
0.0229369
0.024721
0.0263104
0.0277217
0.0289762
0.0300928
0.0310912
0.0319936
0.0328141
0.0335619
0.0342394
0.0348429
0.0353676
0.035797
0.0361216
0.036324
0.0363974
0.0356283
0.0339946
0.032433
0.0307768
0.029332
0.0278347
0.0264773
0.0250646
0.0234945
0.022486
0.021461
0.0203915
0.0192701
0.0180952
0.0172805
0.0159472
0.0152884
0.0140969
0.0133474
0.0123578
0.0116759
0.0110055
0.0103762
0.009904
0.00931984
0.00896502
0.00859122
0.00819923
0.00793028
0.00761909
0.00746718
0.00721273
0.00710918
0.00691752
0.00685664
0.00670479
0.0066776
0.0065423
0.00655954
0.00647161
0.00649649
0.00650914
0.00648169
0.00653902
0.00650508
0.00659239
0.00660421
0.00668335
0.00676512
0.00676739
0.00686577
0.00691704
0.00701097
0.00710433
0.00715592
0.00722786
0.00730017
0.00738846
0.0074681
0.00754793
0.00763658
0.00772784
0.00782467
0.00790402
0.00800579
0.00812272
0.00823938
0.00836809
0.00848077
0.00860528
0.00871799
0.00882624
0.00894006
0.0090463
0.00915696
0.00926138
0.00936406
0.00946902
0.00957525
0.00967821
0.00977798
0.00987754
0.00996868
0.010069
0.0101401
0.0101934
0.010262
0.0103291
0.0104409
0.010485
0.0105249
0.0105611
0.0105943
0.010623
0.010649
0.0106722
0.0106949
0.0107173
0.010738
0.010757
0.0107764
0.0107959
0.0108176
0.0108404
0.0108657
0.0108922
0.0109198
0.0109461
0.0109719
0.0109941
0.0110156
0.011034
0.0110508
0.0110657
0.0110792
0.011093
0.0111061
0.0111196
0.0111331
0.0111464
0.0111593
0.0111718
0.0111834
0.0111939
0.011203
0.0112106
0.0112171
0.0112216
0.0112254
0.0112276
0.0112294
0.0112309
0.0112325
0.0112339
0.0112361
0.0112395
0.0112435
0.0112493
0.0112565
0.0112637
0.0112715
0.0112785
0.0112858
0.0112926
0.0112981
0.0113029
0.0113054
0.0113068
0.011307
0.0113083
0.01131
0.0113138
0.011319
0.0113263
0.0113337
0.0113424
0.01135
0.0113582
0.0113649
0.0113714
0.0113756
0.0113786
0.01138
0.0113825
0.0113858
0.0113898
0.0113942
0.0113996
0.0114072
0.0114149
0.0114251
0.011435
0.0114469
0.011459
0.0114737
0.0114879
0.0115047
0.0115197
0.0115359
0.0115492
0.0115614
0.0115731
0.0115854
0.0115974
0.0116117
0.0116269
0.0116453
0.0116651
0.0116877
0.0117108
0.0117341
0.01176
0.0117866
0.0118121
0.0118386
0.011867
0.0118967
0.0119277
0.0119612
0.0119909
0.0120236
0.012057
0.0120882
0.01212
0.0121522
0.0121841
0.012215
0.0122456
0.0122766
0.012308
0.0123383
0.0123896
0.000105139
0.00116766
0.0021208
0.00384551
0.0062768
0.00905349
0.012002
0.0149637
0.0177638
0.0203512
0.0226974
0.0247201
0.0265181
0.0281131
0.0295176
0.030747
0.0318176
0.0327459
0.0335531
0.0342549
0.03486
0.0353703
0.0357825
0.0360908
0.0362829
0.036351
0.0352388
0.0334605
0.0317825
0.0300589
0.0285282
0.0270047
0.0256926
0.0242295
0.0229599
0.0218236
0.0204066
0.0194592
0.0186349
0.0173558
0.0164678
0.0150718
0.0143624
0.0130476
0.0123686
0.0113163
0.0106303
0.00979379
0.00908764
0.00850028
0.00794622
0.00752781
0.00711229
0.00673535
0.00655055
0.00615255
0.00603572
0.00571975
0.00568221
0.0054397
0.00543175
0.00523096
0.00525154
0.00508142
0.0051404
0.00500617
0.00510328
0.00502576
0.00499904
0.00497161
0.00494027
0.00492554
0.00491889
0.00491497
0.00492596
0.00494296
0.00496353
0.00499235
0.00502837
0.00507347
0.00512587
0.00518432
0.00524773
0.00531815
0.00539199
0.00547446
0.00555814
0.0056475
0.00574046
0.00584033
0.00594075
0.00604708
0.00616041
0.00627973
0.00640572
0.00652987
0.00665466
0.00677789
0.00690346
0.00702631
0.00713708
0.00722566
0.00731706
0.00740521
0.00749752
0.00759199
0.00768968
0.0077881
0.0078888
0.00799154
0.00808885
0.00819508
0.00827519
0.00834668
0.00843615
0.0085489
0.00868509
0.00882493
0.00899495
0.00908395
0.0091561
0.00922116
0.00928162
0.00933647
0.00939016
0.0094446
0.00949561
0.00954503
0.00959334
0.00964153
0.00969052
0.00974011
0.00979179
0.0098446
0.00989901
0.00995112
0.0100024
0.0100499
0.0100961
0.0101381
0.0101782
0.0102148
0.0102495
0.0102836
0.010317
0.0103508
0.0103842
0.0104173
0.0104501
0.0104822
0.0105136
0.0105432
0.0105717
0.0105981
0.0106228
0.010645
0.010666
0.0106847
0.0107025
0.0107197
0.0107368
0.0107536
0.0107714
0.0107905
0.0108106
0.0108324
0.0108559
0.0108792
0.0109029
0.0109252
0.0109476
0.0109686
0.0109883
0.0110067
0.0110225
0.0110363
0.0110483
0.0110611
0.0110746
0.0110905
0.0111083
0.0111285
0.0111491
0.011171
0.0111919
0.0112132
0.0112329
0.0112524
0.0112688
0.011284
0.011296
0.0113088
0.0113225
0.0113375
0.0113531
0.0113698
0.0113888
0.0114081
0.01143
0.0114516
0.0114753
0.0114991
0.0115254
0.0115513
0.0115798
0.011607
0.0116355
0.011661
0.0116855
0.0117088
0.0117323
0.0117549
0.0117796
0.0118048
0.0118338
0.0118629
0.0118951
0.0119287
0.0119625
0.0119993
0.0120367
0.0120746
0.0121128
0.0121525
0.0121938
0.0122356
0.0122802
0.0123204
0.0123631
0.0124079
0.0124482
0.0124897
0.0125322
0.0125753
0.0126158
0.0126568
0.0126984
0.0127408
0.0127809
0.0128494
0.000132433
0.00148769
0.00278524
0.00485822
0.00750277
0.01041
0.0134379
0.0164097
0.0192022
0.0217938
0.0241159
0.0261361
0.0279351
0.0295206
0.0308996
0.0320819
0.0330791
0.0339051
0.0345802
0.0351221
0.0355399
0.0358353
0.036006
0.0360504
0.0349941
0.0331392
0.0312682
0.0294339
0.0279196
0.0264076
0.025061
0.0235743
0.0223802
0.0210036
0.019859
0.0193903
0.0180503
0.0167698
0.0160641
0.014554
0.0138642
0.012528
0.0118246
0.0107039
0.00992739
0.0089693
0.0083177
0.00763577
0.00701023
0.0064853
0.0060736
0.00567386
0.00545941
0.00507424
0.00504207
0.00472266
0.00469763
0.00444671
0.00441596
0.00427153
0.00415124
0.00406008
0.00396429
0.00389932
0.00383147
0.00378426
0.00373523
0.00370139
0.00366352
0.00364331
0.00361758
0.00360754
0.00359498
0.00358461
0.00358361
0.0035824
0.00358689
0.00359442
0.00360418
0.00362
0.00364019
0.00366391
0.0036923
0.00372481
0.00376185
0.00380335
0.00384902
0.0038986
0.00395366
0.00401313
0.00407805
0.00414776
0.00422234
0.00430426
0.00439098
0.00448507
0.00458322
0.00468506
0.00478964
0.00489821
0.00501037
0.00512324
0.00523984
0.00535762
0.00547799
0.00559962
0.00572122
0.00584326
0.00596377
0.00608492
0.00620407
0.00632523
0.00644377
0.00656298
0.00668273
0.00680534
0.00692785
0.00705057
0.00717022
0.00728194
0.00738406
0.00748257
0.00757377
0.00766217
0.00774743
0.0078314
0.0079135
0.00799511
0.00807396
0.00815236
0.00823095
0.00830938
0.00838962
0.00847047
0.00855323
0.00863374
0.00871165
0.00878658
0.00885882
0.00892659
0.0089913
0.00905186
0.00911037
0.00916663
0.00922252
0.00927819
0.00933361
0.00938847
0.00944303
0.00949648
0.00954944
0.00960024
0.00964951
0.00969613
0.00974062
0.00978206
0.00982171
0.00985872
0.00989434
0.00992845
0.00996233
0.0099959
0.0100306
0.0100665
0.0101038
0.0101429
0.0101837
0.010224
0.0102646
0.0103035
0.0103423
0.0103791
0.0104138
0.0104467
0.0104769
0.0105048
0.0105297
0.0105549
0.0105811
0.01061
0.0106412
0.010675
0.0107095
0.0107455
0.0107805
0.010816
0.0108496
0.0108827
0.0109125
0.0109407
0.0109649
0.0109885
0.0110133
0.01104
0.0110676
0.0110966
0.0111279
0.0111597
0.0111943
0.0112285
0.0112652
0.0113017
0.0113409
0.0113793
0.0114205
0.0114607
0.0115026
0.0115417
0.0115795
0.0116158
0.0116518
0.0116864
0.0117233
0.0117596
0.0117988
0.0118392
0.0118824
0.0119277
0.0119732
0.012022
0.0120713
0.0121226
0.0121737
0.0122261
0.01228
0.0123339
0.0123905
0.0124428
0.0124968
0.0125532
0.0126041
0.0126565
0.0127099
0.0127646
0.0128166
0.0128681
0.0129207
0.0129756
0.0130264
0.0131102
0.000159426
0.00178856
0.00343317
0.00578523
0.00857306
0.0115655
0.014617
0.0175719
0.0203339
0.0229216
0.0252333
0.0272552
0.0290447
0.0306033
0.0319324
0.0330362
0.033922
0.0346014
0.0350946
0.0354222
0.0355966
0.0356239
0.0348526
0.0329944
0.0309682
0.0290106
0.0273665
0.0257636
0.0245159
0.0231403
0.0219513
0.0205389
0.0195602
0.0186672
0.0176363
0.0173524
0.0160225
0.0144318
0.0137688
0.0123247
0.0116245
0.010538
0.00969642
0.00875722
0.00794116
0.00712558
0.00652471
0.00600154
0.00553638
0.00510496
0.0048637
0.00452892
0.00423516
0.00398788
0.00377789
0.0036162
0.00347879
0.00337675
0.00328618
0.00322203
0.00315737
0.00311271
0.00306507
0.00303065
0.00299394
0.00296641
0.00293703
0.00291386
0.00288811
0.00286976
0.00284841
0.00283525
0.00281869
0.00280882
0.00279954
0.00278831
0.00278359
0.00278004
0.00277423
0.00277388
0.00277492
0.00277754
0.00278215
0.00278839
0.00279658
0.00280716
0.00281941
0.00283414
0.00285093
0.00287085
0.0028935
0.00291968
0.00294984
0.00298363
0.00302207
0.00306485
0.00311158
0.00316362
0.00321889
0.00327951
0.00334375
0.00341268
0.00348595
0.00356446
0.00364775
0.00373573
0.00382859
0.00392509
0.00402583
0.00412964
0.00423535
0.00434469
0.00445713
0.00457342
0.00469409
0.00481976
0.00494697
0.0050777
0.00520559
0.00533021
0.00544472
0.00555743
0.00566591
0.00577529
0.00588197
0.0059896
0.00609526
0.00620341
0.00630813
0.00641372
0.00651769
0.00662255
0.00672793
0.00683504
0.00694232
0.00705041
0.00715295
0.00725517
0.00735044
0.00744427
0.00753135
0.00761653