/*--------------------------------*- C++ -*----------------------------------*\
| =========                 |                                                 |
| \\      /  F ield         | OpenFOAM: The Open Source CFD Toolbox           |
|  \\    /   O peration     | Version:  2312                                  |
|   \\  /    A nd           | Website:  www.openfoam.com                      |
|    \\/     M anipulation  |                                                 |
\*---------------------------------------------------------------------------*/
FoamFile
{
    version     2.0;
    format      ascii;
    arch        "LSB;label=32;scalar=64";
    class       volScalarField;
    location    "0.001";
    object      omega;
}
// * * * * * * * * * * * * * * * * * * * * * * * * * * * * * * * * * * * * * //

dimensions      [0 0 -1 0 0 0 0];

internalField   nonuniform List<scalar> 
48128
(
2.38409e+06
2.38462e+06
2.38858e+06
2.38869e+06
2.38658e+06
2.38029e+06
2.37585e+06
2.39123e+06
2.4221e+06
2.46556e+06
2.51017e+06
2.55151e+06
2.58692e+06
2.61567e+06
2.63852e+06
2.6569e+06
2.67031e+06
2.67946e+06
2.68523e+06
2.68798e+06
2.68759e+06
2.684e+06
2.67713e+06
2.6669e+06
2.65331e+06
2.63654e+06
2.61665e+06
2.59362e+06
2.56867e+06
2.5412e+06
2.51223e+06
2.48239e+06
2.45189e+06
2.42129e+06
2.39105e+06
2.36263e+06
2.33497e+06
2.30762e+06
2.2815e+06
2.25714e+06
2.23522e+06
2.21511e+06
2.19673e+06
2.17907e+06
2.16295e+06
2.14748e+06
2.13181e+06
2.11235e+06
2.09422e+06
2.07017e+06
2.04842e+06
2.02457e+06
2.01917e+06
2.01626e+06
2.01453e+06
2.01156e+06
2.00523e+06
1.99782e+06
1.98848e+06
1.97851e+06
1.96787e+06
1.9565e+06
1.94476e+06
1.93241e+06
1.91975e+06
1.90637e+06
1.89276e+06
1.87923e+06
1.86517e+06
1.85104e+06
1.83648e+06
1.8219e+06
1.80755e+06
1.79289e+06
1.7796e+06
1.76625e+06
1.753e+06
1.74052e+06
1.72805e+06
1.71659e+06
1.70511e+06
1.69425e+06
1.68334e+06
1.67297e+06
1.6631e+06
1.65343e+06
1.64439e+06
1.63599e+06
1.62786e+06
1.62027e+06
1.61322e+06
1.60642e+06
1.59995e+06
1.59366e+06
1.5878e+06
1.58231e+06
1.57717e+06
1.57225e+06
1.56757e+06
1.56314e+06
1.55893e+06
1.5549e+06
1.55109e+06
1.54744e+06
1.54397e+06
1.54064e+06
1.53751e+06
1.53457e+06
1.5318e+06
1.52916e+06
1.52665e+06
1.52428e+06
1.52206e+06
1.5199e+06
1.51788e+06
1.51589e+06
1.51408e+06
1.51209e+06
1.51168e+06
1.51057e+06
1.50922e+06
1.50836e+06
1.50716e+06
1.50584e+06
1.50453e+06
1.50327e+06
1.50211e+06
1.5012e+06
1.50029e+06
1.49953e+06
1.49864e+06
1.4977e+06
1.49663e+06
1.4955e+06
1.49435e+06
1.49319e+06
1.49202e+06
1.49088e+06
1.48975e+06
1.48866e+06
1.48758e+06
1.48654e+06
1.48549e+06
1.48444e+06
1.48343e+06
1.48244e+06
1.48151e+06
1.4806e+06
1.47976e+06
1.47895e+06
1.47821e+06
1.47748e+06
1.47697e+06
1.47644e+06
1.4759e+06
1.47536e+06
1.47477e+06
1.47411e+06
1.47333e+06
1.47243e+06
1.47143e+06
1.47038e+06
1.46931e+06
1.46821e+06
1.4672e+06
1.46616e+06
1.46516e+06
1.46426e+06
1.46346e+06
1.46267e+06
1.46188e+06
1.46106e+06
1.46018e+06
1.45924e+06
1.45828e+06
1.4574e+06
1.45656e+06
1.45581e+06
1.45511e+06
1.45446e+06
1.45384e+06
1.45319e+06
1.45251e+06
1.45176e+06
1.45094e+06
1.45004e+06
1.44904e+06
1.44791e+06
1.44664e+06
1.44523e+06
1.44371e+06
1.44212e+06
1.44048e+06
1.43896e+06
1.43766e+06
1.43652e+06
1.43547e+06
1.43445e+06
1.43341e+06
1.43232e+06
1.43114e+06
1.42983e+06
1.42833e+06
1.42661e+06
1.42466e+06
1.42253e+06
1.42024e+06
1.41777e+06
1.41547e+06
1.41344e+06
1.41141e+06
1.40965e+06
1.40796e+06
1.40633e+06
1.40467e+06
1.40299e+06
1.40124e+06
1.39936e+06
1.39735e+06
1.3952e+06
1.39289e+06
1.39065e+06
1.38859e+06
1.38652e+06
1.38463e+06
1.38288e+06
1.38102e+06
1.37949e+06
1.37798e+06
1.37626e+06
1.37484e+06
1.37357e+06
1.37225e+06
1.37081e+06
1.36947e+06
1.3682e+06
1.36689e+06
1.36569e+06
1.36443e+06
1.36293e+06
854920
504874
446182
504621
664993
887477
1.02729e+06
1.08997e+06
1.07555e+06
999448
937351
884107
843001
813439
793037
779322
770023
763570
759078
755500
752348
749332
746335
743390
740601
738233
736466
734910
731108
728483
727215
726238
725446
724839
727451
733732
739557
745439
751541
757580
763388
769642
775637
781662
787187
792370
796731
800214
802601
803945
804399
804511
806177
808272
809582
809798
809319
807994
805774
802745
799007
794634
789683
784254
778198
771402
764157
756677
749215
741588
734040
726365
718739
711186
703566
696360
689304
682152
675267
668248
661718
655296
649327
643409
637643
632301
626952
621926
617181
612569
608224
604237
600384
596773
593291
589986
586902
584030
581386
578866
576587
574429
572452
570600
568879
567240
565683
564239
562894
561684
560511
559446
558456
557544
556601
555672
554664
553793
552518
552275
551983
551366
551135
550932
550689
550465
550265
550211
550256
550349
550551
550780
551050
551243
551341
551377
551368
551347
551318
551296
551300
551323
551378
551462
551562
551673
551788
551909
552032
552158
552286
552429
552591
552818
553098
553465
553913
554438
555048
555724
556374
557055
557659
558365
558884
559474
559851
560158
560407
560551
560709
560871
561037
561197
561285
561368
561470
561539
561630
561741
561879
562041
562240
562466
562715
562988
563284
563610
563959
564279
564562
564850
564875
564768
564590
564352
564074
563810
563545
563317
563139
563004
562965
562981
563005
563005
562989
562822
562419
561873
561210
560426
559590
558740
557891
557050
556292
555641
555078
554458
553852
553093
552221
551267
550218
549131
548050
546919
545698
544843
543753
542746
542065
541407
540688
539989
539390
538722
538077
537237
854485
361955
238871
338513
509458
609206
639761
618575
561639
509345
469904
442780
425668
415780
410891
409044
408743
410306
412466
415095
417953
421059
424379
428028
431986
436154
440727
445488
450280
455959
462206
468978
476596
484998
494577
504995
515651
526553
537478
548253
559035
569916
580672
590934
600838
610288
618972
626533
632706
637467
641064
643530
645354
646768
647265
647023
646100
644281
641530
637884
633478
628379
622692
616464
609755
602629
595197
587545
579721
571743
563692
555552
547459
539373
531330
523482
515810
508081
500632
493128
486003
479020
472364
465838
459496
453452
447506
441824
436347
431027
425904
421070
416402
411936
407603
403441
399469
395682
392086
388619
385362
382241
379284
376454
373768
371180
368703
366332
364065
361930
359847
357892
355991
354196
352419
350706
348954
347313
345437
344104
342780
341316
340013
338863
337729
336650
335651
334707
333921
333127
332481
331850
331283
330722
330148
329571
328985
328409
327828
327262
326701
326161
325642
325159
324680
324222
323767
323329
322887
322459
322020
321607
321183
320815
320470
320148
319916
319675
319555
319504
319487
319513
319558
319636
319714
319825
319853
319841
319801
319721
319619
319500
319373
319261
319141
319013
318915
318810
318725
318650
318591
318524
318494
318484
318492
318518
318567
318649
318765
318903
319051
319228
319352
319379
319367
319328
319259
319170
319064
318961
318866
318790
318778
318811
318875
318970
319093
319177
319136
319030
318858
318598
318269
317897
317494
317081
316665
316325
316056
315760
315507
315167
314744
314250
313674
313027
312365
311635
310809
310200
309478
308744
308164
307639
307081
306514
306019
305494
304958
304271
854274
289518
239250
348315
434742
459045
444955
405608
371018
341709
321660
310214
304556
302520
302421
304655
307342
310920
314758
318951
323381
328130
333215
338695
344549
350840
357672
364977
372872
381592
391126
401462
412581
424550
437345
450992
465271
479638
494028
508018
522133
536109
550188
563455
576352
588539
599744
609297
617065
622933
627223
629993
631452
632202
631875
630820
628873
625845
621805
616715
610816
604175
596956
589169
580936
572325
563433
554357
545092
535730
526287
516833
507450
498066
488806
479742
470913
462195
453755
445435
437438
429667
422196
414904
407837
401026
394365
387978
381777
375766
369955
364432
359088
353944
348947
344139
339514
335076
330813
326695
322779
319008
315405
311932
308618
305406
302323
299344
296483
293746
291083
288546
286073
283712
281406
279177
276932
274783
272493
270572
268700
266743
264909
263208
261556
259941
258413
256927
255584
254250
253038
251870
250766
249703
248652
247636
246635
245668
244717
243794
242889
242010
241157
240342
239540
238764
237998
237255
236513
235791
235060
234356
233644
232968
232325
231686
231113
230547
230047
229627
229234
228896
228585
228317
228070
227845
227605
227348
227076
226789
226490
226185
225870
225584
225305
225035
224792
224547
224323
224110
223909
223699
223513
223327
223163
223011
222883
222786
222725
222698
222694
222714
222730
222724
222703
222668
222617
222550
222470
222383
222292
222223
222155
222154
222169
222217
222287
222385
222399
222382
222341
222247
222104
221926
221718
221492
221248
221033
220863
220677
220529
220326
220068
219762
219392
218958
218498
217970
217364
216875
216311
215731
215217
214744
214249
213744
213287
212814
212328
211689
853552
224850
260363
334252
364917
364619
336016
309136
285302
268188
258640
254267
252989
253815
256377
259842
263697
268100
272790
277850
283259
289106
295416
302261
309686
317773
326614
336195
346648
358170
370619
383945
398108
413295
429230
446274
464273
482358
500902
518628
536442
553883
571679
588497
604447
619337
632277
643037
650460
655731
658450
659775
659108
657696
655365
651862
647535
641908
635414
627991
620042
611437
602365
592746
582756
572419
561867
551189
540412
529694
518946
508337
497825
487382
477038
467053
457428
448027
438927
430008
421426
413074
405039
397203
389595
382238
375069
368185
361501
355025
348751
342772
336986
331402
325965
320728
315662
310788
306087
301543
297203
293013
288998
285115
281401
277793
274322
270948
267704
264569
261532
258603
255763
253025
250375
247788
245218
242734
240148
237866
235662
233402
231248
229210
227236
225288
223421
221591
219881
218192
216611
215087
213630
212231
210860
209532
208230
206972
205742
204549
203384
202250
201150
200085
199047
198036
197047
196080
195127
194194
193260
192352
191445
190563
189721
188878
188083
187308
186573
185913
185273
184698
184134
183628
183144
182689
182233
181775
181313
180851
180382
179919
179450
179010
178589
178184
177809
177438
177090
176754
176433
176106
175795
175480
175184
174890
174622
174377
174169
173993
173831
173721
173612
173512
173409
173307
173200
173089
172970
172850
172726
172621
172510
172446
172382
172374
172378
172402
172394
172373
172340
172278
172188
172078
171947
171802
171642
171492
171368
171232
171125
170978
170792
170571
170303
169984
169638
169232
168764
168360
167898
167420
166966
166535
166086
165625
165195
164754
164302
163693
852922
236522
269071
306556
312431
298088
274877
254771
238818
229338
224939
223637
224496
227195
230813
235049
239683
244770
250223
256117
262485
269416
276978
285263
294354
304362
315355
327375
340483
354786
370215
386821
404443
423450
443349
464599
487262
509470
532592
554260
575811
596148
615830
633982
648962
662688
671656
679400
681933
684111
683143
681457
677655
672711
667382
660694
653462
645052
636129
626339
616153
605486
594626
583461
572177
560666
549443
538105
527269
516381
505795
495361
485120
475049
464915
455204
445754
436528
427592
418708
410270
401862
393887
386014
378406
371016
363772
356819
350050
343445
337036
330888
324963
319225
313614
308216
302989
297960
293107
288406
283909
279547
275361
271301
267403
263612
259951
256379
252932
249587
246344
243199
240158
237201
234352
231556
228799
226127
223374
220883
218477
216047
213698
211460
209292
207153
205078
203039
201096
199178
197359
195599
193913
192295
190709
189174
187664
186209
184777
183393
182037
180719
179436
178191
176977
175791
174637
173504
172394
171304
170223
169166
168117
167089
166103
165116
164171
163248
162352
161530
160722
159979
159237
158565
157899
157274
156659
156049
155434
154835
154229
153638
153043
152477
151934
151412
150918
150437
149979
149535
149112
148685
148273
147857
147457
147053
146673
146312
145984
145683
145400
145164
144939
144740
144540
144352
144165
143985
143802
143627
143449
143291
143129
143003
142874
142794
142720
142676
142618
142552
142485
142403
142308
142203
142088
141967
141836
141712
141605
141491
141398
141273
141118
140938
140722
140466
140188
139858
139481
139139
138750
138345
137945
137553
137144
136724
136320
135908
135485
134905
851898
250623
261744
275679
271376
253466
236003
220933
210609
205325
203516
203728
206228
209806
214114
218976
224273
230026
236238
242981
250325
258399
267304
277158
288070
300180
313534
328199
344193
361687
380614
401080
422635
445873
470433
496027
523654
548870
574103
596501
617612
636597
652312
666654
675496
684001
685508
687058
683993
679494
671775
662897
652854
641667
630824
619404
607906
596336
584684
573377
562038
551062
540105
529466
518863
508482
498635
488720
479798
470653
462282
453784
445801
437942
429867
422385
414798
407550
400438
393170
386369
379374
372884
366272
360013
353763
347424
341340
335314
329308
323447
317731
312260
306932
301638
296516
291556
286753
282101
277564
273208
268948
264848
260843
256985
253223
249575
246016
242558
239211
235945
232791
229719
226729
223832
220999
218224
215513
212746
210168
207677
205217
202791
200473
198223
196015
193851
191716
189658
187620
185674
183785
181972
180236
178523
176874
175240
173673
172116
170615
169137
167703
166300
164938
163606
162304
161035
159789
158571
157373
156193
155031
153885
152757
151671
150585
149539
148514
147512
146576
145655
144790
143929
143133
142341
141591
140856
140133
139407
138701
137994
137302
136612
135947
135307
134688
134096
133522
132970
132435
131925
131414
130920
130423
129941
129454
128986
128533
128111
127709
127331
126989
126667
126374
126084
125811
125543
125292
125037
124801
124562
124347
124129
123945
123755
123610
123466
123357
123239
123116
123003
122882
122756
122629
122499
122369
122235
122112
122004
121891
121795
121674
121530
121367
121177
120958
120719
120438
120121
119822
119486
119134
118779
118423
118052
117669
117292
116908
116512
115964
851887
255687
248654
249440
238729
223295
209435
198317
191533
188576
187978
189568
192858
196996
201825
207217
213108
219498
226454
234048
242413
251710
262066
273646
286564
301011
316997
334667
353945
375091
397873
422789
448671
476133
504461
531637
560277
584232
605740
623553
639203
652595
659732
666991
664567
660141
651653
642613
631278
619259
606136
592718
579868
566576
552947
540393
527400
515947
503846
493174
482045
472301
462246
453399
444265
436245
428233
420705
414066
407183
401242
395039
389589
384129
378497
373390
368051
363101
358111
352963
348054
342949
338142
333225
328446
323782
319042
314465
309934
305378
300858
296380
292090
287890
283703
279545
275526
271537
267586
263676
259857
256089
252416
248801
245290
241857
238504
235227
232019
228909
225852
222894
219977
217157
214358
211681
209029
206432
203799
201275
198843
196465
194078
191786
189569
187403
185272
183154
181100
179066
177100
175192
173349
171582
169837
168161
166493
164897
163300
161756
160230
158748
157293
155879
154491
153133
151805
150502
149225
147972
146738
145519
144319
143139
141991
140853
139744
138661
137598
136588
135597
134650
133716
132835
131964
131127
130308
129507
128707
127927
127148
126385
125628
124892
124181
123487
122820
122172
121545
120937
120356
119778
119220
118660
118116
117567
117034
116509
116016
115537
115083
114658
114259
113885
113519
113170
112830
112511
112190
111895
111597
111327
111055
110816
110573
110370
110167
109998
109823
109645
109483
109317
109150
108992
108831
108680
108527
108388
108265
108141
108033
107905
107760
107600
107421
107221
107005
106755
106477
106209
105910
105598
105279
104957
104619
104269
103921
103565
103196
102680
854251
253189
234139
227326
214606
201522
190333
182023
177411
175768
175958
178420
182124
186645
191867
197701
204118
211110
218795
227279
236736
247368
259334
272861
288046
305161
324161
345248
368222
393497
420301
448955
477491
506120
534569
557771
580961
599716
613621
625043
629937
631263
626582
620599
609872
597099
582454
567575
552236
536446
520348
504144
487594
472083
455323
441253
426351
414415
401808
391776
381144
372775
363943
357010
349640
343910
337950
333011
328639
324529
321321
318003
315579
313118
310914
308888
306715
304825
302876
300855
298802
296554
294211
291708
289090
286407
283628
280820
277975
275077
272108
269092
266103
263110
260092
257021
253945
250863
247798
244756
241740
238757
235813
232909
230051
227252
224496
221782
219111
216492
213881
211319
208753
206278
203782
201412
199030
196692
194319
191990
189739
187529
185322
183170
181086
179053
177055
175064
173117
171197
169313
167485
165704
163992
162309
160686
159076
157527
155974
154464
152964
151503
150064
148663
147282
145930
144603
143299
142019
140763
139523
138302
137094
135906
134739
133592
132462
131360
130277
129235
128213
127227
126261
125334
124422
123538
122671
121826
120983
120163
119342
118536
117740
116960
116203
115460
114744
114043
113363
112702
112069
111441
110837
110232
109644
109052
108475
107901
107357
106821
106311
105823
105366
104928
104501
104091
103692
103316
102939
102592
102242
101924
101604
101318
101029
100777
100524
100305
100081
99855.2
99645.2
99438
99229.7
99036.5
98841.9
98663.3
98484.6
98322.2
98178.7
98035.2
97909.7
97770
97617.8
97454.6
97277.7
97085.7
96882.8
96652.1
96400.3
96154.5
95883.6
95599.9
95310.6
95017.3
94709.8
94390.8
94069.2
93740.6
93397.9
92916.8
858147
247885
220228
209708
196900
185195
175910
169506
166222
165258
166117
168975
172900
177662
183169
189362
196244
203829
212278
221735
232417
244578
258403
274212
292069
312282
334741
359657
386372
414944
443780
472999
500525
525574
549866
565755
581113
591524
593794
593936
588701
581058
568602
554577
538181
520153
500640
479703
458652
438760
418597
400623
381977
366535
350053
336819
322974
312262
301120
292349
283232
276241
268974
263513
257818
253588
249197
245987
242655
240560
238407
236860
235851
234782
234513
234152
234133
234248
234443
234799
235271
235644
236087
236361
236650
236707
236589
236371
235998
235496
234793
233926
232941
231823
230577
229157
227575
225867
224070
222197
220267
218296
216291
214259
212205
210138
208057
205967
203862
201769
199677
197614
195534
193497
191456
189481
187511
185558
183576
181577
179619
177702
175770
173857
171983
170155
168350
166563
164790
163046
161318
159636
157989
156402
154844
153340
151851
150409
148959
147544
146125
144743
143371
142038
140715
139421
138146
136892
135656
134444
133245
132066
130894
129741
128601
127482
126373
125289
124220
123186
122168
121184
120219
119285
118368
117476
116596
115741
114885
114054
113220
112400
111592
110795
110018
109253
108511
107784
107075
106383
105719
105062
104429
103799
103186
102570
101969
101366
100789
100218
99671.1
99141.5
98643.9
98161.6
97691
97236.7
96792.5
96373.5
95954.3
95565.3
95175.3
94817.9
94459.7
94136
93810.1
93518.8
93227.1
92967.7
92704.5
92440.6
92189.7
91947
91702.7
91477.4
91252.1
91045.1
90841.3
90653.5
90487.8
90324.4
90180.7
90027.6
89865.9
89696.9
89518.4
89329.6
89133.5
88916
88681.9
88453.4
88203.7
87943.4
87678.4
87410
87129.2
86837.9
86542.8
86240.6
85923.7
85477.9
862896
241654
208752
195712
183258
172594
164520
159362
156883
156303
157574
160562
164577
169467
175166
181661
188987
197214
206532
217132
229280
243296
259395
277968
299030
322831
348845
376983
405613
434869
462640
488856
512437
531338
550443
555583
558817
559794
554755
547214
534723
519827
502032
481073
458297
433176
409636
385145
362910
343048
323073
306779
290021
276923
263392
252602
241613
233034
224334
217382
210292
204695
198978
194540
190020
186515
182948
180217
177322
175439
173358
172154
171006
169988
169623
169191
169295
169554
169953
170647
171548
172574
173759
175021
176369
177779
179139
180577
181895
183271
184497
185679
186910
187973
189033
189835
190531
190947
191255
191259
191146
190886
190476
189923
189238
188430
187504
186470
185332
184115
182839
181519
180155
178762
177353
175940
174512
173061
171566
170015
168435
166844
165234
163636
162046
160495
158951
157426
155896
154384
152874
151395
149943
148539
147165
145832
144506
143206
141896
140607
139307
138033
136762
135524
134289
133083
131891
130718
129557
128422
127295
126189
125083
123992
122909
121845
120784
119744
118716
117716
116730
115775
114837
113928
113034
112162
111300
110460
109619
108802
107979
107172
106376
105586
104811
104047
103304
102573
101858
101158
100484
99818
99176.6
98538.2
97918.9
97296.8
96689.4
96078.9
95489.2
94900.5
94335.7
93784.2
93263.5
92756
92259.2
91778.1
91305.6
90859
90412
89995.1
89577.5
89192.6
88808
88457.1
88105.8
87786.5
87467.6
87179.1
86887.3
86596.3
86314.9
86045.4
85774
85522.5
85273.5
85042.1
84818.2
84608.9
84425.1
84244.9
84086.6
83922.6
83752.8
83578.7
83398.3
83211.2
83019.8
82812.5
82591.8
82380.6
82148.7
81907.9
81663.8
81417.4
81160.6
80894.6
80624.7
80348
80056.2
79645.5
868549
235267
198510
184210
172131
162355
155215
150796
148788
148417
149865
152832
156837
161770
167609
174395
182220
191215
201605
213658
227686
244084
263052
285004
309658
336820
365174
394590
422928
450627
475113
495759
514927
525046
533398
531266
526167
519799
508466
494215
476182
454335
429550
401278
375363
347973
325389
302203
283119
265931
250195
237636
225066
215320
205505
197646
189756
183341
176932
171642
166279
161869
157374
153669
149901
146813
143676
141082
138397
136292
134079
132467
130784
129444
128361
127215
126510
125921
125434
125183
125199
125333
125635
126068
126649
127391
128245
129251
130357
131604
132942
134388
135953
137577
139289
141027
142813
144502
146188
147746
149251
150663
151999
153222
154352
155359
156212
156945
157503
157940
158189
158327
158289
158178
157987
157712
157341
156867
156268
155525
154657
153697
152670
151603
150509
149402
148283
147152
146002
144835
143652
142461
141277
140115
138963
137834
136711
135599
134478
133359
132227
131104
129975
128870
127763
126678
125604
124549
123500
122476
121448
120434
119417
118409
117400
116407
115411
114432
113460
112512
111575
110668
109773
108907
108054
107223
106400
105594
104787
103999
103207
102426
101657
100891
100136
99390.5
98662.6
97945.8
97242.4
96551.6
95884.7
95226.6
94592.3
93961.2
93349.8
92736.3
92136.8
91534.1
90947.6
90359.1
89792.2
89235.2
88706.5
88190.6
87683.5
87191.6
86706.4
86247.3
85787.2
85356
84924.2
84524
84125
83757.9
83392.7
83056.5
82722
82415.8
82107.9
81801.5
81501.9
81215.9
80928.5
80658.9
80395.5
80148.7
79914
79692.6
79499.2
79309.8
79143.3
78973.4
78798.8
78622.1
78441.9
78258
78073.2
77876.2
77668.6
77472.5
77258.5
77036.7
76812.3
76587.2
76352.7
76109.7
75863.4
75611
75343.5
74967.1
874508
229240
189185
174358
162786
153798
147349
143375
141589
141307
142757
145610
149539
154476
160459
167606
176080
186093
197921
211950
228483
247993
270504
296089
323803
353252
382369
411594
438389
462536
481962
496298
508478
508583
507148
502255
491508
477582
460138
438635
413392
383439
354770
324982
301263
276818
258415
239991
226307
213117
202585
193282
184763
177565
170651
164888
159066
154131
149161
144976
140727
137110
133414
130252
127036
124338
121606
119260
116846
114767
112638
110874
109068
107555
106183
104780
103621
102470
101487
100597
99832.8
99126.3
98611.2
98133.5
97699.3
97462.4
97217.3
97141.8
97172.7
97302.2
97532.7
97884
98365.4
98954
99670.8
100499
101445
102482
103615
104826
106110
107464
108882
110365
111905
113486
115094
116726
118331
119939
121447
122945
124351
125768
127139
128478
129677
130781
131697
132431
132920
133228
133436
133462
133405
133275
133064
132783
132422
131990
131488
130926
130316
129669
128988
128279
127546
126786
125994
125173
124323
123449
122558
121658
120748
119841
118933
118031
117126
116231
115334
114444
113550
112657
111757
110865
109966
109077
108189
107321
106460
105625
104799
104002
103215
102450
101687
100934
100178
99435.8
98688.3
97946.8
97216.7
96488.3
95767.3
95053.7
94354.9
93665.2
92987.2
92319.7
91674.7
91037.7
90423
89810.9
89217.5
88622.5
88040.2
87455.1
86882.8
86307.4
85750.2
85199.8
84673.7
84161.5
83656.8
83166.6
82681.5
82221.8
81760.8
81326.8
80891.9
80486.7
80083.6
79709.5
79340.2
78995.6
78657.6
78343.9
78033.6
77721.9
77415.9
77123.5
76831.3
76553.6
76285.4
76031.3
75793.9
75567.9
75372.3
75180.4
75012.4
74843
74669.3
74494.3
74317.6
74138.2
73962.7
73777.5
73583.6
73399.9
73205.4
73004.3
72800.5
72597.5
72386.4
72167.4
71945.3
71718.1
71476.1
71136.4
880495
223900
180768
165818
154821
146462
140519
136841
135096
134812
136146
138835
142668
147630
153842
161531
170948
182428
196291
213022
232900
256250
282490
311409
341362
372200
400981
428588
452807
470860
484347
490498
493508
489078
481157
471391
455461
433709
408031
376846
345175
313193
287070
262250
243355
225062
211591
198558
188976
179177
171862
164397
158317
152498
147337
142612
137960
133994
129963
126516
122987
119942
116830
114180
111501
109210
106868
104802
102678
100816
98919.1
97300.4
95654
94214.5
92865.5
91543.9
90397.8
89238
88180
87223.2
86292.9
85396.9
84626.2
83876.8
83111.1
82461.1
81803.9
81235.5
80687.3
80220.9
79809.7
79431.3
79154.9
78906.6
78722.6
78595.8
78529.9
78545.1
78613.5
78742.5
78938.8
79206.9
79550
79976.9
80493.3
81099.7
81800.7
82597.1
83484
84456.2
85508.8
86647
87874.7
89216.4
90661.7
92193.2
93782.7
95424.1
97022.3
98647.8
100109
101525
102869
104177
105370
106525
107555
108555
109433
110260
110980
111620
112160
112629
113016
113288
113500
113552
113507
113386
113179
112893
112535
112121
111657
111153
110615
110048
109454
108838
108203
107552
106883
106198
105495
104778
104047
103307
102558
101813
101068
100340
99614.7
98909.2
98207.5
97524.9
96843.8
96171.2
95494.5
94823.8
94148.5
93473.3
92805.2
92137.8
91474.6
90816.2
90168.1
89526.7
88895
88271.7
87670.2
87072.5
86492.1
85913
85349.6
84784.3
84229.3
83671.5
83123.8
82573.4
82036.7
81504.3
80990.5
80492.8
80001.3
79524.3
79050.8
78601.1
78149.4
77722.2
77293.4
76891.4
76492.4
76118.6
75752.5
75406.4
75072.4
74757.4
74452.2
74143.7
73839.9
73548
73258.5
72980.4
72713.8
72457.5
72221.5
71994.5
71799.5
71609.1
71442.9
71279.3
71111.4
70942.3
70772.8
70600.3
70434.3
70262.1
70082.6
69912.9
69738.3
69559.1
69377.2
69197.9
69012.4
68820.5
68625.4
68426.5
68213
67915.4
885922
219337
173253
158353
147925
140075
134516
131010
129243
128861
130017
132533
136309
141399
148041
156611
167481
181097
197827
218215
242234
269872
299779
331778
363201
394286
421927
445950
465638
475581
482792
481236
477612
468790
454585
436207
412036
380002
345339
310519
281489
255676
234903
217178
202957
190224
180034
170763
163073
155310
149070
142461
137583
132255
128105
123921
120317
117200
113997
111212
108325
105866
103386
101275
99148.8
97194.8
95163.8
93380
91556.8
89991.8
88404.3
87033.3
85633.7
84409.7
83194.6
82078.4
81099.7
80121.5
79155.1
78326.1
77504.4
76672.2
75952.9
75236.1
74501.3
73844.9
73182.3
72554
71945.2
71376.1
70851.8
70321.2
69847.8
69371
68926.9
68486.9
68087
67698.8
67346
67009.9
66704.9
66414.9
66162.5
65925.2
65748.6
65587.6
65495.5
65426.5
65434.7
65476.7
65565.4
65708.1
65917.1
66209.9
66591.9
67063.6
67619
68253.9
68947.1
69707.4
70515.2
71379.1
72303.2
73288.3
74327.8
75422
76561.1
77752
78980.8
80259.6
81571.3
82910
84267.2
85646
87008.8
88390.4
89683.8
90946.3
92045.9
93086.5
93950.2
94741.7
95384
95959.2
96418.5
96811.5
97109.7
97345.7
97487.8
97576
97560
97494.1
97367
97176
96923.2
96614.5
96254.8
95852.2
95413.6
94948.8
94464.2
93967.9
93462.2
92952.6
92436.5
91923.8
91407.4
90887.1
90359
89823.1
89276.7
88721
88158.7
87590.5
87018
86442.2
85868.2
85296.3
84727.7
84164.2
83614.5
83071.4
82544.1
82018.8
81505.8
80991.4
80483.6
79973.2
79468.7
78962.4
78464.1
77968.3
77483.7
77017
76555.3
76109.1
75662.4
75235.5
74805.5
74396.2
73984.7
73596.1
73211.2
72846.8
72492.6
72154.7
71829.5
71519.2
71221.7
70922.3
70625.9
70338.7
70055.9
69781
69519.3
69263.9
69031.4
68806.3
68612.9
68426.5
68262.7
68106.4
67945.9
67784.1
67623.5
67460.2
67304.3
67145.7
66981.4
66828.2
66673.3
66515.9
66356.4
66201.9
66043
65879.4
65713.4
65545
65363.1
65112.9
890777
215715
166585
151803
141889
134483
129214
125799
123982
123456
124419
126805
130645
136092
143526
153510
166576
183326
204034
229070
257879
290238
323666
358256
390000
419632
444758
462241
474947
477346
476921
470928
459967
443391
420042
388576
352717
315738
283783
256072
233370
214717
199330
186462
175505
166024
157207
149425
141868
135250
128852
123109
118468
113680
110356
106831
104460
102158
99842.5
97827.2
95759
93995.9
92159.4
90484.3
88729.1
87075.5
85401
83985.5
82548.7
81322.2
80076.5
78959.4
77816.3
76805.2
75789.6
74887.4
74085.2
73265.8
72460.6
71771.7
71073.7
70374.3
69755.3
69125
68475.2
67901.8
67323.1
66743
66184.7
65663.7
65172.7
64674.6
64204.6
63730.1
63271.8
62812.3
62379
61951.4
61541.6
61137
60740.3
60346.9
59964.9
59585
59232.2
58880.5
58556.3
58236
57941.3
57649.8
57376.1
57112.7
56867.1
56666.6
56496.4
56372.9
56274.3
56214.4
56166
56145.8
56157
56196.5
56273.9
56394.1
56558.9
56772.9
57037.9
57361.6
57744.3
58201.6
58732.8
59344.1
60036.7
60814.6
61678.9
62631
63660.6
64760.6
65908.7
67094.8
68291.3
69504.7
70689.7
71888.1
73054.2
74230.9
75371.7
76504.5
77578.3
78616.1
79574.2
80459.4
81250.3
81945
82531
83023.7
83408.6
83717.2
83929.3
84088.2
84176
84226.3
84218.6
84188.5
84127.2
84036
83912.6
83757.3
83567.5
83343.1
83082.4
82787
82459.9
82105.2
81724.4
81323.2
80906.6
80479.8
80044.7
79604.7
79166.8
78733.1
78308.5
77884.3
77463.2
77038.7
76611.2
76179.1
75742.8
75302.5
74860.4
74417.1
73976.6
73551.5
73130.2
72719.4
72311.2
71921.5
71530.1
71155.9
70779.9
70422.3
70068.9
69731.2
69404.4
69091.2
68790.3
68501.6
68224.1
67943.6
67662.4
67385.7
67113.3
66844.9
66589.8
66337.8
66110.4
65890.5
65700.1
65520.3
65359.8
65209.7
65056.2
64901
64749.1
64595.7
64448.6
64304.8
64156.5
64018.7
63883.7
63747.1
63608.7
63478.4
63345.3
63209.3
63071.5
62934.3
62785
62585.2
894967
213042
160766
146053
136588
129584
124543
121169
119273
118661
119469
121833
125952
132141
140957
153192
169601
190829
216747
247534
281756
318980
354897
390450
421299
446826
466445
474895
478938
475855
468761
454874
433034
403907
367334
327368
292213
262144
237343
217142
200569
186867
175028
164790
155252
146769
138430
130935
123403
116821
110282
104731
99689
95588.6
92302.6
89596.3