/*--------------------------------*- C++ -*----------------------------------*\
| =========                 |                                                 |
| \\      /  F ield         | OpenFOAM: The Open Source CFD Toolbox           |
|  \\    /   O peration     | Version:  2312                                  |
|   \\  /    A nd           | Website:  www.openfoam.com                      |
|    \\/     M anipulation  |                                                 |
\*---------------------------------------------------------------------------*/
FoamFile
{
    version     2.0;
    format      ascii;
    arch        "LSB;label=32;scalar=64";
    class       volScalarField;
    location    "0.001";
    object      p;
}
// * * * * * * * * * * * * * * * * * * * * * * * * * * * * * * * * * * * * * //

dimensions      [1 -1 -2 0 0 0 0];

internalField   nonuniform List<scalar> 
48128
(
3171.41
3171.2
3166.02
3164.4
3162.01
3156.68
3146.92
3129.85
3109.55
3077.4
3041.63
3006.45
2975.34
2950.71
2932.41
2918.79
2910.86
2908.13
2909.59
2914.76
2924.13
2938.06
2957.07
2981.74
3012.76
3050.59
3096.13
3150.89
3213.45
3284.77
3365.77
3456.99
3558.6
3671
3794.81
3931.11
4077.94
4237.3
4408.25
4590.58
4786.06
4989.89
5207.98
5431.77
5668.81
5911.81
6167.31
6424.59
6693.63
6960.05
7231.46
7498.46
7766.42
8031.34
8294.07
8556.53
8814.96
9068.37
9315.66
9556.43
9790
10015
10230.7
10435.4
10629.4
10811.7
10979.6
11138.3
11280.7
11418.1
11542.1
11659
11766.7
11861.7
11951.7
12031.1
12103.2
12171.4
12226.2
12278.7
12319.7
12361.4
12398.3
12434.9
12467.9
12496.3
12525
12548.1
12569.5
12590
12610.6
12631.9
12650.3
12661.9
12672.7
12682.8
12693.8
12706.4
12720.9
12737.3
12755
12773.7
12793.1
12813.2
12833.4
12852.3
12868.6
12885
12901.8
12918.3
12934.5
12950.4
12967.3
12985.1
13001.9
13009
13007
12993.5
12972.3
13002.1
13005
13013.4
13045.9
13070
13088.2
13100.3
13103.1
13105.1
13107.8
13114.8
13126
13138.7
13157.1
13173.9
13190.6
13205.4
13218.9
13230.7
13242.2
13252.7
13263.2
13273.4
13283.9
13292
13299.6
13305.8
13311.7
13316.6
13320.3
13323.3
13323.7
13322.8
13321.2
13322.4
13323.9
13326.5
13331.9
13340.3
13351.1
13361.3
13370.6
13376.2
13380
13381.2
13378.5
13377.2
13374.8
13373
13373.6
13376.4
13382.2
13391
13403.1
13415.9
13425.6
13433
13438.2
13441.6
13442
13440.5
13438.3
13436.2
13434.4
13433.6
13434
13435.9
13439.7
13447.4
13457.7
13470.4
13484
13497.1
13509
13516.8
13519.7
13521.7
13522.4
13522.7
13523.6
13525.3
13528.9
13534.4
13542.6
13552.6
13564.3
13575.9
13588.1
13600.5
13603.3
13608.4
13613.5
13617.9
13624
13630.7
13638.4
13646.4
13655.2
13664.2
13672.2
13681.4
13687.7
13689.3
13694.6
13700.3
13706.2
13715.2
13725.6
13725.2
13732.8
13741.8
13733.5
13734
13735.4
13735.8
13730.8
13730.1
13730.3
13727.5
13725.9
13718.6
3170.66
3170.72
3165.31
3165.13
3163.76
3158.27
3149.07
3129.63
3106.19
3073.96
3037.89
3002.88
2972.92
2950.5
2932.24
2918.76
2910.91
2908.26
2909.75
2914.9
2924.18
2937.97
2956.87
2981.5
3012.7
3050.3
3095.27
3149.07
3211.03
3282.29
3362.85
3453.37
3554
3665.54
3787.99
3923.01
4068.71
4226.45
4396.29
4577.03
4770.44
4972.62
5188.95
5411.51
5646.2
5887.25
6140.19
6395.56
6663.21
6928.08
7197.97
7464.12
7730.26
7994.43
8256.35
8517.93
8775.99
9029.38
9276.95
9518.19
9752.23
9977.89
10194.1
10399.2
10592.2
10773.6
10941.9
11101.1
11245
11383.5
11509.2
11627.8
11736.8
11833.7
11924.4
12005
12079.1
12148.3
12204.6
12257.9
12299.6
12342.4
12380.9
12418.8
12452.4
12482
12511.5
12535.1
12557.5
12578.5
12599.7
12622
12640.7
12652.8
12664.3
12674.8
12686.3
12699.3
12714.3
12731.2
12749.3
12768.3
12788
12808.4
12829
12848.1
12864.6
12881.2
12898.2
12914.8
12931.2
12947.2
12964.3
12982.4
12999.3
13006.4
13004.2
12991.1
12969.4
12998.8
13003.5
13012.3
13043.5
13068.9
13087
13098.6
13101.4
13103.4
13106.4
13113.2
13124.7
13137.8
13156
13173.2
13189.9
13204.4
13218
13229.7
13241.2
13251.8
13262.4
13272.6
13283.1
13291.3
13299
13305.1
13311.1
13316
13319.8
13322.8
13323.2
13322.2
13320.6
13321.8
13323.2
13325.8
13331.4
13340
13350.9
13361.1
13370.4
13376
13379.9
13381.1
13378.6
13377.3
13374.9
13373.1
13373.7
13376.5
13382.2
13391
13403.1
13415.9
13425.6
13433
13438.2
13441.6
13442
13440.5
13438.3
13436.2
13434.5
13433.7
13434.1
13436
13439.8
13447.5
13457.9
13470.5
13484.2
13497.3
13509.2
13517
13519.8
13521.8
13522.5
13522.9
13523.7
13525.5
13529
13534.6
13542.8
13552.8
13564.5
13576.1
13588.4
13600.8
13603.6
13608.7
13613.8
13618.1
13624.2
13631
13638.7
13646.7
13655.5
13664.4
13672.5
13681.6
13688.1
13689.6
13694.8
13700.5
13706.4
13715.4
13725.9
13725.3
13733
13742.1
13733.6
13734.1
13735.6
13736
13730.9
13730.2
13730.4
13727.6
13726
13718.7
3171.59
3168.39
3165.06
3164.81
3163.16
3156.38
3142.51
3122.03
3095.8
3063.46
3031.28
2999.14
2970.18
2946.59
2929.25
2916.86
2909.79
2907.62
2909.36
2914.64
2923.92
2937.69
2956.72
2981.06
3011.72
3048.78
3093.72
3146.83
3208.04
3278.63
3358.49
3448.22
3547.82
3658.23
3779.28
3912.58
4056.68
4212.39
4380.91
4559.86
4751.05
4951.09
5165.69
5386.69
5618.6
5858.59
6108.68
6363.01
6628.55
6892.67
7161.62
7427.01
7692.28
7956.13
8216.89
8477.67
8735.49
8988.95
9237.12
9479.14
9714.05
9940.87
10158.2
10364.4
10558.8
10741.6
10910.5
11070.1
11214.6
11354.1
11481.1
11601.5
11711.3
11809.9
11901.3
11982.5
12058.6
12128.7
12186.4
12240.5
12282.3
12325.9
12365.4
12404.7
12438.8
12469.3
12499.4
12523.4
12546.7
12568.1
12589.7
12612.7
12631.5
12644.1
12656.3
12667.3
12679.2
12692.5
12708
12725.3
12743.7
12763
12782.9
12803.6
12824.5
12843.7
12860.4
12877.3
12894.4
12911.3
12927.8
12943.8
12961.2
12979.5
12996.2
13003.3
13000.6
12988.7
12967.6
12994.4
13002
13012
13041.3
13067
13085.2
13096.4
13099.3
13101.5
13104.8
13111.6
13123.2
13136.7
13154.9
13172.3
13188.8
13203.2
13216.9
13228.6
13240.1
13250.8
13261.5
13271.7
13282.3
13290.5
13298.1
13304.4
13310.3
13315.3
13319.1
13322.1
13322.5
13321.5
13319.8
13321.1
13322.4
13325
13330.5
13339
13349.7
13360.1
13369.3
13375.4
13379.4
13380.8
13378.6
13377.3
13375.2
13373.5
13374.1
13376.9
13382.5
13391.1
13403.1
13415.7
13425.3
13432.7
13438.1
13441.4
13441.8
13440.4
13438.2
13436.1
13434.4
13433.7
13434.1
13436
13439.9
13447.6
13457.9
13470.7
13484.3
13497.4
13509.4
13517.3
13519.9
13521.9
13522.6
13523
13523.8
13525.6
13529.1
13534.7
13542.8
13552.8
13564.6
13576.2
13588.6
13601
13603.9
13608.9
13614.1
13618.5
13624.6
13631.3
13639
13647
13655.7
13664.6
13672.7
13681.8
13688.4
13690
13695
13700.8
13706.7
13715.6
13726.1
13725.7
13733.1
13742.2
13734
13734.2
13735.6
13736.1
13731.1
13730.3
13730.6
13727.8
13726.2
13718.9
3172.06
3165.23
3164.82
3163.55
3161.02
3150.29
3133.4
3110.12
3082.75
3052.02
3018.62
2988.52
2962.85
2941.56
2925.89
2914.79
2908.56
2906.9
2908.84
2914.24
2923.58
2937.33
2955.91
2979.75
3009.94
3046.48
3090.76
3143.09
3203.51
3273.28
3352.18
3440.85
3539.11
3648.38
3767.94
3899.77
4042.35
4196.03
4363.72
4541.06
4730.78
4928.53
5142.38
5361.62
5593.68
5831.1
6081.7
6335.16
6600.77
6864.42
7133.51
7398.72
7663.64
7927.74
8187.46
8447.75
8705.28
8958.65
9207.16
9449.87
9685.63
9913.19
10131.8
10338.9
10534.4
10717.5
10886.3
11045.6
11189.8
11330.1
11457.7
11579.9
11690
11790.1
11881.8
11962.8
12041.1
12111.7
12170.8
12225.6
12267.1
12311.1
12351.4
12392.3
12426.7
12458
12488.8
12513.2
12537.4
12559.1
12581.1
12604.4
12623.1
12636.2
12649.2
12660.7
12672.9
12686.5
12702.5
12720.2
12738.8
12758.2
12778.4
12799.3
12820.3
12839.6
12856.6
12873.8
12891
12908
12924.7
12940.8
12958.4
12976.8
12992.9
12999.9
12996.7
12986.5
12967
12989.4
13000.6
13013
13039.4
13064.9
13083.1
13093.9
13096.9
13099.4
13103.3
13110.3
13121.8
13135.7
13153.7
13171.3
13187.8
13202
13215.8
13227.4
13239.1
13249.8
13260.7
13270.8
13281.3
13289.7
13297.3
13303.6
13309.6
13314.6
13318.4
13321.3
13321.7
13320.8
13319.1
13320.3
13321.6
13324.2
13329.6
13337.6
13348.2
13358.9
13368.1
13374.4
13378.6
13380.3
13378.5
13377.5
13375.8
13374.2
13374.7
13377.6
13383
13391.6
13403.3
13415.5
13425
13432.5
13437.9
13441.2
13441.4
13440.2
13438.1
13436
13434.3
13433.7
13434.2
13436.1
13440
13447.7
13458.1
13470.8
13484.3
13497.5
13509.4
13517.4
13519.9
13521.9
13522.7
13523.1
13523.9
13525.7
13529.3
13534.8
13542.9
13552.8
13564.5
13576.1
13588.5
13601
13604.1
13609.2
13614.4
13618.9
13624.9
13631.6
13639.3
13647.3
13655.9
13664.8
13672.9
13681.8
13688.7
13690.5
13695.3
13701
13707.1
13715.8
13726.3
13726.2
13733.3
13742.2
13734.4
13734.3
13735.6
13736.2
13731.4
13730.5
13730.7
13728
13726.3
13719
3175.41
3165.07
3165.72
3163.32
3155.66
3141.54
3121.24
3096.19
3068.13
3037.47
3006.85
2978.73
2955.21
2936.32
2922.31
2912.5
2907.01
2905.76
2907.87
2913.41
2922.68
2936.05
2954.14
2977.57
3006.99
3042.96
3086.5
3138.06
3197.78
3266.66
3344.59
3432.25
3529.1
3637.37
3755.52
3886.28
4027.7
4179.64
4347.48
4523.98
4713.97
4910.2
5123.77
5341.49
5574.02
5810.75
6063.08
6316.6
6583.71
6847.06
7116.93
7382.01
7648.43
7911.22
8170.26
8430.71
8687.07
8941.09
9188.97
9432.87
9668.89
9897.19
10116.8
10325
10521.4
10703.9
10872.2
11029.8
11173.4
11314.2
11442
11565.7
11675.7
11777.3
11867.9
11947.6
12027.7
12098.7
12159.2
12214.2
12255.2
12299.3
12340.1
12382.6
12416.9
12448.8
12480.2
12504.9
12530
12552.1
12574.1
12597.6
12615.6
12629.3
12643.2
12655.3
12668
12682
12698.4
12716.3
12735
12754.5
12774.8
12795.9
12816.9
12836.3
12853.7
12871.2
12888.2
12905.3
12922.3
12938.6
12956.4
12974.7
12989.6
12996.4
12992.5
12984.5
12967.8
12985.2
12999.8
13015.5
13038.4
13062.8
13080.7
13091.1
13094.6
13097.5
13102.2
13109.4
13120.8
13135.1
13152.9
13170.6
13186.9
13201
13214.8
13226.3
13238.1
13248.8
13259.9
13270
13280.5
13288.9
13296.5
13302.9
13308.9
13313.9
13317.6
13320.5
13320.9
13320.1
13318.4
13319.5
13320.8
13323.4
13328.6
13336.3
13346.5
13357.3
13366.4
13372.9
13377.5
13379.7
13378.4
13377.9
13376.6
13375.2
13375.7
13378.6
13383.9
13392.4
13403.6
13415.1
13424.5
13432
13437.5
13440.8
13441
13439.9
13437.9
13435.9
13434.3
13433.7
13434.3
13436.3
13440.2
13447.9
13458.2
13470.9
13484.3
13497.5
13509.4
13517.5
13519.8
13521.9
13522.7
13523.1
13524
13525.8
13529.4
13534.9
13542.9
13552.7
13564.2
13575.9
13588.3
13600.8
13604.3
13609.4
13614.7
13619.4
13625.3
13632
13639.7
13647.6
13656.1
13665
13673
13681.7
13688.9
13691
13695.5
13701.2
13707.4
13715.9
13726.4
13726.8
13733.4
13742.2
13735
13734.5
13735.6
13736.3
13731.7
13730.6
13730.8
13728.2
13726.4
13719.1
3180.78
3170.9
3168.22
3161.3
3149.23
3130.7
3107.54
3081.55
3053.38
3023.1
2994.64
2969.13
2947.84
2930.95
2918.43
2909.81
2905.02
2904.11
2906.41
2911.93
2920.94
2933.89
2951.46
2974.28
3002.97
3038.39
3081.18
3132.02
3190.92
3259.03
3336.02
3422.88
3518.28
3625.73
3742.75
3873.49
4014.34
4164.3
4332.66
4509.75
4699.58
4894.65
5109.29
5325.62
5558.33
5794.94
6048.25
6301.19
6570.46
6831.26
7102.88
7364.28
7636.17
7893.71
8150.95
8413.9
8666.6
8921.84
9168.02
9414.51
9650.06
9880.33
10101
10311.5
10508.8
10690.9
10858.8
11014.2
11158
11299.7
11428.2
11553.6
11663.6
11767.6
11856.8
11935.4
12017.3
12088.5
12150.9
12205.1
12245.8
12290
12331.3
12375.8
12409.2
12441.7
12472.9
12498
12524.3
12546.5
12568.7
12591.7
12608.8
12623.4
12638.1
12650.9
12664.1
12678.7
12695.6
12713.6
12732.2
12751.8
12772.2
12793.4
12814.3
12833.6
12851.5
12869.2
12886.1
12903.3
12920.6
12937
12955.3
12972.9
12986.1
12992.5
12988.2
12982.7
12969.9
12982.5
13000
13019
13038.7
13061
13077.9
13088
13092.2
13095.8
13101.5
13109.1
13120.6
13135
13152.6
13170
13186.2
13200.1
13214
13225.5
13237.4
13248
13259.3
13269.4
13279.7
13288.1
13295.8
13302.3
13308.3
13313.3
13316.9
13319.7
13320.1
13319.5
13317.8
13318.8
13320.2
13322.7
13327.9
13335
13344.8
13355.3
13364.5
13371
13376.3
13378.9
13378.3
13378.4
13377.6
13376.6
13377.2
13380
13385.3
13393.5
13404.1
13414.8
13424
13431.5
13437
13440.3
13440.4
13439.5
13437.7
13435.8
13434.3
13433.8
13434.4
13436.5
13440.5
13448.1
13458.4
13471.1
13484.3
13497.4
13509.3
13517.4
13519.8
13521.8
13522.6
13523.1
13524.1
13526
13529.5
13535
13542.9
13552.5
13563.9
13575.5
13587.9
13600.3
13604.5
13609.5
13615
13620
13625.8
13632.5
13640
13648
13656.3
13665.1
13673.1
13681.6
13689.1
13691.6
13695.8
13701.5
13707.8
13716
13726.4
13727.6
13733.6
13742
13735.6
13734.6
13735.5
13736.3
13732
13730.7
13730.9
13728.5
13726.5
13719.2
3190.97
3177.67
3170.09
3158.24
3141.09
3118.91
3094.3
3067.96
3038.4
3009.35
2983.03
2959.95
2940.78
2925.63
2914.41
2906.84
2902.76
2902.12
2904.5
2909.81
2918.45
2930.97
2947.94
2970.12
2998.11
3032.95
3074.99
3125.15
3183.21
3250.61
3326.63
3413.15
3507.46
3614.26
3729.53
3861.39
4002.79
4149.64
4319
4495.94
4685.31
4878.38
5093.41
5309.7
5541.48
5775.76
6028.29
6274.43
6550.1
6801.21
7078.96
7329.61
7608.45
7863.26
8114.19
8379.13
8625.77
8883.63
9126.22
9376.6
9610.74
9845.55
10066.6
10281.7
10479.4
10662.2
10830.3
10983.2
11129.3
11272.8
11403.5
11531.1
11641.5
11750.3
11840
11919
12004.2
12074.9
12141.6
12195.4
12234.9
12281
12322
12370.1
12401
12436
12467
12491.7
12519.9
12542.2
12564.8
12586.5
12602.1
12618.2
12634
12647.2
12661.2
12676.4
12694.2
12711.9
12730.2
12750
12770.4
12791.6
12812
12831.3
12849.8
12867.6
12884.5
12901.8
12919.3
12935.9
12955.1
12971.4
12982.1
12987.6
12983.4
12981.4
12972.6
12982
13001.1
13023.2
13040.5
13059.2
13074.5
13084.2
13089.7
13094.2
13101.2
13109.5
13121.1
13135.5
13152.7
13169.7
13185.6
13199.4
13213.5
13224.7
13236.9
13247.3
13258.8
13268.7
13279
13287.4
13295.3
13301.8
13307.8
13312.7
13316.2
13318.9
13319.2
13318.9
13317.4
13318.2
13319.7
13322.2
13327.2
13334.1
13343
13353
13362.2
13368.8
13374.8
13377.8
13378.3
13378.9
13378.7
13378.3
13379.2
13381.9
13386.9
13395
13404.7
13414.5
13423.5
13430.8
13436.4
13439.7
13439.7
13439.1
13437.5
13435.7
13434.3
13434
13434.7
13436.9
13441
13448.4
13458.8
13471.3
13484.3
13497.3
13509.1
13517.2
13519.6
13521.6
13522.5
13523.1
13524.2
13526.1
13529.7
13535.1
13542.8
13552.3
13563.4
13574.9
13587.2
13599.7
13604.6
13609.6
13615.3
13620.7
13626.3
13633
13640.5
13648.4
13656.4
13665.2
13673.2
13681.3
13689.2
13692.2
13696.1
13701.7
13708.2
13716.2
13726.4
13728.4
13733.7
13741.7
13736.2
13734.8
13735.4
13736.3
13732.3
13730.9
13731
13728.7
13726.6
13719.3
3199.59
3184.06
3170.77
3153.53
3132.12
3107.75
3082.65
3053.72
3024.25
2996.91
2972.56
2951.56
2934.21
2920.57
2910.52
2903.88
2900.42
2899.85
2902.07
2907.14
2915.41
2927.41
2943.73
2965.3
2992.55
3026.83
3068.11
3117.62
3174.89
3241.89
3316.84
3402.67
3496.58
3603.77
3717.76
3848.23
3989.44
4133.59
4305.14
4481.53
4667.25
4856.58
5068.44
5282.44
5517.7
5738.8
5994.4
6221.87
6507.88
6745.47
7027.03
7268.91
7546.59
7807.68
8047.51
8313.46
8554.08
8814.48
9056.37
9308.68
9544.49
9783.46
10007.3
10227.7
10426.7
10610.5
10780.4
10930.3
11082.2
11228.3
11360.6
11492.6
11601.5
11717.8
11811.4
11890
11983.9
12048.8
12122.9
12180.8
12213.9
12269.1
12305.5
12360.1
12386.9
12426.4
12461.9
12483.1
12514.6
12537.7
12560.7
12581.4
12593.8
12612.3
12629.9
12644
12659
12675.2
12693.8
12711
12729
12748.9
12769.2
12790.4
12810.2
12829.3
12848.2
12866.1
12883
12900.5
12918.3
12935.3
12955.3
12970
12977.4
12980.8
12978.4
12980.2
12975.7
12983.5
13003.7
13028.2
13043.7
13057.2
13070.1
13079.4
13087
13092.6
13101.3
13110.4
13122.3
13136.6
13153.1
13169.5
13185.2
13198.7
13213
13224.1
13236.6
13246.7
13258.4
13268.2
13278.3
13286.6
13294.7
13301.3
13307.3
13312
13315.5
13317.8
13318.3
13318.3
13317
13317.6
13319.3
13321.9
13326.8
13333.3
13341.4
13350.5
13359.6
13366.4
13372.9
13376.6
13378.2
13379.5
13380.2
13380.4
13381.5
13384.3
13389
13396.7
13405.5
13414.5
13422.9
13430.1
13435.7
13438.9
13439
13438.5
13437.2
13435.7
13434.4
13434.2
13435
13437.4
13441.7
13448.9
13459.2
13471.6
13484.3
13497.1
13508.8
13516.7
13519.5
13521.4
13522.4
13523.1
13524.4
13526.4
13529.9
13535.3
13542.8
13552
13562.8
13574.2
13586.4
13598.8
13604.6
13609.7
13615.5
13621.4
13626.9
13633.6
13640.9
13648.7
13656.6
13665.2
13673.2
13680.9
13689.1
13692.8
13696.5
13702
13708.7
13716.3
13726.4
13729.2
13733.9
13741.3
13736.8
13735
13735.4
13736.2
13732.6
13731
13731.1
13729
13726.7
13719.4
3204.47
3187.74
3169.69
3147.75
3123.49
3097.78
3070.58
3040.18
3011.85
2986.01
2963.37
2944.12
2928.35
2916.01
2907
2901.11
2897.97
2897.27
2899.32
2904.12
2911.93
2923.38
2939.01
2959.98
2986.49
3020.21
3060.75
3109.79
3165.86
3232.42
3307.32
3392.91
3485.08
3592.5
3705.4
3834.43
3973.25
4113.83
4285.51
4460.59
4639.09
4821.72
5033.89
5230.17
5478.26
5677.03
5934.8
6139.73
6427.64
6656.49
6937.76
7178.43
7447.19
7715.25
7947.6
8209.62
8449.23
8709
8958.23
9207.71
9448.06
9687.74
9919.06
10141.2
10346.8
10528.7
10705
10852.7
11011.2
11168.3
11294.8
11439.1
11539
11666.4
11767.5
11847.7
11958.1
12008.3
12093.4
12154.2
12184.1
12252.5
12281.6
12341.2
12366.3
12411.1
12451.4
12470.6
12504.4
12529.7
12553.3
12573.3
12582.9
12602.8
12623.7
12640.2
12656.7
12674.4
12693.2
12710.1
12728.4
12748
12768.2
12789
12808.2
12827.1
12846.6
12864.5
12881.6
12899.3
12917.4
12935.4
12955.1
12967.4
12971.7
12972.9
12973.9
12978.6
12979.6
12987.4
13008.8
13034
13046.4
13055.1
13065
13073.8
13083.7
13091.1
13101.6
13111.9
13124.3
13138.3
13153.7
13169.3
13184.6
13198.2
13212.3
13223.6
13236.2
13246.2
13258
13267.6
13277.5
13285.9
13294.1
13300.7
13306.7
13311.2
13314.5
13316.6
13317.3
13317.6
13316.7
13317.3
13319.1
13321.8
13326.6
13332.7
13339.9
13348.2
13356.8
13363.8
13370.7
13374.9
13377.9
13380.1
13381.7
13382.8
13384.3
13387.1
13391.8
13398.7
13406.5
13414.5
13422.3
13429.2
13434.7
13438
13438.2
13437.8
13436.8
13435.6
13434.5
13434.5
13435.5
13438.1
13442.5
13449.7
13459.7
13471.9
13484.4
13496.9
13508.4
13516.1
13519.2
13521.1
13522.2
13523.1
13524.5
13526.6
13530.2
13535.4
13542.7
13551.6
13562.1
13573.3
13585.3
13597.8
13604.6
13609.7
13615.8
13622.1
13627.5
13634.3
13641.4
13649.1
13656.7
13665.2
13673.2
13680.5
13689
13693.4
13696.9
13702.4
13709.2
13716.5
13726.3
13730.1
13734
13740.8
13737.4
13735.3
13735.2
13736.1
13732.9
13731.2
13731.2
13729.2
13726.7
13719.4
3204.97
3187.57
3166.57
3141.68
3115.25
3088.19
3058.47
3028.42
3001.23
2976.72
2955.57
2937.79
2923.34
2912.11
2903.94
2898.47
2895.41
2894.6
2896.44
2900.86
2908.15
2919.01
2933.9
2954.35
2980.08
3013.38
3052.62
3101.58
3156.93
3223.97
3296.94
3382.77
3472.56
3579.61
3691.65
3817.75
3948.93
4085.26
4256.97
4425.12
4601.02
4763.5
4984.88
5151.27
5405.53
5586.06
5842.42
6029.42
6301.63
6524.25
6801.41
7045.78
7303.3
7572.68
7811.26
8062.88
8307.52
8561.12
8824.02
9063.03
9320.36
9551.93
9802.08
10013.6
10242.2
10407.9
10605.7
10745.6
10914.5
11079.8
11210.9
11366.2
11460.1
11599.8
11695.6
11798.4
11917.8
11957.6
12051.6
12108.3
12150.3
12227.5
12251
12311.8
12341.7
12389.5
12433.6
12454.8
12490.2
12516.2
12542.9
12558.9
12569.8
12591.6
12614.2
12634.8
12652.6
12672.2
12691.6
12708.5
12726.8
12746
12765.8
12786.2
12804.9
12824
12843.8
12862.2
12879.7
12897.8
12916.5
12935.4
12953.9
12961.9
12963.9
12965.1
12969.3
12977.5
12984.6
12995
13015.1
13039.1
13047.2
13052.8
13059.9
13068.2
13079.5
13089.6
13101.9
13113.6
13126.7
13140.2
13154.6
13169.2
13184
13197.6
13211.4
13223.1
13235.7
13246
13257.6
13266.9
13276.6
13284.9
13293.4
13299.7
13305.9
13310.2
13313.1
13315.1
13316.1
13316.8
13316.3
13317
13319
13322
13326.6
13332.1
13338.6
13345.9
13353.9
13360.8
13367.9
13372.9
13377.4
13380.7
13383.3
13385.3
13387.2
13390.2
13394.7
13401
13407.8
13414.6
13421.7
13428.2
13433.4
13436.9
13437.3
13437.1
13436.3
13435.6
13434.7
13434.9
13436.1
13438.9
13443.5
13450.6
13460.4
13472.2
13484.4
13496.6
13507.9
13515.2
13518.9
13520.8
13522
13523
13524.6
13526.9
13530.5
13535.6
13542.6
13551.2
13561.3
13572.3
13584.1
13596.5
13604.4
13609.8
13616.1
13622.9
13628.3
13635.1
13642
13649.5
13656.7
13665.1
13673.1
13680.1
13688.7
13693.9
13697.3
13702.8
13709.8
13716.6
13726.2
13731
13734
13740.4
13738
13735.5
13735.1
13736
13733.2
13731.4
13731.3
13729.4
13726.8
13719.4
3202.2
3184
3161.44
3134.84
3106.38
3078.97
3047.75
3018.67
2992.34
2969.05
2949.19
2932.64
2919.27
2908.91
2901.29
2896.03
2892.92
2892.05
2893.52
2897.47
2904.17
2914.45
2928.52
2948.64
2972.99
3006.47
3044.84
3093.97
3147.94
3215.21
3286.04
3371.46
3458.32
3562.55
3673.4
3799.95
3912.8
4037.84
4217.97
4363.64
4550.16
4681.4
4905.96
5048.96
5295.48
5459.47
5707.72
5883.1
6133.31
6356.54
6625.31
6863.94
7118.16
7371.75
7634.36
7860.09
8132.17
8351.01
8651.15
8863.84
9161.45
9367.77
9654.53
9837.84
10099.9
10243.9
10477.6
10608.2
10805.8
10948.8
11113.3
11253.9
11372.2
11522.5
11605.4
11739.2
11843.4
11899.3
12003.1
12043.7
12108.5
12192.9
12213.2
12275.7
12313
12360.7
12411
12433.2
12472.1
12496.6
12527.1
12541
12554.4
12579.2
12602
12626.8
12646.2
12668
12688
12705.7
12724.3
12742.9
12762.3
12781.9
12800.3
12819.6
12839.8
12858.6
12876.9
12895.6
12914.9
12934.2
12950
12953.9
12954.4
12956.7
12964.1
12976.6
12990.6
13004.6
13023.2
13042.6
13046.5
13049.8
13054.9
13062.6
13074.7
13087.5
13102.2
13115.4
13129.6
13142.4
13155.6
13169.1
13183.2
13196.7
13210.3
13222.5
13235.3
13245.6
13256.9
13266
13275.6
13283.8
13292.4
13298.4
13304.7
13308.9
13311.4
13313.3
13314.5
13315.7
13315.9
13316.9
13319.2
13322.4
13326.9
13331.8
13337.4
13343.7
13350.9
13357.7
13364.8
13370.7
13376.5
13381
13384.8
13388
13390.3
13393.5
13398.1
13403.6
13409.4
13415.1
13421.2
13427
13431.9
13435.6
13436.2
13436.2
13435.8
13435.4
13434.9
13435.4
13436.8
13439.9
13444.6
13451.6
13461.2
13472.6
13484.4
13496.1
13507.1
13514.3
13518.4
13520.3
13521.7
13523
13524.8
13527.2
13530.8
13535.8
13542.5
13550.8
13560.4
13571.2
13582.6
13595.1
13604.1
13609.8
13616.4
13623.7
13629.2
13636
13642.6
13649.9
13656.8
13664.9
13673
13679.6
13688.3
13694.4
13697.8
13703.3
13710.4
13716.8
13726.1
13731.7
13734
13739.8
13738.4
13735.7
13734.9
13735.8
13733.5
13731.6
13731.3
13729.6
13726.8
13719.4
3195.74
3177.38
3154.51
3127.08
3098.42
3069.88
3038.71
3010.63
2985.18
2963.02
2944.26
2928.72
2916.19
2906.41
2899.11
2893.92
2890.72
2889.62
2890.62
2894.03
2900.15
2909.91
2922.69
2943.09
2966.72
2999.75
3037.3
3086.92
3139.15
3206.15
3274.2
3356.86
3440.34
3539.33
3643.36
3779.5
3868.35
3969.84
4159.36
4275.73
4466.5
4577.43
4792.93
4919.55
5145.49
5295.91
5525.71
5696.64
5932.76
6144.49
6414.84
6632.18
6910.58
7124.61
7428.62
7622.54
7936.38
8119.17
8455.09
8647.47
8975.7
9163.57
9477.23
9633.85
9920.04
10053.8
10320.2
10451.6
10679.8
10797.7
10994.5
11105.2
11272.3
11408.8
11513.7
11667.9
11738.7
11830.7
11948.9
11969.8
12056.2
12144.8
12167.6
12237.6
12279.6
12325.9
12382.4
12406.5
12451.1
12471.2
12505.6
12520.4
12537.7
12566.1
12587.9
12616.1
12637
12661.6
12681.7
12701.2
12720.8
12738.7
12757.7
12776.2
12794.5
12814.2
12834.4
12853.6
12872.9
12892.6
12912.5
12931
12943.4
12943.4
12943.6
12948.1
12959
12975.9
12996.6
13015
13031.2
13044.2
13045
13046.3
13049.9
13057.1
13069.7
13084.7
13102.2
13117
13132.6
13144.5
13156.6
13169
13182.3
13195.5
13208.9
13221.5
13234.7
13245
13256.2
13264.9
13274.3
13282.4
13290.9
13296.5
13302.8
13307
13309.5
13312.2
13313
13314.4
13315.6
13317.2
13320
13323.4
13327.7
13331.7
13336.4
13341.8
13348.1
13354.3
13361.4
13368
13375.1
13381
13386.1
13390.6
13393.4
13397.1
13401.7
13406.3
13411
13415.6
13420.6
13425.7
13430.3
13434
13434.9
13435.2
13435.1
13435.2
13435.1
13435.9
13437.6
13441
13445.9
13452.9
13462.2
13473.1
13484.4
13495.4
13506.2
13513.3
13517.7
13519.8
13521.4
13522.9
13524.9
13527.5
13531.1
13536
13542.3
13550.2
13559.5
13569.9
13581
13593.5
13603.7
13609.8
13616.8
13624.5
13630.1
13637
13643.2
13650.2
13656.9
13664.7
13672.7
13679.2
13687.9
13694.7
13698.4
13703.9
13711.1
13717
13726.1
13732.4
13733.9
13739.3
13738.8
13736
13734.8
13735.6
13733.7
13731.8
13731.3
13729.7
13726.9
13719.4
3186.55
3168.84
3146.39
3119.13
3091.36
3061.62
3031.5
3004.23
2979.75
2958.62
2940.79
2926.05
2914.12
2904.69
2897.51
2892.28
2888.89
2887.35
2887.82
2890.71
2896.13
2905.56
2917.66
2937.52
2960.76
2994.45
3030.67
3080.22
3130.23
3195.43
3259.44
3335.44
3415.2
3514.08
3596.22
3734.48
3824.02
3893.06
4073.92
4166.11
4346.95
4447.23
4641.03
4758.02
4960.74
5099.69
5310.98
5472.13
5712.64
5898.32
6183.9
6358.43
6669.07
6838.74
7170.87
7344.11
7682.57
7858.91
8206.77
8393.38
8742.65
8924.79
9257.76
9405.18
9713.42
9851.03
10146.8
10285.4
10543
10646.1
10866
10963.4
11163.3
11273.2
11429.9
11590
11631.8
11761.7
11873.4
11900.7
12004.6
12085.1
12119.4
12203.2
12243
12285.9
12349.3
12375.1
12426.2
12442.3
12481.2
12497.4
12519.9
12553.4
12573.4
12604.2
12625.9
12653.3
12673.6
12695.6
12716.2
12733.8
12752.4
12769.4
12787.7
12807.9
12827.7
12847.2
12867.8
12888.6
12908.6
12924.8
12932.8
12930
12931.9
12940.1
12955.2
12976.5
13003.1
13025.9
13037.5
13044.1
13042.5
13042.3
13045.1
13052
13064.9
13081.4
13101.6
13118
13135.1
13146.2
13157.2
13168.8
13181.3
13193.9
13207
13220
13233.7
13244
13255.2
13263.5
13272.7
13280.7
13289.4
13294.9
13300.7
13304.5
13306.9
13309.4
13310.9
13313
13315.2
13317.7
13320.9
13324.5
13328.7
13332
13335.7
13340
13345.1
13350.8
13357.8
13365.1
13373.3
13380.6
13387.3
13393
13396.5
13400.9
13405.5
13409.1
13412.8
13416.3
13420.2
13424.4
13428.6
13432.2
13433.4
13434
13434.3
13434.8
13435.3
13436.5
13438.5
13442.2
13447.3
13454.2
13463.3
13473.6
13484.4
13494.6
13505
13512.1
13516.8
13519.1
13521
13522.8
13525.1
13527.8
13531.4
13536.2
13542.2
13549.6
13558.4
13568.5
13579.2
13591.8
13603.1
13609.8
13617.1
13625.4
13631.1
13638
13643.9
13650.5
13656.9
13664.3
13672.3
13678.7
13687.4
13695
13699
13704.6
13711.7
13717.3
13726
13732.9
13733.7
13738.7
13739
13736.1
13734.6
13735.4
13733.9
13732
13731.3
13729.8
13726.8
13719.3
3175.95
3159.37
3137.81
3111.38
3084.9
3054.89
3026.1
2999.53
2976.04
2955.84
2938.8
2924.68
2913.12
2903.8
2896.59
2891.23
2887.51
2885.37
2885.27
2887.74
2892.24
2901.35
2913.01
2933.84
2956.18
2990.05
3024.45
3072.63
3119.33
3179.68
3240.32
3307.95
3375.25
3485.36
3541.7
3642.18
3774.63
3819.65
3968.4
4040.29
4193.58
4291.3
4453.02
4566.31
4744.54
4871.82
5056.35
5182.11
5383.56
5524.76
5776.66
5923.51
6240.38
6395.26
6730.48
6908.2
7265.61
7441.93
7813.55
8004.6
8381.23
8552.94
8917.19
9066.68
9412.26
9563.3
9890.3
10031.7
10321.2
10428.2
10680.6
10787.8
11014.5
11107
11299.8
11444.8
11516.7
11675
11758.8
11826.5
11949.1
12007.6
12068.2
12169.5
12200.4
12244.8
12316
12341.4
12396.9
12410.6
12455.4
12474.8
12501.4
12540.1
12560
12592.5
12614.2
12644
12664.1
12689.6
12710.4
12728.5
12747
12762.7
12781.4
12801.8
12820.7
12840.6
12862.4
12883.9
12902.8
12916
12919.2
12914.9
12920.3
12933.5
12952.6
12977.9
13008.8
13034
13042.2
13042.2
13039
13038.3
13040.9
13047.9
13061
13078.6
13100.6
13119.6
13137.4
13147.9
13158.1
13169.1
13180.5
13192.6
13205.5
13219.1
13233.2
13243.2
13254.5
13262
13270.8
13278.1
13286.6
13291.6
13297.3
13301.1
13303.6
13306.4
13308.7
13311.7
13315
13318.5
13322.2
13326
13329.9
13332.3
13335.1
13338.2
13342.2
13347.3
13354.2
13361.8
13370.9
13379.7
13388
13395
13399.5
13404.7
13409.4
13411.9
13414.6
13417.1
13419.9
13423
13426.6
13430.1
13431.7
13432.7
13433.4
13434.4
13435.5
13437.1
13439.6
13443.5
13448.8
13455.7
13464.4
13474.1
13484.3
13493.7
13503.5
13510.7
13515.8
13518.3
13520.6
13522.7
13525.2
13528.1
13531.7
13536.3
13541.9
13549
13557.2
13566.9
13577.3
13590
13602.3
13609.8
13617.5
13626.2
13632.2
13639.1
13644.5
13650.8
13656.8
13663.9
13671.8
13678.2
13686.8
13695.1
13699.7
13705.3
13712.3
13717.6
13726
13733.4
13733.6
13738
13739.2
13736.2
13734.4
13735.1
13734
13732.2
13731.3
13729.8
13726.8
13719.2
3164.96
3149.8
3129.52
3104.95
3078.78
3049.78
3022.24
2996.62
2974.11
2954.7
2938.23
2924.5
2913.1
2903.72
2896.38
2890.81
2886.61
2883.78
2882.69
2884.84
2888.94
2898.86
2909.72
2931.36
2952.34
2985.42
3016.72
3061.19
3104.57
3159.18
3212.44
3281.26
3321.98
3437.79
3485.98
3544.2
3687.28
3730.63
3841.51
3908.33
4016.04
4115.66
4232.53
4338.2
4449.01
4527.85
4649.52
4795.06
4965.6
5166.85
5344.37
5555.01
5807.27
5971.51
6293.35
6482.07
6840.21
7035.18
7440.95
7627.57
8034.72
8195.09
8596.97
8750.22
9136.51
9300.76
9658.91
9798.8
10118.3
10231.7
10514.5
10629.6
10875.9
10965.3
11181
11290.7
11418.6
11589.8
11629.1
11756.2
11888.5
11915
12012.7
12120.2
12141.9
12199.6
12280.7
12301.5
12358.9
12373.7
12427.9
12452.1
12481
12524.6
12546.2
12580.2
12601.7
12633.2
12653.5
12682
12703
12722.6
12741.1
12756.2
12775.4
12795.5
12813.8
12834.3
12856.9
12878.5
12894.8
12904.7
12904.1
12900.2
12911
12929.5
12952.1
12981.9
13013.3
13034.9
13044.6
13040
13035.3
13035
13037.5
13044.6
13057.8
13075.6
13098.3
13117.7
13137.6
13148.5
13158.8
13169
13179.3
13190.6
13203.2
13216.7
13231
13241.3
13252.8
13259.9
13268.4
13274.9
13283.2
13287.8
13293.6
13297.4
13300.1
13303.2
13306.5
13310.5
13315
13319.7
13323.8
13327.7
13331.2
13332.8
13334.7
13336.5
13339.5
13343.9
13350.5
13358.4
13368.2
13378.3
13388.2
13396.5
13402.2
13408.5
13413.2
13414.8
13416.6
13418
13419.7
13421.7
13424.6
13427.8
13429.7
13431.1
13432.3
13433.8
13435.6
13437.7
13440.7
13444.9
13450.4
13457.3
13465.7
13474.7
13484.2
13492.7
13501.7
13509.2
13514.4
13517.4
13520
13522.5
13525.2
13528.3
13532
13536.4
13541.6
13548.2
13556
13565.3
13575.3
13588.1
13601.3
13609.8
13618
13627.1
13633.3
13640.1
13645.2
13651
13656.7
13663.4
13671.2
13677.7
13686.1
13695.2
13700.4
13706
13713
13718
13725.9
13733.6
13733.4
13737.4
13739.1
13736.2
13734.3
13734.8
13734
13732.4
13731.3
13729.8
13726.7
13719.1
3154.53
3140.98
3122.05
3099.68
3073.84
3046.4
3020.07
2995.53
2973.89
2955.11
2939.04
2925.5
2914
2904.43
2896.93
2890.98
2885.87
2882.27
2880.54
2883.29
2886.96
2897.64
2907.05
2928.91
2947.39
2978.2
3005.63
3044.36
3082.71
3140.17
3174.15
3254.36
3267.61
3366.46
3420.45
3453.67
3561.59
3612.5
3684.75
3754.04
3827.23
3901.69
3958.13
4009.38
4086.92
4196.95
4304.89
4436.07
4536.85
4700.91
4776.75
5002.59
5122.93
5400.91
5636.29
5880.47
6195.43
6440.87
6895.8
7085.85
7516.89
7667
8106.11
8282.8
8728.59
8923.37
9320.23
9463.44
9825.67
9962.05
10297.2
10426.1
10698.7
10792.4
11025
11109.9
11312.3
11472.8
11510.2
11672.2
11803.1
11839.2
11961.2
12067.4
12082.2
12159
12249.4
12259.1
12316.2
12336.6
12401.1
12431.5
12461.8
12509.5
12532.3
12568
12589.5
12622.2
12643.3
12673.7
12694.7
12716.2
12735
12750.4
12770.3
12789.6
12807.7
12828.8
12851.4
12871.6
12884.8
12891.1
12887.1
12888.2
12904.2
12927.3
12953.6
12987.1
13016.4
13031.9
13042.5
13036.9
13033.2