/*--------------------------------*- C++ -*----------------------------------*\
| =========                 |                                                 |
| \\      /  F ield         | OpenFOAM: The Open Source CFD Toolbox           |
|  \\    /   O peration     | Version:  2312                                  |
|   \\  /    A nd           | Website:  www.openfoam.com                      |
|    \\/     M anipulation  |                                                 |
\*---------------------------------------------------------------------------*/
FoamFile
{
    version     2.0;
    format      ascii;
    arch        "LSB;label=32;scalar=64";
    class       surfaceScalarField;
    location    "0.001";
    object      phi;
}
// * * * * * * * * * * * * * * * * * * * * * * * * * * * * * * * * * * * * * //

dimensions      [1 0 -1 0 0 0 0];

oriented        oriented;

internalField   nonuniform List<scalar> 
95760
(
6.18125e-09
-6.22775e-09
9.13805e-09
-3.00542e-09
8.98885e-09
9.56034e-11
7.82104e-09
1.10876e-09
4.68607e-09
3.06924e-09
-2.91869e-09
7.52944e-09
-1.48029e-08
1.17965e-08
-3.26043e-08
1.77114e-08
-5.2283e-08
1.95852e-08
-6.93405e-08
1.69637e-08
-8.39827e-08
1.45499e-08
-9.63085e-08
1.22344e-08
-1.06674e-07
1.02731e-08
-1.15532e-07
8.76378e-09
-1.23257e-07
7.63171e-09
-1.30196e-07
6.84797e-09
-1.36608e-07
6.3231e-09
-1.42608e-07
5.91081e-09
-1.48334e-07
5.63707e-09
-1.53843e-07
5.4194e-09
-1.59168e-07
5.23333e-09
-1.64315e-07
5.05428e-09
-1.69275e-07
4.86469e-09
-1.74031e-07
4.65782e-09
-1.78536e-07
4.40327e-09
-1.82765e-07
4.12712e-09
-1.86775e-07
3.90879e-09
-1.9074e-07
3.86874e-09
-1.94273e-07
3.44225e-09
-1.97209e-07
2.85293e-09
-1.99739e-07
2.45121e-09
-2.01816e-07
2.00153e-09
-2.03391e-07
1.50727e-09
-2.04161e-07
7.07685e-10
-2.04138e-07
-8.19991e-11
-2.03106e-07
-1.08677e-09
-2.01025e-07
-2.11142e-09
-1.97807e-07
-3.19985e-09
-1.93443e-07
-4.37955e-09
-1.8798e-07
-5.46108e-09
-1.80691e-07
-7.21805e-09
-1.72019e-07
-8.56834e-09
-1.61487e-07
-1.04205e-08
-1.498e-07
-1.15653e-08
-1.36269e-07
-1.34047e-08
-1.20963e-07
-1.51742e-08
-1.03075e-07
-1.77562e-08
-8.3802e-08
-1.9162e-08
-6.18227e-08
-2.19266e-08
-3.88851e-08
-2.29237e-08
-1.40443e-08
-2.48754e-08
1.15158e-08
-2.56211e-08
3.83198e-08
-2.68373e-08
6.67507e-08
-2.84365e-08
9.71789e-08
-3.03363e-08
1.29465e-07
-3.21503e-08
1.6269e-07
-3.30862e-08
1.96879e-07
-3.40456e-08
2.31795e-07
-3.47198e-08
2.67433e-07
-3.53507e-08
3.03853e-07
-3.60297e-08
3.40875e-07
-3.65537e-08
3.7859e-07
-3.72037e-08
4.16568e-07
-3.74453e-08
4.55129e-07
-3.80205e-08
4.93928e-07
-3.82962e-08
5.3272e-07
-3.83247e-08
5.714e-07
-3.82694e-08
6.08955e-07
-3.71868e-08
6.46095e-07
-3.68066e-08
6.81865e-07
-3.55068e-08
7.17069e-07
-3.49926e-08
7.51303e-07
-3.40781e-08
7.84511e-07
-3.30232e-08
8.17393e-07
-3.26802e-08
8.48651e-07
-3.10576e-08
8.78869e-07
-3.00448e-08
9.08344e-07
-2.92617e-08
9.36713e-07
-2.81598e-08
9.6459e-07
-2.77246e-08
9.90961e-07
-2.62404e-08
1.01612e-06
-2.50369e-08
1.03974e-06
-2.34847e-08
1.0627e-06
-2.27586e-08
1.08459e-06
-2.17824e-08
1.10538e-06
-2.06707e-08
1.12571e-06
-2.01653e-08
1.14516e-06
-1.92536e-08
1.16372e-06
-1.84035e-08
1.1816e-06
-1.77514e-08
1.19855e-06
-1.68329e-08
1.21478e-06
-1.61847e-08
1.23033e-06
-1.5501e-08
1.24492e-06
-1.45047e-08
1.25885e-06
-1.38048e-08
1.2721e-06
-1.3149e-08
1.28469e-06
-1.25177e-08
1.29661e-06
-1.18683e-08
1.30796e-06
-1.12759e-08
1.31891e-06
-1.08594e-08
1.32943e-06
-1.04076e-08
1.33956e-06
-9.99793e-09
1.34928e-06
-9.56876e-09
1.35864e-06
-9.18278e-09
1.36771e-06
-8.89347e-09
1.37654e-06
-8.61217e-09
1.38505e-06
-8.29208e-09
1.39324e-06
-7.97338e-09
1.40115e-06
-7.69148e-09
1.40875e-06
-7.34065e-09
1.41614e-06
-7.13475e-09
1.42326e-06
-6.83983e-09
1.43011e-06
-6.55373e-09
1.4368e-06
-6.37668e-09
1.4436e-06
-6.49598e-09
1.4499e-06
-5.9867e-09
1.45612e-06
-5.92254e-09
1.46117e-06
-4.75744e-09
1.46743e-06
-5.98147e-09
1.47117e-06
-3.63022e-09
1.47439e-06
-3.09824e-09
1.4795e-06
-4.9555e-09
1.48357e-06
-4.02652e-09
1.4879e-06
-4.3646e-09
1.49255e-06
-4.75926e-09
1.49668e-06
-4.40044e-09
1.50042e-06
-4.01304e-09
1.50369e-06
-3.50461e-09
1.50659e-06
-3.05016e-09
1.50942e-06
-2.89646e-09
1.51181e-06
-2.3332e-09
1.51443e-06
-2.49879e-09
1.51678e-06
-2.21675e-09
1.51932e-06
-2.37911e-09
1.52202e-06
-2.57504e-09
1.52451e-06
-2.32817e-09
1.52686e-06
-2.22539e-09
1.52902e-06
-2.04502e-09
1.53103e-06
-1.89882e-09
1.5329e-06
-1.72915e-09
1.53469e-06
-1.62445e-09
1.53638e-06
-1.52132e-09
1.53793e-06
-1.35515e-09
1.53932e-06
-1.22984e-09
1.54062e-06
-1.10714e-09
1.54182e-06
-9.74266e-10
1.54297e-06
-8.83333e-10
1.54401e-06
-7.66408e-10
1.54496e-06
-6.96974e-10
1.54578e-06
-5.78828e-10
1.54644e-06
-5.12298e-10
1.54693e-06
-4.22245e-10
1.54735e-06
-3.79485e-10
1.54756e-06
-2.39874e-10
1.54761e-06
-1.37015e-10
1.54754e-06
-3.49142e-11
1.54733e-06
1.35754e-10
1.54705e-06
2.33846e-10
1.54671e-06
3.65908e-10
1.54632e-06
5.21919e-10
1.54594e-06
5.95015e-10
1.54544e-06
8.60393e-10
1.54497e-06
8.95646e-10
1.54424e-06
1.28054e-09
1.54359e-06
1.21413e-09
1.54277e-06
1.37999e-09
1.54196e-06
1.26182e-09
1.54109e-06
1.21975e-09
1.54027e-06
1.03833e-09
1.53954e-06
8.45395e-10
1.53884e-06
7.47403e-10
1.53822e-06
6.01334e-10
1.53766e-06
4.9456e-10
1.53719e-06
3.85464e-10
1.53685e-06
3.08362e-10
1.53659e-06
3.00979e-10
1.53633e-06
3.40874e-10
1.53604e-06
3.61685e-10
1.53568e-06
5.08003e-10
1.53523e-06
6.42185e-10
1.53461e-06
8.05555e-10
1.53385e-06
9.69567e-10
1.53289e-06
1.15709e-09
1.53179e-06
1.288e-09
1.53054e-06
1.41572e-09
1.52917e-06
1.53315e-09
1.52771e-06
1.64104e-09
1.5262e-06
1.71948e-09
1.52466e-06
1.76551e-09
1.52317e-06
1.75924e-09
1.52173e-06
1.7181e-09
1.52032e-06
1.67396e-09
1.51909e-06
1.48054e-09
1.51802e-06
1.2245e-09
1.51693e-06
1.26562e-09
1.51584e-06
1.31423e-09
1.51473e-06
1.35931e-09
1.51352e-06
1.48014e-09
1.51223e-06
1.57898e-09
1.51085e-06
1.70113e-09
1.50934e-06
1.87037e-09
1.50771e-06
2.05657e-09
1.50595e-06
2.27303e-09
1.50404e-06
2.51965e-09
1.50201e-06
2.74383e-09
1.49985e-06
2.97224e-09
1.49757e-06
3.18679e-09
1.49539e-06
3.12982e-09
1.49327e-06
3.08073e-09
1.49118e-06
3.05258e-09
1.4892e-06
2.94007e-09
1.48734e-06
2.70914e-09
1.48555e-06
2.59354e-09
1.4838e-06
2.48915e-09
1.48207e-06
2.43198e-09
1.48033e-06
2.38029e-09
1.47849e-06
2.47289e-09
1.47658e-06
2.58584e-09
1.47442e-06
2.86549e-09
1.47218e-06
2.95603e-09
1.46965e-06
3.23474e-09
1.46705e-06
3.1003e-09
1.46445e-06
3.01614e-09
1.4619e-06
2.89645e-09
1.45957e-06
2.61322e-09
1.4574e-06
2.37112e-09
1.45521e-06
2.27194e-09
1.45313e-06
2.09596e-09
1.45131e-06
1.6656e-09
1.44888e-06
2.14798e-09
1.44694e-06
1.50948e-09
1.44475e-06
1.60072e-09
1.44204e-06
1.9116e-09
1.439e-06
2.07121e-09
1.43598e-06
1.91798e-09
1.43287e-06
1.88364e-09
1.42946e-06
1.96857e-09
1.42621e-06
1.69542e-09
1.42266e-06
1.76379e-09
1.55368e-09
7.61641e-09
-1.38948e-08
1.04556e-08
-5.89693e-09
9.18342e-09
1.31181e-09
2.67712e-09
7.55369e-09
-9.09688e-09
1.47748e-08
-2.68437e-08
2.51962e-08
-4.97944e-08
3.46608e-08
-6.97623e-08
3.7589e-08
-8.68506e-08
3.65812e-08
-1.01877e-07
3.18987e-08
-1.14508e-07
2.70925e-08
-1.24901e-07
2.25398e-08
-1.3343e-07
1.87141e-08
-1.4039e-07
1.56335e-08
-1.46283e-07
1.34341e-08
-1.51434e-07
1.1912e-08
-1.55957e-07
1.07605e-08
-1.60028e-07
9.89543e-09
-1.63759e-07
9.28126e-09
-1.67209e-07
8.78206e-09
-1.70404e-07
8.33895e-09
-1.73352e-07
7.9101e-09
-1.76029e-07
7.44719e-09
-1.78479e-07
7.00852e-09
-1.80823e-07
6.64703e-09
-1.82784e-07
5.98561e-09
-1.84245e-07
5.27023e-09
-1.85066e-07
4.59259e-09
-1.85366e-07
3.64915e-09
-1.85244e-07
2.64457e-09
-1.84528e-07
1.65353e-09
-1.83161e-07
5.57676e-10
-1.8111e-07
-6.14978e-10
-1.78293e-07
-2.17354e-09
-1.74733e-07
-3.70566e-09
-1.70054e-07
-5.81661e-09
-1.64198e-07
-7.99672e-09
-1.57122e-07
-1.02637e-08
-1.48731e-07
-1.27936e-08
-1.39087e-07
-1.51103e-08
-1.27602e-07
-1.8635e-08
-1.14656e-07
-2.14132e-08
-9.97549e-08
-2.52148e-08
-8.35281e-08
-2.76728e-08
-6.52998e-08
-3.1506e-08
-4.51551e-08
-3.51888e-08
-2.23439e-08
-4.04288e-08
2.54732e-09
-4.392e-08
2.95029e-08
-4.88078e-08
5.83684e-08
-5.17435e-08
8.9415e-08
-5.59214e-08
1.2179e-07
-5.80234e-08
1.56248e-07
-6.12981e-08
1.92289e-07
-6.44561e-08
2.29529e-07
-6.74541e-08
2.6838e-07
-7.08169e-08
3.08329e-07
-7.28485e-08
3.49276e-07
-7.481e-08
3.90928e-07
-7.61367e-08
4.3337e-07
-7.74553e-08
4.7657e-07
-7.87751e-08
5.2031e-07
-7.97448e-08
5.64685e-07
-8.09809e-08
6.09325e-07
-8.14708e-08
6.54647e-07
-8.27193e-08
7.00198e-07
-8.32657e-08
7.45657e-07
-8.3242e-08
7.90908e-07
-8.30397e-08
8.34964e-07
-8.08034e-08
8.78442e-07
-7.98821e-08
9.20557e-07
-7.72833e-08
9.61974e-07
-7.61007e-08
1.00226e-06
-7.41202e-08
1.0414e-06
-7.1934e-08
1.07997e-06
-7.10221e-08
1.11695e-06
-6.78394e-08
1.15272e-06
-6.56103e-08
1.1875e-06
-6.37847e-08
1.22099e-06
-6.14098e-08
1.25375e-06
-6.02907e-08
1.28511e-06
-5.74109e-08
1.31534e-06
-5.50631e-08
1.34412e-06
-5.19824e-08
1.37205e-06
-5.03222e-08
1.39896e-06
-4.8388e-08
1.42478e-06
-4.61793e-08
1.44988e-06
-4.49264e-08
1.47415e-06
-4.31768e-08
1.49746e-06
-4.14363e-08
1.52004e-06
-4.00957e-08
1.54186e-06
-3.84334e-08
1.56291e-06
-3.70678e-08
1.58304e-06
-3.54748e-08
1.60217e-06
-3.3454e-08
1.62055e-06
-3.19713e-08
1.63828e-06
-3.06546e-08
1.6554e-06
-2.94335e-08
1.67191e-06
-2.81929e-08
1.68785e-06
-2.7039e-08
1.70337e-06
-2.62065e-08
1.71841e-06
-2.52708e-08
1.73301e-06
-2.43989e-08
1.74716e-06
-2.34934e-08
1.76092e-06
-2.26727e-08
1.77426e-06
-2.19687e-08
1.78719e-06
-2.12434e-08
1.79974e-06
-2.0528e-08
1.81193e-06
-1.98726e-08
1.8238e-06
-1.92707e-08
1.83529e-06
-1.85071e-08
1.84648e-06
-1.80072e-08
1.85736e-06
-1.73887e-08
1.86797e-06
-1.68111e-08
1.8784e-06
-1.64322e-08
1.88853e-06
-1.62328e-08
1.89799e-06
-1.49992e-08
1.90712e-06
-1.45874e-08
1.91489e-06
-1.20203e-08
1.92452e-06
-1.50626e-08
1.93218e-06
-1.09076e-08
1.93919e-06
-9.69291e-09
1.94752e-06
-1.28476e-08
1.95601e-06
-1.21853e-08
1.96387e-06
-1.20121e-08
1.97141e-06
-1.21755e-08
1.97832e-06
-1.13664e-08
1.9847e-06
-1.04785e-08
1.99071e-06
-9.60408e-09
1.99634e-06
-8.74477e-09
2.00197e-06
-8.55412e-09
2.00734e-06
-7.66109e-09
2.01256e-06
-7.66984e-09
2.01769e-06
-7.27953e-09
2.02266e-06
-7.2502e-09
2.02757e-06
-7.37475e-09
2.03235e-06
-6.9557e-09
2.03702e-06
-6.75965e-09
2.04156e-06
-6.41277e-09
2.04599e-06
-6.15321e-09
2.0503e-06
-5.84022e-09
2.05452e-06
-5.63769e-09
2.05866e-06
-5.43131e-09
2.06265e-06
-5.0975e-09
2.0664e-06
-4.76742e-09
2.07001e-06
-4.47325e-09
2.07347e-06
-4.14912e-09
2.07682e-06
-3.90211e-09
2.08002e-06
-3.60483e-09
2.0831e-06
-3.38913e-09
2.08601e-06
-3.08111e-09
2.08872e-06
-2.86682e-09
2.09123e-06
-2.61279e-09
2.09367e-06
-2.53336e-09
2.09596e-06
-2.29402e-09
2.09814e-06
-2.13574e-09
2.10029e-06
-2.01242e-09
2.10224e-06
-1.71672e-09
2.10435e-06
-1.69319e-09
2.106e-06
-9.60885e-10
2.10742e-06
-5.20554e-10
2.10853e-06
-6.22143e-11
2.10926e-06
6.87303e-10
2.10968e-06
1.04907e-09
2.1097e-06
1.86242e-09
2.10959e-06
1.92244e-09
2.1092e-06
2.32952e-09
2.10888e-06
2.0124e-09
2.10872e-06
1.70218e-09
2.10869e-06
1.30597e-09
2.10883e-06
8.36096e-10
2.10917e-06
4.52342e-10
2.10972e-06
1.23489e-11
2.11049e-06
-3.68112e-10
2.11116e-06
-4.01552e-10
2.11175e-06
-3.13633e-10
2.11215e-06
-8.72788e-11
2.11236e-06
1.41304e-10
2.11241e-06
3.24815e-10
2.1122e-06
7.94449e-10
2.11175e-06
1.20489e-09
2.11109e-06
1.58458e-09
2.11029e-06
1.90798e-09
2.1093e-06
2.31014e-09
2.10821e-06
2.54095e-09
2.10702e-06
2.76349e-09
2.10572e-06
2.98751e-09
2.10446e-06
3.06622e-09
2.1032e-06
3.13207e-09
2.10191e-06
3.20151e-09
2.10062e-06
3.17726e-09
2.09935e-06
3.08086e-09
2.09786e-06
3.19505e-09
2.09641e-06
2.91135e-09
2.09486e-06
2.5803e-09
2.09303e-06
2.88839e-09
2.09113e-06
3.07752e-09
2.0891e-06
3.25311e-09
2.08691e-06
3.53096e-09
2.08466e-06
3.71053e-09
2.0823e-06
3.96405e-09
2.07992e-06
4.19259e-09
2.07749e-06
4.48777e-09
2.07499e-06
4.83203e-09
2.07223e-06
5.43794e-09
2.06932e-06
5.91028e-09
2.06608e-06
6.57084e-09
2.06271e-06
6.97758e-09
2.05906e-06
7.32722e-09
2.0554e-06
7.29064e-09
2.05193e-06
7.0703e-09
2.04844e-06
6.98884e-09
2.04509e-06
6.49209e-09
2.04196e-06
6.07713e-09
2.03882e-06
5.88997e-09
2.03575e-06
5.69138e-09
2.03262e-06
5.6011e-09
2.02937e-06
5.77026e-09
2.02584e-06
6.0759e-09
2.02195e-06
6.69033e-09
2.01801e-06
6.83762e-09
2.01332e-06
7.78551e-09
2.00903e-06
7.13234e-09
2.00499e-06
6.83874e-09
2.00102e-06
6.67206e-09
1.99723e-06
6.18357e-09
1.9939e-06
5.44857e-09
1.99002e-06
5.831e-09
1.98674e-06
5.00702e-09
1.98401e-06
3.85384e-09
1.97974e-06
5.70667e-09
1.97647e-06
3.9119e-09
1.97296e-06
4.05762e-09
1.96886e-06
4.72564e-09
1.96427e-06
5.24209e-09
1.9599e-06
4.74038e-09
1.95553e-06
4.61078e-09
1.95073e-06
4.90915e-09
1.94619e-06
4.2657e-09
1.94133e-06
4.42e-09
4.19628e-09
6.90449e-09
-2.08531e-08
7.98703e-09
-7.03571e-09
2.4736e-09
6.76597e-09
-1.00744e-08
2.00372e-08
-2.97292e-08
3.43563e-08
-5.17131e-08
4.70969e-08
-7.03512e-08
5.32108e-08
-8.62291e-08
5.33764e-08
-9.92583e-08
4.95183e-08
-1.10227e-07
4.27771e-08
-1.18901e-07
3.56784e-08
-1.26183e-07
2.97328e-08
-1.32345e-07
2.47853e-08
-1.37524e-07
2.0721e-08
-1.41845e-07
1.76645e-08
-1.4548e-07
1.54581e-08
-1.4867e-07
1.38622e-08
-1.51472e-07
1.26091e-08
-1.53978e-07
1.16974e-08
-1.56225e-07
1.09381e-08
-1.58224e-07
1.02439e-08
-1.60002e-07
9.59147e-09
-1.6158e-07
8.92616e-09
-1.62853e-07
8.17889e-09
-1.63608e-07
7.29779e-09
-1.63916e-07
6.18883e-09
-1.63825e-07
5.07747e-09
-1.63183e-07
3.85109e-09
-1.62021e-07
2.39337e-09
-1.60282e-07
8.17269e-10
-1.57916e-07
-7.95414e-10
-1.54855e-07
-2.58156e-09
-1.51069e-07
-4.47386e-09
-1.46376e-07
-6.93094e-09
-1.4071e-07
-9.42738e-09
-1.33713e-07
-1.28571e-08
-1.25381e-07
-1.63552e-08
-1.15763e-07
-1.98719e-08
-1.04595e-07
-2.39911e-08
-9.19256e-08
-2.7791e-08
-7.72139e-08
-3.32798e-08
-6.09155e-08
-3.76061e-08
-4.2365e-08
-4.36575e-08
-2.23732e-08
-4.75456e-08
6.09227e-10
-5.43551e-08
2.47793e-08
-5.92319e-08
5.24547e-08
-6.79554e-08
8.16916e-08
-7.30106e-08
1.13877e-07
-8.08885e-08
1.4757e-07
-8.53562e-08
1.83696e-07
-9.2005e-08
2.21232e-07
-9.55446e-08
2.60982e-07
-1.01007e-07
3.02522e-07
-1.05926e-07
3.45426e-07
-1.10172e-07
3.90099e-07
-1.15216e-07
4.35824e-07
-1.18308e-07
4.82575e-07
-1.21311e-07
5.29886e-07
-1.23154e-07
5.77961e-07
-1.25132e-07
6.26681e-07
-1.26971e-07
6.75727e-07
-1.28166e-07
7.25181e-07
-1.29756e-07
7.74762e-07
-1.30358e-07
8.24737e-07
-1.31983e-07
8.74385e-07
-1.32267e-07
9.23816e-07
-1.32056e-07
9.72503e-07
-1.31194e-07
1.01988e-06
-1.27671e-07
1.06644e-06
-1.25972e-07
1.11152e-06
-1.21968e-07
1.15574e-06
-1.19914e-07
1.19856e-06
-1.16609e-07
1.24015e-06
-1.13191e-07
1.28082e-06
-1.11425e-07
1.31971e-06
-1.06532e-07
1.35723e-06
-1.02916e-07
1.39348e-06
-9.97763e-08
1.42835e-06
-9.60208e-08
1.46225e-06
-9.39793e-08
1.49468e-06
-8.96331e-08
1.52599e-06
-8.61456e-08
1.55589e-06
-8.15482e-08
1.58496e-06
-7.89314e-08
1.61299e-06
-7.59858e-08
1.63996e-06
-7.26909e-08
1.66618e-06
-7.06415e-08
1.69149e-06
-6.80085e-08
1.71578e-06
-6.53564e-08
1.73931e-06
-6.33133e-08
1.76212e-06
-6.09608e-08
1.78422e-06
-5.89277e-08
1.80526e-06
-5.63043e-08
1.82524e-06
-5.32287e-08
1.8445e-06
-5.09631e-08
1.86314e-06
-4.89938e-08
1.88124e-06
-4.72276e-08
1.89879e-06
-4.54626e-08
1.91585e-06
-4.38496e-08
1.93255e-06
-4.26664e-08
1.94876e-06
-4.12675e-08
1.96456e-06
-3.99613e-08
1.97991e-06
-3.85913e-08
1.99491e-06
-3.73654e-08
2.00948e-06
-3.62259e-08
2.02361e-06
-3.50101e-08
2.03732e-06
-3.38743e-08
2.05069e-06
-3.28913e-08
2.06372e-06
-3.19617e-08
2.07636e-06
-3.0776e-08
2.08868e-06
-2.99867e-08
2.10068e-06
-2.90241e-08
2.11245e-06
-2.82124e-08
2.12409e-06
-2.76733e-08
2.13522e-06
-2.69471e-08
2.14555e-06
-2.48422e-08
2.15535e-06
-2.38521e-08
2.16385e-06
-1.99318e-08
2.17387e-06
-2.44218e-08
2.18278e-06
-1.92783e-08
2.19129e-06
-1.75989e-08
2.20083e-06
-2.17472e-08
2.21095e-06
-2.17681e-08
2.22046e-06
-2.1098e-08
2.22933e-06
-2.07275e-08
2.23733e-06
-1.92396e-08
2.2447e-06
-1.77804e-08
2.25162e-06
-1.64918e-08
2.25821e-06
-1.53127e-08
2.26482e-06
-1.51511e-08
2.27134e-06
-1.41349e-08
2.27768e-06
-1.40026e-08
2.28398e-06
-1.35542e-08
2.29004e-06
-1.32656e-08
2.2959e-06
-1.31888e-08
2.30159e-06
-1.25171e-08
2.30711e-06
-1.21707e-08
2.31248e-06
-1.15869e-08
2.31776e-06
-1.12198e-08
2.3229e-06
-1.0748e-08
2.32795e-06
-1.04393e-08
2.33289e-06
-1.01151e-08
2.33767e-06
-9.61998e-09
2.34219e-06
-9.04881e-09
2.34653e-06
-8.57066e-09
2.3507e-06
-8.03492e-09
2.35474e-06
-7.61188e-09
2.35861e-06
-7.11033e-09
2.36236e-06
-6.71227e-09
2.3659e-06
-6.18311e-09
2.36926e-06
-5.77744e-09
2.37239e-06
-5.31258e-09
2.37555e-06
-5.25581e-09
2.37857e-06
-4.9174e-09
2.38152e-06
-4.71483e-09
2.38448e-06
-4.62501e-09
2.38744e-06
-4.35165e-09
2.39043e-06
-4.32721e-09
2.39319e-06
-3.32015e-09
2.39558e-06
-2.45366e-09
2.39756e-06
-1.5362e-09
2.39902e-06
-2.21191e-10
2.40007e-06
6.00824e-10
2.40065e-06
1.89587e-09
2.40081e-06
2.32088e-09
2.40086e-06
2.82543e-09
2.40082e-06
2.48985e-09
2.40088e-06
1.98708e-09
2.40115e-06
1.26643e-09
2.40161e-06
5.86296e-10
2.40235e-06
-1.56128e-10
2.40336e-06
-9.42515e-10
2.40467e-06
-1.6828e-09
2.40574e-06
-1.52073e-09
2.40662e-06
-1.21246e-09
2.40727e-06
-7.41747e-10
2.40766e-06
-2.41739e-10
2.40776e-06
1.81197e-10
2.40761e-06
9.54552e-10
2.40716e-06
1.68525e-09
2.40645e-06
2.34662e-09
2.40565e-06
2.81043e-09
2.40471e-06
3.39956e-09
2.40373e-06
3.71135e-09
2.40269e-06
4.02195e-09
2.40162e-06
4.29234e-09
2.40064e-06
4.31666e-09
2.39966e-06
4.36729e-09
2.39868e-06
4.416e-09
2.3977e-06
4.3525e-09
2.39668e-06
4.23093e-09
2.39532e-06
4.57843e-09
2.39379e-06
4.35035e-09
2.39172e-06
4.3198e-09
2.38953e-06
4.69977e-09
2.38713e-06
5.13301e-09
2.38457e-06
5.46811e-09
2.38185e-06
5.91114e-09
2.37909e-06
6.14905e-09
2.37625e-06
6.50433e-09
2.37346e-06
6.72891e-09
2.37061e-06
7.13673e-09
2.36784e-06
7.48029e-09
2.36489e-06
8.37962e-09
2.36174e-06
9.14862e-09
2.35817e-06
1.03408e-08
2.35448e-06
1.09456e-08
2.35012e-06
1.2046e-08
2.34575e-06
1.20062e-08
2.34153e-06
1.16067e-08
2.33713e-06
1.17014e-08
2.33286e-06
1.09055e-08
2.32881e-06
1.01719e-08
2.32476e-06
9.89342e-09
2.32079e-06
9.52118e-09
2.31674e-06
9.41341e-09
2.31263e-06
9.5822e-09
2.30825e-06
1.00889e-08
2.30351e-06
1.10162e-08
2.29867e-06
1.12379e-08
2.29299e-06
1.29392e-08
2.28756e-06
1.18748e-08
2.28245e-06
1.12835e-08
2.27739e-06
1.10725e-08
2.27249e-06
1.04236e-08
2.26808e-06
9.16806e-09
2.26313e-06
1.00658e-08
2.25874e-06
8.64574e-09
2.25503e-06
6.65708e-09
2.24981e-06
9.86781e-09
2.24534e-06
7.19008e-09
2.24081e-06
7.22013e-09
2.23589e-06
8.0682e-09
2.23045e-06
8.97397e-09
2.22516e-06
8.20104e-09
2.21992e-06
7.90238e-09
2.2143e-06
8.37709e-09
2.20884e-06
7.46047e-09
2.20314e-06
7.62427e-09
7.47059e-09
4.21835e-09
-2.51278e-08
1.09169e-09
-3.96885e-09
-9.74136e-09
1.75367e-08
-2.7881e-08
3.81085e-08
-4.80785e-08
5.44762e-08
-6.54548e-08
6.43875e-08
-7.99435e-08
6.76099e-08
-9.17763e-08
6.51174e-08
-1.00972e-07
5.86217e-08
-1.08462e-07
5.01739e-08
-1.15033e-07
4.21593e-08
-1.20383e-07
3.4992e-08
-1.24728e-07
2.9039e-08
-1.28346e-07
2.42459e-08
-1.31354e-07
2.05804e-08
-1.3388e-07
1.78935e-08
-1.36092e-07
1.59829e-08
-1.38016e-07
1.44416e-08
-1.39699e-07
1.32869e-08
-1.41164e-07
1.23073e-08
-1.42437e-07
1.14191e-08
-1.43478e-07
1.05314e-08
-1.4418e-07
9.52505e-09
-1.4451e-07
8.40271e-09
-1.44446e-07
7.12714e-09
-1.43919e-07
5.55558e-09
-1.42849e-07
3.90335e-09
-1.41165e-07
2.06669e-09
-1.38884e-07
1.79799e-11
-1.35896e-07
-2.25998e-09
-1.32141e-07
-4.63416e-09
-1.27518e-07
-7.28283e-09
-1.2202e-07
-1.00438e-08
-1.15392e-07
-1.36199e-08
-1.07615e-07
-1.72583e-08
-9.82785e-08
-2.22291e-08
-8.73729e-08
-2.72797e-08
-7.51051e-08
-3.21242e-08
-6.10191e-08
-3.81169e-08
-4.51663e-08
-4.36675e-08
-2.68699e-08
-5.15072e-08
-6.69432e-09
-5.766e-08
1.59642e-08
-6.62012e-08
4.04768e-08
-7.19418e-08
6.79528e-08
-8.17011e-08
9.7678e-08
-8.88149e-08
1.30876e-07
-1.00983e-07
1.65691e-07
-1.07659e-07
2.03825e-07
-1.18896e-07
2.43453e-07
-1.24877e-07
2.85892e-07
-1.34365e-07
3.29618e-07
-1.39217e-07
3.75959e-07
-1.47251e-07
4.24127e-07
-1.53945e-07
4.73744e-07
-1.59473e-07
5.25376e-07
-1.66429e-07
5.77802e-07
-1.70331e-07
6.31318e-07
-1.74462e-07
6.85032e-07
-1.76474e-07
7.3949e-07
-1.79097e-07
7.94161e-07
-1.81026e-07
8.49032e-07
-1.82328e-07
9.03864e-07
-1.83825e-07
9.58541e-07
-1.84254e-07
1.01326e-06
-1.85896e-07
1.06712e-06
-1.85412e-07
1.1204e-06
-1.84633e-07
1.17228e-06
-1.82489e-07
1.22258e-06
-1.77383e-07
1.27174e-06
-1.74573e-07
1.31916e-06
-1.68919e-07
1.36542e-06
-1.65661e-07
1.40991e-06
-1.6065e-07
1.45295e-06
-1.55756e-07
1.49457e-06
-1.5267e-07
1.53401e-06
-1.45743e-07
1.57193e-06
-1.40615e-07
1.60833e-06
-1.35913e-07
1.64324e-06
-1.3068e-07
1.677e-06
-1.27528e-07
1.70908e-06
-1.21494e-07
1.74013e-06
-1.16936e-07
1.76971e-06
-1.10762e-07
1.79855e-06
-1.07255e-07
1.82623e-06
-1.03143e-07
1.85286e-06
-9.87004e-08
1.87871e-06
-9.58133e-08
1.90352e-06
-9.22099e-08
1.92725e-06
-8.86182e-08
1.9502e-06
-8.58688e-08
1.97247e-06
-8.28704e-08
1.99407e-06
-8.02258e-08
2.01448e-06
-7.64689e-08
2.03383e-06
-7.23468e-08
2.05251e-06
-6.93359e-08
2.07062e-06
-6.67418e-08
2.08823e-06
-6.44533e-08
2.10534e-06
-6.22072e-08
2.12206e-06
-6.02574e-08
2.13849e-06
-5.8807e-08
2.15447e-06
-5.69809e-08
2.17006e-06
-5.5297e-08
2.18524e-06
-5.35018e-08
2.20012e-06
-5.19282e-08
2.2146e-06
-5.0355e-08
2.22863e-06
-4.86422e-08
2.24226e-06
-4.71013e-08
2.25557e-06
-4.57978e-08
2.26854e-06
-4.45429e-08
2.28112e-06
-4.29453e-08
2.29342e-06
-4.19003e-08
2.30534e-06
-4.05641e-08
2.31715e-06
-3.96362e-08
2.32881e-06
-3.89249e-08
2.33985e-06
-3.75611e-08
2.34997e-06
-3.44594e-08
2.35932e-06
-3.26524e-08
2.36773e-06
-2.77109e-08
2.37678e-06
-3.2752e-08
2.386e-06
-2.78648e-08
2.39513e-06
-2.59909e-08
2.40483e-06
-3.06625e-08
2.41531e-06
-3.15432e-08
2.42537e-06
-3.05834e-08
2.43459e-06
-2.94435e-08
2.44276e-06
-2.70984e-08
2.45027e-06
-2.50588e-08
2.45728e-06
-2.3334e-08
2.46403e-06
-2.193e-08
2.47075e-06
-2.18052e-08
2.47752e-06
-2.08646e-08
2.48416e-06
-2.06682e-08
2.49079e-06
-2.0198e-08
2.49712e-06
-1.96367e-08
2.5032e-06
-1.9286e-08
2.50906e-06
-1.83143e-08
2.51475e-06
-1.7784e-08
2.52028e-06
-1.69246e-08
2.52571e-06
-1.64392e-08
2.53103e-06
-1.5788e-08
2.53625e-06
-1.53648e-08
2.54131e-06
-1.48946e-08
2.54621e-06
-1.42422e-08
2.55082e-06
-1.3404e-08
2.55523e-06
-1.27361e-08
2.55945e-06
-1.19809e-08
2.56354e-06
-1.1373e-08
2.56744e-06
-1.06557e-08
2.57119e-06
-1.00493e-08
2.57474e-06
-9.27473e-09
2.57809e-06
-8.65472e-09
2.58124e-06
-7.96639e-09
2.58446e-06
-7.96273e-09
2.58758e-06
-7.51234e-09
2.59067e-06
-7.30509e-09
2.59381e-06
-7.27147e-09
2.59707e-06
-7.12568e-09
2.60039e-06
-7.12811e-09
2.60363e-06
-6.02291e-09
2.6064e-06
-4.6787e-09
2.6087e-06
-3.28778e-09
2.61047e-06
-1.3986e-09
2.61177e-06
-7.63626e-11
2.61258e-06
1.70788e-09
2.61284e-06
2.59935e-09
2.61296e-06
3.21185e-09
2.61298e-06
2.85353e-09
2.61303e-06
2.23223e-09
2.61332e-06
1.19317e-09
2.61384e-06
2.81639e-10
2.6147e-06
-8.6508e-10
2.61591e-06
-2.02506e-09
2.61739e-06
-3.08375e-09
2.61865e-06
-2.73769e-09
2.61964e-06
-2.18422e-09
2.62035e-06
-1.44483e-09
2.62077e-06
-6.43047e-10
2.62083e-06
6.31734e-11
2.62057e-06
1.18171e-09
2.61998e-06
2.22223e-09
2.6191e-06
3.19039e-09
2.61813e-06
3.8096e-09
2.61707e-06
4.54105e-09
2.61604e-06
4.91473e-09
2.61498e-06
5.31187e-09
2.61402e-06
5.53447e-09
2.61317e-06
5.51669e-09
2.61237e-06
5.51919e-09
2.61162e-06
5.51699e-09
2.61088e-06
5.39423e-09
2.61008e-06
5.2523e-09
2.60889e-06
5.86939e-09
2.60741e-06
5.76743e-09
2.60509e-06
6.26202e-09
2.60262e-06
6.73093e-09
2.59988e-06
7.40626e-09
2.59694e-06
7.92679e-09
2.59383e-06
8.5502e-09
2.59068e-06
8.83934e-09
2.58748e-06
9.26357e-09
2.58434e-06
9.46087e-09
2.5812e-06
9.94001e-09
2.57815e-06
1.02875e-08
2.57497e-06
1.1427e-08
2.57171e-06
1.24001e-08
2.56797e-06
1.42019e-08
2.56412e-06
1.50101e-08
2.55941e-06
1.70596e-08
2.55463e-06
1.70357e-08
2.54995e-06
1.64991e-08
2.54498e-06
1.6861e-08
2.54014e-06
1.57299e-08
2.53547e-06
1.47183e-08
2.53077e-06
1.43349e-08
2.52614e-06
1.37867e-08
2.52141e-06
1.36646e-08
2.51665e-06
1.382e-08
2.51162e-06
1.4529e-08
2.50623e-06
1.57494e-08
2.50072e-06
1.60584e-08
2.49435e-06
1.85164e-08
2.4881e-06
1.71692e-08
2.48215e-06
1.62578e-08
2.47624e-06
1.59842e-08
2.47044e-06
1.52159e-08
2.46514e-06
1.34305e-08
2.45933e-06
1.48356e-08
2.45396e-06
1.29473e-08
2.44937e-06
1.00557e-08
2.44338e-06
1.45083e-08
2.43791e-06
1.12095e-08
2.43245e-06
1.10517e-08
2.42678e-06
1.19394e-08
2.4206e-06
1.32196e-08
2.41452e-06
1.2239e-08
2.40853e-06
1.17225e-08
2.40221e-06
1.23257e-08
2.39599e-06
1.11958e-08
2.38955e-06
1.13427e-08
1.12626e-08
-2.1071e-09
-2.30777e-08
-9.49378e-09
3.35663e-09
-2.47079e-08
3.26865e-08
-4.23468e-08
5.56754e-08
-5.82738e-08
7.03223e-08
-7.17352e-08
7.77613e-08
-8.26639e-08
7.8447e-08
-9.10346e-08
7.33946e-08
-9.75645e-08
6.50561e-08
-1.03e-07
5.55151e-08
-1.07506e-07
4.65721e-08
-1.11223e-07
3.86163e-08
-1.14267e-07
3.19899e-08
-1.16824e-07
2.67083e-08
-1.18989e-07
2.26514e-08
-1.20817e-07
1.96285e-08
-1.22372e-07
1.74438e-08
-1.2369e-07
1.56648e-08
-1.24787e-07
1.42872e-08
-1.25679e-07
1.31009e-08
-1.26322e-07
1.19606e-08
-1.26656e-07
1.07611e-08
-1.26698e-07
9.45951e-09
-1.26338e-07
7.93442e-09
-1.25459e-07
6.13974e-09
-1.24021e-07
4.00944e-09
-1.21963e-07
1.74053e-09
-1.19189e-07
-8.0836e-10
-1.15676e-07
-3.5905e-09
-1.11303e-07
-6.72233e-09
-1.05996e-07
-1.00248e-08
-9.96062e-08
-1.37499e-08
-9.21737e-08
-1.75447e-08
-8.33639e-08
-2.24877e-08
-7.32263e-08
-2.74483e-08
-6.11866e-08
-3.42954e-08
-4.72477e-08
-4.1229e-08
-3.1839e-08
-4.7499e-08
-1.4186e-08
-5.58236e-08
5.75581e-09
-6.36549e-08
2.83917e-08
-7.40639e-08
5.31683e-08
-8.22799e-08
8.14833e-08
-9.43859e-08
1.11894e-07
-1.02237e-07
1.46439e-07
-1.16106e-07
1.83534e-07
-1.25747e-07
2.24944e-07
-1.42183e-07
2.67658e-07
-1.50171e-07
3.14461e-07
-1.65547e-07
3.62362e-07
-1.72645e-07
4.13829e-07
-1.85712e-07
4.66183e-07
-1.91473e-07
5.21596e-07
-2.02503e-07
5.79097e-07
-2.11171e-07
6.38073e-07
-2.17902e-07
6.99151e-07
-2.26912e-07
7.60793e-07
-2.31361e-07
8.22764e-07
-2.35899e-07
8.84737e-07
-2.37905e-07
9.46957e-07
-2.40687e-07
1.00885e-06
-2.42171e-07
1.07048e-06
-2.43136e-07
1.13151e-06
-2.43983e-07
1.19175e-06
-2.43617e-07
1.25135e-06
-2.44585e-07
1.30928e-06
-2.42516e-07
1.36599e-06
-2.40543e-07
1.42043e-06
-2.36259e-07
1.47279e-06
-2.29053e-07
1.52352e-06
-2.24629e-07
1.57197e-06
-2.16818e-07
1.61889e-06
-2.1194e-07
1.66337e-06
-2.04562e-07
1.70609e-06
-1.9779e-07
1.74699e-06
-1.93033e-07
1.78552e-06
-1.83955e-07
1.82258e-06
-1.77421e-07
1.85786e-06
-1.7092e-07
1.89158e-06
-1.64162e-07
1.92398e-06
-1.59707e-07
1.95446e-06
-1.51734e-07
1.98404e-06
-1.46235e-07
2.01204e-06
-1.38381e-07
2.03948e-06
-1.34136e-07
2.06548e-06
-1.28548e-07
2.09043e-06
-1.2287e-07
2.1146e-06
-1.19118e-07
2.1376e-06
-1.14445e-07
2.15954e-06
-1.09978e-07
2.1807e-06
-1.06502e-07
2.20127e-06
-1.02979e-07
2.22116e-06
-9.97399e-08
2.23973e-06
-9.47683e-08
2.2573e-06
-8.96557e-08
2.27431e-06
-8.60017e-08
2.29078e-06
-8.27799e-08
2.30675e-06
-7.99659e-08
2.32228e-06
-7.73008e-08
2.33757e-06
-7.5167e-08
2.35265e-06
-7.35297e-08
2.36729e-06
-7.13298e-08
2.38163e-06
-6.93549e-08
2.39563e-06
-6.72096e-08
2.4094e-06
-6.5369e-08
2.42278e-06
-6.33766e-08
2.43575e-06
-6.11891e-08
2.44838e-06
-5.92904e-08
2.46069e-06
-5.76589e-08
2.47269e-06
-5.60881e-08
2.48432e-06
-5.41156e-08
2.49569e-06
-5.28439e-08
2.50667e-06
-5.11281e-08
2.51771e-06
-5.0276e-08
2.5285e-06
-4.92962e-08
2.53856e-06
-4.71895e-08
2.54758e-06
-4.29738e-08
2.55563e-06
-4.01428e-08
2.56326e-06
-3.4698e-08
2.57074e-06
-3.9497e-08
2.57934e-06
-3.57402e-08
2.58851e-06
-3.43274e-08
2.59755e-06
-3.88234e-08
2.60772e-06
-4.08501e-08
2.61739e-06
-3.95572e-08
2.62616e-06
-3.75622e-08
2.6338e-06
-3.4247e-08
2.64081e-06
-3.16664e-08
2.64732e-06
-2.95164e-08
2.65364e-06
-2.79811e-08
2.65988e-06
-2.7883e-08
2.66625e-06
-2.71791e-08
2.67256e-06
-2.70217e-08
2.67885e-06
-2.65518e-08
2.68483e-06
-2.57382e-08
2.69052e-06
-2.50835e-08
2.696e-06
-2.3815e-08
2.70132e-06
-2.308e-08
2.70649e-06
-2.19434e-08
2.71162e-06
-2.13536e-08
2.71665e-06
-2.05038e-08
2.72159e-06
-1.99759e-08
2.72635e-06
-1.93314e-08
2.73094e-06
-1.85226e-08
2.73522e-06
-1.73975e-08
2.73929e-06
-1.65534e-08
2.74316e-06
-1.55708e-08
2.74687e-06
-1.47753e-08
2.75038e-06
-1.38321e-08
2.75375e-06
-1.29997e-08
2.75687e-06
-1.1953e-08
2.75982e-06
-1.11093e-08
2.7626e-06
-1.02176e-08
2.76545e-06
-1.02356e-08
2.76827e-06
-9.72422e-09
2.77112e-06
-9.54656e-09
2.77408e-06
-9.61186e-09
2.7772e-06
-9.63251e-09
2.78047e-06
-9.72466e-09
2.78369e-06
-8.59833e-09
2.78649e-06
-6.85116e-09
2.7888e-06
-4.97339e-09
2.79056e-06
-2.52439e-09
2.79184e-06
-6.87752e-10
2.79253e-06
1.65617e-09
2.79268e-06
2.97885e-09
2.79273e-06
3.58994e-09
2.79252e-06
3.42989e-09
2.79231e-06
2.66049e-09
2.79245e-06
1.28092e-09
2.79273e-06
1.5399e-10
2.79346e-06
-1.43754e-09
2.7946e-06
-2.97745e-09
2.79602e-06
-4.31613e-09
2.79727e-06
-3.85891e-09
2.79823e-06
-3.06942e-09
2.79888e-06
-2.03471e-09
2.79919e-06
-9.03692e-10
2.79913e-06
8.71768e-11
2.79861e-06
1.63694e-09
2.79775e-06
2.97614e-09
2.79658e-06
4.24648e-09
2.79529e-06
5.03331e-09
2.79394e-06
5.87022e-09
2.79265e-06
6.30055e-09
2.7914e-06
6.75921e-09
2.79033e-06
6.90288e-09
2.78947e-06
6.76242e-09
2.78871e-06
6.72096e-09
2.78804e-06
6.62893e-09
2.78742e-06
6.42581e-09
2.78673e-06
6.27259e-09
2.78565e-06
7.15355e-09
2.78422e-06
7.22092e-09
2.78172e-06
8.39827e-09
2.77902e-06
8.99349e-09
2.77598e-06
9.91024e-09
2.77271e-06
1.06315e-08
2.76924e-06
1.14479e-08
2.76572e-06
1.179e-08
2.76216e-06
1.22666e-08
2.75869e-06
1.24146e-08
2.75524e-06
1.29382e-08
2.75188e-06
1.32824e-08
2.74843e-06
1.4643e-08
2.74498e-06
1.57613e-08
2.74105e-06
1.81805e-08
2.73702e-06
1.92038e-08
2.73212e-06
2.22396e-08
2.72702e-06
2.23453e-08
2.72196e-06
2.17125e-08
2.71663e-06
2.23288e-08
2.71136e-06
2.09107e-08
2.70618e-06
1.96585e-08
2.70098e-06
1.914e-08
2.69582e-06
1.84157e-08
2.69055e-06
1.82864e-08
2.6852e-06
1.84587e-08
2.6796e-06
1.93629e-08
2.67366e-06
2.08629e-08
2.66752e-06
2.12846e-08
2.66058e-06
2.44587e-08
2.65362e-06
2.29506e-08
2.64692e-06
2.17369e-08
2.64027e-06
2.13559e-08
2.63371e-06
2.04952e-08
2.62761e-06