/*--------------------------------*- C++ -*----------------------------------*\
| =========                 |                                                 |
| \\      /  F ield         | OpenFOAM: The Open Source CFD Toolbox           |
|  \\    /   O peration     | Version:  2312                                  |
|   \\  /    A nd           | Website:  www.openfoam.com                      |
|    \\/     M anipulation  |                                                 |
\*---------------------------------------------------------------------------*/
FoamFile
{
    version     2.0;
    format      ascii;
    arch        "LSB;label=32;scalar=64";
    class       volScalarField;
    location    "0.001";
    object      rho;
}
// * * * * * * * * * * * * * * * * * * * * * * * * * * * * * * * * * * * * * //

dimensions      [1 -3 0 0 0 0 0];

internalField   nonuniform List<scalar> 
48128
(
0.0310045
0.0310016
0.030953
0.0309507
0.0309756
0.0310552
0.0311484
0.0311057
0.0310154
0.0307918
0.0305334
0.0302892
0.0300908
0.0299518
0.0298683
0.0298269
0.029838
0.0298967
0.0299956
0.0301321
0.0303095
0.030531
0.0308009
0.0311241
0.0315063
0.0319507
0.0324645
0.0330614
0.0337269
0.0344767
0.0353089
0.0362267
0.037236
0.0383417
0.0395483
0.0408646
0.0422706
0.0437902
0.0454086
0.0471339
0.0489821
0.0509006
0.0529587
0.0550705
0.0573216
0.0596337
0.0620775
0.0645472
0.0671512
0.0697523
0.0724357
0.0751053
0.0778202
0.0805415
0.0832815
0.0860573
0.0888281
0.0915847
0.0943155
0.0970145
0.0996738
0.102278
0.104821
0.107286
0.109682
0.111999
0.114201
0.116348
0.118339
0.120305
0.122133
0.123894
0.125576
0.127127
0.128642
0.130054
0.131372
0.132666
0.133807
0.134938
0.135934
0.136924
0.137834
0.138731
0.139577
0.140347
0.141112
0.141805
0.142461
0.143091
0.143707
0.144299
0.144859
0.14534
0.1458
0.146238
0.146667
0.147091
0.147515
0.147943
0.148374
0.148805
0.149236
0.149663
0.150084
0.150488
0.150863
0.15123
0.151593
0.151947
0.152292
0.152631
0.152974
0.153314
0.153655
0.153895
0.154039
0.15407
0.154091
0.154438
0.154528
0.154723
0.155072
0.155376
0.155629
0.155823
0.155913
0.155993
0.156063
0.156181
0.156318
0.156483
0.156695
0.156902
0.157117
0.157313
0.157496
0.157658
0.157813
0.157954
0.158091
0.158222
0.158354
0.158458
0.158558
0.158641
0.158722
0.158792
0.158848
0.158896
0.158908
0.158905
0.158886
0.158889
0.158885
0.158885
0.158904
0.158945
0.159003
0.159065
0.159116
0.159145
0.159159
0.159154
0.159124
0.159105
0.159074
0.159044
0.159034
0.15904
0.15907
0.159125
0.159208
0.159296
0.159359
0.159402
0.159435
0.159448
0.159436
0.159413
0.159383
0.159353
0.159323
0.159299
0.159283
0.159276
0.159283
0.159322
0.159383
0.159464
0.159553
0.159641
0.159717
0.159758
0.159763
0.159763
0.159755
0.159747
0.159742
0.159746
0.159766
0.159806
0.15987
0.159953
0.160052
0.160156
0.160265
0.160378
0.160403
0.160445
0.160487
0.160516
0.160558
0.160605
0.16066
0.160716
0.160777
0.160847
0.16091
0.160979
0.16103
0.16102
0.161034
0.161047
0.161058
0.161092
0.16114
0.161082
0.161088
0.161104
0.160954
0.160883
0.160806
0.160707
0.16054
0.160404
0.160262
0.160078
0.159889
0.159551
0.031028
0.0310235
0.0309691
0.0309789
0.031051
0.0311582
0.0312552
0.0312193
0.0311196
0.0309368
0.0307456
0.0305785
0.0304491
0.0303753
0.0303266
0.0303133
0.0303431
0.0304129
0.0305157
0.0306496
0.030818
0.0310243
0.0312736
0.0315713
0.0319248
0.0323322
0.0328086
0.0333571
0.0339723
0.0346692
0.0354439
0.0363041
0.0372509
0.0382929
0.0394305
0.0406811
0.0420257
0.0434828
0.0450533
0.0467313
0.0485356
0.050427
0.052468
0.0545825
0.0568365
0.0591726
0.0616501
0.0641804
0.0668663
0.0695663
0.0723619
0.075168
0.0780281
0.0809228
0.0838491
0.0868258
0.0898161
0.0928079
0.09579
0.0987596
0.101706
0.104615
0.107473
0.110262
0.112974
0.115609
0.118137
0.120615
0.12294
0.125236
0.127401
0.129496
0.131502
0.133372
0.13519
0.136904
0.138527
0.140111
0.141542
0.142946
0.144218
0.145484
0.146676
0.147849
0.148962
0.150003
0.151024
0.151967
0.152875
0.15374
0.154599
0.155434
0.156222
0.156927
0.157607
0.158265
0.158913
0.159554
0.160194
0.160831
0.161467
0.162096
0.162723
0.163342
0.163954
0.16454
0.165093
0.165637
0.166171
0.166696
0.167204
0.167706
0.168209
0.168709
0.169205
0.169592
0.169878
0.170056
0.170214
0.170748
0.17102
0.171393
0.171891
0.172349
0.172736
0.173054
0.173263
0.173468
0.173655
0.17389
0.174136
0.174412
0.174717
0.175018
0.175319
0.1756
0.175875
0.176131
0.176385
0.176626
0.176863
0.177091
0.17732
0.177519
0.17771
0.177882
0.178052
0.178209
0.178351
0.178486
0.178586
0.178667
0.178744
0.178834
0.178914
0.17901
0.179117
0.179234
0.17937
0.179491
0.179598
0.179655
0.179697
0.179696
0.179668
0.179646
0.179617
0.179596
0.17961
0.179644
0.179709
0.179804
0.179931
0.180063
0.180165
0.180241
0.180289
0.180315
0.180306
0.180278
0.180239
0.180198
0.180156
0.180121
0.180095
0.180079
0.180076
0.180106
0.180156
0.180225
0.180299
0.180364
0.180418
0.180438
0.180405
0.180368
0.180317
0.180261
0.18021
0.180165
0.180135
0.180123
0.180132
0.180155
0.180192
0.180224
0.180257
0.180299
0.18025
0.180222
0.180196
0.180167
0.180154
0.180146
0.180146
0.180145
0.180146
0.180143
0.180121
0.180109
0.180057
0.179964
0.179907
0.179859
0.179821
0.179814
0.17982
0.179718
0.179694
0.179657
0.179464
0.179354
0.17923
0.179074
0.178858
0.178678
0.178491
0.178263
0.178034
0.17762
0.0310798
0.0310345
0.0309935
0.0310332
0.031159
0.0312917
0.031337
0.0312859
0.0311789
0.0310097
0.0308383
0.030656
0.0304935
0.0303707
0.0302978
0.0302644
0.0302726
0.0303187
0.0303964
0.0305038
0.0306443
0.0308226
0.0310457
0.0313128
0.0316375
0.0320171
0.0324638
0.0329774
0.0335587
0.0342226
0.0349668
0.0357984
0.0367187
0.0377381
0.0388539
0.0400842
0.0414153
0.0428601
0.044433
0.0461159
0.0479307
0.0498442
0.051921
0.054086
0.0563896
0.0588088
0.0613685
0.0640126
0.0668179
0.0696626
0.0726144
0.0755883
0.0786294
0.0817228
0.0848495
0.0880423
0.0912603
0.0944892
0.0977153
0.100934
0.104131
0.107291
0.110402
0.113439
0.116402
0.119278
0.122034
0.124733
0.127266
0.129772
0.132134
0.134433
0.136622
0.138674
0.140658
0.142516
0.144288
0.146003
0.147562
0.149082
0.150456
0.151822
0.153114
0.154392
0.155602
0.156745
0.157865
0.158899
0.159897
0.160843
0.161781
0.162698
0.163558
0.164332
0.165084
0.16581
0.166527
0.167239
0.16795
0.168659
0.169364
0.17006
0.170754
0.171439
0.172118
0.17277
0.173387
0.173994
0.17459
0.175175
0.175741
0.176301
0.17686
0.177419
0.177968
0.178405
0.178731
0.178962
0.179156
0.179724
0.180088
0.180531
0.181091
0.181633
0.182093
0.182469
0.182733
0.182992
0.183226
0.183509
0.183799
0.184123
0.184472
0.184818
0.185159
0.185476
0.18579
0.18608
0.186371
0.186649
0.186924
0.187188
0.187451
0.187684
0.187907
0.188111
0.188311
0.188499
0.188672
0.188836
0.188967
0.189081
0.189191
0.189318
0.189436
0.189574
0.189718
0.189892
0.190063
0.190225
0.19037
0.190466
0.190534
0.190562
0.190549
0.19054
0.190522
0.19051
0.190533
0.190576
0.190651
0.19076
0.190904
0.191053
0.191166
0.191252
0.191311
0.191341
0.191334
0.191307
0.191267
0.191225
0.191185
0.191154
0.191134
0.191124
0.19113
0.19117
0.19123
0.191306
0.191386
0.191452
0.1915
0.191502
0.191444
0.191381
0.191304
0.191222
0.191145
0.191075
0.191022
0.190988
0.190977
0.190981
0.190999
0.19101
0.191025
0.191038
0.190951
0.190886
0.19082
0.190747
0.190691
0.190641
0.190599
0.190558
0.190519
0.190477
0.190415
0.19036
0.190265
0.19012
0.190013
0.189913
0.189828
0.189775
0.189737
0.189595
0.18953
0.189459
0.189225
0.189079
0.188925
0.188741
0.188494
0.188284
0.18807
0.187813
0.187555
0.187097
0.0311219
0.0310345
0.0310393
0.0311272
0.0312962
0.0313825
0.0313693
0.031278
0.0311327
0.0309394
0.0307145
0.0305185
0.0303572
0.0302297
0.0301463
0.0300984
0.0300903
0.0301189
0.0301782
0.0302673
0.03039
0.0305506
0.0307514
0.0310002
0.0313053
0.0316622
0.0320849
0.0325763
0.0331379
0.0337833
0.03451
0.0353257
0.0362297
0.0372376
0.0383421
0.0395666
0.0408976
0.0423445
0.0439396
0.045646
0.0474983
0.0494543
0.0515999
0.0538367
0.0562496
0.0587683
0.0614802
0.0642788
0.0672665
0.0703003
0.0734658
0.0766599
0.0799371
0.0832839
0.0866609
0.0901232
0.0936146
0.0971235
0.10063
0.104134
0.107612
0.111047
0.11443
0.117727
0.120948
0.124057
0.127035
0.12993
0.132642
0.135331
0.137852
0.140317
0.142642
0.144829
0.146929
0.148867
0.150733
0.152518
0.154146
0.155726
0.157138
0.158545
0.159873
0.161197
0.162441
0.163618
0.164774
0.165836
0.166859
0.167822
0.168774
0.169707
0.170572
0.171353
0.172114
0.172848
0.173572
0.174293
0.175012
0.17573
0.176446
0.17715
0.177853
0.178547
0.179236
0.179897
0.180526
0.181144
0.181749
0.182344
0.182919
0.183489
0.184053
0.184624
0.185174
0.185612
0.185932
0.186176
0.18637
0.186898
0.187322
0.187791
0.188359
0.188934
0.189423
0.189815
0.190099
0.190378
0.190627
0.190923
0.191222
0.191561
0.191918
0.192276
0.192625
0.192947
0.193269
0.193566
0.193866
0.194155
0.194442
0.194714
0.194986
0.195225
0.195454
0.195664
0.195868
0.196059
0.196235
0.196402
0.196537
0.196655
0.19677
0.196907
0.197037
0.197189
0.197344
0.197537
0.19773
0.197912
0.198074
0.198185
0.19827
0.198309
0.198306
0.198304
0.19829
0.198277
0.198298
0.19834
0.198417
0.198532
0.198682
0.198835
0.198955
0.199045
0.199108
0.199138
0.199127
0.199095
0.199048
0.198998
0.198951
0.198917
0.198896
0.198889
0.1989
0.198947
0.199015
0.199101
0.199187
0.199259
0.199311
0.199306
0.199232
0.199151
0.199055
0.198953
0.198856
0.198766
0.198695
0.198643
0.198615
0.198605
0.198608
0.198607
0.198609
0.19861
0.198503
0.198415
0.198327
0.198226
0.198141
0.198061
0.197988
0.197916
0.197846
0.197774
0.197682
0.197595
0.197471
0.197292
0.197145
0.197007
0.196883
0.196791
0.196717
0.196541
0.196438
0.196336
0.196072
0.195891
0.195709
0.195502
0.195231
0.194996
0.194759
0.194479
0.194198
0.193706
0.0311821
0.0310707
0.031131
0.0312623
0.0313741
0.0313949
0.0313276
0.0311908
0.0310027
0.0307734
0.0305482
0.0303421
0.0301728
0.0300416
0.029951
0.029896
0.0298783
0.0298956
0.0299427
0.0300201
0.0301296
0.030274
0.0304613
0.0306963
0.0309819
0.0313225
0.0317286
0.0322047
0.0327532
0.033385
0.0340996
0.0349057
0.0357992
0.036805
0.0379093
0.0391439
0.040492
0.041961
0.043607
0.045367
0.0473021
0.0493411
0.0516017
0.0539594
0.0565399
0.0592421
0.0621921
0.0652316
0.0685024
0.0718138
0.0752946
0.0788046
0.0824346
0.0861228
0.0898601
0.0937034
0.097563
0.101449
0.105316
0.109184
0.113012
0.116776
0.120486
0.124078
0.12759
0.130936
0.13414
0.137219
0.140086
0.14294
0.14558
0.148174
0.150583
0.152851
0.155002
0.156955
0.158863
0.160663
0.162303
0.163889
0.165281
0.166677
0.167984
0.169303
0.17052
0.171671
0.172807
0.173843
0.174841
0.175773
0.176689
0.177591
0.178411
0.179152
0.179879
0.180577
0.181263
0.181948
0.182632
0.183316
0.183998
0.18467
0.18534
0.186004
0.186663
0.187295
0.187899
0.188493
0.189072
0.18964
0.190191
0.190735
0.191274
0.191823
0.192335
0.192738
0.193017
0.193248
0.19342
0.193873
0.194329
0.194801
0.195346
0.195909
0.196391
0.196771
0.197051
0.197327
0.197573
0.19786
0.198149
0.198476
0.19882
0.199165
0.199498
0.199802
0.200112
0.200394
0.200685
0.200964
0.201245
0.201508
0.201771
0.202
0.202219
0.202417
0.202608
0.202787
0.202948
0.203101
0.203221
0.203328
0.20343
0.203558
0.203683
0.20383
0.203983
0.204173
0.204369
0.204556
0.204721
0.204836
0.204926
0.204967
0.204965
0.20496
0.20494
0.204918
0.204927
0.204962
0.205032
0.205142
0.205287
0.205435
0.205555
0.205645
0.205706
0.205733
0.205713
0.205672
0.205614
0.20555
0.205489
0.205444
0.205414
0.205401
0.20541
0.205457
0.205529
0.205619
0.20571
0.205786
0.20584
0.205834
0.205748
0.205654
0.205541
0.205421
0.205306
0.205198
0.205108
0.205038
0.204993
0.204966
0.204955
0.204941
0.204931
0.204919
0.204801
0.204696
0.204591
0.204473
0.204364
0.20426
0.204163
0.204065
0.203967
0.203869
0.20375
0.203633
0.203487
0.203279
0.203098
0.202927
0.202769
0.202641
0.202534
0.202328
0.202188
0.202053
0.201764
0.201547
0.201336
0.201104
0.20081
0.200549
0.20029
0.199989
0.199684
0.199159
0.0312533
0.0311744
0.0312514
0.0313515
0.0313995
0.0313525
0.0312304
0.0310517
0.0308302
0.0305836
0.0303525
0.0301451
0.029974
0.0298418
0.0297487
0.029691
0.029668
0.0296779
0.029717
0.0297842
0.0298816
0.0300149
0.0301896
0.0304095
0.0306794
0.0310073
0.0314
0.0318647
0.0324027
0.033027
0.0337354
0.0345411
0.0354328
0.0364495
0.0375703
0.0388433
0.0402358
0.0417508
0.043483
0.045352
0.0474153
0.0496015
0.052066
0.0546374
0.0574966
0.0605135
0.0638374
0.067257
0.0709707
0.0746975
0.0786628
0.0826301
0.0868047
0.0909669
0.0952494
0.0996475
0.104032
0.108418
0.112783
0.117118
0.121401
0.125571
0.129685
0.133615
0.137448
0.14103
0.144458
0.14769
0.150686
0.153667
0.156373
0.159041
0.161456
0.163731
0.165844
0.167731
0.169605
0.171333
0.172907
0.174405
0.17569
0.176987
0.178183
0.179421
0.180507
0.181549
0.182585
0.183526
0.184435
0.185275
0.186096
0.186906
0.187614
0.188263
0.188903
0.189512
0.190105
0.190707
0.191311
0.191918
0.192524
0.19312
0.193718
0.194315
0.194903
0.195467
0.196011
0.196543
0.197058
0.197564
0.198059
0.198543
0.199032
0.199519
0.199952
0.200284
0.200491
0.200687
0.200818
0.201179
0.201625
0.20208
0.202572
0.203079
0.203521
0.203864
0.20412
0.204373
0.204596
0.204853
0.205115
0.205406
0.205716
0.206025
0.20632
0.206586
0.206863
0.20711
0.207372
0.207621
0.20788
0.208118
0.208356
0.208559
0.208753
0.208926
0.20909
0.20924
0.209372
0.209495
0.209586
0.209668
0.209743
0.209847
0.209952
0.210079
0.210217
0.210388
0.210569
0.210746
0.210904
0.211012
0.211096
0.211132
0.211122
0.211106
0.211073
0.211031
0.211021
0.211037
0.211091
0.211186
0.211312
0.211445
0.211557
0.211641
0.211695
0.211714
0.21168
0.211626
0.211552
0.21147
0.211388
0.211324
0.211278
0.211252
0.21125
0.21129
0.211358
0.211447
0.211535
0.211611
0.211665
0.211656
0.211559
0.211452
0.211324
0.211187
0.211053
0.210926
0.210817
0.210728
0.210664
0.210618
0.210588
0.210559
0.210533
0.210509
0.210381
0.210261
0.210141
0.21001
0.209881
0.209758
0.209638
0.209518
0.209395
0.209272
0.209129
0.208983
0.208816
0.208583
0.208369
0.208168
0.20798
0.207816
0.207678
0.207446
0.207268
0.207102
0.206789
0.206536
0.206294
0.206036
0.20572
0.205432
0.20515
0.204827
0.204497
0.203939
0.0313683
0.0312833
0.0313489
0.0313996
0.0313772
0.0312707
0.0311066
0.0308959
0.030639
0.0303834
0.0301509
0.0299468
0.029779
0.0296495
0.0295571
0.0294988
0.0294727
0.0294762
0.0295071
0.0295641
0.029652
0.0297748
0.0299366
0.0301437
0.0304011
0.0307192
0.031102
0.0315601
0.0320928
0.0327169
0.0334271
0.034247
0.0351542
0.0362016
0.037353
0.0387044
0.0401911
0.0417864
0.0436735
0.0457229
0.048012
0.050457
0.0532667
0.056226
0.0595376
0.0630402
0.0669167
0.0708796
0.0752644
0.0795637
0.0842343
0.0888124
0.0937343
0.098565
0.103585
0.108654
0.113729
0.118717
0.12372
0.128605
0.133455
0.138101
0.142695
0.147003
0.151202
0.155029
0.158709
0.162064
0.16521
0.168289
0.171031
0.173728
0.176082
0.178341
0.180336
0.182091
0.183859
0.185396
0.186825
0.188117
0.18918
0.190253
0.191231
0.192279
0.193106
0.193935
0.194765
0.195507
0.196234
0.196887
0.197532
0.198153
0.198663
0.199146
0.199613
0.200058
0.200496
0.200958
0.201429
0.201904
0.202379
0.202852
0.203332
0.203812
0.20428
0.204732
0.205171
0.205597
0.206009
0.206416
0.206819
0.20721
0.20762
0.208004
0.208316
0.208534
0.208646
0.208789
0.208855
0.209116
0.209494
0.209926
0.210332
0.21074
0.211106
0.211391
0.211604
0.211809
0.211992
0.212199
0.212414
0.212646
0.212908
0.213158
0.21339
0.213598
0.213825
0.214016
0.21423
0.214429
0.214646
0.214842
0.215038
0.2152
0.215357
0.215487
0.215611
0.215716
0.215805
0.215881
0.215932
0.215975
0.216009
0.216074
0.216146
0.216238
0.216347
0.216488
0.216634
0.216788
0.216926
0.217018
0.217089
0.217108
0.217083
0.217046
0.21699
0.216923
0.216886
0.216871
0.216897
0.216968
0.217064
0.21717
0.217265
0.217333
0.217373
0.217378
0.217324
0.217252
0.217159
0.217053
0.216945
0.216854
0.216784
0.216737
0.216718
0.21674
0.216798
0.216878
0.216957
0.217027
0.217073
0.217057
0.21695
0.216828
0.216683
0.216527
0.216373
0.216226
0.216096
0.215985
0.215899
0.215831
0.215779
0.215731
0.215686
0.215646
0.21551
0.215373
0.215238
0.215095
0.214948
0.214806
0.214666
0.214524
0.214376
0.21423
0.214064
0.213888
0.213703
0.213446
0.2132
0.212971
0.212753
0.212556
0.212386
0.212131
0.211915
0.211716
0.211382
0.211092
0.210818
0.210533
0.210194
0.209878
0.209572
0.209227
0.208872
0.208279
0.0314645
0.0313895
0.031418
0.0314076
0.0313226
0.0311714
0.0309784
0.0307199
0.0304458
0.030189
0.0299582
0.0297604
0.0295988
0.0294732
0.0293825
0.0293243
0.029295
0.0292913
0.0293145
0.0293639
0.0294427
0.0295551
0.0297058
0.0299031
0.030151
0.0304635
0.0308414
0.0312991
0.0318345
0.0324709
0.0331949
0.0340412
0.0349916
0.0361079
0.0373365
0.0387974
0.0404463
0.0422174
0.0443805
0.046734
0.0493772
0.0522415
0.0555626
0.0591063
0.0630995
0.067199
0.0718321
0.0764553
0.0816996
0.0867262
0.0922413
0.0975973
0.103407
0.109138
0.114976
0.120758
0.126565
0.132208
0.137887
0.143344
0.148801
0.153926
0.159015
0.163707
0.16826
0.172321
0.176258
0.179687
0.18308
0.186178
0.18904
0.191741
0.194057
0.196343
0.198182
0.199861
0.201532
0.20283
0.204122
0.205161
0.205929
0.206742
0.20744
0.208214
0.208738
0.209268
0.209858
0.210267
0.210703
0.211073
0.211438
0.211758
0.211971
0.212197
0.212403
0.212609
0.212816
0.21306
0.21333
0.213597
0.213876
0.214165
0.214461
0.214759
0.215049
0.215326
0.215611
0.215881
0.216145
0.216414
0.216681
0.216946
0.217234
0.217477
0.217619
0.217676
0.217684
0.217729
0.217718
0.217855
0.218137
0.218529
0.218812
0.219071
0.219323
0.219525
0.219675
0.219811
0.219938
0.220069
0.220223
0.22039
0.220569
0.220738
0.220887
0.221019
0.221165
0.22129
0.221436
0.22157
0.221727
0.22186
0.221997
0.222104
0.222206
0.222281
0.222348
0.222394
0.222424
0.22244
0.222437
0.222427
0.22241
0.222421
0.222446
0.222489
0.222559
0.22265
0.222756
0.222868
0.222974
0.223035
0.223079
0.223075
0.223028
0.222964
0.222881
0.222781
0.222707
0.22265
0.222638
0.22267
0.222727
0.222797
0.222861
0.222906
0.222924
0.222904
0.222826
0.222731
0.222613
0.22248
0.22234
0.222217
0.222114
0.22204
0.221996
0.221993
0.222031
0.222094
0.222156
0.222212
0.222246
0.222214
0.222096
0.221955
0.221791
0.221614
0.221439
0.221268
0.221114
0.220979
0.220867
0.220773
0.220696
0.220625
0.220556
0.220496
0.220351
0.220195
0.220044
0.219889
0.219721
0.21956
0.219399
0.219236
0.219064
0.218893
0.218704
0.218499
0.218294
0.218017
0.217739
0.21748
0.217234
0.217004
0.216802
0.216526
0.216271
0.216038
0.215684
0.215356
0.21505
0.214738
0.214375
0.214031
0.213699
0.213332
0.21295
0.212322
0.0315323
0.0314695
0.0314536
0.0313855
0.0312533
0.0310684
0.0308332
0.0305426
0.0302665
0.0300102
0.0297844
0.0295931
0.0294373
0.0293161
0.0292274
0.0291687
0.0291361
0.0291258
0.0291424
0.0291849
0.0292556
0.0293595
0.0295015
0.0296926
0.0299353
0.0302474
0.0306269
0.0310943
0.0316394
0.0323026
0.0330706
0.0339787
0.0349995
0.036239
0.0376189
0.0392832
0.04119
0.0432567
0.0458283
0.0486425
0.0517952
0.0552524
0.0592672
0.0634447
0.0683265
0.0731028
0.0785751
0.0839882
0.0900996
0.0959787
0.102366
0.108571
0.115198
0.121748
0.128226
0.134616
0.140999
0.14727
0.15344
0.159431
0.165233
0.170809
0.176215
0.181275
0.186064
0.190366
0.194443
0.197979
0.201564
0.204741
0.207755
0.210462
0.212828
0.215144
0.216978
0.218733
0.220439
0.22153
0.222798
0.223651
0.224208
0.224994
0.225406
0.226013
0.226285
0.22668
0.227017
0.22713
0.227359
0.227463
0.227543
0.227543
0.227423
0.22738
0.22733
0.227254
0.227193
0.227159
0.227158
0.227158
0.227179
0.227215
0.227264
0.22732
0.22737
0.227421
0.227497
0.227563
0.227633
0.227714
0.227802
0.227901
0.22802
0.228059
0.22798
0.227856
0.227731
0.227638
0.227532
0.227536
0.227712
0.227972
0.228096
0.228183
0.228282
0.228368
0.228438
0.228477
0.228536
0.228583
0.228649
0.228722
0.228799
0.228866
0.228919
0.228953
0.229003
0.229042
0.2291
0.229151
0.229228
0.229283
0.229342
0.229377
0.22941
0.229415
0.229411
0.229383
0.22934
0.229281
0.229211
0.229133
0.229056
0.229002
0.228966
0.228951
0.228965
0.228999
0.229046
0.229102
0.229158
0.22918
0.229188
0.229146
0.229072
0.228975
0.228859
0.228721
0.228603
0.228494
0.228438
0.228414
0.22842
0.228444
0.228467
0.228476
0.228462
0.228411
0.228304
0.228178
0.22803
0.227867
0.227691
0.227529
0.227386
0.227276
0.227201
0.227167
0.227175
0.227212
0.227251
0.227285
0.227299
0.227244
0.227112
0.22695
0.226763
0.226563
0.226362
0.226166
0.225984
0.225821
0.225679
0.225556
0.225448
0.225349
0.225254
0.225169
0.225013
0.224835
0.224665
0.224495
0.224306
0.224125
0.223941
0.223755
0.223557
0.223361
0.223149
0.222914
0.222686
0.222391
0.222081
0.221793
0.221519
0.221255
0.22102
0.220724
0.220429
0.220161
0.219787
0.219422
0.219081
0.21874
0.218355
0.217981
0.217623
0.217233
0.216824
0.216159
0.0315673
0.0315033
0.031456
0.0313463
0.0311764
0.0309587
0.0306787
0.0303808
0.0301059
0.0298527
0.0296323
0.0294475
0.0292973
0.02918
0.0290933
0.0290333
0.0289964
0.0289813
0.0289927
0.0290293
0.0290933
0.0291912
0.0293276
0.0295175
0.0297598
0.0300801
0.0304652
0.0309592
0.0315374
0.0322647
0.033097
0.0341233
0.0352749
0.0367186
0.0383571
0.0403379
0.0425951
0.0451042
0.0482303
0.0516158
0.055443
0.0595228
0.0643859
0.0692054
0.0749523
0.0804927
0.0867646
0.0929277
0.0996262
0.106303
0.113382
0.120349
0.127421
0.134593
0.141371
0.148251
0.15476
0.161535
0.167861
0.174181
0.180117
0.186006
0.191566
0.196871
0.201837
0.206268
0.210379
0.214045
0.217615
0.221011
0.224177
0.226989
0.229472
0.231827
0.233772
0.235779
0.237631
0.238662
0.239993
0.240813
0.241525
0.242378
0.242676
0.243239
0.243493
0.243872
0.244148
0.244163
0.24428
0.244272
0.24424
0.243993
0.243688
0.243476
0.243264
0.243015
0.242749
0.242503
0.242278
0.242035
0.241814
0.241609
0.241419
0.241239
0.241052
0.240882
0.240735
0.24058
0.240435
0.240299
0.240186
0.240083
0.239991
0.239773
0.239449
0.239131
0.238833
0.238584
0.238346
0.238212
0.238213
0.238305
0.23822
0.238109
0.238026
0.237966
0.237926
0.237866
0.23783
0.237777
0.237738
0.237695
0.237651
0.237597
0.237535
0.237456
0.237395
0.23733
0.237282
0.237236
0.23721
0.237168
0.237135
0.237081
0.237032
0.236947
0.236862
0.236746
0.236616
0.23647
0.236321
0.236167
0.236013
0.235883
0.235775
0.235693
0.235638
0.235601
0.235577
0.235563
0.235554
0.235521
0.235479
0.235394
0.235287
0.23515
0.234993
0.234816
0.234644
0.234478
0.234365
0.234278
0.234223
0.234186
0.234157
0.234122
0.234064
0.233977
0.233834
0.233671
0.233487
0.233287
0.233073
0.232868
0.232677
0.232524
0.232411
0.232339
0.23231
0.232311
0.23232
0.232323
0.23231
0.232227
0.232077
0.231888
0.231675
0.231448
0.231219
0.230994
0.230781
0.230586
0.230411
0.230254
0.230112
0.229981
0.229854
0.229739
0.22957
0.229368
0.229176
0.228989
0.228775
0.228573
0.228363
0.228152
0.227926
0.227703
0.227466
0.2272
0.226947
0.226634
0.226292
0.225975
0.225672
0.225373
0.225105
0.224788
0.224451
0.224147
0.223752
0.22335
0.222975
0.222604
0.222196
0.221793
0.221407
0.220992
0.220557
0.219853
0.0315779
0.0315034
0.0314323
0.0312917
0.0310849
0.0308444
0.0305359
0.0302415
0.0299666
0.0297173
0.0295031
0.0293244
0.0291793
0.0290655
0.0289797
0.0289178
0.0288777
0.0288604
0.0288672
0.0288989
0.0289583
0.0290535
0.0291876
0.0293841
0.0296277
0.0299726
0.0303839
0.0309317
0.0315709
0.0324051
0.0333581
0.0345715
0.0359402
0.0376821
0.0397104
0.0421518
0.0447564
0.0478035
0.0516658
0.0555928
0.0602703
0.0649279
0.0705808
0.0760473
0.0824624
0.088674
0.0955094
0.102245
0.109173
0.116568
0.123896
0.131309
0.13836
0.145808
0.152698
0.159619
0.166202
0.172839
0.17936
0.185657
0.191876
0.197726
0.20353
0.208747
0.213854
0.218225
0.222503
0.226263
0.229901
0.233332
0.236584
0.239459
0.242232
0.244708
0.246793
0.248971
0.250711
0.252132
0.253598
0.254413
0.255454
0.256477
0.256854
0.257497
0.257957
0.258439
0.258853
0.25897
0.259161
0.259213
0.259254
0.258977
0.258704
0.258522
0.25831
0.258093
0.257791
0.257516
0.257216
0.256873
0.25654
0.256203
0.255874
0.255545
0.255206
0.254884
0.254581
0.254265
0.253956
0.253651
0.253369
0.253089
0.252775
0.252299
0.251755
0.251243
0.250787
0.250399
0.250053
0.249759
0.249575
0.249441
0.249119
0.248806
0.248523
0.248289
0.248109
0.24794
0.247798
0.247631
0.247481
0.247301
0.247118
0.246928
0.246738
0.246536
0.246349
0.246166
0.246
0.245837
0.245692
0.245539
0.245396
0.245239
0.245091
0.244906
0.244726
0.244511
0.244281
0.244038
0.243797
0.24356
0.243319
0.243103
0.242912
0.242751
0.242613
0.242495
0.242388
0.242291
0.242203
0.242103
0.241997
0.241862
0.241711
0.241529
0.241327
0.241106
0.240874
0.240647
0.240465
0.24031
0.240182
0.240076
0.239981
0.239888
0.239779
0.239648
0.239462
0.239255
0.23903
0.238789
0.238533
0.238281
0.23804
0.237837
0.237676
0.237561
0.237488
0.237446
0.237416
0.23738
0.237333
0.237216
0.237042
0.236822
0.236579
0.236322
0.236063
0.235804
0.235557
0.235326
0.235114
0.234919
0.234739
0.234571
0.234408
0.234261
0.234073
0.233845
0.233627
0.23342
0.23318
0.232954
0.232715
0.232475
0.232218
0.231965
0.231702
0.231404
0.231123
0.230792
0.23042
0.230073
0.229741
0.229405
0.229101
0.228762
0.228382
0.228043
0.227622
0.227187
0.226775
0.226375
0.225943
0.22551
0.225095
0.224656
0.224193
0.22345
0.0315534
0.0314746
0.0313892
0.0312239
0.0309962
0.0307281
0.030413
0.0301222
0.0298487
0.0296048
0.0293971
0.0292242
0.0290837
0.0289724
0.028887
0.028824
0.0287822
0.0287629
0.0287662
0.028795
0.0288531
0.0289504
0.0290836
0.0293007
0.0295651
0.0299485
0.0304155
0.0310589
0.0318053
0.0328045
0.0339498
0.0354263
0.0371196
0.0392565
0.041736
0.0447775
0.047726
0.0513302
0.0559947
0.0604653
0.0658862
0.0711384
0.0774028
0.0834031
0.0901714
0.0968919
0.103855
0.110998
0.117898
0.125567
0.132809
0.14027
0.14735
0.1545
0.16151
0.168165
0.174951
0.181108
0.187886
0.193923
0.200347
0.205959
0.211888
0.216722
0.221829
0.226025
0.230521
0.234298
0.238158
0.241414
0.244643
0.247467
0.250321
0.252795
0.2552
0.257586
0.259071
0.260835
0.262533
0.263296
0.26452
0.265747
0.26633
0.267165
0.267837
0.268483
0.269081
0.269432
0.269823
0.270017
0.270237
0.270172
0.270126
0.270153
0.270128
0.270134
0.270024
0.269945
0.269777
0.269573
0.269348
0.269072
0.268795
0.268493
0.268178
0.267873
0.267567
0.267236
0.2669
0.266563
0.266225
0.265863
0.265405
0.264749
0.264085
0.263472
0.262944
0.262499
0.262139
0.261754
0.261409
0.261033
0.260499
0.259993
0.259527
0.259125
0.258802
0.258519
0.258277
0.258001
0.257738
0.257419
0.257096
0.256769
0.256446
0.256116
0.255798
0.255491
0.255201
0.25491
0.254638
0.254361
0.254095
0.253827
0.253567
0.253269
0.252984
0.252664
0.252331
0.251997
0.251646
0.251308
0.250976
0.25067
0.250389
0.250137
0.249905
0.249691
0.249489
0.249299
0.24912
0.248937
0.248756
0.248561
0.248359
0.248126
0.247875
0.247604
0.247309
0.24702
0.246763
0.24653
0.246319
0.246131
0.245962
0.245801
0.245632
0.245449
0.245214
0.244959
0.244686
0.2444
0.244098
0.243797
0.243503
0.243246
0.24303
0.242865
0.24274
0.242648
0.242572
0.242487
0.2424
0.242246
0.24204
0.241786
0.24151
0.24122
0.240926
0.240632
0.240348
0.240078
0.239823
0.239587
0.239364
0.239157
0.238953
0.238769
0.238558
0.238302
0.238057
0.237825
0.237558
0.237304
0.237032
0.23676
0.236471
0.236185
0.235893
0.235562
0.235251
0.234902
0.234503
0.234125
0.233762
0.233387
0.233047
0.232683
0.232261
0.231886
0.231436
0.230969
0.230519
0.230088
0.229631
0.229169
0.228724
0.228259
0.227767
0.226984
0.0314983
0.0314268
0.0313324
0.0311499
0.030912
0.0306204
0.0303119
0.0300225
0.0297529
0.0295155
0.0293141
0.0291468
0.0290102
0.0289008
0.0288161
0.0287529
0.0287104
0.0286889
0.0286906
0.0287196
0.0287797
0.0288873
0.0290345
0.0292797
0.0295913
0.0300564
0.0306163
0.0314031
0.032316
0.0335454
0.0349635
0.0367758
0.038895
0.0415342
0.0443533
0.0480127
0.0516332
0.0557196
0.0609883
0.0659994
0.0719586
0.077712
0.0842606
0.0905726
0.0974055
0.104293
0.111068
0.118148
0.12509
0.132461
0.139623
0.146622
0.153726
0.160276
0.167344
0.173596
0.180456
0.186458
0.19313
0.198952
0.205384
0.210837
0.216671
0.221262
0.226309
0.230426
0.235123
0.238933
0.242982
0.245929
0.249173
0.251777
0.254706
0.257096
0.259794
0.26225
0.263553
0.265382
0.267045
0.267967
0.26941
0.270557
0.271374
0.272453
0.273135
0.273844
0.274562
0.275067
0.275624
0.275914
0.276275
0.27643
0.276634
0.276886
0.277054
0.277294
0.277444
0.277626
0.277703
0.277768
0.277787
0.27773
0.277676
0.27758
0.277497
0.277422
0.277321
0.277195
0.277063
0.276914
0.276727
0.276464
0.27603
0.275431
0.274874
0.274382
0.273976
0.273645
0.273406
0.273084
0.272645
0.272113
0.271473
0.270866
0.270303
0.269808
0.269404
0.269056
0.268768
0.268424
0.268094
0.267671
0.267237
0.266804
0.266372
0.265937
0.265505
0.265089
0.26469
0.264282
0.263891
0.263491
0.263106
0.262727
0.262357
0.261952
0.261552
0.261118
0.260675
0.260231
0.259781
0.259347
0.258924
0.258525
0.258149
0.257801
0.257473
0.257153
0.256849
0.256554
0.256272
0.255999
0.255737
0.255473
0.255211
0.254925
0.254623
0.254297
0.253939
0.253589
0.253254
0.252933
0.252633
0.252356
0.252104
0.251865
0.251628
0.251384
0.251095
0.250788
0.250463
0.250128
0.249777
0.249426
0.249077
0.248763
0.248486
0.248266
0.248081
0.247933
0.247804
0.247665
0.247529
0.247333
0.247092
0.2468
0.246488
0.246162
0.245831
0.245499
0.245174
0.244861
0.244563
0.244282
0.244013
0.243761
0.243513
0.243291
0.243052
0.242768
0.242493
0.242233
0.241936
0.241652
0.241345
0.241038
0.240716
0.240396
0.240075
0.239713
0.23937
0.239002
0.238575
0.238166
0.237771
0.237358
0.236981
0.236589
0.236124
0.235715
0.235234
0.234733
0.234245
0.233783
0.233297
0.232806
0.232329
0.231836
0.231314
0.230489
0.0314256
0.031368
0.0312681
0.031073
0.0308326
0.0305311
0.0302313
0.0299433
0.0296794
0.0294492
0.0292543
0.0290921
0.0289589
0.0288511
0.0287674
0.0287049
0.0286623
0.0286395
0.028642
0.0286768
0.0287428
0.0288717
0.029053
0.0293665
0.0297555
0.0303421
0.0310447
0.032028
0.0331705
0.0346929
0.0364791
0.0386793
0.0412199
0.0444951
0.047603
0.0516541
0.0564696
0.0609717
0.066543
0.0719377
0.0780459
0.084064
0.0904958
0.0967663
0.10347
0.11001
0.116339
0.122234
0.12841
0.134181
0.140746
0.146659
0.153792
0.159741
0.166541
0.172794
0.17966
0.185618
0.192326
0.198169
0.204705
0.20999
0.215919
0.220551
0.225851
0.230142
0.235091
0.238914
0.243143