/*--------------------------------*- C++ -*----------------------------------*\
| =========                 |                                                 |
| \\      /  F ield         | OpenFOAM: The Open Source CFD Toolbox           |
|  \\    /   O peration     | Version:  2312                                  |
|   \\  /    A nd           | Website:  www.openfoam.com                      |
|    \\/     M anipulation  |                                                 |
\*---------------------------------------------------------------------------*/
FoamFile
{
    version     2.0;
    format      ascii;
    arch        "LSB;label=32;scalar=64";
    class       volScalarField;
    location    "0.001";
    object      T;
}
// * * * * * * * * * * * * * * * * * * * * * * * * * * * * * * * * * * * * * //

dimensions      [0 0 0 1 0 0 0];

internalField   nonuniform List<scalar> 
48128
(
356.407
356.417
356.393
356.237
355.682
354.172
352.02
350.592
349.332
348.231
347.096
345.848
344.525
343.258
342.084
340.967
339.914
338.929
337.981
337.048
336.152
335.304
334.516
333.804
333.185
332.676
332.298
332.071
331.981
331.969
332.138
332.497
332.992
333.604
334.334
335.186
336.14
337.156
338.257
339.354
340.454
341.575
342.65
343.669
344.582
345.419
346.162
346.805
347.317
347.674
347.849
347.872
347.734
347.445
347.006
346.44
345.771
345.005
344.151
343.224
342.232
341.182
340.073
338.909
337.67
336.356
334.993
333.564
332.143
330.696
329.283
327.89
326.487
325.109
323.715
322.331
321.008
319.668
318.369
317.056
315.784
314.561
313.418
312.31
311.241
310.239
309.267
308.321
307.425
306.572
305.757
305.018
304.278
303.552
302.853
302.184
301.562
300.993
300.47
299.987
299.53
299.1
298.69
298.305
297.939
297.576
297.212
296.869
296.545
296.232
295.93
295.636
295.359
295.108
294.835
294.537
294.215
293.849
293.331
293.343
293.24
293.06
293.13
293.096
293.026
292.933
292.826
292.722
292.65
292.583
292.578
292.553
292.567
292.553
292.524
292.487
292.446
292.404
292.37
292.342
292.321
292.303
292.29
292.277
292.261
292.242
292.222
292.201
292.181
292.159
292.145
292.128
292.129
292.152
292.19
292.247
292.331
292.441
292.569
292.679
292.789
292.858
292.916
292.95
292.947
292.953
292.959
292.975
293.006
293.057
293.128
293.219
293.331
293.449
293.546
293.627
293.681
293.731
293.762
293.771
293.778
293.789
293.806
293.832
293.87
293.923
293.994
294.09
294.204
294.331
294.464
294.586
294.706
294.801
294.856
294.9
294.929
294.952
294.978
295.009
295.049
295.098
295.157
295.221
295.293
295.354
295.418
295.48
295.496
295.527
295.562
295.602
295.657
295.717
295.785
295.855
295.932
295.997
296.056
296.128
296.172
296.224
296.312
296.412
296.52
296.651
296.787
296.885
297.04
297.205
297.3
297.444
297.617
297.81
298.009
298.247
298.515
298.798
299.116
299.591
356.052
356.111
356.128
355.996
355.015
353.179
351.057
349.291
347.786
346.211
344.276
342.168
340.193
338.45
336.895
335.493
334.262
333.191
332.239
331.373
330.612
329.962
329.437
329.049
328.811
328.719
328.723
328.936
329.334
329.876
330.585
331.44
332.428
333.532
334.729
336.004
337.333
338.669
339.999
341.267
342.465
343.59
344.591
345.448
346.136
346.665
347.029
347.212
347.212
347.002
346.592
345.99
345.192
344.219
343.09
341.824
340.456
338.993
337.445
335.809
334.098
332.326
330.497
328.619
326.682
324.705
322.719
320.69
318.7
316.711
314.769
312.867
310.982
309.151
307.332
305.537
303.822
302.108
300.439
298.787
297.16
295.599
294.11
292.671
291.271
289.937
288.658
287.406
286.209
285.075
283.969
282.945
281.934
280.937
279.978
279.046
278.159
277.326
276.545
275.816
275.119
274.461
273.824
273.223
272.64
272.072
271.508
270.967
270.452
269.95
269.469
268.995
268.545
268.123
267.685
267.22
266.726
266.177
265.486
265.256
264.931
264.532
264.399
264.209
263.983
263.732
263.468
263.199
262.974
262.755
262.614
262.461
262.366
262.258
262.138
262.006
261.865
261.717
261.567
261.419
261.279
261.142
261.012
260.881
260.75
260.618
260.486
260.353
260.219
260.081
259.944
259.806
259.662
259.557
259.466
259.377
259.332
259.33
259.346
259.37
259.394
259.422
259.436
259.461
259.452
259.459
259.454
259.449
259.442
259.447
259.464
259.497
259.548
259.604
259.645
259.679
259.712
259.738
259.76
259.77
259.785
259.804
259.831
259.866
259.911
259.97
260.048
260.155
260.283
260.429
260.584
260.744
260.896
261.018
261.12
261.214
261.3
261.387
261.479
261.578
261.689
261.816
261.96
262.12
262.294
262.471
262.661
262.839
262.965
263.102
263.24
263.366
263.503
263.646
263.796
263.951
264.119
264.297
264.485
264.679
264.881
265.048
265.231
265.414
265.584
265.768
265.962
266.102
266.286
266.518
266.64
266.813
267.027
267.267
267.492
267.747
268.031
268.319
268.634
269.117
355.563
355.723
355.819
355.336
353.716
351.462
349.411
347.701
345.963
344.217
342.495
340.878
339.386
338.052
336.871
335.816
334.912
334.153
333.498
332.927
332.455
332.089
331.838
331.717
331.689
331.789
332.047
332.486
333.083
333.808
334.662
335.622
336.661
337.761
338.916
340.101
341.294
342.448
343.539
344.523
345.378
346.102
346.66
347.021
347.174
347.111
346.833
346.35
345.656
344.751
343.643
342.356
340.869
339.216
337.424
335.508
333.521
331.47
329.376
327.229
325.042
322.832
320.595
318.347
316.063
313.783
311.517
309.236
307.034
304.853
302.751
300.696
298.678
296.734
294.812
292.955
291.197
289.448
287.751
286.082
284.439
282.879
281.391
279.95
278.535
277.183
275.882
274.612
273.404
272.261
271.149
270.113
269.093
268.092
267.13
266.191
265.292
264.44
263.642
262.893
262.175
261.497
260.841
260.22
259.615
259.023
258.437
257.874
257.336
256.812
256.312
255.816
255.349
254.905
254.444
253.96
253.444
252.885
252.2
251.924
251.562
251.136
250.924
250.668
250.383
250.082
249.774
249.463
249.207
248.954
248.78
248.597
248.471
248.333
248.187
248.033
247.871
247.703
247.533
247.362
247.199
247.04
246.889
246.737
246.585
246.433
246.281
246.128
245.972
245.813
245.65
245.484
245.311
245.169
245.041
244.91
244.826
244.756
244.732
244.714
244.696
244.685
244.67
244.66
244.637
244.625
244.609
244.594
244.576
244.571
244.577
244.595
244.63
244.669
244.699
244.724
244.746
244.768
244.783
244.792
244.805
244.82
244.841
244.867
244.901
244.947
245.01
245.1
245.212
245.345
245.492
245.645
245.802
245.942
246.065
246.183
246.294
246.406
246.522
246.644
246.777
246.923
247.085
247.262
247.453
247.65
247.858
248.068
248.233
248.41
248.59
248.765
248.948
249.137
249.332
249.533
249.743
249.962
250.191
250.429
250.675
250.895
251.13
251.367
251.59
251.822
252.064
252.247
252.469
252.732
252.892
253.092
253.325
253.58
253.82
254.089
254.382
254.679
254.999
255.488
355.135
355.369
355.267
354.122
351.928
349.769
348.04
346.463
345.017
343.711
342.438
341.201
340.069
339.049
338.176
337.429
336.799
336.287
335.85
335.483
335.199
335.005
334.923
334.914
335.011
335.256
335.647
336.181
336.837
337.598
338.455
339.386
340.368
341.38
342.41
343.423
344.393
345.271
346.034
346.635
347.035
347.241
347.243
347.005
346.495
345.72
344.673
343.406
341.912
340.224
338.327
336.285
334.045
331.67
329.188
326.605
324.009
321.393
318.798
316.193
313.605
311.047
308.505
305.998
303.479
301.016
298.59
296.207
293.939
291.711
289.603
287.551
285.553
283.649
281.768
279.995
278.34
276.696
275.11
273.544
272.007
270.56
269.19
267.864
266.55
265.299
264.089
262.91
261.802
260.752
259.735
258.787
257.854
256.945
256.074
255.218
254.398
253.618
252.893
252.211
251.556
250.938
250.341
249.777
249.225
248.683
248.146
247.629
247.133
246.652
246.195
245.738
245.316
244.906
244.48
244.035
243.555
243.044
242.428
242.16
241.821
241.446
241.206
240.942
240.656
240.356
240.054
239.748
239.504
239.261
239.096
238.927
238.809
238.683
238.55
238.408
238.259
238.103
237.944
237.781
237.626
237.476
237.333
237.19
237.048
236.907
236.767
236.624
236.479
236.33
236.175
236.016
235.849
235.706
235.574
235.438
235.348
235.26
235.218
235.188
235.158
235.136
235.111
235.094
235.065
235.052
235.038
235.025
235.009
235.009
235.013
235.027
235.056
235.088
235.113
235.137
235.158
235.18
235.198
235.214
235.233
235.255
235.281
235.31
235.344
235.386
235.441
235.521
235.621
235.743
235.877
236.022
236.17
236.315
236.446
236.578
236.705
236.833
236.965
237.102
237.25
237.409
237.584
237.771
237.97
238.176
238.391
238.61
238.793
238.988
239.187
239.387
239.595
239.811
240.033
240.261
240.499
240.743
240.997
241.26
241.532
241.783
242.048
242.319
242.579
242.847
243.124
243.341
243.593
243.88
244.069
244.292
244.543
244.813
245.067
245.346
245.647
245.952
246.279
246.773
354.823
354.936
354.321
352.565
350.459
348.66
347.151
345.874
344.82
343.918
342.961
342.061
341.265
340.565
339.964
339.446
339.007
338.665
338.379
338.149
337.991
337.919
337.909
337.983
338.176
338.499
338.949
339.515
340.184
340.934
341.752
342.611
343.486
344.349
345.177
345.93
346.582
347.065
347.376
347.455
347.235
346.744
345.975
344.917
343.504
341.759
339.685
337.399
334.875
332.212
329.342
326.393
323.281
320.069
316.801
313.492
310.246
307.088
304.011
301.026
298.106
295.308
292.566
289.943
287.326
284.84
282.409
280.074
277.912
275.796
273.854
271.969
270.162
268.469
266.782
265.229
263.803
262.387
261.033
259.677
258.353
257.112
255.958
254.839
253.721
252.668
251.639
250.634
249.705
248.817
247.963
247.163
246.381
245.627
244.904
244.19
243.509
242.861
242.264
241.7
241.158
240.651
240.162
239.699
239.245
238.798
238.353
237.925
237.512
237.113
236.738
236.36
236.018
235.676
235.318
234.949
234.54
234.114
233.606
233.372
233.088
232.802
232.561
232.328
232.074
231.81
231.543
231.27
231.064
230.857
230.721
230.591
230.505
230.414
230.316
230.209
230.094
229.971
229.843
229.709
229.58
229.455
229.336
229.221
229.105
228.991
228.877
228.762
228.644
228.522
228.393
228.259
228.116
227.991
227.874
227.752
227.672
227.59
227.547
227.522
227.494
227.478
227.456
227.447
227.427
227.425
227.424
227.425
227.423
227.434
227.447
227.468
227.499
227.53
227.557
227.584
227.609
227.635
227.66
227.687
227.718
227.755
227.794
227.835
227.878
227.926
227.983
228.061
228.156
228.271
228.399
228.536
228.678
228.822
228.957
229.096
229.236
229.377
229.521
229.672
229.833
230.006
230.192
230.389
230.598
230.811
231.034
231.259
231.453
231.658
231.868
232.083
232.306
232.539
232.78
233.027
233.284
233.549
233.822
234.105
234.396
234.671
234.959
235.254
235.544
235.839
236.144
236.392
236.669
236.978
237.193
237.439
237.708
237.995
238.262
238.554
238.866
239.18
239.514
240.018
354.614
354.407
353.235
351.337
349.462
347.926
346.703
345.781
345.082
344.416
343.77
343.186
342.671
342.217
341.821
341.473
341.176
340.956
340.777
340.653
340.594
340.586
340.643
340.793
341.054
341.426
341.906
342.478
343.125
343.825
344.557
345.282
345.974
346.595
347.108
347.46
347.632
347.532
347.179
346.477
345.35
343.831
341.92
339.624
336.837
333.668
330.12
326.44
322.578
318.649
314.618
310.535
306.514
302.354
298.17
294.204
290.269
286.729
283.236
280.086
276.967
274.159
271.39
268.895
266.398
264.132
261.915
259.849
258.007
256.215
254.646
253.12
251.708
250.424
249.107
247.937
246.879
245.838
244.858
243.838
242.86
241.951
241.134
240.336
239.534
238.784
238.024
237.279
236.607
235.952
235.327
234.736
234.168
233.63
233.111
232.597
232.113
231.646
231.224
230.819
230.429
230.071
229.728
229.403
229.084
228.766
228.45
228.145
227.849
227.568
227.303
227.037
226.8
226.555
226.293
226.029
225.721
225.406
225.036
224.851
224.656
224.478
224.271
224.093
223.896
223.691
223.482
223.268
223.121
222.971
222.882
222.81
222.772
222.733
222.688
222.635
222.572
222.499
222.418
222.33
222.242
222.157
222.075
222
221.922
221.847
221.772
221.697
221.617
221.534
221.443
221.346
221.241
221.146
221.059
220.966
220.908
220.846
220.818
220.807
220.793
220.789
220.787
220.793
220.793
220.811
220.833
220.86
220.88
220.91
220.941
220.977
221.019
221.057
221.092
221.127
221.162
221.196
221.233
221.275
221.322
221.377
221.438
221.497
221.556
221.618
221.685
221.769
221.868
221.983
222.108
222.244
222.384
222.527
222.667
222.812
222.962
223.115
223.273
223.438
223.612
223.797
223.995
224.204
224.423
224.647
224.879
225.111
225.316
225.529
225.748
225.973
226.207
226.452
226.706
226.969
227.24
227.52
227.81
228.11
228.417
228.714
229.02
229.335
229.649
229.968
230.296
230.572
230.871
231.198
231.44
231.707
231.994
232.298
232.582
232.886
233.21
233.535
233.879
234.394
354.446
353.928
352.344
350.461
348.807
347.522
346.599
345.993
345.532
345.107
344.728
344.391
344.089
343.812
343.563
343.348
343.169
343.054
342.975
342.939
342.939
342.99
343.111
343.318
343.619
344.012
344.487
345.025
345.602
346.188
346.756
347.257
347.643
347.864
347.894
347.617
347.017
346.014
344.575
342.614
340.022
336.878
333.174
329.042
324.304
319.234
313.89
308.44
303.233
297.844
292.818
287.558
282.823
277.97
272.938
268.702
264.269
260.732
257.021
254.042
250.923
248.405
245.805
243.699
241.489
239.636
237.769
236.135
234.719
233.397
232.317
231.27
230.362
229.569
228.763
228.07
227.492
226.934
226.444
225.884
225.342
224.917
224.514
224.16
223.759
223.43
223.034
222.627
222.304
221.96
221.634
221.321
221.026
220.773
220.531
220.271
220.032
219.791
219.584
219.373
219.174
219.002
218.835
218.683
218.53
218.375
218.221
218.072
217.921
217.783
217.655
217.523
217.414
217.287
217.139
217.005
216.818
216.636
216.422
216.308
216.235
216.158
216.026
215.917
215.795
215.664
215.539
215.403
215.333
215.259
215.231
215.232
215.249
215.275
215.3
215.315
215.316
215.307
215.291
215.26
215.229
215.194
215.162
215.137
215.108
215.083
215.057
215.031
215
214.966
214.922
214.874
214.816
214.763
214.715
214.665
214.638
214.608
214.607
214.616
214.626
214.643
214.669
214.698
214.731
214.777
214.829
214.889
214.939
214.998
215.054
215.113
215.173
215.225
215.275
215.325
215.375
215.424
215.477
215.537
215.605
215.682
215.767
215.851
215.932
216.015
216.1
216.197
216.306
216.428
216.558
216.696
216.84
216.985
217.132
217.286
217.446
217.612
217.785
217.964
218.152
218.352
218.563
218.785
219.016
219.252
219.496
219.738
219.956
220.178
220.407
220.641
220.884
221.138
221.404
221.678
221.962
222.256
222.559
222.874
223.196
223.513
223.835
224.168
224.504
224.842
225.191
225.493
225.811
226.154
226.421
226.71
227.014
227.335
227.636
227.955
228.291
228.628
228.982
229.512
354.316
353.439
351.645
349.85
348.417
347.383
346.724
346.359
346.106
345.894
345.727
345.566
345.411
345.269
345.143
345.04
344.974
344.949
344.941
344.961
345.017
345.119
345.283
345.518
345.826
346.199
346.621
347.064
347.496
347.874
348.154
348.284
348.175
347.755
346.949
345.602
343.678
341.157
337.997
334.127
329.346
323.917
317.841
311.4
304.685
297.561
290.767
283.552
277.548
271.007
265.439
259.507
254.283
249.266
243.877
239.875
235.493
232.303
228.849
226.27
223.494
221.461
219.279
217.685
215.916
214.543
213.111
211.95
210.913
210.136
209.395
208.844
208.306
207.944
207.661
207.287
207.192
206.98
206.936
206.87
206.66
206.777
206.692
206.839
206.765
206.9
206.908
206.856
206.949
206.968
206.99
207.018
207.014
207.098
207.184
207.215
207.259
207.286
207.327
207.349
207.372
207.417
207.46
207.515
207.557
207.598
207.631
207.659
207.677
207.701
207.732
207.75
207.796
207.799
207.783
207.783
207.737
207.722
207.661
207.655
207.709
207.727
207.706
207.674
207.641
207.596
207.577
207.537
207.556
207.575
207.618
207.687
207.779
207.879
207.986
208.076
208.163
208.219
208.28
208.312
208.349
208.377
208.407
208.438
208.47
208.501
208.533
208.564
208.59
208.612
208.623
208.631
208.627
208.626
208.629
208.629
208.64
208.657
208.685
208.722
208.765
208.813
208.874
208.935
209.005
209.085
209.173
209.271
209.358
209.455
209.54
209.631
209.715
209.788
209.86
209.93
210.001
210.071
210.144
210.227
210.317
210.419
210.532
210.646
210.756
210.865
210.973
211.089
211.215
211.349
211.489
211.637
211.788
211.943
212.099
212.263
212.436
212.616
212.805
213
213.205
213.42
213.646
213.882
214.128
214.377
214.636
214.891
215.124
215.357
215.597
215.843
216.094
216.359
216.634
216.92
217.215
217.522
217.837
218.164
218.501
218.837
219.175
219.525
219.881
220.236
220.603
220.93
221.265
221.623
221.915
222.224
222.545
222.883
223.201
223.535
223.883
224.233
224.598
225.143
354.095
352.948
351.127
349.454
348.226
347.416
346.992
346.826
346.729
346.689
346.67
346.644
346.611
346.578
346.556
346.549
346.561
346.601
346.649
346.716
346.81
346.94
347.116
347.343
347.613
347.911
348.212
348.472
348.644
348.666
348.459
347.924
346.952
345.413
343.2
340.105
336.103
331.368
325.827
319.517
312.076
304.066
295.942
287.236
279.365
270.586
263.172
254.712
248.569
241.651
236.148
230.374
225.25
220.804
215.962
212.493
208.794
206.05
203.424
201.232
199.234
197.62
196.131
194.926
193.76
192.71
191.829
191.002
190.344
190.063
189.428
189.381
188.912
188.94
188.968
188.729
189.013
188.873
189.127
189.354
189.349
189.746
189.848
190.257
190.415
190.772
191.108
191.306
191.632
191.931
192.226
192.532
192.781
193.123
193.485
193.802
194.108
194.409
194.697
194.958
195.22
195.489
195.757
196.027
196.278
196.523
196.756
196.974
197.175
197.376
197.577
197.766
197.964
198.118
198.252
198.379
198.503
198.656
198.764
198.879
199.054
199.211
199.292
199.349
199.414
199.474
199.563
199.642
199.75
199.866
199.997
200.147
200.315
200.493
200.68
200.857
201.027
201.165
201.306
201.414
201.526
201.623
201.72
201.817
201.914
202.009
202.104
202.197
202.284
202.369
202.441
202.514
202.569
202.626
202.685
202.74
202.799
202.863
202.931
203.007
203.088
203.175
203.273
203.374
203.486
203.606
203.733
203.872
204
204.141
204.262
204.389
204.503
204.603
204.702
204.799
204.895
204.991
205.09
205.198
205.315
205.445
205.586
205.733
205.877
206.017
206.153
206.293
206.44
206.593
206.749
206.91
207.074
207.241
207.41
207.587
207.775
207.972
208.178
208.392
208.614
208.846
209.089
209.342
209.603
209.869
210.143
210.416
210.666
210.913
211.167
211.425
211.688
211.963
212.248
212.545
212.85
213.17
213.497
213.837
214.188
214.542
214.896
215.262
215.636
216.007
216.391
216.741
217.093
217.466
217.782
218.11
218.449
218.803
219.138
219.486
219.848
220.211
220.586
221.147
353.756
352.551
350.756
349.215
348.164
347.567
347.364
347.324
347.349
347.435
347.531
347.609
347.672
347.729
347.786
347.85
347.923
348.007
348.091
348.183
348.291
348.419
348.568
348.739
348.912
349.054
349.129
349.069
348.784
348.162
347.089
345.413
343.006
339.678
335.345
329.771
323.026
315.588
307.538
298.717
289.152
278.844
269.763
259.354
251.288
241.806
234.622
226.073
220.393
213.848
209.014
203.988
199.709
196.041
192.521
189.501
187.038
184.664
183.162
181.298
180.301
178.93
178.287
177.227
176.812
175.812
175.652
174.922
174.757
174.676
174.248
174.473
174.011
174.343
174.32
174.356
174.747
174.574
174.97
175.194
175.284
175.778
175.899
176.363
176.606
177.015
177.444
177.736
178.155
178.533
178.936
179.346
179.726
180.195
180.676
181.156
181.611
182.076
182.524
182.951
183.382
183.814
184.245
184.677
185.09
185.497
185.898
186.284
186.65
187.017
187.376
187.731
188.071
188.359
188.643
188.911
189.209
189.525
189.819
190.077
190.37
190.649
190.835
191.004
191.176
191.347
191.543
191.739
191.949
192.163
192.386
192.62
192.866
193.124
193.392
193.655
193.908
194.133
194.357
194.546
194.737
194.908
195.079
195.245
195.411
195.573
195.734
195.894
196.044
196.194
196.333
196.47
196.593
196.711
196.831
196.943
197.058
197.17
197.285
197.405
197.531
197.661
197.802
197.947
198.103
198.267
198.438
198.619
198.792
198.977
199.141
199.308
199.456
199.588
199.719
199.845
199.972
200.098
200.226
200.363
200.51
200.671
200.842
201.022
201.204
201.379
201.546
201.714
201.887
202.062
202.238
202.418
202.599
202.782
202.968
203.162
203.367
203.582
203.807
204.041
204.282
204.533
204.794
205.064
205.344
205.627
205.919
206.211
206.482
206.745
207.015
207.288
207.564
207.851
208.147
208.455
208.772
209.104
209.444
209.796
210.163
210.534
210.904
211.285
211.676
212.062
212.464
212.836
213.203
213.591
213.931
214.277
214.632
215.002
215.354
215.717
216.091
216.467
216.854
217.431
353.333
352.155
350.451
349.064
348.196
347.814
347.765
347.801
347.929
348.119
348.3
348.456
348.592
348.715
348.831
348.944
349.054
349.158
349.254
349.346
349.436
349.523
349.597
349.646
349.634
349.502
349.171
348.523
347.423
345.712
343.234
339.796
335.276
329.415
322.316
314.108
304.614
294.312
284.458
273.495
263.052
251.225
242.19
231.332
223.752
214.522
208.226
200.486
195.749
190.003
186.323
182.137
179.257
176.16
174.204
171.578
170.486
168.351
168.061
166.352
166.365
165.079
165.28
164.209
164.557
163.56
164.076
163.36
163.771
163.496
163.673
163.753
163.581
164.066
163.85
164.288
164.596
164.442
164.917
164.945
165.156
165.644
165.676
166.109
166.317
166.649
167.06
167.283
167.682
167.978
168.361
168.729
169.088
169.54
169.987
170.465
170.928
171.404
171.875
172.344
172.821
173.301
173.788
174.28
174.762
175.247
175.731
176.207
176.673
177.142
177.605
178.068
178.507
178.898
179.291
179.689
180.117
180.57
181.015
181.424
181.817
182.186
182.476
182.752
183.031
183.312
183.615
183.92
184.232
184.541
184.854
185.169
185.492
185.825
186.168
186.51
186.845
187.156
187.464
187.734
188.005
188.251
188.497
188.734
188.97
189.199
189.427
189.654
189.868
190.084
190.29
190.492
190.684
190.867
191.051
191.223
191.397
191.56
191.724
191.892
192.066
192.242
192.429
192.622
192.824
193.035
193.252
193.476
193.695
193.925
194.136
194.342
194.53
194.699
194.864
195.024
195.185
195.344
195.505
195.674
195.853
196.045
196.248
196.462
196.682
196.894
197.097
197.296
197.497
197.699
197.897
198.099
198.3
198.503
198.709
198.922
199.147
199.382
199.628
199.882
200.145
200.416
200.696
200.985
201.283
201.586
201.896
202.21
202.506
202.788
203.076
203.365
203.655
203.956
204.264
204.584
204.914
205.259
205.613
205.978
206.36
206.747
207.132
207.529
207.936
208.338
208.756
209.151
209.533
209.934
210.3
210.662
211.033
211.419
211.787
212.164
212.551
212.94
213.337
213.931
352.894
351.745
350.162
348.955
348.298
348.101
348.135
348.248
348.469
348.731
348.972
349.183
349.369
349.536
349.687
349.824
349.945
350.047
350.129
350.19
350.223
350.221
350.149
349.98
349.635
349.002
347.945
346.304
343.898
340.54
336.037
330.161
322.936
314.143
304.166
294.098
282.416
269.475
258.82
246.389
236.206
224.2
215.756
205.523
198.827
190.446
185.387
178.823
175.336
170.502
168.297
164.744
163.411
160.675
160.261
157.937
158.061
156.204
156.798
155.374
156.1
155.025
155.845
154.887
155.817
154.986
155.989
155.429
156.249
155.843
156.59
156.36
156.904
157.25
157.199
157.83
157.877
158.039
158.585
158.403
158.806
159.236
159.185
159.601
159.747
159.963
160.339
160.442
160.785
160.929
161.242
161.472
161.722
162.073
162.369
162.728
163.065
163.43
163.791
164.167
164.558
164.959
165.375
165.801
166.233
166.679
167.132
167.59
168.053
168.523
168.997
169.469
169.924
170.346
170.778
171.234
171.722
172.238
172.749
173.249
173.693
174.116
174.484
174.841
175.204
175.572
175.961
176.356
176.758
177.146
177.538
177.919
178.306
178.702
179.108
179.518
179.924
180.312
180.697
181.044
181.39
181.707
182.025
182.329
182.633
182.926
183.218
183.508
183.785
184.065
184.334
184.602
184.862
185.11
185.356
185.591
185.823
186.039
186.254
186.472
186.693
186.917
187.152
187.393
187.644
187.903
188.166
188.435
188.699
188.973
189.233
189.477
189.707
189.916
190.118
190.314
190.511
190.705
190.901
191.103
191.316
191.54
191.777
192.024
192.281
192.532
192.774
193.005
193.238
193.468
193.691
193.917
194.141
194.367
194.596
194.83
195.076
195.333
195.6
195.877
196.16
196.452
196.753
197.061
197.379
197.702
198.033
198.368
198.692
198.995
199.302
199.61
199.916
200.231
200.553
200.886
201.229
201.589
201.957
202.335
202.732
203.135
203.535
203.946
204.369
204.786
205.221
205.636
206.033
206.446
206.84
207.216
207.603
208.004
208.389
208.78
209.179
209.581
209.99
210.599
352.493
351.333
349.895
348.896
348.45
348.384
348.468
348.661
348.955
349.267
349.547
349.792
350.006
350.192
350.354
350.491
350.599
350.674
350.711
350.706
350.63
350.463
350.138
349.57
348.624
347.136
344.909
341.764
337.502
331.905
324.822
316.016
305.943
294.797
282.513
271.014
258.053
243.445
232.747
219.942
210.485
199.397
191.915
183.04
177.452
170.376
166.611
161.38
159.123
155.152
154.32
151.102
151.16
148.671
149.307
147.407
148.338
146.859
148.061
146.996
148.318
147.492
148.875
148.108
149.551
148.96
150.367
149.99
151.185
150.834
151.945
151.722
152.711
152.781
153.297
153.988
153.78
154.425
154.92
154.742
155.258
155.636
155.608
156.064
156.181
156.323
156.718
156.758
157.087
157.125
157.41
157.526
157.693
157.972
158.127
158.377
158.565
158.805
159.015
159.254
159.501
159.754
160.019
160.288
160.566
160.863
161.17
161.488
161.824
162.174
162.534
162.894
163.25
163.57
163.925
164.324
164.759
165.23
165.713
166.2
166.615
167.025
167.398
167.771
168.157
168.554
168.975
169.406
169.85
170.28
170.712
171.127
171.548
171.978
172.419
172.867
173.32
173.763
174.205
174.611
175.017
175.392
175.77
176.13
176.494
176.84
177.188
177.533
177.867
178.205
178.533
178.86
179.182
179.491
179.796
180.089
180.375
180.643
180.908
181.173
181.442
181.713
181.995
182.282
182.581
182.886
183.194
183.507
183.814
184.129
184.436
184.719
184.99
185.241
185.48
185.714
185.947
186.178
186.409
186.646
186.892
187.15
187.419
187.699
187.991
188.278
188.56
188.825
189.092
189.351
189.601
189.852
190.101
190.352
190.605
190.863
191.131
191.41
191.7
191.998
192.304
192.617
192.937
193.266
193.603
193.948
194.299
194.657
195.009
195.334
195.661
195.989
196.313
196.643
196.979
197.325
197.681
198.052
198.433
198.825
199.236
199.654
200.07
200.495
200.933
201.364
201.813
202.249
202.659
203.083
203.505
203.896
204.298
204.713
205.117
205.521
205.934
206.349
206.769
207.396
352.135
350.939
349.657
348.89
348.617
348.635
348.773
349.037
349.383
349.724
350.025
350.285
350.506
350.689
350.837
350.949
351.018
351.037
350.995
350.869
350.61
350.144
349.357
348.099
346.165
343.361
339.452
334.271
327.663
319.346
309.501
297.988
285.31
272.932
259.236
245.683
232.904
218.28
207.793
195.692
187.22
177.867
171.453
164.422
159.771
154.304
151.436
147.718
146.079
143.463
143.007
140.73
141.382
139.495
140.813
139.301
140.909
139.696
141.556
140.741
142.658
141.917
143.898
143.238
145.208
144.787
146.585
146.303
147.906
147.621
149.078
148.956
150.207
150.133
151.054
151.756
151.671
152.521
152.833
152.904
153.562
153.796
153.915
154.474
154.536
154.697
155.148
155.173
155.519
155.511
155.808
155.893
156.027
156.287
156.383
156.588
156.696
156.884
157.005
157.176
157.342
157.5
157.661
157.807
157.967
158.139
158.309
158.488
158.684
158.885
159.096
159.28
159.47
159.596
159.788
160.033
160.31
160.633
160.96
161.296
161.581
161.858
162.129
162.412
162.715
163.038
163.392
163.764
164.157
164.553
164.944
165.331
165.727
166.136
166.558
166.99
167.433
167.88
168.332
168.756
169.185
169.586
169.991
170.38
170.775
171.154
171.537
171.916
172.287
172.662
173.032
173.402
173.771
174.128
174.48
174.818
175.149
175.461
175.77
176.075
176.384
176.696
177.019
177.347
177.688
178.033
178.382
178.734
179.079
179.43
179.779
180.098
180.405
180.697
180.974
181.242
181.511
181.777
182.043
182.313
182.592
182.881
183.181
183.492
183.815
184.137
184.457
184.756
185.058
185.345
185.622
185.898
186.173
186.45
186.728
187.01
187.302
187.603
187.914
188.234
188.561
188.895
189.235
189.584
189.94
190.305
190.676
191.056
191.434
191.782
192.13
192.478
192.819
193.163
193.512
193.87
194.236
194.617
195.009
195.412
195.836
196.268
196.7
197.139
197.59
198.035
198.496
198.952
199.375
199.811
200.254
200.661
201.078
201.508
201.93
202.349
202.774
203.203
203.636
204.281
351.793
350.589
349.466
348.913
348.775
348.856
349.056
349.377
349.752
350.106
350.411
350.667
350.874
351.031
351.14
351.201
351.204
351.136
350.961
350.624
350.028
349.04
347.469
345.126
341.736
337.118
331.064
323.421
314.182
303.137
290.712
277.366
262.489
249.497
235.091
219.849
208.22
194.86
185.03
174.759
167.344
160.27
154.676
149.503
145.322
141.756
139.326
137.726
136.346
135.839
134.675
134.108
134.258
132.845
134.377
133.411
135.423
134.474
137.034
136.307
138.793
137.98
140.534
139.899
142.364
142.067
144.256
144.001
145.985
145.753
147.51
147.449
148.914
148.835
150.053
150.432
150.788
151.753
151.639
152.293
153.017
152.929
153.42
154.001
153.973
154.239
154.743
154.74
155.107
155.092
155.428
155.52
155.637
155.902
155.981
156.175
156.255
156.431
156.526
156.687
156.827
156.954
157.082
157.179
157.299
157.423
157.536
157.66
157.801
157.932
158.067
158.14
158.234
158.24
158.35
158.503
158.671
158.882
159.073
159.245
159.398
159.496
159.609
159.738
159.888
160.063
160.27
160.5
160.758
161.013
161.275
161.532
161.797
162.077
162.372
162.688
163.025
163.378
163.745
164.109
164.484
164.842
165.212
165.571
165.941
166.303
166.672
167.038
167.405
167.776
168.149
168.526
168.905
169.278
169.646
170.003
170.354
170.687
171.02
171.346
171.678
172.013
172.361
172.714
173.081
173.455
173.831
174.21
174.583
174.959
175.337
175.684
176.02
176.346
176.653
176.951
177.249
177.546
177.843
178.143
178.45
178.766
179.094
179.431
179.781
180.131
180.483
180.815
181.149
181.462
181.765
182.065
182.365
182.668
182.969
183.276
183.59
183.912
184.244
184.584
184.93
185.283
185.642
186.009
186.384
186.768
187.156
187.554
187.955
188.329
188.695
189.063
189.419
189.777
190.136
190.503
190.878
191.267
191.668
192.081
192.514
192.957
193.402
193.854
194.317
194.774
195.246
195.719
196.154
196.604
197.062
197.486
197.918
198.36
198.8
199.233
199.67
200.111
200.556
201.219
351.492
350.293
349.341
348.959
348.922
349.061
349.321
349.679
350.066
350.418
350.713
350.946
351.113
351.219
351.267
351.251
351.16
350.945
350.536
349.826
348.646
346.808
344.044
340.16
334.877
328.05
319.556
309.254
297.308
284.097
269.322
255.025
238.495
225.028
210.692
195.834
185.227
174.092
165.503
157.843
151.608
146.217
141.534
137.596
134.795
133.334
131.442
130.372
128.302
128.043
125.7
126.747
125.078
127.057
127.3
127.697
129.183
129.178
132.361
131.523
134.558
133.605
136.849
136.409
139.524
139.416
142.055
141.811
144.256
144.187
146.324
146.373
148.108
148.08
149.577
149.571
150.641
151.552
151.412
152.306
153
152.945
153.588
154.132
154.047
154.459
154.967