/*--------------------------------*- C++ -*----------------------------------*\
| =========                 |                                                 |
| \\      /  F ield         | OpenFOAM: The Open Source CFD Toolbox           |
|  \\    /   O peration     | Version:  2312                                  |
|   \\  /    A nd           | Website:  www.openfoam.com                      |
|    \\/     M anipulation  |                                                 |
\*---------------------------------------------------------------------------*/
FoamFile
{
    version     2.0;
    format      ascii;
    arch        "LSB;label=32;scalar=64";
    class       volScalarField;
    location    "0.001";
    object      thermo:psiLiqEff;
}
// * * * * * * * * * * * * * * * * * * * * * * * * * * * * * * * * * * * * * //

dimensions      [-2 4 2 0 0 0 0];

internalField   nonuniform List<scalar> 
48128
(
4.04673e-13
4.04661e-13
4.04689e-13
4.04865e-13
4.05498e-13
4.07227e-13
4.09716e-13
4.11385e-13
4.1287e-13
4.14175e-13
4.1553e-13
4.17029e-13
4.18631e-13
4.20175e-13
4.21618e-13
4.22999e-13
4.24309e-13
4.25543e-13
4.26737e-13
4.27918e-13
4.29059e-13
4.30144e-13
4.31158e-13
4.32077e-13
4.3288e-13
4.33542e-13
4.34035e-13
4.34332e-13
4.3445e-13
4.34466e-13
4.34244e-13
4.33775e-13
4.3313e-13
4.32335e-13
4.31392e-13
4.30295e-13
4.29073e-13
4.2778e-13
4.26388e-13
4.25009e-13
4.23636e-13
4.22245e-13
4.20921e-13
4.19672e-13
4.18561e-13
4.17545e-13
4.16649e-13
4.15876e-13
4.15264e-13
4.14837e-13
4.14628e-13
4.146e-13
4.14766e-13
4.1511e-13
4.15635e-13
4.16314e-13
4.1712e-13
4.18046e-13
4.19083e-13
4.20215e-13
4.21433e-13
4.2273e-13
4.24108e-13
4.25565e-13
4.27127e-13
4.28795e-13
4.30541e-13
4.32385e-13
4.34235e-13
4.36135e-13
4.38007e-13
4.39868e-13
4.41758e-13
4.43631e-13
4.45541e-13
4.47454e-13
4.49298e-13
4.51181e-13
4.53023e-13
4.54898e-13
4.56731e-13
4.58507e-13
4.60179e-13
4.61812e-13
4.63398e-13
4.64895e-13
4.66356e-13
4.67787e-13
4.6915e-13
4.70456e-13
4.7171e-13
4.72854e-13
4.74003e-13
4.75137e-13
4.76233e-13
4.77288e-13
4.78273e-13
4.79177e-13
4.80012e-13
4.80784e-13
4.81518e-13
4.8221e-13
4.82872e-13
4.83495e-13
4.84089e-13
4.8468e-13
4.85274e-13
4.85834e-13
4.86365e-13
4.86879e-13
4.87376e-13
4.87861e-13
4.88317e-13
4.88734e-13
4.89186e-13
4.89682e-13
4.90216e-13
4.90828e-13
4.91694e-13
4.91674e-13
4.91848e-13
4.9215e-13
4.92032e-13
4.92089e-13
4.92206e-13
4.92363e-13
4.92543e-13
4.92718e-13
4.92839e-13
4.92951e-13
4.9296e-13
4.93002e-13
4.92978e-13
4.93002e-13
4.93052e-13
4.93114e-13
4.93182e-13
4.93253e-13
4.9331e-13
4.93358e-13
4.93393e-13
4.93423e-13
4.93445e-13
4.93468e-13
4.93495e-13
4.93527e-13
4.93561e-13
4.93597e-13
4.9363e-13
4.93668e-13
4.93691e-13
4.93719e-13
4.93717e-13
4.93678e-13
4.93615e-13
4.93518e-13
4.93376e-13
4.93191e-13
4.92974e-13
4.92789e-13
4.92604e-13
4.92488e-13
4.92391e-13
4.92334e-13
4.92339e-13
4.92329e-13
4.92318e-13
4.92292e-13
4.9224e-13
4.92153e-13
4.92035e-13
4.91882e-13
4.91694e-13
4.91496e-13
4.91334e-13
4.91199e-13
4.91107e-13
4.91024e-13
4.90973e-13
4.90958e-13
4.90946e-13
4.90928e-13
4.90899e-13
4.90856e-13
4.90793e-13
4.90704e-13
4.90586e-13
4.90425e-13
4.90236e-13
4.90023e-13
4.89803e-13
4.89599e-13
4.894e-13
4.89242e-13
4.8915e-13
4.89078e-13
4.8903e-13
4.88992e-13
4.88949e-13
4.88897e-13
4.88831e-13
4.8875e-13
4.88652e-13
4.88545e-13
4.88427e-13
4.88325e-13
4.8822e-13
4.88117e-13
4.88092e-13
4.8804e-13
4.87983e-13
4.87916e-13
4.87826e-13
4.87726e-13
4.87615e-13
4.875e-13
4.87372e-13
4.87264e-13
4.87168e-13
4.8705e-13
4.86978e-13
4.86892e-13
4.86747e-13
4.86583e-13
4.86406e-13
4.8619e-13
4.85968e-13
4.85808e-13
4.85554e-13
4.85285e-13
4.85129e-13
4.84895e-13
4.84613e-13
4.84299e-13
4.83975e-13
4.83588e-13
4.83154e-13
4.82697e-13
4.82184e-13
4.81419e-13
4.05076e-13
4.05009e-13
4.0499e-13
4.0514e-13
4.0626e-13
4.08372e-13
4.10841e-13
4.12917e-13
4.14705e-13
4.16591e-13
4.18933e-13
4.21514e-13
4.23961e-13
4.26146e-13
4.28113e-13
4.29901e-13
4.31485e-13
4.32872e-13
4.34113e-13
4.35247e-13
4.36249e-13
4.37108e-13
4.37805e-13
4.38321e-13
4.38638e-13
4.38761e-13
4.38756e-13
4.38472e-13
4.37942e-13
4.37222e-13
4.36284e-13
4.35158e-13
4.33865e-13
4.32429e-13
4.30882e-13
4.29247e-13
4.27556e-13
4.25869e-13
4.24203e-13
4.22627e-13
4.21149e-13
4.19769e-13
4.18549e-13
4.17511e-13
4.16681e-13
4.16045e-13
4.15608e-13
4.1539e-13
4.1539e-13
4.1564e-13
4.16132e-13
4.16856e-13
4.17819e-13
4.19001e-13
4.20379e-13
4.21936e-13
4.23633e-13
4.2546e-13
4.27412e-13
4.29494e-13
4.31694e-13
4.33996e-13
4.36398e-13
4.38892e-13
4.41495e-13
4.44182e-13
4.46916e-13
4.49745e-13
4.52553e-13
4.55395e-13
4.58205e-13
4.6099e-13
4.63784e-13
4.66531e-13
4.69293e-13
4.7205e-13
4.74716e-13
4.77409e-13
4.80061e-13
4.82715e-13
4.85359e-13
4.87922e-13
4.90393e-13
4.92803e-13
4.95173e-13
4.97452e-13
4.99655e-13
5.01832e-13
5.03931e-13
5.05936e-13
5.07906e-13
5.09746e-13
5.11572e-13
5.13388e-13
5.15148e-13
5.16868e-13
5.18517e-13
5.20074e-13
5.21542e-13
5.22921e-13
5.24246e-13
5.25504e-13
5.26726e-13
5.27885e-13
5.29013e-13
5.30117e-13
5.31219e-13
5.32279e-13
5.33293e-13
5.34286e-13
5.35239e-13
5.36182e-13
5.37081e-13
5.37925e-13
5.38806e-13
5.39745e-13
5.40744e-13
5.41859e-13
5.4327e-13
5.4374e-13
5.44409e-13
5.45229e-13
5.45503e-13
5.45896e-13
5.46364e-13
5.46883e-13
5.4743e-13
5.47992e-13
5.4846e-13
5.48917e-13
5.49211e-13
5.49532e-13
5.4973e-13
5.49958e-13
5.50209e-13
5.50486e-13
5.50783e-13
5.51095e-13
5.5141e-13
5.51723e-13
5.52018e-13
5.52307e-13
5.52582e-13
5.5286e-13
5.53137e-13
5.53418e-13
5.53698e-13
5.53981e-13
5.54267e-13
5.5456e-13
5.54853e-13
5.55149e-13
5.55455e-13
5.55681e-13
5.55876e-13
5.56065e-13
5.56164e-13
5.56166e-13
5.56132e-13
5.56081e-13
5.5603e-13
5.5597e-13
5.55941e-13
5.55887e-13
5.55905e-13
5.55891e-13
5.55902e-13
5.55911e-13
5.55927e-13
5.55917e-13
5.55879e-13
5.5581e-13
5.55701e-13
5.55579e-13
5.55491e-13
5.5542e-13
5.5535e-13
5.55294e-13
5.55246e-13
5.55224e-13
5.55194e-13
5.55152e-13
5.55095e-13
5.55021e-13
5.54925e-13
5.54797e-13
5.54631e-13
5.54404e-13
5.54131e-13
5.5382e-13
5.5349e-13
5.53151e-13
5.52828e-13
5.5257e-13
5.52353e-13
5.52156e-13
5.51974e-13
5.51789e-13
5.51595e-13
5.51387e-13
5.51152e-13
5.50886e-13
5.50582e-13
5.50246e-13
5.49882e-13
5.4951e-13
5.49113e-13
5.4874e-13
5.48479e-13
5.48192e-13
5.47906e-13
5.47642e-13
5.47357e-13
5.47062e-13
5.46751e-13
5.46429e-13
5.46081e-13
5.45714e-13
5.45327e-13
5.44926e-13
5.4451e-13
5.44167e-13
5.43791e-13
5.43417e-13
5.4307e-13
5.42693e-13
5.42297e-13
5.42011e-13
5.41637e-13
5.41166e-13
5.40917e-13
5.40567e-13
5.40135e-13
5.39649e-13
5.39196e-13
5.38681e-13
5.3811e-13
5.37533e-13
5.36902e-13
5.35939e-13
4.05634e-13
4.05451e-13
4.05341e-13
4.05893e-13
4.07751e-13
4.10367e-13
4.12776e-13
4.14806e-13
4.1689e-13
4.19004e-13
4.21111e-13
4.2311e-13
4.2497e-13
4.26646e-13
4.28142e-13
4.29488e-13
4.30648e-13
4.31625e-13
4.32473e-13
4.33215e-13
4.3383e-13
4.34308e-13
4.34637e-13
4.34796e-13
4.34833e-13
4.34701e-13
4.34363e-13
4.33789e-13
4.33012e-13
4.32071e-13
4.30969e-13
4.29736e-13
4.2841e-13
4.27014e-13
4.25558e-13
4.24075e-13
4.22594e-13
4.2117e-13
4.19831e-13
4.18632e-13
4.17596e-13
4.16722e-13
4.16051e-13
4.15619e-13
4.15435e-13
4.1551e-13
4.15844e-13
4.16423e-13
4.17259e-13
4.18354e-13
4.19704e-13
4.21281e-13
4.23119e-13
4.25181e-13
4.27439e-13
4.2988e-13
4.32441e-13
4.35117e-13
4.37883e-13
4.40757e-13
4.43723e-13
4.4676e-13
4.49877e-13
4.53055e-13
4.56328e-13
4.59645e-13
4.62989e-13
4.66403e-13
4.69749e-13
4.7311e-13
4.76395e-13
4.79651e-13
4.82892e-13
4.86055e-13
4.89225e-13
4.92326e-13
4.95298e-13
4.98291e-13
5.0123e-13
5.04155e-13
5.07068e-13
5.09864e-13
5.1256e-13
5.15198e-13
5.17816e-13
5.20341e-13
5.22796e-13
5.25214e-13
5.27535e-13
5.29751e-13
5.31923e-13
5.33963e-13
5.35988e-13
5.37989e-13
5.39927e-13
5.41831e-13
5.43667e-13
5.45418e-13
5.47071e-13
5.4863e-13
5.50131e-13
5.51557e-13
5.52946e-13
5.54265e-13
5.55557e-13
5.56826e-13
5.58088e-13
5.59307e-13
5.60477e-13
5.61622e-13
5.62716e-13
5.63809e-13
5.64839e-13
5.65823e-13
5.66848e-13
5.6793e-13
5.69085e-13
5.70343e-13
5.71893e-13
5.72519e-13
5.73344e-13
5.74315e-13
5.74801e-13
5.75388e-13
5.76042e-13
5.76737e-13
5.77447e-13
5.78167e-13
5.78761e-13
5.7935e-13
5.79754e-13
5.80181e-13
5.80477e-13
5.80798e-13
5.81139e-13
5.81501e-13
5.81881e-13
5.82275e-13
5.82676e-13
5.83079e-13
5.83462e-13
5.83838e-13
5.84196e-13
5.84557e-13
5.84916e-13
5.85278e-13
5.85638e-13
5.86003e-13
5.86374e-13
5.86754e-13
5.87143e-13
5.8754e-13
5.87955e-13
5.88294e-13
5.88603e-13
5.88918e-13
5.8912e-13
5.89288e-13
5.89346e-13
5.89388e-13
5.89431e-13
5.89458e-13
5.89494e-13
5.89518e-13
5.89574e-13
5.89604e-13
5.89642e-13
5.89678e-13
5.89722e-13
5.89733e-13
5.89718e-13
5.89676e-13
5.89592e-13
5.89497e-13
5.89425e-13
5.89364e-13
5.89312e-13
5.89259e-13
5.89221e-13
5.892e-13
5.89171e-13
5.89133e-13
5.89083e-13
5.8902e-13
5.88938e-13
5.88827e-13
5.88676e-13
5.88461e-13
5.88191e-13
5.87871e-13
5.87521e-13
5.87154e-13
5.8678e-13
5.86445e-13
5.86152e-13
5.85871e-13
5.85606e-13
5.8534e-13
5.85066e-13
5.84777e-13
5.84462e-13
5.84116e-13
5.83732e-13
5.83313e-13
5.82863e-13
5.82399e-13
5.81912e-13
5.8142e-13
5.81033e-13
5.80618e-13
5.80198e-13
5.7979e-13
5.79362e-13
5.78924e-13
5.7847e-13
5.78005e-13
5.77518e-13
5.77012e-13
5.76485e-13
5.75937e-13
5.7537e-13
5.74866e-13
5.74329e-13
5.73787e-13
5.73279e-13
5.72749e-13
5.722e-13
5.71786e-13
5.71282e-13
5.70689e-13
5.70328e-13
5.69876e-13
5.69353e-13
5.68779e-13
5.6824e-13
5.6764e-13
5.66986e-13
5.66325e-13
5.65613e-13
5.64531e-13
4.06122e-13
4.05855e-13
4.05971e-13
4.07285e-13
4.09824e-13
4.12354e-13
4.14402e-13
4.16289e-13
4.18034e-13
4.19622e-13
4.21182e-13
4.22709e-13
4.24117e-13
4.25392e-13
4.26491e-13
4.27435e-13
4.28235e-13
4.28887e-13
4.29444e-13
4.29914e-13
4.30279e-13
4.30527e-13
4.30633e-13
4.30645e-13
4.3052e-13
4.30206e-13
4.29704e-13
4.29022e-13
4.28185e-13
4.27221e-13
4.26139e-13
4.2497e-13
4.23744e-13
4.22488e-13
4.21216e-13
4.19974e-13
4.18791e-13
4.17726e-13
4.16804e-13
4.16081e-13
4.15602e-13
4.15355e-13
4.15353e-13
4.15637e-13
4.16249e-13
4.17182e-13
4.18449e-13
4.19994e-13
4.21829e-13
4.23922e-13
4.26299e-13
4.28888e-13
4.31763e-13
4.34855e-13
4.38134e-13
4.416e-13
4.45138e-13
4.48761e-13
4.52414e-13
4.56141e-13
4.59906e-13
4.63689e-13
4.6751e-13
4.7134e-13
4.75253e-13
4.79141e-13
4.83034e-13
4.86921e-13
4.90678e-13
4.94427e-13
4.98025e-13
5.0158e-13
5.05089e-13
5.08481e-13
5.11875e-13
5.15116e-13
5.18179e-13
5.21258e-13
5.24265e-13
5.27265e-13
5.30245e-13
5.33081e-13
5.35793e-13
5.38447e-13
5.41102e-13
5.43654e-13
5.46144e-13
5.48593e-13
5.50915e-13
5.53134e-13
5.553e-13
5.57335e-13
5.59352e-13
5.6133e-13
5.63241e-13
5.65128e-13
5.66952e-13
5.68694e-13
5.70325e-13
5.71868e-13
5.73357e-13
5.74768e-13
5.76139e-13
5.7744e-13
5.7872e-13
5.79981e-13
5.81237e-13
5.8245e-13
5.83619e-13
5.84759e-13
5.85842e-13
5.86934e-13
5.87941e-13
5.88926e-13
5.89952e-13
5.91029e-13
5.92195e-13
5.93439e-13
5.94947e-13
5.95605e-13
5.96441e-13
5.97367e-13
5.97961e-13
5.98616e-13
5.99329e-13
6.00076e-13
6.00832e-13
6.01598e-13
6.02211e-13
6.02823e-13
6.03239e-13
6.03666e-13
6.03964e-13
6.04282e-13
6.04621e-13
6.0498e-13
6.05359e-13
6.05755e-13
6.06161e-13
6.06576e-13
6.0697e-13
6.07355e-13
6.07721e-13
6.08086e-13
6.0845e-13
6.08812e-13
6.09174e-13
6.09541e-13
6.09915e-13
6.10301e-13
6.10699e-13
6.11111e-13
6.11545e-13
6.11914e-13
6.12258e-13
6.12612e-13
6.12846e-13
6.13076e-13
6.13187e-13
6.13264e-13
6.13343e-13
6.13399e-13
6.13465e-13
6.13509e-13
6.13583e-13
6.13619e-13
6.13656e-13
6.13688e-13
6.13732e-13
6.13731e-13
6.13721e-13
6.13684e-13
6.13607e-13
6.13525e-13
6.13458e-13
6.13396e-13
6.13341e-13
6.13285e-13
6.13238e-13
6.13196e-13
6.13146e-13
6.13088e-13
6.13021e-13
6.12945e-13
6.12858e-13
6.12747e-13
6.12603e-13
6.12396e-13
6.12135e-13
6.11821e-13
6.11471e-13
6.11096e-13
6.10713e-13
6.10338e-13
6.1e-13
6.0966e-13
6.09333e-13
6.09003e-13
6.08665e-13
6.08312e-13
6.07933e-13
6.07524e-13
6.07079e-13
6.06601e-13
6.06092e-13
6.05568e-13
6.05022e-13
6.04468e-13
6.04005e-13
6.03512e-13
6.0301e-13
6.02506e-13
6.01981e-13
6.01441e-13
6.00883e-13
6.00312e-13
5.9972e-13
5.9911e-13
5.9848e-13
5.97826e-13
5.97154e-13
5.96533e-13
5.9588e-13
5.95214e-13
5.94576e-13
5.9392e-13
5.93244e-13
5.92715e-13
5.92101e-13
5.91404e-13
5.90946e-13
5.90406e-13
5.89801e-13
5.89149e-13
5.8854e-13
5.87871e-13
5.87149e-13
5.86421e-13
5.85644e-13
5.8447e-13
4.06479e-13
4.0635e-13
4.07055e-13
4.09083e-13
4.11541e-13
4.13665e-13
4.15464e-13
4.16997e-13
4.18272e-13
4.19369e-13
4.2054e-13
4.21646e-13
4.2263e-13
4.23499e-13
4.24247e-13
4.24894e-13
4.25444e-13
4.25874e-13
4.26235e-13
4.26525e-13
4.26724e-13
4.26815e-13
4.26827e-13
4.26734e-13
4.26491e-13
4.26083e-13
4.25518e-13
4.24808e-13
4.23973e-13
4.2304e-13
4.22027e-13
4.20969e-13
4.19896e-13
4.18844e-13
4.17839e-13
4.1693e-13
4.16145e-13
4.15566e-13
4.15194e-13
4.15099e-13
4.15362e-13
4.15951e-13
4.16875e-13
4.18154e-13
4.19874e-13
4.22018e-13
4.24595e-13
4.27472e-13
4.30693e-13
4.34147e-13
4.3793e-13
4.41886e-13
4.4614e-13
4.50618e-13
4.55267e-13
4.60072e-13
4.64886e-13
4.69667e-13
4.74421e-13
4.79126e-13
4.83819e-13
4.88404e-13
4.92981e-13
4.97441e-13
5.01973e-13
5.06355e-13
5.10713e-13
5.14972e-13
5.18978e-13
5.22959e-13
5.26669e-13
5.30319e-13
5.33866e-13
5.37233e-13
5.40631e-13
5.43797e-13
5.46738e-13
5.49688e-13
5.52538e-13
5.55425e-13
5.58271e-13
5.60966e-13
5.63495e-13
5.6597e-13
5.68463e-13
5.70834e-13
5.73168e-13
5.75465e-13
5.77608e-13
5.79669e-13
5.81667e-13
5.83549e-13
5.85401e-13
5.87198e-13
5.88933e-13
5.90653e-13
5.92306e-13
5.93888e-13
5.9535e-13
5.96738e-13
5.98081e-13
5.99342e-13
6.00563e-13
6.01721e-13
6.02862e-13
6.03992e-13
6.05119e-13
6.06209e-13
6.07264e-13
6.08284e-13
6.09249e-13
6.10223e-13
6.11106e-13
6.11995e-13
6.12924e-13
6.13888e-13
6.14958e-13
6.16078e-13
6.17417e-13
6.18036e-13
6.1879e-13
6.19549e-13
6.20191e-13
6.20815e-13
6.21492e-13
6.222e-13
6.2292e-13
6.23653e-13
6.24209e-13
6.2477e-13
6.25138e-13
6.25491e-13
6.25724e-13
6.25971e-13
6.26239e-13
6.26528e-13
6.26841e-13
6.27177e-13
6.27527e-13
6.27893e-13
6.28246e-13
6.28587e-13
6.28914e-13
6.29229e-13
6.29548e-13
6.29861e-13
6.30174e-13
6.30491e-13
6.30817e-13
6.31156e-13
6.31511e-13
6.31882e-13
6.32278e-13
6.32625e-13
6.3295e-13
6.33287e-13
6.3351e-13
6.33739e-13
6.33859e-13
6.33928e-13
6.34006e-13
6.34052e-13
6.34112e-13
6.34137e-13
6.34195e-13
6.342e-13
6.34202e-13
6.34199e-13
6.34204e-13
6.34173e-13
6.34137e-13
6.34079e-13
6.33993e-13
6.33907e-13
6.33832e-13
6.33757e-13
6.33686e-13
6.33615e-13
6.33545e-13
6.33468e-13
6.33382e-13
6.33281e-13
6.33171e-13
6.33057e-13
6.3294e-13
6.32806e-13
6.32647e-13
6.32431e-13
6.32166e-13
6.31848e-13
6.31495e-13
6.31115e-13
6.30724e-13
6.30328e-13
6.29955e-13
6.29572e-13
6.29189e-13
6.28803e-13
6.28406e-13
6.27992e-13
6.27553e-13
6.27082e-13
6.26576e-13
6.2604e-13
6.25473e-13
6.24893e-13
6.24291e-13
6.23684e-13
6.2316e-13
6.22609e-13
6.22045e-13
6.2147e-13
6.20872e-13
6.20251e-13
6.19609e-13
6.1895e-13
6.18269e-13
6.17569e-13
6.16848e-13
6.16101e-13
6.15336e-13
6.14614e-13
6.13862e-13
6.13091e-13
6.12337e-13
6.1157e-13
6.10781e-13
6.1014e-13
6.09425e-13
6.08632e-13
6.08078e-13
6.07448e-13
6.06762e-13
6.0603e-13
6.05349e-13
6.0461e-13
6.03821e-13
6.03026e-13
6.02185e-13
6.00921e-13
4.06719e-13
4.06957e-13
4.08307e-13
4.10512e-13
4.12715e-13
4.14538e-13
4.16e-13
4.17109e-13
4.17954e-13
4.18763e-13
4.1955e-13
4.20263e-13
4.20896e-13
4.21454e-13
4.21942e-13
4.22372e-13
4.2274e-13
4.23013e-13
4.23236e-13
4.23389e-13
4.23462e-13
4.23473e-13
4.23402e-13
4.23215e-13
4.22892e-13
4.2243e-13
4.21838e-13
4.21133e-13
4.20338e-13
4.19482e-13
4.18591e-13
4.17712e-13
4.16877e-13
4.1613e-13
4.15515e-13
4.15094e-13
4.14889e-13
4.15007e-13
4.15429e-13
4.16271e-13
4.1763e-13
4.19475e-13
4.21819e-13
4.24671e-13
4.28185e-13
4.32252e-13
4.36897e-13
4.41823e-13
4.47114e-13
4.52627e-13
4.58427e-13
4.64455e-13
4.70547e-13
4.77022e-13
4.83716e-13
4.90237e-13
4.96885e-13
5.03019e-13
5.09223e-13
5.1495e-13
5.2075e-13
5.26085e-13
5.31451e-13
5.36383e-13
5.4141e-13
5.46056e-13
5.50679e-13
5.55057e-13
5.59022e-13
5.62932e-13
5.664e-13
5.69814e-13
5.73011e-13
5.75949e-13
5.78994e-13
5.81728e-13
5.84221e-13
5.86694e-13
5.89042e-13
5.91507e-13
5.9389e-13
5.96121e-13
5.9814e-13
6.00127e-13
6.02135e-13
6.04029e-13
6.05956e-13
6.07859e-13
6.09587e-13
6.11278e-13
6.12901e-13
6.14445e-13
6.15936e-13
6.17355e-13
6.18729e-13
6.20096e-13
6.2139e-13
6.22642e-13
6.23779e-13
6.24874e-13
6.2593e-13
6.26904e-13
6.27842e-13
6.28731e-13
6.29607e-13
6.30482e-13
6.31353e-13
6.32197e-13
6.3302e-13
6.33801e-13
6.3454e-13
6.35283e-13
6.35947e-13
6.36637e-13
6.37373e-13
6.38117e-13
6.38987e-13
6.39881e-13
6.40934e-13
6.4146e-13
6.42018e-13
6.42528e-13
6.43119e-13
6.43631e-13
6.44196e-13
6.44786e-13
6.45389e-13
6.46008e-13
6.46434e-13
6.46869e-13
6.47128e-13
6.47337e-13
6.47447e-13
6.47561e-13
6.47692e-13
6.47845e-13
6.48029e-13
6.48243e-13
6.48477e-13
6.48735e-13
6.4899e-13
6.49241e-13
6.4948e-13
6.49699e-13
6.49928e-13
6.50147e-13
6.50366e-13
6.50588e-13
6.50822e-13
6.51067e-13
6.51333e-13
6.51618e-13
6.51929e-13
6.52207e-13
6.52466e-13
6.52738e-13
6.52911e-13
6.53093e-13
6.53178e-13
6.53209e-13
6.53251e-13
6.53263e-13
6.53268e-13
6.53251e-13
6.53251e-13
6.53198e-13
6.53134e-13
6.53052e-13
6.52993e-13
6.52904e-13
6.52812e-13
6.52706e-13
6.52582e-13
6.52472e-13
6.52368e-13
6.52264e-13
6.52161e-13
6.5206e-13
6.51953e-13
6.51827e-13
6.51688e-13
6.51527e-13
6.51349e-13
6.51174e-13
6.51002e-13
6.5082e-13
6.50621e-13
6.50376e-13
6.50086e-13
6.4975e-13
6.49382e-13
6.48986e-13
6.48577e-13
6.48161e-13
6.47754e-13
6.4733e-13
6.46896e-13
6.46451e-13
6.45994e-13
6.45518e-13
6.45015e-13
6.44481e-13
6.43911e-13
6.43312e-13
6.42683e-13
6.42043e-13
6.4138e-13
6.40718e-13
6.40135e-13
6.39531e-13
6.38909e-13
6.38274e-13
6.37615e-13
6.36926e-13
6.36211e-13
6.35474e-13
6.34716e-13
6.33933e-13
6.33128e-13
6.32295e-13
6.31445e-13
6.30625e-13
6.29782e-13
6.28916e-13
6.28056e-13
6.27185e-13
6.26292e-13
6.25542e-13
6.24732e-13
6.23849e-13
6.23196e-13
6.22477e-13
6.21708e-13
6.20894e-13
6.20136e-13
6.19325e-13
6.18466e-13
6.17604e-13
6.16697e-13
6.1534e-13
4.06912e-13
4.07508e-13
4.09339e-13
4.11539e-13
4.13491e-13
4.15019e-13
4.16124e-13
4.16854e-13
4.1741e-13
4.17924e-13
4.18384e-13
4.18793e-13
4.19161e-13
4.19499e-13
4.19802e-13
4.20065e-13
4.20285e-13
4.20425e-13
4.20522e-13
4.20566e-13
4.20566e-13
4.20504e-13
4.20356e-13
4.20102e-13
4.19734e-13
4.19255e-13
4.18676e-13
4.18024e-13
4.17326e-13
4.16619e-13
4.15937e-13
4.15337e-13
4.14875e-13
4.14611e-13
4.14576e-13
4.14906e-13
4.15624e-13
4.16829e-13
4.1857e-13
4.20965e-13
4.24175e-13
4.28133e-13
4.32893e-13
4.3833e-13
4.44734e-13
4.51797e-13
4.5949e-13
4.67609e-13
4.7564e-13
4.84246e-13
4.92558e-13
5.0157e-13
5.09966e-13
5.18871e-13
5.28438e-13
5.36769e-13
5.45775e-13
5.53179e-13
5.61167e-13
5.67749e-13
5.74806e-13
5.80632e-13
5.86775e-13
5.91845e-13
5.97262e-13
6.01881e-13
6.06607e-13
6.10806e-13
6.1449e-13
6.17972e-13
6.20846e-13
6.23656e-13
6.26113e-13
6.28277e-13
6.30491e-13
6.32408e-13
6.34014e-13
6.35572e-13
6.36949e-13
6.38528e-13
6.40062e-13
6.41274e-13
6.42425e-13
6.43439e-13
6.4459e-13
6.45539e-13
6.46688e-13
6.47869e-13
6.48812e-13
6.49817e-13
6.50772e-13
6.51693e-13
6.52564e-13
6.5331e-13
6.54027e-13
6.548e-13
6.55511e-13
6.56231e-13
6.56849e-13
6.57479e-13
6.58078e-13
6.58595e-13
6.59097e-13
6.59556e-13
6.60018e-13
6.60484e-13
6.60951e-13
6.61404e-13
6.61862e-13
6.6228e-13
6.62671e-13
6.63073e-13
6.63405e-13
6.63792e-13
6.64244e-13
6.64655e-13
6.65229e-13
6.65787e-13
6.66448e-13
6.66798e-13
6.67024e-13
6.6726e-13
6.67667e-13
6.68005e-13
6.68384e-13
6.6879e-13
6.69178e-13
6.69598e-13
6.69816e-13
6.70048e-13
6.70133e-13
6.70131e-13
6.70079e-13
6.69998e-13
6.69918e-13
6.69872e-13
6.69869e-13
6.69898e-13
6.69948e-13
6.70045e-13
6.70141e-13
6.70251e-13
6.70349e-13
6.70427e-13
6.70518e-13
6.70595e-13
6.70677e-13
6.70757e-13
6.70855e-13
6.70961e-13
6.71098e-13
6.71249e-13
6.7143e-13
6.71596e-13
6.71743e-13
6.71901e-13
6.71987e-13
6.72079e-13
6.72082e-13
6.72056e-13
6.72022e-13
6.71971e-13
6.71888e-13
6.71799e-13
6.71695e-13
6.71551e-13
6.71387e-13
6.71202e-13
6.71046e-13
6.70861e-13
6.70687e-13
6.70501e-13
6.70314e-13
6.70153e-13
6.69996e-13
6.69841e-13
6.69686e-13
6.69533e-13
6.6937e-13
6.69181e-13
6.68973e-13
6.68734e-13
6.68471e-13
6.68209e-13
6.67957e-13
6.67702e-13
6.67439e-13
6.67141e-13
6.66803e-13
6.66428e-13
6.66028e-13
6.65602e-13
6.65162e-13
6.64715e-13
6.64266e-13
6.63796e-13
6.63306e-13
6.628e-13
6.62275e-13
6.61731e-13
6.61159e-13
6.60555e-13
6.59916e-13
6.59248e-13
6.5855e-13
6.57843e-13
6.5711e-13
6.56387e-13
6.55737e-13
6.55076e-13
6.54396e-13
6.537e-13
6.52983e-13
6.5223e-13
6.51449e-13
6.50641e-13
6.4981e-13
6.48949e-13
6.48066e-13
6.47151e-13
6.46218e-13
6.45301e-13
6.44371e-13
6.43414e-13
6.4245e-13
6.41484e-13
6.40492e-13
6.39633e-13
6.38732e-13
6.37763e-13
6.3701e-13
6.362e-13
6.35347e-13
6.34449e-13
6.33611e-13
6.32725e-13
6.31794e-13
6.30861e-13
6.29886e-13
6.28432e-13
4.07061e-13
4.08071e-13
4.10153e-13
4.12258e-13
4.13954e-13
4.15186e-13
4.15976e-13
4.16413e-13
4.16718e-13
4.16974e-13
4.17175e-13
4.1737e-13
4.17557e-13
4.17728e-13
4.17881e-13
4.18005e-13
4.18086e-13
4.18116e-13
4.18126e-13
4.18101e-13
4.18034e-13
4.1791e-13
4.17712e-13
4.17427e-13
4.17055e-13
4.16606e-13
4.16098e-13
4.15567e-13
4.15051e-13
4.146e-13
4.14266e-13
4.14112e-13
4.14242e-13
4.14741e-13
4.15705e-13
4.17326e-13
4.19662e-13
4.22763e-13
4.26716e-13
4.31659e-13
4.37925e-13
4.45266e-13
4.53778e-13
4.63165e-13
4.73374e-13
4.84707e-13
4.96034e-13
5.08658e-13
5.19661e-13
5.32205e-13
5.4337e-13
5.55791e-13
5.67211e-13
5.78628e-13
5.91415e-13
6.01284e-13
6.12473e-13
6.20883e-13
6.30257e-13
6.3744e-13
6.45359e-13
6.51282e-13
6.57764e-13
6.62581e-13
6.68011e-13
6.72285e-13
6.76804e-13
6.80512e-13
6.83858e-13
6.86385e-13
6.88816e-13
6.90633e-13
6.92417e-13
6.93622e-13
6.94566e-13
6.95819e-13
6.96139e-13
6.96854e-13
6.97001e-13
6.97223e-13
6.97933e-13
6.97537e-13
6.97823e-13
6.97328e-13
6.97576e-13
6.97123e-13
6.97095e-13
6.97268e-13
6.96956e-13
6.96894e-13
6.96818e-13
6.96725e-13
6.96738e-13
6.96456e-13
6.96165e-13
6.96062e-13
6.95913e-13
6.95822e-13
6.95686e-13
6.95613e-13
6.95534e-13
6.95383e-13
6.9524e-13
6.95055e-13
6.94916e-13
6.94776e-13
6.94668e-13
6.94573e-13
6.94512e-13
6.94431e-13
6.94327e-13
6.94267e-13
6.94117e-13
6.94106e-13
6.94159e-13
6.94158e-13
6.94314e-13
6.94363e-13
6.94568e-13
6.94587e-13
6.94406e-13
6.94345e-13
6.94415e-13
6.94521e-13
6.94633e-13
6.94782e-13
6.94847e-13
6.94981e-13
6.94919e-13
6.94855e-13
6.94709e-13
6.94479e-13
6.94173e-13
6.93837e-13
6.9348e-13
6.93181e-13
6.92892e-13
6.92704e-13
6.92501e-13
6.92396e-13
6.92271e-13
6.92178e-13
6.92079e-13
6.91977e-13
6.91872e-13
6.91767e-13
6.91661e-13
6.91558e-13
6.91473e-13
6.91399e-13
6.91364e-13
6.91336e-13
6.9135e-13
6.91353e-13
6.91342e-13
6.91342e-13
6.91307e-13
6.91249e-13
6.91158e-13
6.91034e-13
6.90892e-13
6.90733e-13
6.90533e-13
6.90331e-13
6.90098e-13
6.89834e-13
6.89544e-13
6.89223e-13
6.88936e-13
6.88617e-13
6.88338e-13
6.88038e-13
6.87763e-13
6.87522e-13
6.87288e-13
6.87057e-13
6.86826e-13
6.86597e-13
6.86357e-13
6.86088e-13
6.85792e-13
6.85459e-13
6.85094e-13
6.84722e-13
6.84365e-13
6.84011e-13
6.8366e-13
6.83286e-13
6.82879e-13
6.82443e-13
6.81991e-13
6.81515e-13
6.81028e-13
6.80533e-13
6.80032e-13
6.79507e-13
6.78953e-13
6.78376e-13
6.77776e-13
6.77154e-13
6.76504e-13
6.75823e-13
6.75106e-13
6.74361e-13
6.73587e-13
6.72803e-13
6.71992e-13
6.71194e-13
6.70468e-13
6.69742e-13
6.68995e-13
6.68234e-13
6.67456e-13
6.6664e-13
6.65793e-13
6.64916e-13
6.64013e-13
6.63077e-13
6.62116e-13
6.61122e-13
6.60104e-13
6.59091e-13
6.58072e-13
6.57025e-13
6.55961e-13
6.54903e-13
6.53815e-13
6.52846e-13
6.51856e-13
6.50803e-13
6.49947e-13
6.49045e-13
6.48106e-13
6.47123e-13
6.46202e-13
6.45237e-13
6.44233e-13
6.43227e-13
6.42182e-13
6.40628e-13
4.07315e-13
4.08639e-13
4.10758e-13
4.12725e-13
4.1418e-13
4.15146e-13
4.15654e-13
4.15853e-13
4.15969e-13
4.16017e-13
4.1604e-13
4.16071e-13
4.16111e-13
4.1615e-13
4.16177e-13
4.16186e-13
4.16171e-13
4.16123e-13
4.16065e-13
4.15985e-13
4.15873e-13
4.15716e-13
4.15505e-13
4.15234e-13
4.14911e-13
4.14556e-13
4.14197e-13
4.13888e-13
4.13684e-13
4.13658e-13
4.13904e-13
4.14541e-13
4.15702e-13
4.17554e-13
4.20247e-13
4.24071e-13
4.29121e-13
4.35253e-13
4.42656e-13
4.51398e-13
4.62161e-13
4.74337e-13
4.87359e-13
5.02133e-13
5.16282e-13
5.33033e-13
5.48052e-13
5.66256e-13
5.80252e-13
5.96864e-13
6.10776e-13
6.26086e-13
6.40329e-13
6.53224e-13
6.6787e-13
6.78774e-13
6.90801e-13
7.00001e-13
7.09039e-13
7.16762e-13
7.23952e-13
7.29865e-13
7.35406e-13
7.39955e-13
7.44408e-13
7.48464e-13
7.51901e-13
7.55156e-13
7.57768e-13
7.58885e-13
7.61429e-13
7.61619e-13
7.63511e-13
7.63396e-13
7.63285e-13
7.64251e-13
7.63102e-13
7.6367e-13
7.6264e-13
7.61728e-13
7.61749e-13
7.60154e-13
7.59744e-13
7.58111e-13
7.57482e-13
7.56067e-13
7.54736e-13
7.53954e-13
7.52671e-13
7.51497e-13
7.50343e-13
7.49153e-13
7.48186e-13
7.46861e-13
7.45461e-13
7.44242e-13
7.4307e-13
7.41918e-13
7.40819e-13
7.39829e-13
7.38834e-13
7.3782e-13
7.3681e-13
7.35793e-13
7.34851e-13
7.33935e-13
7.33065e-13
7.32254e-13
7.31509e-13
7.30763e-13
7.30019e-13
7.29323e-13
7.28594e-13
7.28025e-13
7.27533e-13
7.2707e-13
7.26616e-13
7.26055e-13
7.25662e-13
7.25239e-13
7.24604e-13
7.24031e-13
7.23735e-13
7.23529e-13
7.23294e-13
7.23078e-13
7.22756e-13
7.22467e-13
7.22076e-13
7.2166e-13
7.21185e-13
7.20646e-13
7.20042e-13
7.19402e-13
7.1873e-13
7.18096e-13
7.17488e-13
7.16998e-13
7.16494e-13
7.16113e-13
7.15715e-13
7.1537e-13
7.15023e-13
7.14681e-13
7.14338e-13
7.14003e-13
7.13667e-13
7.13336e-13
7.1303e-13
7.12731e-13
7.12478e-13
7.12221e-13
7.12026e-13
7.11828e-13
7.11621e-13
7.11428e-13
7.11219e-13
7.10997e-13
7.10756e-13
7.10491e-13
7.10207e-13
7.09903e-13
7.0956e-13
7.09207e-13
7.08818e-13
7.08401e-13
7.07958e-13
7.07477e-13
7.07031e-13
7.06545e-13
7.06125e-13
7.05686e-13
7.05294e-13
7.04946e-13
7.04607e-13
7.04275e-13
7.03944e-13
7.03614e-13
7.03275e-13
7.02905e-13
7.02503e-13
7.02058e-13
7.01577e-13
7.01076e-13
7.00585e-13
7.00109e-13
6.99647e-13
6.99174e-13
6.98676e-13
6.98157e-13
6.97631e-13
6.97086e-13
6.96535e-13
6.95974e-13
6.95406e-13
6.94812e-13
6.94184e-13
6.93526e-13
6.9284e-13
6.9213e-13
6.91392e-13
6.90623e-13
6.89821e-13
6.88989e-13
6.88128e-13
6.87257e-13
6.8636e-13
6.85472e-13
6.84657e-13
6.83855e-13
6.83032e-13
6.82199e-13
6.81353e-13
6.80467e-13
6.79553e-13
6.78605e-13
6.7763e-13
6.76615e-13
6.75576e-13
6.74503e-13
6.73397e-13
6.72286e-13
6.71177e-13
6.70038e-13
6.68875e-13
6.67726e-13
6.6654e-13
6.65463e-13
6.64385e-13
6.63246e-13
6.62283e-13
6.61287e-13
6.60262e-13
6.59193e-13
6.58185e-13
6.57141e-13
6.5606e-13
6.54978e-13
6.53863e-13
6.52205e-13
4.07705e-13
4.09099e-13
4.11193e-13
4.13007e-13
4.14254e-13
4.14966e-13
4.15209e-13
4.15256e-13
4.15227e-13
4.15124e-13
4.15009e-13
4.14916e-13
4.14841e-13
4.14773e-13
4.14705e-13
4.14629e-13
4.14541e-13
4.14441e-13
4.14341e-13
4.14232e-13
4.14104e-13
4.13952e-13
4.13774e-13
4.13572e-13
4.13366e-13
4.13198e-13
4.13109e-13
4.1318e-13
4.13519e-13
4.14257e-13
4.15537e-13
4.17554e-13
4.20484e-13
4.24604e-13
4.3009e-13
4.37361e-13
4.46494e-13
4.57018e-13
4.68983e-13
4.82832e-13
4.98806e-13
5.17247e-13
5.34661e-13
5.56121e-13
5.73974e-13
5.96483e-13
6.14749e-13
6.37998e-13
6.54443e-13
6.74476e-13
6.90077e-13
7.07081e-13
7.22232e-13
7.35748e-13
7.49199e-13
7.61143e-13
7.71165e-13
7.81081e-13
7.87486e-13
7.95586e-13
7.99985e-13
8.06113e-13
8.09023e-13
8.13861e-13
8.15773e-13
8.2041e-13
8.21158e-13
8.24585e-13
8.25363e-13
8.25745e-13
8.27776e-13
8.26705e-13
8.28904e-13
8.27323e-13
8.2743e-13
8.2726e-13
8.2541e-13
8.2623e-13
8.24356e-13
8.23303e-13
8.2288e-13
8.20567e-13
8.20001e-13
8.17846e-13
8.16719e-13
8.1483e-13
8.1286e-13
8.11527e-13
8.09616e-13
8.07902e-13
8.06083e-13
8.04238e-13
8.02538e-13
8.00451e-13
7.98318e-13
7.96205e-13
7.94209e-13
7.92181e-13
7.90234e-13
7.88389e-13
7.86536e-13
7.8469e-13
7.8285e-13
7.8102e-13
7.79278e-13
7.77569e-13
7.75891e-13
7.74284e-13
7.72763e-13
7.71245e-13
7.69768e-13
7.68314e-13
7.66925e-13
7.65749e-13
7.64596e-13
7.63513e-13
7.62309e-13
7.6104e-13
7.5986e-13
7.58829e-13
7.5766e-13
7.56553e-13
7.55815e-13
7.55144e-13
7.54466e-13
7.53793e-13
7.53019e-13
7.5225e-13
7.51427e-13
7.5059e-13
7.49719e-13
7.4881e-13
7.47852e-13
7.46854e-13
7.45821e-13
7.44807e-13
7.43834e-13
7.42972e-13
7.42115e-13
7.41394e-13
7.40667e-13
7.40018e-13
7.39371e-13
7.38739e-13
7.38113e-13
7.37501e-13
7.36896e-13
7.36293e-13
7.35729e-13
7.35167e-13
7.34648e-13
7.34133e-13
7.33676e-13
7.33236e-13
7.32788e-13
7.3237e-13
7.31943e-13
7.31527e-13
7.311e-13
7.30656e-13
7.30191e-13
7.29708e-13
7.2919e-13
7.28654e-13
7.28081e-13
7.2748e-13
7.26853e-13
7.26191e-13
7.25558e-13
7.24884e-13
7.24288e-13
7.2368e-13
7.23144e-13
7.22663e-13
7.2219e-13
7.21733e-13
7.21276e-13
7.20821e-13
7.2036e-13
7.19867e-13
7.19338e-13
7.18764e-13
7.18151e-13
7.17508e-13
7.16859e-13
7.16236e-13
7.15642e-13
7.15045e-13
7.14434e-13
7.13813e-13
7.13193e-13
7.12559e-13
7.11923e-13
7.1128e-13
7.10628e-13
7.0995e-13
7.09235e-13
7.08484e-13
7.07701e-13
7.06891e-13
7.06055e-13
7.05189e-13
7.0429e-13
7.03362e-13
7.02405e-13
7.01436e-13
7.00443e-13
6.99452e-13
6.98531e-13
6.97642e-13
6.96732e-13
6.95816e-13
6.94892e-13
6.93931e-13
6.92944e-13
6.91921e-13
6.90869e-13
6.89773e-13
6.88651e-13
6.87495e-13
6.86295e-13
6.85087e-13
6.83886e-13
6.82651e-13
6.8139e-13
6.80149e-13
6.78863e-13
6.77675e-13
6.76508e-13
6.7528e-13
6.74206e-13
6.73116e-13
6.72004e-13
6.70847e-13
6.6975e-13
6.68624e-13
6.67466e-13
6.66306e-13
6.65119e-13
6.63353e-13
4.08194e-13
4.09559e-13
4.1155e-13
4.13187e-13
4.14216e-13
4.14671e-13
4.1473e-13
4.14687e-13
4.14534e-13
4.14308e-13
4.14093e-13
4.13908e-13
4.13746e-13
4.136e-13
4.13463e-13
4.13329e-13
4.13199e-13
4.13076e-13
4.12962e-13
4.12853e-13
4.12747e-13
4.12644e-13
4.12556e-13
4.12499e-13
4.12513e-13
4.12668e-13
4.13059e-13
4.13827e-13
4.15138e-13
4.17193e-13
4.20205e-13
4.24457e-13
4.30179e-13
4.37833e-13
4.47478e-13
4.59172e-13
4.73484e-13
4.90059e-13
5.07037e-13
5.27365e-13
5.48303e-13
5.74118e-13
5.95538e-13
6.23493e-13
6.44617e-13
6.72355e-13