/*--------------------------------*- C++ -*----------------------------------*\
| =========                 |                                                 |
| \\      /  F ield         | OpenFOAM: The Open Source CFD Toolbox           |
|  \\    /   O peration     | Version:  2312                                  |
|   \\  /    A nd           | Website:  www.openfoam.com                      |
|    \\/     M anipulation  |                                                 |
\*---------------------------------------------------------------------------*/
FoamFile
{
    version     2.0;
    format      ascii;
    arch        "LSB;label=32;scalar=64";
    class       volScalarField;
    location    "0.001";
    object      thermo:psiGasEff;
}
// * * * * * * * * * * * * * * * * * * * * * * * * * * * * * * * * * * * * * //

dimensions      [-2 4 2 0 0 0 0];

internalField   nonuniform List<scalar> 
48128
(
0.01017
0.0101717
0.0102043
0.0102103
0.0102098
0.0102008
0.0102018
0.0102715
0.0103687
0.0105531
0.0107676
0.0109814
0.0111694
0.0113149
0.0114174
0.0114865
0.0115136
0.0115017
0.011458
0.0113859
0.011283
0.011148
0.0109793
0.0107754
0.0105351
0.0102597
0.00994884
0.00959944
0.0092268
0.00883019
0.00841454
0.00798497
0.00754671
0.00710467
0.00666318
0.00622497
0.00580124
0.00538932
0.00499569
0.00462168
0.00426564
0.00393719
0.00362571
0.00334302
0.00307744
0.00283653
0.00261198
0.00241144
0.00222477
0.00205982
0.00190907
0.00177565
0.00165458
0.00154594
0.00144772
0.00135805
0.00127711
0.00120406
0.00113816
0.00107862
0.00102479
0.000976265
0.000932493
0.000893202
0.000857737
0.000825837
0.000797526
0.000771649
0.000749093
0.000727982
0.000709383
0.000692289
0.000676766
0.000663159
0.000650409
0.000639103
0.000628924
0.0006193
0.000611269
0.000603551
0.000597133
0.000590817
0.000585166
0.000579674
0.000574635
0.000570182
0.000565793
0.000561992
0.00055845
0.000555087
0.000551805
0.000548614
0.0005457
0.000543395
0.00054122
0.00053917
0.000537125
0.000535046
0.000532899
0.000530674
0.000528398
0.000526097
0.000523785
0.000521472
0.000519187
0.000517029
0.000515091
0.000513186
0.000511292
0.000509453
0.000507661
0.000505912
0.000504119
0.00050231
0.000500548
0.000499494
0.000499103
0.000499524
0.000500271
0.000498002
0.000497604
0.000496653
0.000494301
0.000492427
0.000490942
0.000489875
0.000489491
0.000489164
0.000488844
0.000488215
0.00048737
0.000486385
0.000485048
0.000483788
0.000482515
0.000481376
0.000480325
0.000479404
0.000478517
0.000477713
0.000476919
0.000476157
0.000475386
0.000474783
0.000474211
0.000473745
0.000473293
0.00047291
0.000472612
0.000472361
0.000472314
0.000472353
0.000472467
0.000472415
0.000472376
0.000472283
0.000472034
0.000471614
0.000471063
0.000470519
0.000470041
0.000469758
0.000469581
0.000469556
0.00046974
0.000469842
0.000470016
0.000470167
0.000470177
0.000470062
0.000469771
0.000469297
0.000468628
0.000467922
0.000467403
0.000467018
0.000466739
0.000466585
0.000466604
0.000466726
0.000466889
0.00046705
0.0004672
0.000467299
0.000467331
0.000467287
0.000467133
0.000466753
0.000466216
0.000465541
0.000464811
0.000464104
0.000463475
0.000463086
0.000462975
0.000462906
0.000462905
0.000462917
0.000462901
0.000462831
0.00046265
0.000462346
0.000461882
0.000461302
0.000460618
0.000459928
0.0004592
0.000458458
0.000458291
0.000458001
0.00045771
0.00045748
0.000457155
0.000456795
0.000456381
0.000455954
0.000455489
0.000454992
0.000454545
0.000454049
0.000453694
0.000453666
0.000453455
0.000453229
0.000453002
0.000452612
0.000452131
0.000452309
0.00045204
0.000451697
0.000452395
0.000452578
0.000452746
0.000453013
0.000453649
0.000454058
0.000454455
0.000455071
0.000455658
0.00045687
0.0101648
0.010166
0.0102013
0.0101986
0.0101794
0.010162
0.01016
0.0102349
0.0103452
0.0105154
0.0107065
0.0108905
0.0110469
0.0111579
0.0112454
0.0113023
0.0113217
0.011306
0.0112622
0.0111932
0.0110967
0.0109711
0.0108141
0.0106236
0.0103972
0.0101396
0.00984724
0.00951984
0.00916708
0.0087878
0.00838978
0.00797629
0.00755346
0.00712433
0.00669513
0.00626598
0.00584828
0.00544135
0.00504878
0.00467528
0.00431898
0.00398796
0.00367304
0.00338554
0.00311614
0.00287056
0.00264171
0.00243623
0.00224445
0.00207486
0.00191991
0.00178233
0.00165789
0.00154576
0.00144449
0.00135213
0.00126867
0.00119332
0.00112532
0.00106382
0.0010082
0.000958009
0.000912757
0.000872119
0.000835675
0.000802878
0.000773603
0.000746848
0.000723348
0.000701449
0.000681996
0.000664115
0.000647916
0.000633601
0.000620324
0.000608444
0.000597626
0.000587504
0.000578882
0.000570703
0.000563751
0.000556908
0.000550667
0.000544633
0.000539101
0.00053409
0.00052923
0.000524955
0.000520908
0.000517114
0.000513375
0.000509714
0.000506394
0.000503635
0.000501005
0.000498511
0.000496028
0.000493526
0.000490976
0.000488383
0.000485769
0.000483164
0.000480561
0.000477977
0.000475429
0.00047303
0.000470843
0.00046869
0.000466569
0.000464501
0.000462503
0.000460552
0.000458565
0.000456569
0.000454639
0.000453353
0.000452669
0.000452651
0.000452986
0.000450548
0.000449669
0.000448385
0.000446018
0.000443968
0.00044236
0.000441157
0.000440531
0.000439942
0.00043937
0.000438547
0.000437544
0.000436417
0.000435051
0.000433736
0.000432446
0.000431279
0.00043016
0.000429155
0.000428164
0.000427239
0.000426325
0.000425448
0.000424562
0.000423826
0.000423128
0.00042252
0.000421931
0.000421402
0.000420946
0.000420535
0.000420286
0.000420127
0.000419996
0.000419746
0.000419516
0.000419209
0.000418781
0.000418237
0.00041758
0.000416979
0.000416444
0.000416135
0.000415918
0.000415881
0.000416026
0.000416117
0.000416257
0.000416361
0.00041631
0.000416145
0.000415817
0.000415324
0.000414658
0.000413957
0.000413426
0.000413024
0.000412753
0.00041259
0.000412598
0.000412707
0.000412864
0.000413022
0.000413172
0.000413277
0.000413322
0.000413303
0.000413191
0.000412886
0.000412454
0.000411909
0.000411322
0.000410775
0.000410291
0.000410007
0.000409995
0.00041002
0.000410114
0.00041023
0.000410323
0.000410372
0.000410331
0.000410191
0.000409923
0.000409566
0.00040913
0.000408707
0.000408262
0.000407794
0.00040782
0.000407733
0.000407638
0.000407574
0.000407422
0.000407238
0.000407008
0.000406772
0.000406508
0.000406248
0.000406057
0.000405813
0.00040574
0.000405905
0.000405877
0.000405817
0.000405726
0.000405479
0.000405156
0.0004054
0.000405229
0.000405044
0.000405731
0.000405965
0.000406203
0.000406543
0.000407184
0.000407616
0.000408037
0.000408643
0.000409216
0.000410388
0.0101448
0.0101699
0.0101941
0.0101818
0.010146
0.0101247
0.0101547
0.010238
0.0103602
0.0105267
0.0106975
0.0108765
0.011041
0.0111744
0.0112676
0.011328
0.0113525
0.0113436
0.0113079
0.0112477
0.0111606
0.0110439
0.010894
0.0107129
0.0104951
0.0102445
0.00995682
0.0096363
0.0092887
0.0089124
0.00851531
0.00810105
0.00767629
0.00724352
0.00681013
0.00637623
0.00595207
0.00553883
0.00513723
0.00475551
0.00439134
0.00405214
0.00372845
0.00343236
0.00315626
0.00290245
0.00266752
0.00245512
0.00225782
0.00208263
0.00192294
0.00178128
0.00165333
0.00153799
0.00143431
0.00133978
0.00125439
0.00117736
0.0011079
0.00104519
0.000988601
0.000937587
0.000891682
0.000850541
0.00081363
0.000780499
0.000751064
0.000724214
0.000700656
0.000678687
0.000659179
0.000641182
0.000624995
0.000610604
0.000597368
0.000585587
0.000574742
0.000564712
0.000556099
0.000547995
0.000541143
0.000534375
0.000528176
0.000522144
0.000516662
0.000511641
0.000506786
0.000502523
0.000498461
0.000494686
0.000490972
0.000487316
0.000484032
0.00048127
0.000478617
0.000476109
0.000473616
0.000471102
0.000468536
0.000465933
0.000463322
0.00046073
0.000458141
0.000455572
0.000453037
0.000450652
0.000448466
0.000446314
0.000444202
0.00044214
0.000440152
0.000438211
0.000436241
0.000434252
0.000432356
0.000431064
0.000430364
0.000430205
0.000430436
0.000428192
0.000427076
0.0004257
0.000423432
0.000421335
0.000419689
0.000418466
0.000417769
0.000417107
0.00041647
0.000415611
0.000414589
0.000413434
0.000412082
0.000410765
0.000409495
0.00040835
0.000407239
0.000406245
0.000405257
0.000404327
0.000403405
0.000402528
0.000401643
0.000400896
0.000400192
0.000399568
0.000398966
0.000398418
0.000397941
0.000397506
0.000397217
0.000397009
0.000396826
0.000396522
0.000396238
0.00039587
0.000395409
0.000394795
0.000394123
0.000393481
0.000392911
0.000392531
0.000392275
0.000392177
0.000392269
0.000392323
0.000392422
0.000392496
0.000392434
0.000392262
0.000391944
0.00039147
0.000390822
0.00039015
0.000389641
0.00038925
0.000388975
0.000388818
0.000388822
0.000388917
0.000389062
0.000389208
0.00038934
0.000389424
0.000389452
0.000389416
0.000389292
0.000388987
0.000388567
0.000388045
0.000387492
0.000386981
0.000386542
0.000386312
0.000386355
0.000386423
0.000386557
0.000386712
0.000386845
0.000386936
0.000386941
0.000386851
0.000386642
0.000386348
0.000385978
0.000385624
0.000385245
0.000384866
0.000384959
0.000384948
0.000384933
0.000384956
0.000384898
0.000384809
0.000384676
0.000384536
0.000384368
0.000384201
0.000384099
0.000383955
0.000383963
0.000384209
0.000384285
0.000384326
0.000384332
0.000384191
0.000383973
0.000384271
0.000384194
0.000384086
0.000384791
0.000385082
0.000385357
0.000385717
0.000386362
0.000386816
0.00038725
0.000387859
0.000388438
0.000389597
0.0101296
0.0101801
0.0101798
0.0101551
0.0101083
0.0101149
0.0101737
0.0102798
0.0104195
0.0105901
0.0107857
0.0109643
0.0111181
0.0112458
0.0113372
0.0113986
0.0114261
0.0114217
0.0113916
0.0113371
0.0112552
0.0111437
0.0110013
0.0108257
0.0106127
0.0103672
0.0100841
0.00976655
0.00941996
0.00904305
0.00864426
0.00822704
0.00779904
0.00736068
0.00692181
0.00648086
0.00604878
0.00562812
0.00521538
0.00482437
0.0044503
0.00410278
0.00376866
0.00346438
0.00317822
0.00291814
0.00267448
0.0024557
0.0022522
0.00207224
0.00190815
0.00176309
0.00163236
0.00151457
0.00140938
0.00131348
0.00122709
0.0011493
0.00107932
0.00101621
0.000959425
0.000908411
0.000862532
0.00082158
0.000784857
0.000752122
0.000723098
0.000696794
0.000673751
0.000652187
0.000633129
0.000615442
0.000599709
0.000585635
0.000572811
0.000561527
0.00055097
0.000541343
0.00053303
0.000525254
0.000518771
0.00051233
0.000506418
0.000500601
0.000495395
0.000490593
0.000485947
0.000481899
0.000478019
0.000474452
0.000470955
0.000467497
0.000464438
0.000461841
0.000459328
0.000456961
0.000454616
0.000452249
0.000449826
0.000447364
0.000444901
0.000442456
0.000440013
0.000437584
0.000435189
0.000432936
0.000430858
0.000428813
0.000426818
0.000424865
0.00042298
0.000421143
0.000419282
0.000417392
0.000415637
0.000414433
0.000413823
0.000413604
0.000413794
0.000411911
0.000410628
0.000409211
0.000407151
0.000405123
0.000403514
0.000402348
0.000401653
0.000400988
0.000400345
0.000399514
0.000398538
0.000397412
0.000396127
0.000394862
0.000393655
0.000392574
0.00039151
0.000390569
0.000389618
0.000388725
0.000387832
0.000386994
0.000386149
0.000385433
0.000384763
0.000384167
0.000383595
0.000383075
0.000382624
0.000382215
0.00038194
0.000381737
0.000381563
0.000381262
0.000380976
0.000380608
0.000380156
0.000379554
0.000378883
0.000378232
0.000377663
0.000377273
0.000376991
0.00037687
0.000376926
0.000376958
0.000377033
0.000377103
0.000377049
0.000376888
0.000376589
0.000376129
0.000375517
0.000374887
0.000374396
0.000374018
0.00037375
0.000373601
0.000373615
0.00037371
0.000373857
0.000374008
0.000374142
0.000374225
0.00037425
0.000374211
0.000374081
0.000373778
0.000373363
0.000372851
0.000372314
0.000371817
0.000371391
0.00037118
0.000371252
0.000371346
0.000371504
0.000371684
0.000371842
0.00037196
0.000371997
0.000371941
0.000371771
0.000371518
0.000371193
0.000370875
0.000370533
0.000370193
0.000370307
0.000370334
0.000370355
0.00037042
0.000370418
0.000370385
0.000370312
0.000370231
0.000370128
0.000370021
0.000369975
0.000369896
0.000369942
0.00037023
0.000370376
0.000370479
0.00037055
0.000370488
0.000370343
0.000370677
0.00037068
0.000370631
0.000371341
0.000371687
0.000371998
0.000372376
0.000373024
0.000373499
0.000373946
0.000374558
0.000375147
0.000376299
0.0100994
0.0101687
0.0101469
0.010112
0.0101004
0.0101391
0.010227
0.0103549
0.010513
0.0106982
0.0108869
0.0110643
0.0112149
0.0113364
0.0114252
0.0114847
0.0115132
0.0115115
0.0114851
0.0114337
0.011356
0.0112504
0.0111127
0.0109409
0.010734
0.0104917
0.0102114
0.0098951
0.0095477
0.00916949
0.00876814
0.00834688
0.00791521
0.00746975
0.007024
0.00657357
0.0061316
0.00570184
0.00527481
0.00487235
0.00448469
0.00412755
0.00378222
0.00346953
0.00317305
0.00290495
0.00265199
0.00242694
0.0022173
0.00203371
0.00186614
0.00171899
0.00158606
0.00146771
0.00136207
0.00126585
0.0011799
0.00110247
0.00103333
0.00097096
0.000915172
0.00086524
0.000820395
0.000780575
0.000744924
0.000713508
0.000685684
0.000660725
0.000638881
0.000618336
0.000600339
0.000583524
0.000568778
0.000555507
0.000543614
0.000533269
0.000523352
0.000514453
0.000506724
0.000499561
0.000493695
0.000487807
0.000482406
0.000477006
0.000472294
0.000467925
0.000463682
0.000460008
0.000456465
0.000453246
0.000450103
0.000446985
0.000444295
0.000441977
0.000439709
0.000437587
0.000435497
0.000433379
0.000431198
0.000428982
0.000426766
0.000424562
0.000422355
0.000420151
0.000417983
0.000415944
0.000414045
0.00041218
0.000410375
0.000408602
0.000406883
0.000405213
0.000403516
0.000401795
0.000400265
0.000399218
0.00039876
0.000398529
0.000398687
0.000397221
0.000395845
0.000394412
0.000392618
0.000390759
0.000389267
0.000388207
0.000387554
0.000386923
0.000386305
0.000385533
0.000384634
0.000383582
0.000382399
0.000381226
0.000380118
0.000379135
0.00037815
0.000377291
0.000376409
0.000375582
0.000374743
0.000373969
0.000373188
0.000372528
0.000371913
0.000371369
0.000370852
0.000370385
0.000369988
0.00036963
0.0003694
0.000369228
0.00036909
0.000368827
0.000368565
0.000368229
0.000367808
0.000367255
0.00036662
0.000365992
0.000365446
0.000365064
0.000364776
0.000364644
0.000364684
0.000364707
0.000364776
0.000364854
0.000364825
0.000364683
0.000364414
0.000363989
0.000363428
0.000362853
0.000362387
0.000362026
0.000361771
0.000361636
0.000361666
0.000361766
0.000361923
0.00036209
0.00036224
0.000362335
0.000362373
0.000362342
0.00036222
0.00036193
0.000361526
0.000361027
0.000360508
0.000360024
0.00035961
0.000359406
0.000359496
0.000359605
0.000359781
0.000359979
0.000360158
0.000360298
0.000360362
0.000360337
0.000360204
0.00035999
0.000359704
0.00035942
0.00035911
0.0003588
0.000358915
0.000358966
0.000359007
0.000359091
0.000359127
0.000359132
0.000359103
0.000359066
0.000359014
0.000358953
0.000358951
0.000358929
0.000358998
0.000359312
0.000359514
0.000359665
0.000359783
0.000359789
0.000359704
0.000360058
0.000360136
0.000360145
0.000360851
0.000361252
0.000361602
0.000362
0.000362652
0.000363152
0.000363616
0.000364232
0.000364837
0.000365992
0.0100593
0.0101163
0.0100999
0.0100896
0.0101128
0.0101879
0.010304
0.0104507
0.0106229
0.0108158
0.0110017
0.0111726
0.0113175
0.0114331
0.0115181
0.0115747
0.0116028
0.0116025
0.0115781
0.0115301
0.0114571
0.0113558
0.0112229
0.0110563
0.0108543
0.0106143
0.010336
0.01002
0.0096717
0.00929057
0.00888559
0.00845808
0.00802164
0.00756683
0.00711154
0.00664631
0.00619116
0.00575166
0.00530793
0.00488935
0.00448769
0.00411893
0.00375911
0.0034367
0.00312907
0.00285167
0.00258999
0.00235962
0.0021445
0.00195972
0.00178977
0.00164335
0.00150863
0.00139263
0.00128805
0.00119272
0.00110914
0.00103383
0.000967125
0.000906945
0.000853596
0.000806016
0.000763395
0.000725816
0.000692325
0.000663243
0.000637499
0.00061475
0.000594765
0.000575908
0.000559578
0.000544224
0.000531024
0.000519017
0.00050855
0.000499517
0.000490633
0.000482824
0.000475971
0.000469784
0.000464802
0.000459736
0.00045512
0.000450354
0.000446442
0.000442716
0.000439105
0.000435977
0.000432917
0.000430194
0.000427536
0.000424909
0.000422729
0.000420785
0.000418872
0.000417103
0.000415368
0.000413582
0.000411724
0.00040984
0.000407956
0.000406069
0.00040417
0.000402261
0.000400396
0.000398638
0.000396978
0.000395359
0.000393807
0.000392274
0.000390773
0.000389324
0.00038782
0.000386348
0.000385122
0.000384292
0.000384023
0.00038381
0.00038394
0.000382876
0.000381515
0.000380103
0.000378606
0.000377017
0.00037571
0.000374789
0.0003742
0.000373634
0.000373064
0.000372378
0.000371578
0.000370643
0.000369591
0.000368547
0.000367569
0.000366709
0.000365832
0.00036508
0.000364291
0.000363561
0.0003628
0.000362111
0.000361416
0.000360833
0.000360289
0.000359816
0.000359371
0.000358979
0.000358654
0.00035837
0.000358204
0.00035808
0.000357997
0.000357794
0.000357577
0.000357294
0.000356922
0.00035644
0.000355873
0.000355293
0.000354784
0.000354429
0.000354146
0.000354019
0.000354053
0.000354075
0.000354152
0.000354249
0.00035425
0.000354147
0.000353918
0.000353541
0.000353052
0.000352548
0.000352119
0.000351784
0.000351548
0.000351432
0.000351486
0.000351598
0.000351768
0.000351956
0.000352132
0.00035225
0.000352312
0.000352299
0.000352198
0.000351933
0.000351549
0.000351072
0.00035058
0.000350114
0.000349718
0.000349522
0.000349622
0.000349747
0.000349937
0.000350151
0.000350348
0.00035051
0.000350599
0.000350605
0.000350509
0.000350336
0.000350091
0.00034984
0.000349564
0.000349284
0.00034939
0.00034946
0.000349517
0.000349608
0.000349674
0.000349708
0.000349714
0.000349712
0.000349703
0.000349682
0.000349716
0.000349746
0.000349832
0.000350159
0.000350412
0.000350604
0.000350759
0.000350824
0.000350792
0.000351156
0.000351304
0.000351371
0.000352067
0.000352522
0.000352913
0.000353333
0.000353989
0.000354517
0.000355001
0.000355623
0.000356247
0.000357411
0.00999051
0.0100596
0.0100625
0.010084
0.0101463
0.0102532
0.0103893
0.0105499
0.0107419
0.0109368
0.0111184
0.0112815
0.011419
0.0115282
0.0116088
0.0116621
0.0116888
0.01169
0.0116682
0.0116244
0.0115556
0.0114588
0.0113313
0.0111694
0.0109714
0.0107331
0.0104561
0.0101389
0.00978875
0.00940293
0.00899286
0.00855503
0.00811017
0.00764279
0.00717827
0.00669109
0.00621595
0.00576707
0.00530149
0.0048646
0.00444542
0.00406261
0.00368584
0.00334962
0.003031
0.00274647
0.00247899
0.00224856
0.00202845
0.00184799
0.00167703
0.00153619
0.00140219
0.00129026
0.00118976
0.00109839
0.00101938
0.000948196
0.000885672
0.000829278
0.000779673
0.000735473
0.000696167
0.000661626
0.000631113
0.000604983
0.000581783
0.000561804
0.000543871
0.000527125
0.000512731
0.000499184
0.00048784
0.000477202
0.000468347
0.000460759
0.00045309
0.000446701
0.000440849
0.00043589
0.000432044
0.000427994
0.000424385
0.000420434
0.000417589
0.000414634
0.00041184
0.000409468
0.00040703
0.000404957
0.000402912
0.000400953
0.000399432
0.000397953
0.000396528
0.000395232
0.000393933
0.000392556
0.000391088
0.000389625
0.00038815
0.000386645
0.000385115
0.000383572
0.000382082
0.000380667
0.000379305
0.000377994
0.000376746
0.000375497
0.000374259
0.000373072
0.000371784
0.00037063
0.000369773
0.00036923
0.00036915
0.000368955
0.000369086
0.000368361
0.000367155
0.000365777
0.000364589
0.000363361
0.000362307
0.00036155
0.000361034
0.00036056
0.000360055
0.000359478
0.000358795
0.000358013
0.000357104
0.000356223
0.000355406
0.000354692
0.000353936
0.00035332
0.000352641
0.000352039
0.000351376
0.000350794
0.000350203
0.000349718
0.000349256
0.000348874
0.000348515
0.000348217
0.000347982
0.000347791
0.0003477
0.00034764
0.000347624
0.000347499
0.000347344
0.000347131
0.000346824
0.000346421
0.000345956
0.00034545
0.000344994
0.000344677
0.000344409
0.000344302
0.000344329
0.000344371
0.000344465
0.000344582
0.000344619
0.000344573
0.000344402
0.000344082
0.00034368
0.00034326
0.000342883
0.000342588
0.000342381
0.00034229
0.000342376
0.000342505
0.000342693
0.000342904
0.000343112
0.000343264
0.000343357
0.000343373
0.000343298
0.000343075
0.000342719
0.000342275
0.000341819
0.000341381
0.000341009
0.000340832
0.000340938
0.000341081
0.000341285
0.000341515
0.00034173
0.000341914
0.00034203
0.000342068
0.000342011
0.00034188
0.000341681
0.000341467
0.000341228
0.00034098
0.000341073
0.000341162
0.000341234
0.000341325
0.000341419
0.000341476
0.000341513
0.000341541
0.000341573
0.000341588
0.000341653
0.000341731
0.000341831
0.000342166
0.000342463
0.000342691
0.000342879
0.000342998
0.000343016
0.00034338
0.000343597
0.000343721
0.000344401
0.000344909
0.000345341
0.000345786
0.000346446
0.000347003
0.000347507
0.000348137
0.000348783
0.000349961
0.00993312
0.0100054
0.0100382
0.0100964
0.010193
0.0103228
0.0104717
0.0106598
0.0108606
0.0110529
0.0112293
0.0113844
0.0115142
0.0116173
0.0116934
0.0117434
0.0117692
0.011773
0.0117546
0.0117144
0.0116499
0.011558
0.0114356
0.0112776
0.011083
0.0108451
0.0105681
0.0102481
0.00989403
0.00949963
0.00908248
0.00863327
0.00817321
0.00768495
0.0072042
0.00669789
0.00619742
0.00573039
0.00523382
0.0047747
0.00433922
0.00394147
0.00355096
0.00320284
0.00287223
0.0025931
0.00232241
0.00210219
0.00188079
0.00170938
0.00154277
0.0014096
0.00128145
0.00117356
0.00108078
0.000996104
0.000923673
0.000858118
0.000800805
0.00074944
0.000704119
0.000664048
0.000628415
0.000597257
0.000570001
0.000546923
0.000526281
0.000509157
0.000492875
0.000478366
0.000465636
0.000453803
0.000444179
0.000434651
0.000427204
0.000420815
0.000414056
0.000409191
0.000404115
0.000400158
0.000397585
0.000394238
0.000391752
0.00038857
0.000386758
0.000384552
0.000382375
0.000380987
0.00037924
0.000377876
0.000376535
0.000375346
0.000374601
0.000373652
0.000372771
0.000371993
0.000371189
0.000370292
0.000369282
0.000368322
0.000367319
0.000366252
0.000365164
0.000364054
0.000363001
0.000361995
0.000360984
0.000360029
0.000359121
0.000358188
0.000357251
0.000356346
0.000355325
0.000354526
0.000354093
0.000353905
0.000353959
0.000353838
0.00035398
0.000353543
0.000352539
0.000351243
0.000350371
0.000349596
0.00034885
0.000348281
0.000347841
0.000347477
0.000347044
0.000346598
0.000346043
0.000345403
0.00034469
0.000343997
0.000343356
0.000342799
0.000342203
0.000341722
0.000341174
0.000340707
0.000340165
0.000339711
0.000339243
0.000338868
0.000338505
0.000338224
0.000337968
0.000337779
0.000337647
0.000337563
0.000337555
0.000337572
0.000337627
0.000337596
0.000337517
0.000337386
0.000337156
0.000336852
0.000336488
0.000336088
0.000335702
0.000335439
0.000335209
0.000335123
0.000335152
0.000335216
0.000335324
0.000335469
0.000335552
0.000335568
0.000335468
0.000335228
0.000334922
0.000334593
0.000334287
0.000334042
0.000333875
0.000333824
0.00033394
0.000334095
0.000334304
0.00033454
0.000334783
0.000334974
0.000335108
0.00033516
0.000335119
0.000334945
0.000334632
0.00033423
0.000333819
0.000333419
0.000333079
0.000332934
0.000333042
0.000333206
0.000333428
0.000333676
0.00033391
0.000334117
0.000334262
0.000334334
0.000334319
0.000334233
0.000334083
0.000333911
0.000333714
0.000333501
0.000333577
0.000333689
0.000333776
0.000333867
0.000333987
0.000334067
0.000334133
0.000334191
0.000334262
0.00033431
0.000334403
0.000334528
0.000334642
0.000334978
0.000335315
0.000335577
0.000335794
0.000335964
0.00033603
0.000336389
0.000336672
0.000336853
0.000337516
0.000338073
0.000338547
0.000339018
0.00033968
0.000340267
0.000340793
0.000341432
0.000342102
0.000343297
0.00989665
0.00996846
0.0100303
0.0101221
0.0102439
0.0103904
0.0105624
0.0107695
0.0109699
0.0111594
0.0113299
0.0114777
0.0116006
0.0116978
0.0117697
0.0118173
0.0118433
0.0118504
0.0118353
0.0117985
0.0117384
0.0116511
0.0115333
0.0113779
0.0111855
0.0109465
0.0106676
0.0103416
0.00998344
0.00957712
0.00914286
0.00867401
0.00819834
0.00768119
0.00717395
0.00663888
0.00611033
0.0056196
0.00509167
0.00460895
0.00416175
0.00375364
0.00335184
0.00301367
0.00267161
0.00240961
0.00214444
0.00193924
0.00172674
0.00156522
0.00140807
0.00128309
0.00116564
0.00106462
0.00098128
0.000904872
0.0008394
0.000779688
0.000727517
0.00068121
0.000640567
0.000604326
0.000572124
0.000543974
0.000519436
0.000498929
0.000480421
0.00046542
0.000450563
0.000437333
0.000426158
0.000415371
0.000407197
0.000398415
0.000391653
0.000385882
0.000379359
0.000375912
0.000371145
0.000367878
0.000366063
0.00036275
0.000361228
0.000358517
0.00035736
0.000355451
0.000353772
0.000353055
0.000351745
0.000350872
0.00035009
0.000349534
0.000349452
0.000348966
0.000348463
0.000348125
0.000347765
0.000347329
0.000346819
0.000346356
0.000345826
0.000345242
0.00034462
0.000343975
0.000343384
0.000342801
0.000342167
0.000341591
0.000341033
0.000340444
0.000339835
0.000339215
0.000338521
0.000338142
0.000338149
0.000338302
0.00033846
0.000338477
0.000338609
0.000338398
0.000337581
0.000336544
0.000336041
0.000335691
0.000335289
0.000334937
0.000334582
0.000334336
0.000333981
0.00033365
0.00033324
0.000332778
0.000332276
0.000331784
0.000331323
0.000330931
0.000330506
0.000330169
0.000329769
0.000329447
0.000329044
0.000328728
0.000328398
0.00032814
0.000327891
0.000327721
0.000327577
0.000327507
0.00032749
0.000327522
0.000327603
0.000327708
0.000327839
0.000327904
0.000327911
0.000327865
0.000327728
0.000327529
0.000327284
0.000327002
0.000326712
0.000326509
0.000326329
0.000326286
0.000326316
0.000326401
0.000326529
0.000326699
0.000326832
0.000326918
0.000326884
0.000326748
0.000326551
0.000326322
0.0003261
0.000325918
0.000325807
0.000325799
0.000325946
0.000326134
0.000326371
0.000326634
0.000326913
0.000327145
0.000327328
0.000327422
0.000327423
0.000327298
0.000327043
0.000326693
0.000326335
0.000325983
0.000325684
0.00032558
0.000325691
0.00032588
0.000326122
0.000326389
0.000326644
0.000326876
0.000327053
0.000327162
0.000327192
0.000327154
0.000327058
0.00032693
0.00032678
0.000326605
0.000326667
0.000326801
0.000326903
0.000326998
0.000327145
0.000327246
0.000327344
0.000327431
0.000327541
0.000327623
0.000327742
0.000327912
0.000328045
0.000328375
0.00032875
0.000329043
0.000329287
0.000329506
0.000329619
0.00032997
0.000330319
0.000330556
0.000331201
0.000331804
0.00033232
0.000332817
0.000333481
0.000334096
0.000334646
0.000335295
0.000335987
0.000337202
0.00988413
0.00995826
0.0100394
0.0101543
0.0102963
0.0104595
0.0106576
0.0108689
0.0110675
0.0112533
0.0114181
0.0115593
0.011676
0.0117681
0.0118364
0.0118832
0.0119109
0.0119205
0.0119082
0.0118751
0.0118193
0.0117358
0.0116219
0.0114672
0.0112757
0.0110323
0.0107528
0.0104142
0.0100441
0.00961352
0.00916433
0.00866317
0.00816368
0.00760814
0.00706209
0.00649358
0.00594517
0.00542709
0.0048706
0.00437827
0.00392008
0.00352692
0.00311572
0.00280516
0.00246822
0.00222401
0.00197273
0.00178477
0.00159285
0.00144188
0.00129672
0.00117935
0.00107455
0.000981137
0.00090559
0.000836585
0.000777807
0.000723117
0.00067513
0.000633476
0.000595687
0.00056284
0.000532558
0.000507257
0.000483738
0.000465808
0.00044819
0.000434774
0.000421025
0.000408372
0.000397897
0.000387599
0.000380265
0.000371866
0.00036575
0.000359481
0.000353103
0.000350407
0.000345745
0.000342956
0.000340763
0.000337418
0.000336358
0.000333921
0.000332767
0.000330971
0.000329418
0.000328842
0.000327754
0.000327079
0.000326426
0.000326341
0.000326468
0.000326185
0.000325882
0.000325686
0.000325584
0.000325411
0.000325216
0.000325108
0.000324937
0.000324724
0.000324474
0.000324198
0.000323978
0.000323723
0.000323419
0.000323167
0.000322921
0.000322651
0.000322336
0.000322004
0.000321666
0.000321759
0.000322145
0.000322546
0.000322841
0.000322975
0.00032312
0.000323043
0.000322544
0.000321825
0.000321739
0.000321752
0.00032169
0.000321565
0.000321342
0.000321176
0.000320922
0.000320708
0.000320439
0.000320167
0.000319877
0.000319594
0.00031932
0.000319097
0.000318844
0.00031865
0.00031841
0.000318226
0.000317984
0.000317815
0.000317626
0.0003175
0.000317363
0.000317326
0.000317293
0.000317345
0.000317451
0.0003176
0.000317776
0.000317967
0.000318185
0.000318346
0.000318442
0.000318481
0.000318445
0.000318363
0.000318243
0.000318088
0.000317909
0.000317788
0.000317677
0.000317671
0.00031771
0.000317817
0.000317968
0.000318158
0.000318346
0.000318501
0.000318547
0.000318515
0.00031843
0.000318319
0.000318188
0.000318083
0.000318039
0.000318074
0.00031826
0.000318487
0.000318755
0.000319047
0.00031936
0.000319636
0.00031987
0.000320012
0.00032006
0.00031999
0.000319796
0.000319515
0.000319214
0.000318921
0.000318672
0.000318612
0.000318733
0.000318948
0.000319213
0.000319501
0.000319779
0.000320038
0.000320248
0.000320397
0.000320475
0.000320489
0.000320448
0.00032037
0.000320271
0.000320137
0.000320187
0.000320343
0.000320462
0.000320564
0.000320736
0.00032086
0.000320992
0.000321113
0.000321261
0.000321379
0.000321524
0.000321736
0.000321893
0.000322215
0.000322621
0.000322944
0.000323213
0.000323481
0.00032364
0.000323984
0.000324399
0.000324688
0.000325319
0.000325962
0.00032652
0.000327043
0.000327709
0.00032835
0.000328925
0.000329586
0.0003303
0.000331535
0.00988936
0.00996942
0.0100633
0.0101943
0.0103561
0.0105298
0.0107451
0.0109542
0.011152
0.0113337
0.0114929
0.0116282
0.0117395
0.0118275
0.0118936
0.0119408
0.0119702
0.011981
0.0119721
0.0119426
0.0118907
0.0118099
0.0116991
0.0115416
0.011353
0.0110973
0.0108092
0.0104491
0.0100621
0.00959795
0.00912278
0.00857956
0.00804555
0.00744914
0.00685527
0.00624335
0.00571028
0.00518073
0.00458873
0.00412242
0.00364651
0.00328993
0.00288789
0.00260446
0.00229012
0.00206561
0.00183441
0.00166247
0.00149348
0.00134941
0.0012184
0.00110935
0.00101563
0.000930338
0.000857755
0.000797139
0.000739884
0.00069281
0.000644459
0.000607679
0.000568875
0.000539886
0.000508911
0.000486945
0.000462985
0.000447337
0.000428948
0.000416624
0.000402534
0.000391435
0.000380341
0.000371078
0.000363014
0.000354655
0.000349145
0.000342147
0.000336786
0.000333312
0.000328521
0.000326363
0.000323296
0.000319776
0.000318777
0.000316359
0.000314837
0.000313048
0.000311267
0.00031058
0.000309379
0.000308711
0.00030791
0.000307898
0.000307897
0.000307501
0.000307198
0.000306854
0.000306741
0.00030654
0.000306416
0.000306397
0.000306345
0.0003063
0.000306228
0.000306152
0.000306119
0.000306044
0.000305926
0.000305858
0.000305797
0.00030572
0.000305602
0.000305482
0.000305489
0.000305973
0.000306622
0.000307193
0.000307575
0.000307756
0.000307851
0.000307881
0.000307669
0.000307374
0.00030768
0.000307988