/*--------------------------------*- C++ -*----------------------------------*\
| =========                 |                                                 |
| \\      /  F ield         | OpenFOAM: The Open Source CFD Toolbox           |
|  \\    /   O peration     | Version:  2312                                  |
|   \\  /    A nd           | Website:  www.openfoam.com                      |
|    \\/     M anipulation  |                                                 |
\*---------------------------------------------------------------------------*/
FoamFile
{
    version     2.0;
    format      ascii;
    arch        "LSB;label=32;scalar=64";
    class       volVectorField;
    location    "0.001";
    object      U;
}
// * * * * * * * * * * * * * * * * * * * * * * * * * * * * * * * * * * * * * //

dimensions      [0 1 -1 0 0 0 0];

internalField   nonuniform List<vector> 
48128
(
(4.41053 -1.9035 0)
(9.08446 -0.66844 0)
(10.6876 0.0618873 0)
(9.80209 -0.309926 0)
(7.75711 -0.432688 0)
(2.03761 1.57238 0)
(-9.57078 2.75314 0)
(-26.7737 4.73625 0)
(-49.1459 6.38424 0)
(-70.3413 5.5969 0)
(-89.1993 4.90713 0)
(-105.819 3.95695 0)
(-120.002 3.05753 0)
(-131.969 2.42607 0)
(-142.195 2.35005 0)
(-151.189 2.13356 0)
(-159.089 2.05575 0)
(-166.033 1.95796 0)
(-172.314 1.91439 0)
(-178.141 1.86586 0)
(-183.439 1.82544 0)
(-188.188 1.77152 0)
(-192.353 1.70462 0)
(-195.881 1.63712 0)
(-198.715 1.57577 0)
(-200.804 1.56808 0)
(-202.121 1.53986 0)
(-202.686 1.4847 0)
(-202.694 1.26622 0)
(-201.654 1.05396 0)
(-199.644 0.918598 0)
(-196.829 0.78477 0)
(-193.206 0.646884 0)
(-188.775 0.445383 0)
(-183.48 0.282438 0)
(-177.158 -0.0501269 0)
(-169.877 -0.305132 0)
(-161.865 -0.570938 0)
(-153.087 -0.818848 0)
(-143.793 -1.04525 0)
(-133.81 -1.40645 0)
(-123.087 -1.63105 0)
(-111.972 -1.93706 0)
(-100.401 -2.06112 0)
(-88.7605 -2.32071 0)
(-76.6421 -2.55475 0)
(-64.2005 -2.88129 0)
(-51.3919 -2.9329 0)
(-38.4606 -3.29425 0)
(-25.5048 -3.22265 0)
(-12.6165 -3.36462 0)
(-0.119546 -3.26792 0)
(11.6642 -3.13831 0)
(23.3366 -3.06877 0)
(35.1302 -3.18128 0)
(46.9826 -3.26901 0)
(58.5974 -3.22959 0)
(69.9257 -3.20474 0)
(80.9188 -3.15538 0)
(91.5997 -3.10018 0)
(102.019 -3.05679 0)
(112.19 -3.00612 0)
(122.155 -2.96841 0)
(131.878 -2.90994 0)
(141.42 -2.94672 0)
(150.785 -2.95856 0)
(159.892 -2.89518 0)
(168.898 -2.8199 0)
(177.376 -2.66332 0)
(185.61 -2.57313 0)
(193.402 -2.41508 0)
(200.814 -2.31947 0)
(208.027 -2.20766 0)
(214.825 -2.08817 0)
(221.47 -2.0288 0)
(227.886 -1.88513 0)
(233.816 -1.78292 0)
(239.647 -1.70879 0)
(245.161 -1.61305 0)
(250.615 -1.56658 0)
(255.814 -1.45362 0)
(260.713 -1.35877 0)
(265.233 -1.24348 0)
(269.467 -1.1861 0)
(273.602 -1.1144 0)
(277.446 -1.03461 0)
(281.14 -0.997092 0)
(284.755 -0.934502 0)
(288.183 -0.876668 0)
(291.422 -0.833777 0)
(294.527 -0.771277 0)
(297.366 -0.723967 0)
(300.143 -0.686027 0)
(302.822 -0.630698 0)
(305.331 -0.590662 0)
(307.731 -0.552004 0)
(309.974 -0.513767 0)
(312.046 -0.475117 0)
(313.949 -0.440353 0)
(315.705 -0.414853 0)
(317.36 -0.389002 0)
(318.896 -0.366616 0)
(320.348 -0.343761 0)
(321.69 -0.323251 0)
(322.962 -0.308366 0)
(324.212 -0.296319 0)
(325.445 -0.281538 0)
(326.624 -0.265486 0)
(327.727 -0.251181 0)
(328.779 -0.234674 0)
(329.775 -0.225326 0)
(330.746 -0.211892 0)
(331.636 -0.198607 0)
(332.448 -0.188061 0)
(333.322 -0.197388 0)
(334.287 -0.180562 0)
(335.335 -0.181655 0)
(336.551 -0.141833 0)
(338.185 -0.182661 0)
(338.379 -0.0733383 0)
(338.91 -0.0535873 0)
(339.71 -0.133751 0)
(339.742 -0.0808446 0)
(340.035 -0.0964241 0)
(340.501 -0.122124 0)
(341.094 -0.114406 0)
(341.745 -0.102815 0)
(342.417 -0.0825608 0)
(342.922 -0.063904 0)
(343.414 -0.057769 0)
(343.616 -0.0318872 0)
(343.866 -0.0415527 0)
(343.915 -0.0305583 0)
(344.017 -0.03896 0)
(344.151 -0.0501056 0)
(344.295 -0.0413945 0)
(344.444 -0.036901 0)
(344.595 -0.029645 0)
(344.725 -0.0235012 0)
(344.855 -0.0166667 0)
(344.962 -0.012186 0)
(345.072 -0.00844061 0)
(345.158 -0.00231683 0)
(345.248 0.00111259 0)
(345.338 0.00379839 0)
(345.431 0.00732587 0)
(345.521 0.00919767 0)
(345.614 0.0119093 0)
(345.711 0.0129805 0)
(345.821 0.0149932 0)
(345.942 0.016683 0)
(346.078 0.0173591 0)
(346.245 0.0186892 0)
(346.285 0.0236381 0)
(346.333 0.0289111 0)
(346.32 0.032631 0)
(346.242 0.0363759 0)
(346.097 0.0414247 0)
(345.899 0.035881 0)
(345.686 0.0360472 0)
(345.492 0.0319695 0)
(345.325 0.037764 0)
(345.195 0.0349332 0)
(345.049 0.0462241 0)
(344.977 0.039105 0)
(344.85 0.0452422 0)
(344.738 0.0392069 0)
(344.608 0.0387522 0)
(344.459 0.035611 0)
(344.269 0.0300758 0)
(344.039 0.0276388 0)
(343.771 0.0248436 0)
(343.463 0.0241854 0)
(343.152 0.0212594 0)
(342.927 0.0181193 0)
(342.774 0.0147553 0)
(342.641 0.0139586 0)
(342.563 0.0134689 0)
(342.504 0.0166418 0)
(342.463 0.0176117 0)
(342.405 0.0205712 0)
(342.314 0.0242692 0)
(342.183 0.0283416 0)
(342.008 0.0313464 0)
(341.788 0.0345798 0)
(341.514 0.0369574 0)
(341.181 0.040386 0)
(340.765 0.0431385 0)
(340.295 0.044552 0)
(339.784 0.0440055 0)
(339.265 0.043675 0)
(338.764 0.0396166 0)
(338.294 0.0345345 0)
(337.967 0.0265154 0)
(337.713 0.0252239 0)
(337.479 0.0246828 0)
(337.248 0.0247457 0)
(337.006 0.0266895 0)
(336.737 0.0287038 0)
(336.429 0.0310367 0)
(336.063 0.0349855 0)
(335.63 0.039884 0)
(335.117 0.0449799 0)
(334.535 0.0487214 0)
(333.887 0.0526858 0)
(333.21 0.0551274 0)
(332.491 0.059247 0)
(331.758 0.0534664 0)
(331.237 0.0502506 0)
(330.685 0.0510403 0)
(330.13 0.0470355 0)
(329.661 0.0422671 0)
(329.168 0.0420437 0)
(328.683 0.0394092 0)
(328.186 0.0392438 0)
(327.688 0.0375498 0)
(327.161 0.0397719 0)
(326.608 0.0408036 0)
(326.025 0.0446904 0)
(325.406 0.0467971 0)
(324.772 0.0482321 0)
(324.237 0.0472834 0)
(323.632 0.0471929 0)
(323.011 0.044184 0)
(322.472 0.0378804 0)
(321.901 0.0363532 0)
(321.359 0.0294841 0)
(321.032 0.0286686 0)
(320.564 0.0252162 0)
(320.04 0.0256695 0)
(319.85 0.0180928 0)
(319.526 0.0204326 0)
(319.132 0.0251437 0)
(318.688 0.02561 0)
(318.349 0.0241056 0)
(317.944 0.0241308 0)
(317.499 0.0241292 0)
(317.135 0.0202391 0)
(316.739 0.0209627 0)
(316.232 0.0162013 0)
(7.54963 -6.7847 0)
(10.8474 -3.13791 0)
(11.967 0.0233143 0)
(8.12168 2.00512 0)
(-2.80551 5.1428 0)
(-20.0946 9.71032 0)
(-43.8168 14.1522 0)
(-68.1055 17.2484 0)
(-89.5208 17.4369 0)
(-108.388 14.9985 0)
(-124.934 12.58 0)
(-139.119 10.6002 0)
(-150.84 9.17495 0)
(-160.254 8.39783 0)
(-168.068 7.15593 0)
(-174.686 6.37682 0)
(-180.168 5.76091 0)
(-184.669 5.29749 0)
(-188.48 4.95161 0)
(-191.803 4.66132 0)
(-194.577 4.39135 0)
(-196.788 4.12531 0)
(-198.408 3.85761 0)
(-199.413 3.62763 0)
(-199.821 3.41591 0)
(-199.692 3.04473 0)
(-198.667 2.80681 0)
(-196.679 2.55435 0)
(-193.773 2.12664 0)
(-190.02 1.67139 0)
(-185.404 1.30268 0)
(-179.983 0.909815 0)
(-173.758 0.522555 0)
(-166.758 0.0240318 0)
(-159.052 -0.416597 0)
(-150.616 -1.04582 0)
(-141.289 -1.6405 0)
(-131.279 -2.20991 0)
(-120.605 -2.77876 0)
(-109.415 -3.22902 0)
(-97.6615 -3.96603 0)
(-85.3013 -4.44354 0)
(-72.638 -5.09683 0)
(-59.6206 -5.38112 0)
(-46.5302 -5.9023 0)
(-33.0557 -6.3431 0)
(-19.2441 -7.03571 0)
(-5.3022 -7.31075 0)
(8.72107 -7.83402 0)
(22.6892 -7.92326 0)
(36.4978 -8.19315 0)
(50.0461 -8.11499 0)
(63.4921 -8.16797 0)
(76.6994 -8.25462 0)
(89.53 -8.34624 0)
(102.086 -8.44455 0)
(114.28 -8.35678 0)
(126.098 -8.26193 0)
(137.493 -8.10984 0)
(148.504 -7.96008 0)
(159.178 -7.82591 0)
(169.523 -7.66643 0)
(179.604 -7.54972 0)
(189.392 -7.36264 0)
(199.007 -7.22571 0)
(208.469 -7.04018 0)
(217.634 -6.84382 0)
(226.675 -6.65369 0)
(235.163 -6.31526 0)
(243.369 -6.10055 0)
(251.143 -5.76418 0)
(258.524 -5.55979 0)
(265.694 -5.30487 0)
(272.469 -5.04717 0)
(279.052 -4.89537 0)
(285.43 -4.58228 0)
(291.329 -4.35963 0)
(297.079 -4.1721 0)
(302.552 -3.9554 0)
(307.88 -3.82883 0)
(313.046 -3.58521 0)
(317.881 -3.38075 0)
(322.42 -3.14163 0)
(326.653 -3.00201 0)
(330.799 -2.84397 0)
(334.716 -2.67393 0)
(338.448 -2.57186 0)
(342.123 -2.43546 0)
(345.642 -2.30629 0)
(348.958 -2.20261 0)
(352.176 -2.07731 0)
(355.165 -1.97822 0)
(358.072 -1.87362 0)
(360.903 -1.74369 0)
(363.556 -1.64666 0)
(366.111 -1.55877 0)
(368.528 -1.47649 0)
(370.8 -1.39423 0)
(372.921 -1.31816 0)
(374.901 -1.26076 0)
(376.795 -1.20026 0)
(378.566 -1.14455 0)
(380.259 -1.08832 0)
(381.841 -1.03705 0)
(383.352 -0.994672 0)
(384.827 -0.952961 0)
(386.272 -0.910563 0)
(387.668 -0.870311 0)
(388.989 -0.833865 0)
(390.264 -0.791353 0)
(391.472 -0.762271 0)
(392.656 -0.727238 0)
(393.765 -0.693274 0)
(394.786 -0.669214 0)
(395.848 -0.662561 0)
(396.974 -0.607098 0)
(398.167 -0.590285 0)
(399.485 -0.47761 0)
(401.15 -0.596443 0)
(401.69 -0.398964 0)
(402.476 -0.342941 0)
(403.449 -0.48835 0)
(403.831 -0.428777 0)
(404.383 -0.431803 0)
(405.055 -0.449203 0)
(405.821 -0.415918 0)
(406.635 -0.379537 0)
(407.478 -0.339309 0)
(408.182 -0.301864 0)
(408.894 -0.288997 0)
(409.344 -0.246136 0)
(409.827 -0.249748 0)
(410.113 -0.22831 0)
(410.416 -0.231654 0)
(410.726 -0.240199 0)
(411.038 -0.222287 0)
(411.356 -0.21352 0)
(411.677 -0.19964 0)
(411.99 -0.188408 0)
(412.306 -0.175371 0)
(412.611 -0.166833 0)
(412.92 -0.158395 0)
(413.215 -0.145409 0)
(413.514 -0.134193 0)
(413.812 -0.123547 0)
(414.11 -0.112215 0)
(414.399 -0.103824 0)
(414.687 -0.0937642 0)
(414.978 -0.0870326 0)
(415.277 -0.0767357 0)
(415.584 -0.0708215 0)
(415.904 -0.0628131 0)
(416.245 -0.059382 0)
(416.501 -0.0498973 0)
(416.749 -0.0443417 0)
(417.009 -0.0370922 0)
(417.145 -0.0278198 0)
(417.283 -0.0259553 0)
(417.304 -0.00781459 0)
(417.325 0.00337396 0)
(417.351 0.0169029 0)
(417.377 0.033178 0)
(417.415 0.040215 0)
(417.432 0.0618985 0)
(417.485 0.0636831 0)
(417.476 0.0704207 0)
(417.485 0.063567 0)
(417.472 0.057854 0)
(417.441 0.0467952 0)
(417.376 0.0329093 0)
(417.276 0.0222405 0)
(417.144 0.0138928 0)
(416.98 0.00543685 0)
(416.811 0.0021216 0)
(416.7 0.00111712 0)
(416.632 0.00545053 0)
(416.571 0.00910806 0)
(416.547 0.0110119 0)
(416.533 0.0226556 0)
(416.527 0.0323456 0)
(416.506 0.040976 0)
(416.458 0.0491717 0)
(416.375 0.0592146 0)
(416.256 0.0653204 0)
(416.1 0.0709213 0)
(415.899 0.0765372 0)
(415.648 0.0794325 0)
(415.327 0.0813931 0)
(414.957 0.0827402 0)
(414.547 0.0819806 0)
(414.123 0.0789501 0)
(413.695 0.0795531 0)
(413.282 0.0704 0)
(412.967 0.059325 0)
(412.692 0.0642807 0)
(412.417 0.0674457 0)
(412.138 0.0701055 0)
(411.847 0.0756012 0)
(411.532 0.0794128 0)
(411.186 0.0845327 0)
(410.792 0.0905314 0)
(410.343 0.0968069 0)
(409.825 0.105005 0)
(409.243 0.117059 0)
(408.599 0.126438 0)
(407.915 0.137747 0)
(407.187 0.146186 0)
(406.436 0.147241 0)
(405.818 0.145424 0)
(405.174 0.140964 0)
(404.52 0.136746 0)
(403.93 0.125779 0)
(403.32 0.117375 0)
(402.717 0.112672 0)
(402.104 0.108172 0)
(401.492 0.105627 0)
(400.855 0.108233 0)
(400.196 0.113033 0)
(399.508 0.124227 0)
(398.79 0.1263 0)
(398.044 0.140436 0)
(397.382 0.129879 0)
(396.673 0.124052 0)
(395.945 0.119511 0)
(395.285 0.108821 0)
(394.609 0.095759 0)
(393.923 0.0979114 0)
(393.446 0.0854923 0)
(392.877 0.0653889 0)
(392.219 0.0929216 0)
(391.887 0.0626643 0)
(391.458 0.0652659 0)
(390.974 0.0770774 0)
(390.439 0.0846376 0)
(390.021 0.0764952 0)
(389.555 0.0741908 0)
(389.048 0.0783914 0)
(388.625 0.0671833 0)
(388.179 0.0695328 0)
(387.577 0.063366 0)
(6.44234 -12.1685 0)
(9.93447 -5.11226 0)
(7.90308 1.89112 0)
(-2.87034 9.00124 0)
(-22.5898 15.8008 0)
(-46.2088 23.369 0)
(-69.1479 28.408 0)
(-88.9982 28.947 0)
(-105.86 27.2761 0)
(-120.026 23.6269 0)
(-132.047 20.4405 0)
(-142.1 17.2074 0)
(-150.728 14.4391 0)
(-158 12.1562 0)
(-163.938 10.3238 0)
(-168.848 8.98348 0)
(-172.816 7.99792 0)
(-175.938 7.22966 0)
(-178.5 6.65998 0)
(-180.626 6.1794 0)
(-182.253 5.74236 0)
(-183.36 5.34094 0)
(-183.937 4.967 0)
(-183.995 4.51603 0)
(-183.316 4.0799 0)
(-181.805 3.51457 0)
(-179.466 2.9374 0)
(-176.247 2.37486 0)
(-172.187 1.709 0)
(-167.349 1.02579 0)
(-161.679 0.368353 0)
(-155.222 -0.323196 0)
(-148 -1.00924 0)
(-140.016 -1.83998 0)
(-131.232 -2.61528 0)
(-121.624 -3.6304 0)
(-111.103 -4.59391 0)
(-99.906 -5.50077 0)
(-88.089 -6.45909 0)
(-75.6751 -7.22425 0)
(-62.6802 -8.38894 0)
(-49.128 -9.1283 0)
(-35.2323 -10.1635 0)
(-21.0721 -10.597 0)
(-6.81148 -11.5628 0)
(7.77835 -12.112 0)
(22.6252 -13.2816 0)
(37.4748 -13.6748 0)
(52.2208 -14.4505 0)
(66.8687 -14.5771 0)
(81.2867 -14.9943 0)
(95.3415 -14.8798 0)
(109.185 -15.0271 0)
(122.731 -15.0827 0)
(135.861 -15.0539 0)
(148.665 -15.0949 0)
(161.015 -14.8739 0)
(172.916 -14.6466 0)
(184.301 -14.3034 0)
(195.234 -13.9889 0)
(205.767 -13.6886 0)
(215.885 -13.3398 0)
(225.703 -13.0633 0)
(235.146 -12.7015 0)
(244.375 -12.4712 0)
(253.37 -12.1448 0)
(262.002 -11.784 0)
(270.48 -11.4004 0)
(278.365 -10.8042 0)
(285.967 -10.3949 0)
(293.133 -9.81742 0)
(299.926 -9.43113 0)
(306.504 -8.97297 0)
(312.703 -8.52446 0)
(318.736 -8.22593 0)
(324.546 -7.71034 0)
(329.891 -7.31307 0)
(335.075 -6.97032 0)
(340.021 -6.59562 0)
(344.8 -6.35453 0)
(349.482 -5.96595 0)
(353.822 -5.64009 0)
(357.907 -5.25568 0)
(361.714 -5.01017 0)
(365.46 -4.75381 0)
(368.998 -4.48203 0)
(372.379 -4.29808 0)
(375.718 -4.08357 0)
(378.904 -3.87233 0)
(381.914 -3.70291 0)
(384.838 -3.51599 0)
(387.568 -3.35251 0)
(390.226 -3.16683 0)
(392.811 -2.95871 0)
(395.231 -2.79923 0)
(397.57 -2.65936 0)
(399.789 -2.53209 0)
(401.888 -2.40683 0)
(403.849 -2.29065 0)
(405.69 -2.20002 0)
(407.462 -2.10161 0)
(409.122 -2.01009 0)
(410.715 -1.91775 0)
(412.205 -1.83396 0)
(413.634 -1.75807 0)
(415.029 -1.68122 0)
(416.397 -1.60911 0)
(417.717 -1.54458 0)
(418.973 -1.48427 0)
(420.191 -1.41337 0)
(421.341 -1.36188 0)
(422.48 -1.30451 0)
(423.537 -1.25205 0)
(424.525 -1.21295 0)
(425.55 -1.17432 0)
(426.623 -1.0738 0)
(427.764 -1.0297 0)
(428.991 -0.843588 0)
(430.506 -1.04461 0)
(431.073 -0.791274 0)
(431.84 -0.700945 0)
(432.743 -0.88072 0)
(433.207 -0.859724 0)
(433.797 -0.824851 0)
(434.486 -0.810404 0)
(435.25 -0.749626 0)
(436.052 -0.687916 0)
(436.881 -0.631698 0)
(437.585 -0.577779 0)
(438.301 -0.565007 0)
(438.79 -0.515007 0)
(439.305 -0.505159 0)
(439.643 -0.481574 0)
(439.99 -0.469123 0)
(440.338 -0.465198 0)
(440.676 -0.437069 0)
(441.017 -0.421455 0)
(441.355 -0.398013 0)
(441.684 -0.381013 0)
(442.016 -0.361054 0)
(442.336 -0.346799 0)
(442.661 -0.332702 0)
(442.974 -0.312262 0)
(443.293 -0.29075 0)
(443.61 -0.27242 0)
(443.926 -0.252474 0)
(444.233 -0.236779 0)
(444.538 -0.218655 0)
(444.845 -0.204563 0)
(445.158 -0.186446 0)
(445.479 -0.172794 0)
(445.811 -0.157373 0)
(446.162 -0.153545 0)
(446.441 -0.141666 0)
(446.716 -0.133098 0)
(447.004 -0.128964 0)
(447.188 -0.115627 0)
(447.375 -0.116444 0)
(447.468 -0.0773295 0)
(447.553 -0.0509435 0)
(447.641 -0.0242912 0)
(447.72 0.0113872 0)
(447.81 0.0298311 0)
(447.876 0.067054 0)
(447.973 0.0742769 0)
(448.009 0.091923 0)
(448.047 0.0800229 0)
(448.07 0.0633138 0)
(448.068 0.0426756 0)
(448.035 0.023347 0)
(447.971 0.00510937 0)
(447.879 -0.0139431 0)
(447.756 -0.0336011 0)
(447.628 -0.0320812 0)
(447.541 -0.0251649 0)
(447.487 -0.0126068 0)
(447.442 -0.00145527 0)
(447.423 0.00812696 0)
(447.417 0.026759 0)
(447.417 0.0457831 0)
(447.401 0.0615053 0)
(447.361 0.0729824 0)
(447.293 0.0880104 0)
(447.194 0.0959427 0)
(447.063 0.103314 0)
(446.891 0.110457 0)
(446.677 0.111096 0)
(446.401 0.111793 0)
(446.08 0.112825 0)
(445.72 0.110962 0)
(445.344 0.107093 0)
(444.961 0.113393 0)
(444.584 0.104979 0)
(444.28 0.0980846 0)
(444.004 0.107122 0)
(443.722 0.115266 0)
(443.432 0.121646 0)
(443.13 0.130798 0)
(442.806 0.135541 0)
(442.454 0.1431 0)
(442.06 0.148205 0)
(441.617 0.15662 0)
(441.115 0.164631 0)
(440.555 0.184068 0)
(439.937 0.199453 0)
(439.279 0.222305 0)
(438.577 0.23389 0)
(437.849 0.250627 0)
(437.213 0.247379 0)
(436.554 0.237505 0)
(435.881 0.235862 0)
(435.252 0.217723 0)
(434.607 0.201677 0)
(433.962 0.194589 0)
(433.308 0.186278 0)
(432.653 0.182414 0)
(431.978 0.185443 0)
(431.284 0.194197 0)
(430.566 0.211129 0)
(429.821 0.213793 0)
(429.05 0.244641 0)
(428.346 0.22131 0)
(427.6 0.209072 0)
(426.832 0.203729 0)
(426.11 0.189065 0)
(425.375 0.164712 0)
(424.623 0.179128 0)
(424.062 0.151335 0)
(423.425 0.115046 0)
(422.706 0.172249 0)
(422.285 0.120053 0)
(421.789 0.121225 0)
(421.25 0.137798 0)
(420.666 0.152696 0)
(420.196 0.137532 0)
(419.687 0.132029 0)
(419.14 0.139908 0)
(418.672 0.122306 0)
(418.187 0.124789 0)
(417.523 0.119741 0)
(3.13875 -16.366 0)
(5.92669 -5.01086 0)
(-3.29043 7.82821 0)
(-20.7083 18.9621 0)
(-43.1661 28.9773 0)
(-64.0627 36.2212 0)
(-82.3338 38.8951 0)
(-97.6685 38.059 0)
(-110.251 34.9076 0)
(-120.468 30.4943 0)
(-129.408 25.9018 0)
(-137.147 21.405 0)
(-143.551 17.6438 0)
(-148.864 14.6801 0)
(-153.158 12.3966 0)
(-156.719 10.7303 0)
(-159.58 9.52584 0)
(-161.732 8.55482 0)
(-163.465 7.82298 0)
(-164.821 7.20384 0)
(-165.741 6.65129 0)
(-166.216 6.13308 0)
(-166.173 5.5147 0)
(-165.507 4.91196 0)
(-164.107 4.21948 0)
(-161.874 3.40604 0)
(-158.839 2.58724 0)
(-154.924 1.72525 0)
(-150.137 0.782177 0)
(-144.506 -0.18835 0)
(-137.968 -1.14877 0)
(-130.563 -2.15665 0)
(-122.308 -3.15057 0)
(-113.23 -4.37308 0)
(-103.263 -5.52972 0)
(-92.418 -7.04339 0)
(-80.5781 -8.44965 0)
(-68.0612 -9.70493 0)
(-54.9963 -11.1292 0)
(-41.2332 -12.2767 0)
(-26.7971 -13.9461 0)
(-11.8616 -14.9826 0)
(3.45651 -16.4454 0)
(18.9132 -17.0133 0)
(34.477 -18.3943 0)
(50.3686 -19.0421 0)
(66.3111 -20.6343 0)
(82.2584 -21.0023 0)
(97.8879 -22.0481 0)
(113.273 -22.0673 0)
(128.321 -22.5869 0)
(142.847 -22.3061 0)
(157.103 -22.4996 0)
(170.951 -22.4258 0)
(184.292 -22.2285 0)
(197.239 -22.1828 0)
(209.599 -21.7416 0)
(221.425 -21.3487 0)
(232.615 -20.7353 0)
(243.265 -20.2222 0)
(253.449 -19.6846 0)
(263.11 -19.1101 0)
(272.438 -18.6113 0)
(281.304 -18.04 0)
(289.928 -17.6303 0)
(298.262 -17.0723 0)
(306.18 -16.5135 0)
(313.927 -15.8911 0)
(321.026 -15.0483 0)
(327.852 -14.4404 0)
(334.227 -13.6384 0)
(340.247 -13.0703 0)
(346.053 -12.4085 0)
(351.486 -11.7853 0)
(356.788 -11.326 0)
(361.821 -10.6067 0)
(366.399 -10.0395 0)
(370.839 -9.53841 0)
(375.064 -9.01836 0)
(379.156 -8.65799 0)
(383.18 -8.12846 0)
(386.885 -7.69544 0)
(390.357 -7.18032 0)
(393.589 -6.84542 0)
(396.793 -6.49173 0)
(399.794 -6.12654 0)
(402.671 -5.8651 0)
(405.521 -5.57444 0)
(408.218 -5.28867 0)
(410.773 -5.05959 0)
(413.259 -4.8173 0)
(415.59 -4.60184 0)
(417.86 -4.33878 0)
(420.061 -4.05901 0)
(422.115 -3.84437 0)
(424.112 -3.65807 0)
(426.008 -3.49208 0)
(427.806 -3.33091 0)
(429.48 -3.18522 0)
(431.057 -3.06953 0)
(432.584 -2.93912 0)
(434.014 -2.81813 0)
(435.388 -2.69465 0)
(436.672 -2.58389 0)
(437.91 -2.4779 0)
(439.117 -2.36877 0)
(440.304 -2.26928 0)
(441.448 -2.18253 0)
(442.543 -2.10022 0)
(443.604 -2.00335 0)
(444.602 -1.93333 0)
(445.604 -1.85361 0)
(446.514 -1.78876 0)
(447.388 -1.73667 0)
(448.295 -1.66389 0)
(449.237 -1.51645 0)
(450.25 -1.43528 0)
(451.315 -1.19617 0)
(452.609 -1.428 0)
(453.125 -1.17201 0)
(453.794 -1.0636 0)
(454.531 -1.26445 0)
(455.002 -1.28029 0)
(455.551 -1.22433 0)
(456.18 -1.17615 0)
(456.869 -1.07892 0)
(457.591 -0.990756 0)
(458.338 -0.914534 0)
(458.971 -0.84822 0)
(459.618 -0.835056 0)
(460.074 -0.784426 0)
(460.547 -0.768471 0)
(460.868 -0.741285 0)
(461.194 -0.715436 0)
(461.519 -0.699514 0)
(461.829 -0.659005 0)
(462.136 -0.63475 0)
(462.44 -0.599605 0)
(462.732 -0.576542 0)
(463.028 -0.548752 0)
(463.311 -0.529059 0)
(463.597 -0.508541 0)
(463.875 -0.481335 0)
(464.158 -0.449412 0)
(464.441 -0.423207 0)
(464.721 -0.394604 0)
(464.994 -0.371442 0)
(465.265 -0.345115 0)
(465.538 -0.323097 0)
(465.817 -0.29608 0)
(466.103 -0.274665 0)
(466.398 -0.250794 0)
(466.712 -0.248364 0)
(466.963 -0.232003 0)
(467.212 -0.222594 0)
(467.472 -0.218693 0)
(467.646 -0.209896 0)
(467.824 -0.206928 0)
(467.921 -0.168252 0)
(468.011 -0.127811 0)
(468.105 -0.0869566 0)
(468.189 -0.0295874 0)
(468.285 0.00814132 0)
(468.355 0.0581882 0)
(468.455 0.080146 0)
(468.496 0.0989332 0)
(468.538 0.0870692 0)
(468.563 0.0671139 0)
(468.567 0.037373 0)
(468.535 0.0123525 0)
(468.48 -0.0169711 0)
(468.394 -0.048403 0)
(468.28 -0.077249 0)
(468.165 -0.0686151 0)
(468.082 -0.0542178 0)
(468.025 -0.0352388 0)
(467.978 -0.0147047 0)
(467.954 0.00278449 0)
(467.944 0.0306774 0)
(467.935 0.0571516 0)
(467.912 0.0809317 0)
(467.867 0.0959113 0)
(467.796 0.114575 0)
(467.698 0.123892 0)
(467.57 0.133169 0)
(467.407 0.139269 0)
(467.206 0.138692 0)
(466.949 0.138306 0)
(466.651 0.137928 0)
(466.318 0.134479 0)
(465.971 0.130053 0)
(465.617 0.142791 0)
(465.264 0.137363 0)
(464.972 0.142861 0)
(464.702 0.152627 0)
(464.423 0.166331 0)
(464.134 0.176538 0)
(463.83 0.189215 0)
(463.504 0.19464 0)
(463.151 0.203351 0)
(462.759 0.207217 0)
(462.322 0.217232 0)
(461.831 0.224178 0)
(461.287 0.248067 0)
(460.689 0.268408 0)
(460.051 0.303862 0)
(459.371 0.318968 0)
(458.666 0.355609 0)
(458.033 0.352071 0)
(457.376 0.338055 0)
(456.705 0.341589 0)
(456.063 0.31621 0)
(455.408 0.293105 0)
(454.746 0.283527 0)
(454.076 0.27075 0)
(453.399 0.266351 0)
(452.705 0.267888 0)
(451.992 0.280044 0)
(451.258 0.302373 0)
(450.498 0.305982 0)
(449.714 0.35109 0)
(448.986 0.321396 0)
(448.221 0.302147 0)
(447.431 0.295254 0)
(446.669 0.277848 0)
(445.896 0.242827 0)
(445.103 0.266449 0)
(444.48 0.228848 0)
(443.792 0.175048 0)
(443.03 0.255576 0)
(442.539 0.190947 0)
(441.986 0.187995 0)
(441.398 0.205095 0)
(440.77 0.226435 0)
(440.252 0.207089 0)
(439.7 0.197437 0)
(439.115 0.207429 0)
(438.604 0.185692 0)
(438.08 0.187456 0)
(437.359 0.18363 0)
(-1.56693 -17.7058 0)
(-4.28418 -0.469933 0)
(-18.4988 16.5486 0)
(-37.575 30.9402 0)
(-56.6233 40.9937 0)
(-73.4143 46.2556 0)
(-87.6025 47.4032 0)
(-99.2506 45.1734 0)
(-108.441 40.7407 0)
(-115.876 34.7369 0)
(-122.539 29.0811 0)
(-128.222 24.1083 0)
(-132.896 19.9168 0)
(-136.786 16.5538 0)
(-139.985 13.9697 0)
(-142.647 12.0543 0)
(-144.777 10.6689 0)
(-146.26 9.53449 0)
(-147.406 8.66185 0)
(-148.2 7.92217 0)
(-148.59 7.2292 0)
(-148.498 6.48825 0)
(-147.848 5.74283 0)
(-146.537 4.89485 0)
(-144.453 3.94165 0)
(-141.535 2.84224 0)
(-137.752 1.71977 0)
(-133.037 0.514902 0)
(-127.369 -0.760642 0)
(-120.765 -2.10413 0)
(-113.162 -3.44414 0)
(-104.599 -4.86438 0)
(-95.0805 -6.2336 0)
(-84.6743 -7.92717 0)
(-73.2862 -9.51333 0)
(-60.9494 -11.6307 0)
(-47.4619 -13.5744 0)
(-33.2765 -15.1445 0)
(-18.5995 -17.0679 0)
(-3.17296 -18.6251 0)
(13.016 -20.7408 0)
(29.7049 -22.0148 0)
(46.6411 -23.9857 0)
(64.0118 -24.7401 0)
(81.5091 -26.6005 0)
(99.3803 -27.3724 0)
(117.081 -29.3375 0)
(134.513 -29.4724 0)
(151.389 -30.7651 0)
(167.714 -30.4663 0)
(183.546 -31.062 0)
(198.619 -30.4054 0)
(213.237 -30.5819 0)
(227.39 -30.3012 0)
(240.897 -29.7897 0)
(253.848 -29.5871 0)
(266.113 -28.813 0)
(277.547 -28.135 0)
(288.316 -27.1709 0)
(298.284 -26.3815 0)
(307.803 -25.5233 0)
(316.59 -24.6735 0)
(325.07 -23.8855 0)
(332.929 -23.0534 0)
(340.566 -22.4124 0)
(347.825 -21.5801 0)
(354.64 -20.798 0)
(361.295 -19.899 0)
(367.198 -18.805 0)
(372.907 -17.9897 0)
(378.096 -16.9675 0)
(383.001 -16.2158 0)
(387.676 -15.3408 0)
(391.979 -14.5492 0)
(396.225 -13.9444 0)
(400.238 -13.064 0)
(403.858 -12.366 0)
(407.396 -11.7213 0)
(410.748 -11.0835 0)
(414.03 -10.6155 0)
(417.256 -9.95309 0)
(420.216 -9.4456 0)
(422.961 -8.81574 0)
(425.509 -8.42164 0)
(428.061 -7.9687 0)
(430.412 -7.52423 0)
(432.666 -7.19385 0)
(434.912 -6.82691 0)
(437.003 -6.48152 0)
(439 -6.20101 0)
(440.945 -5.91734 0)
(442.787 -5.65945 0)
(444.574 -5.32343 0)
(446.298 -4.9839 0)
(447.898 -4.72627 0)
(449.468 -4.49872 0)
(450.95 -4.29974 0)
(452.357 -4.11001 0)
(453.653 -3.94699 0)
(454.881 -3.81442 0)
(456.079 -3.65845 0)
(457.196 -3.51612 0)
(458.27 -3.36824 0)
(459.271 -3.23786 0)
(460.243 -3.10551 0)
(461.189 -2.96789 0)
(462.122 -2.84551 0)
(463.021 -2.73902 0)
(463.886 -2.63772 0)
(464.72 -2.51882 0)
(465.503 -2.43412 0)
(466.295 -2.33222 0)
(466.998 -2.26515 0)
(467.7 -2.19922 0)
(468.432 -2.09067 0)
(469.182 -1.89337 0)
(470.008 -1.76731 0)
(470.857 -1.50151 0)
(471.876 -1.72025 0)
(472.293 -1.51299 0)
(472.815 -1.41071 0)
(473.329 -1.60385 0)
(473.761 -1.6641 0)
(474.212 -1.59304 0)
(474.724 -1.50554 0)
(475.285 -1.36713 0)
(475.875 -1.25538 0)
(476.49 -1.16074 0)
(476.999 -1.08764 0)
(477.525 -1.07366 0)
(477.896 -1.03037 0)
(478.275 -1.01247 0)
(478.53 -0.983813 0)
(478.785 -0.945449 0)
(479.041 -0.916228 0)
(479.281 -0.862481 0)
(479.52 -0.829704 0)
(479.753 -0.782573 0)
(479.979 -0.754807 0)
(480.207 -0.71806 0)
(480.423 -0.693898 0)
(480.642 -0.66611 0)
(480.858 -0.63277 0)
(481.076 -0.589895 0)
(481.298 -0.5568 0)
(481.516 -0.519713 0)
(481.729 -0.489579 0)
(481.942 -0.455142 0)
(482.157 -0.425245 0)
(482.377 -0.388875 0)
(482.604 -0.359828 0)
(482.838 -0.328465 0)
(483.09 -0.326759 0)
(483.291 -0.307638 0)
(483.489 -0.298165 0)
(483.698 -0.296382 0)
(483.835 -0.292158 0)
(483.975 -0.291858 0)
(484.053 -0.252748 0)
(484.115 -0.196291 0)
(484.188 -0.140581 0)
(484.249 -0.0677836 0)
(484.325 -0.0146739 0)
(484.372 0.0519103 0)
(484.45 0.0856397 0)
(484.473 0.105809 0)
(484.493 0.0962301 0)
(484.498 0.0736908 0)
(484.49 0.036346 0)
(484.444 0.00495471 0)
(484.377 -0.0370489 0)
(484.281 -0.0786308 0)
(484.159 -0.115073 0)
(484.041 -0.101864 0)
(483.948 -0.0805011 0)
(483.878 -0.0535497 0)
(483.817 -0.0241924 0)
(483.778 0.000145503 0)
(483.754 0.0386031 0)
(483.725 0.0726766 0)
(483.686 0.10413 0)
(483.625 0.123043 0)
(483.539 0.144139 0)
(483.428 0.15439 0)
(483.29 0.165205 0)
(483.121 0.168726 0)
(482.917 0.16565 0)
(482.663 0.164282 0)
(482.373 0.161553 0)
(482.052 0.156029 0)
(481.718 0.15116 0)
(481.38 0.170121 0)
(481.04 0.168684 0)
(480.755 0.189484 0)
(480.488 0.201425 0)
(480.21 0.220284 0)
(479.921 0.234572 0)
(479.616 0.251069 0)
(479.288 0.257176 0)
(478.933 0.266508 0)
(478.541 0.268847 0)
(478.107 0.279259 0)
(477.623 0.28559 0)
(477.089 0.313546 0)
(476.505 0.336435 0)
(475.883 0.384608 0)
(475.219 0.403342 0)
(474.532 0.460805 0)
(473.901 0.458573 0)
(473.252 0.441421 0)
(472.586 0.450259 0)
(471.94 0.418166 0)
(471.283 0.389223 0)
(470.616 0.376619 0)
(469.939 0.359752 0)
(469.253 0.354732 0)
(468.549 0.355461 0)
(467.826 0.370927 0)
(467.081 0.397912 0)
(466.311 0.402776 0)
(465.52 0.461306 0)
(464.772 0.427631 0)
(463.994 0.40163 0)
(463.192 0.392476 0)
(462.4 0.373127 0)
(461.6 0.32774 0)
(460.78 0.359666 0)
(460.107 0.315217 0)
(459.381 0.244614 0)
(458.589 0.344175 0)
(458.038 0.272326 0)
(457.434 0.264717 0)
(456.802 0.279689 0)
(456.133 0.307285 0)
(455.568 0.284652 0)
(454.974 0.270379 0)
(454.352 0.281056 0)
(453.8 0.256301 0)
(453.238 0.256929 0)
(452.461 0.254045 0)
(-7.1643 -12.8329 0)
(-15.6397 5.55896 0)
(-30.8676 26.6928 0)
(-47.8434 41.6489 0)
(-63.5661 50.3146 0)
(-76.8473 54.2564 0)
(-87.8534 54.0234 0)
(-96.5734 50.3201 0)
(-103.199 44.1884 0)
(-108.649 37.6452 0)
(-113.434 31.5227 0)
(-117.492 26.1051 0)
(-120.92 21.5884 0)
(-123.81 17.9761 0)
(-126.192 15.1758 0)
(-128.13 13.0567 0)
(-129.625 11.4943 0)
(-130.496 10.2126 0)
(-131.083 9.19882 0)
(-131.316 8.29643 0)
(-131.091 7.41282 0)
(-130.367 6.52812 0)
(-129.048 5.55554 0)
(-127.007 4.43431 0)
(-124.145 3.16756 0)
(-120.4 1.72713 0)
(-115.696 0.239478 0)
(-109.984 -1.37273 0)
(-103.224 -3.0431 0)
(-95.4274 -4.84808 0)
(-86.5059 -6.64718 0)
(-76.531 -8.57996 0)
(-65.4456 -10.3977 0)
(-53.3751 -12.6643 0)
(-40.2562 -14.6806 0)
(-25.9981 -17.4679 0)
(-10.4114 -20.0347 0)
(6.03183 -21.8763 0)
(23.064 -24.501 0)
(40.9939 -26.5214 0)
(59.6366 -29.1985 0)
(78.9965 -30.6889 0)
(98.5213 -33.2925 0)
(118.697 -34.0911 0)
(139.022 -36.5805 0)
(159.53 -37.2642 0)
(179.463 -39.5797 0)
(198.672 -39.1516 0)
(216.785 -40.5854 0)
(234.186 -39.7618 0)
(250.555 -40.3023 0)
(266.335 -39.2154 0)
(280.814 -39.0513 0)
(295.176 -38.6515 0)
(308.89 -37.7248 0)
(321.327 -37.1369 0)
(333.426 -35.9671 0)
(343.823 -34.8147 0)
(353.942 -33.4712 0)
(362.621 -32.2767 0)
(371.135 -31.0334 0)
(378.515 -29.8382 0)
(385.764 -28.7019 0)
(392.1 -27.5477 0)
(398.355 -26.6113 0)
(404.034 -25.4457 0)
(409.359 -24.4086 0)
(414.484 -23.2002 0)
(418.786 -21.8575 0)
(423.022 -20.825 0)
(426.625 -19.5815 0)
(430.09 -18.6526 0)
(433.274 -17.5548 0)
(436.099 -16.5869 0)
(438.978 -15.8443 0)
(441.658 -14.7984 0)
(444.04 -14.0366 0)
(446.4 -13.2553 0)
(448.595 -12.5256 0)
(450.862 -11.9994 0)
(453.029 -11.2013 0)
(455.033 -10.6657 0)
(456.814 -9.93901 0)
(458.49 -9.51986 0)
(460.168 -8.97464 0)
(461.701 -8.48974 0)
(463.232 -8.13745 0)
(464.763 -7.70369 0)
(466.167 -7.32872 0)
(467.539 -7.01323 0)
(468.873 -6.71359 0)
(470.165 -6.42454 0)
(471.401 -6.02411 0)
(472.582 -5.64686 0)
(473.682 -5.36439 0)
(474.764 -5.10385 0)
(475.762 -4.88167 0)
(476.714 -4.67376 0)
(477.572 -4.50948 0)
(478.399 -4.36924 0)
(479.212 -4.19651 0)
(479.96 -4.04448 0)
(480.68 -3.88244 0)
(481.35 -3.74181 0)
(482.005 -3.58918 0)
(482.642 -3.4297 0)
(483.272 -3.29045 0)
(483.876 -3.16738 0)
(484.464 -3.05074 0)
(485.019 -2.91635 0)
(485.543 -2.8223 0)
(486.073 -2.70179 0)
(486.537 -2.64079 0)
(487.02 -2.55983 0)
(487.535 -2.41727 0)
(488.045 -2.1663 0)
(488.641 -1.99422 0)
(489.237 -1.73251 0)
(489.942 -1.90644 0)
(490.245 -1.77721 0)
(490.572 -1.7085 0)
(490.849 -1.8765 0)
(491.184 -1.97692 0)
(491.498 -1.89664 0)
(491.859 -1.77016 0)
(492.255 -1.59136 0)
(492.68 -1.46093 0)
(493.129 -1.34908 0)
(493.478 -1.2747 0)
(493.843 -1.25998 0)
(494.095 -1.22856 0)
(494.342 -1.21403 0)
(494.495 -1.1855 0)
(494.645 -1.13691 0)
(494.799 -1.09587 0)
(494.937 -1.02937 0)
(495.077 -0.990622 0)
(495.212 -0.931098 0)
(495.342 -0.90196 0)
(495.477 -0.85651 0)
(495.602 -0.828107 0)
(495.73 -0.793405 0)
(495.86 -0.754534 0)
(495.989 -0.700816 0)
(496.127 -0.662771 0)
(496.261 -0.617338 0)
(496.393 -0.581025 0)
(496.526 -0.538198 0)
(496.663 -0.501229 0)
(496.803 -0.45483 0)
(496.952 -0.419124 0)
(497.107 -0.382061 0)
(497.277 -0.379213 0)
(497.411 -0.360276 0)
(497.539 -0.352216 0)
(497.676 -0.353989 0)
(497.755 -0.35475 0)
(497.838 -0.359376 0)
(497.873 -0.317716 0)
(497.89 -0.255027 0)
(497.918 -0.184436 0)
(497.942 -0.0988565 0)
(497.968 -0.0291525 0)
(497.978 0.0529332 0)
(498.008 0.0981166 0)
(497.991 0.120555 0)
(497.972 0.115273 0)
(497.943 0.0903715 0)
(497.902 0.0425294 0)
(497.826 0.00367128 0)