/*--------------------------------*- C++ -*----------------------------------*\
| =========                 |                                                 |
| \\      /  F ield         | OpenFOAM: The Open Source CFD Toolbox           |
|  \\    /   O peration     | Version:  2312                                  |
|   \\  /    A nd           | Website:  www.openfoam.com                      |
|    \\/     M anipulation  |                                                 |
\*---------------------------------------------------------------------------*/
FoamFile
{
    version     2.0;
    format      ascii;
    arch        "LSB;label=32;scalar=64";
    class       volScalarField;
    location    "0.0002";
    object      p;
}
// * * * * * * * * * * * * * * * * * * * * * * * * * * * * * * * * * * * * * //

dimensions      [1 -1 -2 0 0 0 0];

internalField   nonuniform List<scalar> 
800
(
1e+07
1e+07
1e+07
1e+07
1e+07
1e+07
1e+07
1e+07
1e+07
1e+07
1e+07
1e+07
1e+07
1e+07
1e+07
1e+07
1e+07
1e+07
1e+07
1e+07
1e+07
1e+07
1e+07
1e+07
1e+07
1e+07
1e+07
1e+07
1e+07
1e+07
1e+07
1e+07
1e+07
1e+07
1e+07
1e+07
1e+07
1e+07
1e+07
1e+07
1e+07
1e+07
1e+07
1e+07
1e+07
1e+07
1e+07
1e+07
1e+07
1e+07
1e+07
1e+07
1e+07
1e+07
1e+07
1e+07
1e+07
1e+07
1e+07
1e+07
1e+07
1e+07
1e+07
1e+07
1e+07
1e+07
1e+07
1e+07
1e+07
1e+07
1e+07
1e+07
1e+07
1e+07
1e+07
1e+07
1e+07
1e+07
1e+07
1e+07
1e+07
1e+07
1e+07
1e+07
1e+07
1e+07
1e+07
1e+07
1e+07
1e+07
1e+07
1e+07
1e+07
1e+07
1e+07
1e+07
1e+07
1e+07
1e+07
1e+07
1e+07
1e+07
1e+07
1e+07
1e+07
1e+07
1e+07
1e+07
1e+07
1e+07
1e+07
1e+07
1e+07
1e+07
1e+07
1e+07
9.99999e+06
9.99999e+06
9.99999e+06
9.99998e+06
9.99997e+06
9.99996e+06
9.99994e+06
9.99991e+06
9.99986e+06
9.9998e+06
9.99972e+06
9.99959e+06
9.99942e+06
9.99918e+06
9.99884e+06
9.99837e+06
9.99773e+06
9.99686e+06
9.99567e+06
9.99408e+06
9.99195e+06
9.98913e+06
9.98541e+06
9.98054e+06
9.97423e+06
9.96609e+06
9.95569e+06
9.94249e+06
9.92588e+06
9.90514e+06
9.87947e+06
9.84795e+06
9.80959e+06
9.76332e+06
9.70799e+06
9.64244e+06
9.56551e+06
9.47608e+06
9.37315e+06
9.25586e+06
9.12356e+06
8.97591e+06
8.8129e+06
8.63493e+06
8.44285e+06
8.23796e+06
8.02214e+06
7.80032e+06
7.58212e+06
7.37065e+06
7.168e+06
6.97595e+06
6.79593e+06
6.629e+06
6.47583e+06
6.33673e+06
6.2117e+06
6.10044e+06
6.00241e+06
5.91689e+06
5.843e+06
5.77978e+06
5.72619e+06
5.68121e+06
5.64379e+06
5.61296e+06
5.58779e+06
5.56742e+06
5.5511e+06
5.53812e+06
5.52791e+06
5.51994e+06
5.51377e+06
5.50904e+06
5.50544e+06
5.50273e+06
5.5007e+06
5.4992e+06
5.49809e+06
5.49729e+06
5.49671e+06
5.49629e+06
5.49599e+06
5.49577e+06
5.49562e+06
5.49552e+06
5.49544e+06
5.49539e+06
5.49536e+06
5.49533e+06
5.49532e+06
5.4953e+06
5.49529e+06
5.49528e+06
5.49528e+06
5.49528e+06
5.49527e+06
5.49527e+06
5.49527e+06
5.49526e+06
5.49526e+06
5.49526e+06
5.49526e+06
5.49526e+06
5.49525e+06
5.49525e+06
5.49525e+06
5.49525e+06
5.49525e+06
5.49525e+06
5.49525e+06
5.49524e+06
5.49524e+06
5.49524e+06
5.49524e+06
5.49524e+06
5.49524e+06
5.49524e+06
5.49524e+06
5.49524e+06
5.49524e+06
5.49524e+06
5.49524e+06
5.49524e+06
5.49523e+06
5.49523e+06
5.49523e+06
5.49523e+06
5.49523e+06
5.49523e+06
5.49523e+06
5.49523e+06
5.49523e+06
5.49523e+06
5.49523e+06
5.49523e+06
5.49523e+06
5.49523e+06
5.49523e+06
5.49523e+06
5.49523e+06
5.49523e+06
5.49523e+06
5.49523e+06
5.49523e+06
5.49523e+06
5.49523e+06
5.49523e+06
5.49523e+06
5.49522e+06
5.49522e+06
5.49522e+06
5.49522e+06
5.49522e+06
5.49522e+06
5.49522e+06
5.49522e+06
5.49522e+06
5.49522e+06
5.49522e+06
5.49522e+06
5.49522e+06
5.49522e+06
5.49522e+06
5.49522e+06
5.49522e+06
5.49522e+06
5.49522e+06
5.49522e+06
5.49522e+06
5.49522e+06
5.49522e+06
5.49522e+06
5.49522e+06
5.49522e+06
5.49522e+06
5.49522e+06
5.49522e+06
5.49522e+06
5.49522e+06
5.49522e+06
5.49522e+06
5.49522e+06
5.49522e+06
5.49522e+06
5.49522e+06
5.49522e+06
5.49522e+06
5.49522e+06
5.49522e+06
5.49522e+06
5.49522e+06
5.49522e+06
5.49522e+06
5.49522e+06
5.49522e+06
5.49522e+06
5.49522e+06
5.49522e+06
5.49522e+06
5.49522e+06
5.49522e+06
5.49522e+06
5.49522e+06
5.49522e+06
5.49522e+06
5.49522e+06
5.49522e+06
5.49522e+06
5.49522e+06
5.49522e+06
5.49522e+06
5.49522e+06
5.49522e+06
5.49522e+06
5.49522e+06
5.49522e+06
5.49522e+06
5.49522e+06
5.49522e+06
5.49522e+06
5.49522e+06
5.49522e+06
5.49522e+06
5.49522e+06
5.49522e+06
5.49522e+06
5.49522e+06
5.49522e+06
5.49522e+06
5.49521e+06
5.49521e+06
5.49521e+06
5.49521e+06
5.49521e+06
5.49521e+06
5.49521e+06
5.49521e+06
5.49521e+06
5.49521e+06
5.49521e+06
5.49521e+06
5.49521e+06
5.49521e+06
5.49521e+06
5.49521e+06
5.49521e+06
5.49521e+06
5.49521e+06
5.49521e+06
5.49521e+06
5.49521e+06
5.49521e+06
5.49521e+06
5.49521e+06
5.49521e+06
5.49521e+06
5.49521e+06
5.49521e+06
5.49521e+06
5.49521e+06
5.49521e+06
5.49521e+06
5.49521e+06
5.49521e+06
5.49521e+06
5.49521e+06
5.49521e+06
5.49521e+06
5.49521e+06
5.49521e+06
5.49521e+06
5.49521e+06
5.49521e+06
5.49521e+06
5.49521e+06
5.49521e+06
5.49521e+06
5.49521e+06
5.49521e+06
5.49521e+06
5.49521e+06
5.49521e+06
5.49521e+06
5.49521e+06
5.49521e+06
5.49521e+06
5.49521e+06
5.49521e+06
5.49521e+06
5.49521e+06
5.49521e+06
5.49521e+06
5.49521e+06
5.49521e+06
5.49521e+06
5.49521e+06
5.49521e+06
5.49521e+06
5.49521e+06
5.49521e+06
5.49521e+06
5.49521e+06
5.49521e+06
5.49521e+06
5.49521e+06
5.49521e+06
5.49521e+06
5.49521e+06
5.49521e+06
5.49521e+06
5.49521e+06
5.49521e+06
5.49521e+06
5.49521e+06
5.49521e+06
5.49521e+06
5.4952e+06
5.4952e+06
5.4952e+06
5.4952e+06
5.4952e+06
5.4952e+06
5.4952e+06
5.4952e+06
5.4952e+06
5.4952e+06
5.4952e+06
5.4952e+06
5.4952e+06
5.4952e+06
5.4952e+06
5.4952e+06
5.4952e+06
5.4952e+06
5.4952e+06
5.4952e+06
5.4952e+06
5.4952e+06
5.4952e+06
5.4952e+06
5.4952e+06
5.4952e+06
5.4952e+06
5.4952e+06
5.4952e+06
5.4952e+06
5.4952e+06
5.4952e+06
5.4952e+06
5.4952e+06
5.4952e+06
5.4952e+06
5.4952e+06
5.4952e+06
5.4952e+06
5.4952e+06
5.4952e+06
5.4952e+06
5.4952e+06
5.4952e+06
5.4952e+06
5.49519e+06
5.49519e+06
5.49519e+06
5.49519e+06
5.49519e+06
5.49519e+06
5.49519e+06
5.49519e+06
5.49519e+06
5.49519e+06
5.49519e+06
5.49519e+06
5.49519e+06
5.49519e+06
5.49519e+06
5.49519e+06
5.49519e+06
5.49519e+06
5.49519e+06
5.49519e+06
5.49519e+06
5.49519e+06
5.49519e+06
5.49519e+06
5.49519e+06
5.49519e+06
5.49519e+06
5.49519e+06
5.49519e+06
5.49518e+06
5.49518e+06
5.49518e+06
5.49518e+06
5.49518e+06
5.49518e+06
5.49518e+06
5.49518e+06
5.49518e+06
5.49518e+06
5.49518e+06
5.49518e+06
5.49518e+06
5.49518e+06
5.49518e+06
5.49518e+06
5.49518e+06
5.49518e+06
5.49518e+06
5.49517e+06
5.49517e+06
5.49517e+06
5.49517e+06
5.49517e+06
5.49517e+06
5.49517e+06
5.49517e+06
5.49517e+06
5.49517e+06
5.49517e+06
5.49517e+06
5.49517e+06
5.49517e+06
5.49517e+06
5.49516e+06
5.49516e+06
5.49516e+06
5.49516e+06
5.49516e+06
5.49516e+06
5.49516e+06
5.49516e+06
5.49516e+06
5.49516e+06
5.49516e+06
5.49515e+06
5.49515e+06
5.49515e+06
5.49515e+06
5.49515e+06
5.49515e+06
5.49515e+06
5.49515e+06
5.49515e+06
5.49514e+06
5.49514e+06
5.49514e+06
5.49514e+06
5.49514e+06
5.49514e+06
5.49514e+06
5.49513e+06
5.49513e+06
5.49513e+06
5.49513e+06
5.49513e+06
5.49513e+06
5.49512e+06
5.49512e+06
5.49512e+06
5.49512e+06
5.49512e+06
5.49511e+06
5.49511e+06
5.49511e+06
5.49511e+06
5.4951e+06
5.4951e+06
5.4951e+06
5.4951e+06
5.49509e+06
5.49509e+06
5.49509e+06
5.49508e+06
5.49508e+06
5.49507e+06
5.49506e+06
5.49505e+06
5.49503e+06
5.49501e+06
5.49498e+06
5.49493e+06
5.49487e+06
5.49478e+06
5.49465e+06
5.49446e+06
5.4942e+06
5.49384e+06
5.49333e+06
5.49262e+06
5.49164e+06
5.49031e+06
5.4885e+06
5.48607e+06
5.48283e+06
5.47854e+06
5.47291e+06
5.46558e+06
5.45613e+06
5.44403e+06
5.42867e+06
5.40936e+06
5.38528e+06
5.35552e+06
5.31907e+06
5.27482e+06
5.2216e+06
5.15819e+06
5.08335e+06
4.99589e+06
4.89466e+06
4.7787e+06
4.64724e+06
4.49978e+06
4.3362e+06
4.15677e+06
3.96226e+06
3.75396e+06
3.53369e+06
3.30384e+06
3.06688e+06
2.83105e+06
2.60736e+06
2.3984e+06
2.20591e+06
2.03093e+06
1.87384e+06
1.73449e+06
1.61229e+06
1.5063e+06
1.41533e+06
1.33805e+06
1.27303e+06
1.21886e+06
1.17413e+06
1.13753e+06
1.10784e+06
1.08396e+06
1.06491e+06
1.04984e+06
1.03801e+06
1.02879e+06
1.02166e+06
1.01619e+06
1.01203e+06
1.00888e+06
1.00651e+06
1.00474e+06
1.00344e+06
1.00247e+06
1.00177e+06
1.00126e+06
1.00089e+06
1.00063e+06
1.00044e+06
1.0003e+06
1.00021e+06
1.00014e+06
1.0001e+06
1.00007e+06
1.00005e+06
1.00003e+06
1.00002e+06
1.00001e+06
1.00001e+06
1.00001e+06
1e+06
1e+06
1e+06
1e+06
1e+06
1e+06
1e+06
1e+06
1e+06
1e+06
1e+06
1e+06
1e+06
1e+06
1e+06
1e+06
1e+06
1e+06
1e+06
1e+06
1e+06
1e+06
1e+06
1e+06
1e+06
1e+06
1e+06
1e+06
1e+06
1e+06
1e+06
1e+06
1e+06
1e+06
1e+06
1e+06
1e+06
1e+06
1e+06
1e+06
1e+06
1e+06
1e+06
1e+06
1e+06
1e+06
1e+06
1e+06
1e+06
1e+06
1e+06
1e+06
1e+06
1e+06
1e+06
1e+06
1e+06
1e+06
1e+06
1e+06
1e+06
1e+06
1e+06
1e+06
1e+06
1e+06
1e+06
1e+06
1e+06
1e+06
1e+06
1e+06
1e+06
1e+06
1e+06
1e+06
1e+06
1e+06
1e+06
1e+06
1e+06
1e+06
1e+06
1e+06
1e+06
1e+06
1e+06
1e+06
1e+06
1e+06
1e+06
1e+06
1e+06
1e+06
1e+06
1e+06
1e+06
1e+06
1e+06
1e+06
1e+06
1e+06
1e+06
1e+06
1e+06
1e+06
1e+06
1e+06
1e+06
1e+06
1e+06
1e+06
1e+06
1e+06
1e+06
1e+06
1e+06
)
;

boundaryField
{
    sides
    {
        type            zeroGradient;
    }
    empty1
    {
        type            empty;
    }
    empty2
    {
        type            empty;
    }
}


// ************************************************************************* //
