/*--------------------------------*- C++ -*----------------------------------*\
| =========                 |                                                 |
| \\      /  F ield         | OpenFOAM: The Open Source CFD Toolbox           |
|  \\    /   O peration     | Version:  2312                                  |
|   \\  /    A nd           | Website:  www.openfoam.com                      |
|    \\/     M anipulation  |                                                 |
\*---------------------------------------------------------------------------*/
FoamFile
{
    version     2.0;
    format      ascii;
    arch        "LSB;label=32;scalar=64";
    class       surfaceScalarField;
    location    "0.0002";
    object      phi;
}
// * * * * * * * * * * * * * * * * * * * * * * * * * * * * * * * * * * * * * //

dimensions      [1 0 -1 0 0 0 0];

oriented        oriented;

internalField   nonuniform List<scalar> 
799
(
6.32063e-13
2.44707e-12
2.06428e-12
1.27264e-13
4.70077e-13
-2.44605e-13
-2.70895e-12
-3.09726e-12
-6.3362e-13
-2.55876e-12
-2.92147e-12
-4.83337e-12
-5.93033e-12
-6.93141e-12
-7.20399e-12
-8.00796e-12
-8.94859e-12
-8.59591e-12
-9.59966e-12
-1.01985e-11
-8.73322e-12
-1.02133e-11
-1.04133e-11
-6.1893e-12
-6.91965e-12
-5.72253e-12
-6.49782e-12
-2.63643e-12
-3.5815e-12
-4.45377e-12
-4.69845e-12
-3.73091e-12
-3.5988e-12
-4.64941e-12
-2.26467e-12
-3.68318e-12
-1.91907e-12
-2.00634e-12
-2.2105e-12
8.75199e-13
-3.20895e-12
-2.75438e-12
2.2975e-12
-1.21582e-13
7.875e-13
2.83044e-12
5.85973e-12
2.97691e-12
2.66624e-12
1.79239e-12
3.59154e-12
3.48286e-12
3.76083e-12
3.29308e-12
2.20568e-12
2.75122e-12
4.01766e-12
5.47612e-12
3.21514e-12
4.80368e-12
5.71131e-12
9.03233e-12
6.66061e-12
8.24781e-12
7.54761e-12
8.0972e-12
4.82495e-12
9.67117e-12
7.81669e-12
6.59614e-12
6.12734e-12
4.50707e-12
3.91127e-12
2.54675e-12
2.50428e-12
2.21597e-12
3.64095e-12
1.96421e-12
1.09375e-12
7.84939e-13
1.46489e-12
-5.00621e-14
2.96369e-12
2.42156e-12
2.46461e-12
3.2377e-12
5.89923e-12
6.58942e-12
8.01713e-12
1.14607e-11
1.75277e-11
2.15434e-11
3.17313e-11
4.62412e-11
6.92037e-11
1.11875e-10
1.76191e-10
2.89849e-10
4.81525e-10
7.96431e-10
1.31292e-09
2.16133e-09
3.54296e-09
5.75095e-09
9.26186e-09
1.48629e-08
2.37046e-08
3.76056e-08
5.93636e-08
9.32962e-08
1.45903e-07
2.27074e-07
3.5167e-07
5.41934e-07
8.3093e-07
1.26764e-06
1.92407e-06
2.90545e-06
4.3647e-06
6.52263e-06
9.69601e-06
1.43364e-05
2.10835e-05
3.08373e-05
4.48551e-05
6.48824e-05
9.33241e-05
0.000133471
0.00018979
0.000268306
0.000377074
0.000526783
0.000731502
0.00100959
0.00138482
0.00188764
0.00255679
0.003441
0.00460101
0.00611174
0.0080646
0.0105699
0.0137591
0.0177871
0.0228337
0.0291049
0.036833
0.0462756
0.0577129
0.0714439
0.0877795
0.107035
0.129517
0.155513
0.185278
0.219013
0.256852
0.298845
0.344938
0.394966
0.448635
0.505528
0.565086
0.625025
0.683398
0.739624
0.793189
0.843648
0.890666
0.934012
0.973555
1.00926
1.04116
1.06939
1.09412
1.11557
1.134
1.14968
1.16289
1.17392
1.18304
1.19051
1.19658
1.20146
1.20535
1.20843
1.21083
1.2127
1.21414
1.21524
1.21606
1.21669
1.21715
1.21749
1.21774
1.21792
1.21805
1.21814
1.21821
1.21826
1.21829
1.21831
1.21833
1.21834
1.21835
1.21835
1.21836
1.21836
1.21836
1.21836
1.21836
1.21836
1.21837
1.21837
1.21837
1.21837
1.21837
1.21837
1.21837
1.21837
1.21837
1.21837
1.21837
1.21837
1.21837
1.21837
1.21837
1.21837
1.21837
1.21837
1.21837
1.21837
1.21837
1.21837
1.21837
1.21837
1.21837
1.21837
1.21837
1.21837
1.21837
1.21837
1.21837
1.21837
1.21837
1.21837
1.21838
1.21838
1.21838
1.21838
1.21838
1.21838
1.21838
1.21838
1.21838
1.21838
1.21838
1.21838
1.21838
1.21838
1.21838
1.21838
1.21838
1.21838
1.21838
1.21838
1.21838
1.21838
1.21838
1.21838
1.21838
1.21838
1.21838
1.21838
1.21838
1.21838
1.21838
1.21838
1.21838
1.21838
1.21838
1.21838
1.21838
1.21838
1.21838
1.21838
1.21838
1.21838
1.21838
1.21838
1.21838
1.21838
1.21838
1.21838
1.21838
1.21838
1.21838
1.21838
1.21838
1.21838
1.21838
1.21838
1.21838
1.21838
1.21838
1.21838
1.21838
1.21838
1.21838
1.21838
1.21838
1.21838
1.21838
1.21838
1.21838
1.21838
1.21838
1.21838
1.21838
1.21838
1.21838
1.21838
1.21838
1.21838
1.21838
1.21838
1.21838
1.21838
1.21838
1.21838
1.21838
1.21838
1.21838
1.21838
1.21838
1.21838
1.21838
1.21838
1.21838
1.21838
1.21838
1.21838
1.21838
1.21838
1.21838
1.21838
1.21838
1.21838
1.21838
1.21837
1.21837
1.21837
1.21837
1.21837
1.21837
1.21837
1.21837
1.21837
1.21837
1.21837
1.21837
1.21837
1.21837
1.21837
1.21837
1.21837
1.21837
1.21837
1.21837
1.21837
1.21837
1.21837
1.21837
1.21837
1.21837
1.21837
1.21837
1.21837
1.21837
1.21837
1.21837
1.21837
1.21837
1.21837
1.21837
1.21837
1.21837
1.21837
1.21837
1.21837
1.21837
1.21837
1.21837
1.21837
1.21837
1.21837
1.21837
1.21837
1.21837
1.21837
1.21836
1.21835
1.21835
1.21835
1.21835
1.21835
1.21835
1.21835
1.21835
1.21835
1.21835
1.21835
1.21835
1.21835
1.21835
1.21835
1.21835
1.21835
1.21835
1.21835
1.21835
1.21835
1.21835
1.21835
1.21835
1.21835
1.21835
1.21835
1.21835
1.21835
1.21835
1.21835
1.21835
1.21835
1.21835
1.21835
1.21835
1.21835
1.21835
1.21835
1.21835
1.21835
1.21835
1.21835
1.21835
1.21835
1.21835
1.21835
1.21835
1.21835
1.21835
1.21835
1.21835
1.21835
1.21835
1.21835
1.21835
1.21835
1.21835
1.21835
1.21835
1.21835
1.21835
1.21835
1.21835
1.21835
1.21835
1.21835
1.21835
1.21835
1.21835
1.21835
1.21835
1.21835
1.21835
1.21835
1.21835
1.21835
1.21835
1.21834
1.21834
1.21834
1.21834
1.21834
1.21834
1.21834
1.21834
1.21834
1.21834
1.21834
1.21834
1.21834
1.21834
1.21834
1.21834
1.21834
1.21834
1.21834
1.21834
1.21834
1.21834
1.21834
1.21834
1.21834
1.21834
1.21834
1.21834
1.21834
1.21834
1.21834
1.21834
1.21834
1.21834
1.21834
1.21834
1.21834
1.21834
1.21834
1.21834
1.21834
1.21834
1.21834
1.21834
1.21834
1.21834
1.21834
1.21834
1.21834
1.21834
1.21834
1.21834
1.21834
1.21834
1.21834
1.21834
1.21834
1.21834
1.21834
1.21834
1.21834
1.21834
1.21834
1.21834
1.21834
1.21834
1.21833
1.21833
1.21833
1.21833
1.21833
1.21833
1.21833
1.21833
1.21833
1.21833
1.21833
1.21833
1.21833
1.21833
1.21833
1.21833
1.21833
1.21833
1.21833
1.21833
1.21833
1.21833
1.21833
1.21833
1.21833
1.21833
1.21833
1.21833
1.21832
1.21832
1.21832
1.21832
1.21832
1.21832
1.21832
1.21832
1.21832
1.21832
1.21832
1.21832
1.21832
1.21832
1.21832
1.21831
1.21831
1.21831
1.21831
1.21831
1.21831
1.2183
1.2183
1.21829
1.21828
1.21827
1.21825
1.21822
1.21818
1.21812
1.21804
1.21792
1.21777
1.21755
1.21725
1.21683
1.21628
1.21554
1.21454
1.21324
1.21153
1.20931
1.20645
1.20281
1.19821
1.19243
1.18525
1.17641
1.16562
1.15257
1.13692
1.11836
1.09652
1.07111
1.04181
1.0084
0.970676
0.928558
0.882055
0.8313
0.776566
0.71827
0.656984
0.593375
0.528467
0.466194
0.407546
0.353126
0.303308
0.258287
0.218094
0.18263
0.151688
0.12498
0.102165
0.0828685
0.0667058
0.0532938
0.0422649
0.0332753
0.0260107
0.020189
0.0155616
0.0119127
0.00905793
0.00684141
0.00513333
0.00382672
0.00283442
0.00208616
0.00152584
0.00110913
0.000801313
0.000575436
0.00041077
0.0002915
0.000205657
0.00014426
0.000100617
6.97822e-05
4.81281e-05
3.30108e-05
2.25188e-05
1.52788e-05
1.03113e-05
6.92209e-06
4.62266e-06
3.07115e-06
2.02989e-06
1.33488e-06
8.73446e-07
5.68645e-07
3.68418e-07
2.3752e-07
1.52387e-07
9.73288e-08
6.1825e-08
3.90961e-08
2.4603e-08
1.54551e-08
9.68196e-09
6.0507e-09
3.77369e-09
2.33354e-09
1.41746e-09
8.75296e-10
5.23756e-10
2.87785e-10
1.65761e-10
9.58875e-11
3.88753e-11
1.43109e-11
9.31952e-12
-1.14029e-11
-1.64115e-11
-2.67883e-11
-3.40717e-11
-4.19225e-11
-1.84982e-11
2.10033e-11
8.77791e-12
6.96356e-12
9.38327e-13
-1.0671e-11
1.62803e-12
6.21222e-12
3.41272e-11
3.13235e-11
2.42431e-11
3.04157e-11
1.86775e-11
8.89949e-12
-7.46705e-12
-1.98542e-11
-8.0909e-12
-1.60122e-11
-2.25682e-11
-3.09663e-11
-2.23481e-11
-2.7666e-11
-1.99782e-11
3.36532e-13
2.51232e-11
2.11875e-11
1.77951e-11
3.96976e-12
2.50226e-11
1.7741e-11
2.73489e-11
5.3418e-11
5.08153e-11
6.25053e-11
5.17073e-11
6.27021e-11
8.63091e-11
6.09373e-11
9.55297e-11
7.94193e-11
7.73802e-11
2.96866e-11
3.28515e-11
1.39461e-11
8.73371e-12
-1.37554e-12
2.43817e-12
-2.50952e-11
-2.57723e-11
-4.56578e-11
-4.05017e-11
-4.96213e-11
-6.64182e-11
-7.23406e-11
-7.75981e-11
-8.2209e-11
-8.67084e-11
-8.03955e-11
-6.30757e-11
-4.13743e-11
-6.87971e-11
-4.91378e-11
-1.41083e-11
-1.0946e-11
-2.04429e-11
-2.68401e-11
4.7873e-12
6.43731e-12
-7.3057e-12
9.68537e-12
5.51379e-12
4.39638e-12
2.28133e-13
-1.70414e-11
-3.06104e-11
-3.48351e-11
-2.31068e-11
-3.22331e-11
-3.4437e-11
-2.69993e-11
-3.89579e-11
-5.88272e-11
-6.50039e-11
-2.73113e-11
-8.00097e-12
-3.17133e-11
-5.58723e-12
-8.31865e-13
)
;

boundaryField
{
    sides
    {
        type            calculated;
        value           uniform 0;
    }
    empty1
    {
        type            empty;
        value           nonuniform List<scalar> 0();
    }
    empty2
    {
        type            empty;
        value           nonuniform List<scalar> 0();
    }
}


// ************************************************************************* //
