/*--------------------------------*- C++ -*----------------------------------*\
| =========                 |                                                 |
| \\      /  F ield         | OpenFOAM: The Open Source CFD Toolbox           |
|  \\    /   O peration     | Version:  2312                                  |
|   \\  /    A nd           | Website:  www.openfoam.com                      |
|    \\/     M anipulation  |                                                 |
\*---------------------------------------------------------------------------*/
FoamFile
{
    version     2.0;
    format      ascii;
    arch        "LSB;label=32;scalar=64";
    class       volScalarField;
    location    "0.0002";
    object      thermo:psiGasEff;
}
// * * * * * * * * * * * * * * * * * * * * * * * * * * * * * * * * * * * * * //

dimensions      [-2 4 2 0 0 0 0];

internalField   nonuniform List<scalar> 
800
(
8.4091e-10
8.4091e-10
8.4091e-10
8.4091e-10
8.4091e-10
8.4091e-10
8.4091e-10
8.4091e-10
8.4091e-10
8.4091e-10
8.4091e-10
8.4091e-10
8.4091e-10
8.4091e-10
8.4091e-10
8.4091e-10
8.4091e-10
8.4091e-10
8.4091e-10
8.4091e-10
8.4091e-10
8.4091e-10
8.4091e-10
8.4091e-10
8.4091e-10
8.4091e-10
8.4091e-10
8.4091e-10
8.4091e-10
8.4091e-10
8.4091e-10
8.4091e-10
8.4091e-10
8.4091e-10
8.4091e-10
8.4091e-10
8.4091e-10
8.4091e-10
8.4091e-10
8.4091e-10
8.4091e-10
8.4091e-10
8.4091e-10
8.4091e-10
8.4091e-10
8.4091e-10
8.4091e-10
8.4091e-10
8.4091e-10
8.4091e-10
8.4091e-10
8.4091e-10
8.4091e-10
8.4091e-10
8.4091e-10
8.4091e-10
8.4091e-10
8.4091e-10
8.4091e-10
8.4091e-10
8.4091e-10
8.4091e-10
8.4091e-10
8.4091e-10
8.4091e-10
8.4091e-10
8.4091e-10
8.4091e-10
8.4091e-10
8.4091e-10
8.4091e-10
8.4091e-10
8.4091e-10
8.4091e-10
8.4091e-10
8.4091e-10
8.4091e-10
8.4091e-10
8.4091e-10
8.4091e-10
8.4091e-10
8.4091e-10
8.4091e-10
8.4091e-10
8.4091e-10
8.4091e-10
8.4091e-10
8.4091e-10
8.4091e-10
8.4091e-10
8.4091e-10
8.4091e-10
8.4091e-10
8.4091e-10
8.4091e-10
8.4091e-10
8.4091e-10
8.4091e-10
8.4091e-10
8.4091e-10
8.4091e-10
8.4091e-10
8.4091e-10
8.4091e-10
8.4091e-10
8.4091e-10
8.4091e-10
8.4091e-10
8.4091e-10
8.4091e-10
8.4091e-10
8.4091e-10
8.4091e-10
8.4091e-10
8.4091e-10
8.40911e-10
8.40911e-10
8.40911e-10
8.40912e-10
8.40913e-10
8.40915e-10
8.40917e-10
8.40921e-10
8.40926e-10
8.40933e-10
8.40943e-10
8.40958e-10
8.40978e-10
8.41007e-10
8.41048e-10
8.41105e-10
8.41183e-10
8.4129e-10
8.41437e-10
8.41635e-10
8.41903e-10
8.4226e-10
8.42734e-10
8.4336e-10
8.44179e-10
8.45244e-10
8.46619e-10
8.48382e-10
8.50626e-10
8.53464e-10
8.57027e-10
8.61469e-10
8.66969e-10
8.73735e-10
8.82005e-10
8.92047e-10
9.04168e-10
9.18712e-10
9.36065e-10
9.56657e-10
9.80964e-10
1.00951e-09
1.04287e-09
1.08166e-09
1.12655e-09
1.1782e-09
1.23733e-09
1.3046e-09
1.37956e-09
1.45987e-09
1.54457e-09
1.63287e-09
1.72374e-09
1.81601e-09
1.90836e-09
1.99945e-09
2.08796e-09
2.17264e-09
2.25241e-09
2.32639e-09
2.39396e-09
2.45474e-09
2.50861e-09
2.55566e-09
2.5962e-09
2.63066e-09
2.65957e-09
2.68353e-09
2.70315e-09
2.71904e-09
2.73177e-09
2.74185e-09
2.74975e-09
2.75589e-09
2.76062e-09
2.76422e-09
2.76694e-09
2.76898e-09
2.77049e-09
2.7716e-09
2.77241e-09
2.77299e-09
2.77342e-09
2.77372e-09
2.77393e-09
2.77408e-09
2.77419e-09
2.77426e-09
2.77432e-09
2.77435e-09
2.77438e-09
2.77439e-09
2.77441e-09
2.77442e-09
2.77443e-09
2.77443e-09
2.77443e-09
2.77444e-09
2.77444e-09
2.77444e-09
2.77445e-09
2.77445e-09
2.77445e-09
2.77445e-09
2.77445e-09
2.77446e-09
2.77446e-09
2.77446e-09
2.77446e-09
2.77446e-09
2.77446e-09
2.77446e-09
2.77447e-09
2.77447e-09
2.77447e-09
2.77447e-09
2.77447e-09
2.77447e-09
2.77447e-09
2.77447e-09
2.77447e-09
2.77447e-09
2.77447e-09
2.77447e-09
2.77447e-09
2.77448e-09
2.77448e-09
2.77448e-09
2.77448e-09
2.77448e-09
2.77448e-09
2.77448e-09
2.77448e-09
2.77448e-09
2.77448e-09
2.77448e-09
2.77448e-09
2.77448e-09
2.77448e-09
2.77448e-09
2.77448e-09
2.77448e-09
2.77448e-09
2.77448e-09
2.77448e-09
2.77448e-09
2.77448e-09
2.77448e-09
2.77448e-09
2.77449e-09
2.77449e-09
2.77449e-09
2.77449e-09
2.77449e-09
2.77449e-09
2.77449e-09
2.77449e-09
2.77449e-09
2.77449e-09
2.77449e-09
2.77449e-09
2.77449e-09
2.77449e-09
2.77449e-09
2.77449e-09
2.77449e-09
2.77449e-09
2.77449e-09
2.77449e-09
2.77449e-09
2.77449e-09
2.77449e-09
2.77449e-09
2.77449e-09
2.77449e-09
2.77449e-09
2.77449e-09
2.77449e-09
2.77449e-09
2.77449e-09
2.77449e-09
2.77449e-09
2.77449e-09
2.77449e-09
2.77449e-09
2.77449e-09
2.77449e-09
2.77449e-09
2.77449e-09
2.77449e-09
2.77449e-09
2.77449e-09
2.77449e-09
2.77449e-09
2.77449e-09
2.77449e-09
2.77449e-09
2.77449e-09
2.77449e-09
2.77449e-09
2.77449e-09
2.77449e-09
2.77449e-09
2.77449e-09
2.77449e-09
2.77449e-09
2.77449e-09
2.77449e-09
2.77449e-09
2.77449e-09
2.77449e-09
2.77449e-09
2.77449e-09
2.77449e-09
2.77449e-09
2.77449e-09
2.77449e-09
2.77449e-09
2.77449e-09
2.77449e-09
2.77449e-09
2.77449e-09
2.77449e-09
2.77449e-09
2.77449e-09
2.77449e-09
2.7745e-09
2.7745e-09
2.7745e-09
2.7745e-09
2.7745e-09
2.7745e-09
2.7745e-09
2.7745e-09
2.7745e-09
2.7745e-09
2.7745e-09
2.7745e-09
2.7745e-09
2.7745e-09
2.7745e-09
2.7745e-09
2.7745e-09
2.7745e-09
2.7745e-09
2.7745e-09
2.7745e-09
2.7745e-09
2.7745e-09
2.7745e-09
2.7745e-09
2.7745e-09
2.7745e-09
2.7745e-09
2.7745e-09
2.7745e-09
2.7745e-09
2.7745e-09
2.7745e-09
2.7745e-09
2.7745e-09
2.7745e-09
2.7745e-09
2.7745e-09
2.7745e-09
2.7745e-09
2.7745e-09
2.7745e-09
2.7745e-09
2.7745e-09
2.7745e-09
2.7745e-09
2.7745e-09
2.7745e-09
2.7745e-09
2.7745e-09
2.7745e-09
2.7745e-09
2.7745e-09
2.7745e-09
2.7745e-09
2.77449e-09
2.7745e-09
2.77447e-09
2.77472e-09
2.78624e-09
2.79356e-09
2.79484e-09
2.79497e-09
2.79495e-09
2.79495e-09
2.79494e-09
2.79495e-09
2.79494e-09
2.79494e-09
2.79494e-09
2.79494e-09
2.79494e-09
2.79494e-09
2.79494e-09
2.79494e-09
2.79494e-09
2.79494e-09
2.79494e-09
2.79494e-09
2.79494e-09
2.79494e-09
2.79494e-09
2.79494e-09
2.79494e-09
2.79494e-09
2.79494e-09
2.79494e-09
2.79494e-09
2.79494e-09
2.79494e-09
2.79494e-09
2.79494e-09
2.79494e-09
2.79494e-09
2.79494e-09
2.79494e-09
2.79494e-09
2.79494e-09
2.79494e-09
2.79494e-09
2.79494e-09
2.79494e-09
2.79494e-09
2.79494e-09
2.79494e-09
2.79494e-09
2.79494e-09
2.79494e-09
2.79494e-09
2.79494e-09
2.79494e-09
2.79494e-09
2.79494e-09
2.79494e-09
2.79494e-09
2.79494e-09
2.79494e-09
2.79494e-09
2.79494e-09
2.79494e-09
2.79494e-09
2.79494e-09
2.79494e-09
2.79494e-09
2.79494e-09
2.79495e-09
2.79495e-09
2.79495e-09
2.79495e-09
2.79495e-09
2.79495e-09
2.79495e-09
2.79495e-09
2.79495e-09
2.79495e-09
2.79495e-09
2.79495e-09
2.79495e-09
2.79495e-09
2.79495e-09
2.79495e-09
2.79495e-09
2.79495e-09
2.79495e-09
2.79495e-09
2.79495e-09
2.79495e-09
2.79495e-09
2.79495e-09
2.79495e-09
2.79495e-09
2.79495e-09
2.79495e-09
2.79495e-09
2.79495e-09
2.79495e-09
2.79495e-09
2.79495e-09
2.79496e-09
2.79496e-09
2.79496e-09
2.79496e-09
2.79496e-09
2.79496e-09
2.79496e-09
2.79496e-09
2.79496e-09
2.79496e-09
2.79496e-09
2.79496e-09
2.79496e-09
2.79496e-09
2.79496e-09
2.79496e-09
2.79496e-09
2.79496e-09
2.79496e-09
2.79496e-09
2.79496e-09
2.79496e-09
2.79497e-09
2.79497e-09
2.79497e-09
2.79497e-09
2.79497e-09
2.79497e-09
2.79497e-09
2.79497e-09
2.79497e-09
2.79497e-09
2.79497e-09
2.79497e-09
2.79497e-09
2.79497e-09
2.79497e-09
2.79498e-09
2.79498e-09
2.79498e-09
2.79498e-09
2.79498e-09
2.79498e-09
2.79498e-09
2.79498e-09
2.79498e-09
2.79498e-09
2.79498e-09
2.79498e-09
2.79499e-09
2.79499e-09
2.79499e-09
2.79499e-09
2.79499e-09
2.79499e-09
2.79499e-09
2.79499e-09
2.79499e-09
2.79499e-09
2.795e-09
2.795e-09
2.795e-09
2.795e-09
2.795e-09
2.795e-09
2.795e-09
2.79501e-09
2.79501e-09
2.79501e-09
2.79501e-09
2.79501e-09
2.79501e-09
2.79501e-09
2.79502e-09
2.79502e-09
2.79502e-09
2.79502e-09
2.79502e-09
2.79503e-09
2.79503e-09
2.79503e-09
2.79503e-09
2.79503e-09
2.79504e-09
2.79504e-09
2.79504e-09
2.79505e-09
2.79505e-09
2.79505e-09
2.79505e-09
2.79506e-09
2.79506e-09
2.79507e-09
2.79508e-09
2.79509e-09
2.7951e-09
2.79511e-09
2.79514e-09
2.79517e-09
2.79521e-09
2.79528e-09
2.79537e-09
2.7955e-09
2.79569e-09
2.79595e-09
2.79633e-09
2.79684e-09
2.79756e-09
2.79856e-09
2.79991e-09
2.80175e-09
2.80423e-09
2.80754e-09
2.81193e-09
2.8177e-09
2.82525e-09
2.83503e-09
2.84762e-09
2.86371e-09
2.88415e-09
2.90994e-09
2.9423e-09
2.98268e-09
3.03282e-09
3.09482e-09
3.17121e-09
3.26508e-09
3.38017e-09
3.52113e-09
3.69374e-09
3.90527e-09
4.16491e-09
4.48449e-09
4.87928e-09
5.36923e-09
5.98061e-09
6.74822e-09
7.71866e-09
8.9553e-09
1.05075e-08
1.23856e-08
1.46353e-08
1.72981e-08
2.04044e-08
2.39659e-08
2.79683e-08
3.23654e-08
3.70774e-08
4.19936e-08
4.69817e-08
5.19001e-08
5.66136e-08
6.10069e-08
6.49938e-08
6.85224e-08
7.15734e-08
7.41557e-08
7.62995e-08
7.80482e-08
7.94525e-08
8.05644e-08
8.14335e-08
8.21051e-08
8.26186e-08
8.30074e-08
8.32992e-08
8.35164e-08
8.36767e-08
8.37942e-08
8.38797e-08
8.39415e-08
8.39858e-08
8.40175e-08
8.40399e-08
8.40556e-08
8.40667e-08
8.40744e-08
8.40797e-08
8.40834e-08
8.40859e-08
8.40876e-08
8.40887e-08
8.40895e-08
8.409e-08
8.40903e-08
8.40906e-08
8.40907e-08
8.40908e-08
8.40909e-08
8.40909e-08
8.4091e-08
8.4091e-08
8.4091e-08
8.4091e-08
8.4091e-08
8.4091e-08
8.4091e-08
8.4091e-08
8.4091e-08
8.4091e-08
8.4091e-08
8.4091e-08
8.4091e-08
8.4091e-08
8.4091e-08
8.4091e-08
8.4091e-08
8.4091e-08
8.4091e-08
8.4091e-08
8.4091e-08
8.4091e-08
8.4091e-08
8.4091e-08
8.4091e-08
8.4091e-08
8.4091e-08
8.4091e-08
8.4091e-08
8.4091e-08
8.4091e-08
8.4091e-08
8.4091e-08
8.4091e-08
8.4091e-08
8.4091e-08
8.4091e-08
8.4091e-08
8.4091e-08
8.4091e-08
8.4091e-08
8.4091e-08
8.4091e-08
8.4091e-08
8.4091e-08
8.4091e-08
8.4091e-08
8.4091e-08
8.4091e-08
8.4091e-08
8.4091e-08
8.4091e-08
8.4091e-08
8.4091e-08
8.4091e-08
8.4091e-08
8.4091e-08
8.4091e-08
8.4091e-08
8.4091e-08
8.4091e-08
8.4091e-08
8.4091e-08
8.4091e-08
8.4091e-08
8.4091e-08
8.4091e-08
8.4091e-08
8.4091e-08
8.4091e-08
8.4091e-08
8.4091e-08
8.4091e-08
8.4091e-08
8.4091e-08
8.4091e-08
8.4091e-08
8.4091e-08
8.4091e-08
8.4091e-08
8.4091e-08
8.4091e-08
8.4091e-08
8.4091e-08
8.4091e-08
8.4091e-08
8.4091e-08
8.4091e-08
8.4091e-08
8.4091e-08
8.4091e-08
8.4091e-08
8.4091e-08
8.4091e-08
8.4091e-08
8.4091e-08
8.4091e-08
8.4091e-08
8.4091e-08
8.4091e-08
8.4091e-08
8.4091e-08
8.4091e-08
8.4091e-08
8.4091e-08
8.4091e-08
8.4091e-08
8.4091e-08
8.4091e-08
8.4091e-08
8.4091e-08
)
;

boundaryField
{
    sides
    {
        type            calculated;
        value           nonuniform List<scalar> 2(8.4091e-08 8.4091e-10);
    }
    empty1
    {
        type            empty;
    }
    empty2
    {
        type            empty;
    }
}


// ************************************************************************* //
