/*--------------------------------*- C++ -*----------------------------------*\
| =========                 |                                                 |
| \\      /  F ield         | OpenFOAM: The Open Source CFD Toolbox           |
|  \\    /   O peration     | Version:  2312                                  |
|   \\  /    A nd           | Website:  www.openfoam.com                      |
|    \\/     M anipulation  |                                                 |
\*---------------------------------------------------------------------------*/
FoamFile
{
    version     2.0;
    format      ascii;
    arch        "LSB;label=32;scalar=64";
    class       volScalarField;
    location    "0.0002";
    object      thermo:psiLiqEff;
}
// * * * * * * * * * * * * * * * * * * * * * * * * * * * * * * * * * * * * * //

dimensions      [-2 4 2 0 0 0 0];

internalField   nonuniform List<scalar> 
800
(
4.58242e-13
4.58242e-13
4.58242e-13
4.58242e-13
4.58242e-13
4.58242e-13
4.58242e-13
4.58242e-13
4.58242e-13
4.58242e-13
4.58242e-13
4.58242e-13
4.58242e-13
4.58242e-13
4.58242e-13
4.58242e-13
4.58242e-13
4.58242e-13
4.58242e-13
4.58242e-13
4.58242e-13
4.58242e-13
4.58242e-13
4.58242e-13
4.58242e-13
4.58242e-13
4.58242e-13
4.58242e-13
4.58242e-13
4.58242e-13
4.58242e-13
4.58242e-13
4.58242e-13
4.58242e-13
4.58242e-13
4.58242e-13
4.58242e-13
4.58242e-13
4.58242e-13
4.58242e-13
4.58242e-13
4.58242e-13
4.58242e-13
4.58242e-13
4.58242e-13
4.58242e-13
4.58242e-13
4.58242e-13
4.58242e-13
4.58242e-13
4.58242e-13
4.58242e-13
4.58242e-13
4.58242e-13
4.58242e-13
4.58242e-13
4.58242e-13
4.58242e-13
4.58242e-13
4.58242e-13
4.58242e-13
4.58242e-13
4.58242e-13
4.58242e-13
4.58242e-13
4.58242e-13
4.58242e-13
4.58242e-13
4.58242e-13
4.58242e-13
4.58242e-13
4.58242e-13
4.58242e-13
4.58242e-13
4.58242e-13
4.58242e-13
4.58242e-13
4.58242e-13
4.58242e-13
4.58242e-13
4.58242e-13
4.58242e-13
4.58242e-13
4.58242e-13
4.58242e-13
4.58242e-13
4.58242e-13
4.58242e-13
4.58242e-13
4.58242e-13
4.58242e-13
4.58242e-13
4.58242e-13
4.58242e-13
4.58242e-13
4.58242e-13
4.58242e-13
4.58242e-13
4.58242e-13
4.58242e-13
4.58242e-13
4.58242e-13
4.58242e-13
4.58242e-13
4.58242e-13
4.58242e-13
4.58242e-13
4.58242e-13
4.58242e-13
4.58242e-13
4.58242e-13
4.58242e-13
4.58242e-13
4.58242e-13
4.58242e-13
4.58242e-13
4.58242e-13
4.58242e-13
4.58242e-13
4.58242e-13
4.58242e-13
4.58242e-13
4.58242e-13
4.58243e-13
4.58243e-13
4.58243e-13
4.58243e-13
4.58243e-13
4.58243e-13
4.58243e-13
4.58243e-13
4.58244e-13
4.58244e-13
4.58245e-13
4.58246e-13
4.58247e-13
4.58249e-13
4.58251e-13
4.58254e-13
4.58258e-13
4.58263e-13
4.58269e-13
4.58277e-13
4.58288e-13
4.58301e-13
4.58317e-13
4.58338e-13
4.58363e-13
4.58393e-13
4.5843e-13
4.58473e-13
4.58525e-13
4.58586e-13
4.58657e-13
4.58738e-13
4.58831e-13
4.58936e-13
4.59053e-13
4.59182e-13
4.59324e-13
4.59476e-13
4.59639e-13
4.59811e-13
4.59987e-13
4.60161e-13
4.6033e-13
4.60491e-13
4.60645e-13
4.60788e-13
4.60922e-13
4.61044e-13
4.61156e-13
4.61256e-13
4.61345e-13
4.61423e-13
4.61492e-13
4.61551e-13
4.61602e-13
4.61645e-13
4.61681e-13
4.61711e-13
4.61736e-13
4.61756e-13
4.61772e-13
4.61785e-13
4.61796e-13
4.61804e-13
4.6181e-13
4.61815e-13
4.61819e-13
4.61822e-13
4.61824e-13
4.61826e-13
4.61827e-13
4.61828e-13
4.61828e-13
4.61829e-13
4.61829e-13
4.61829e-13
4.6183e-13
4.6183e-13
4.6183e-13
4.6183e-13
4.6183e-13
4.6183e-13
4.6183e-13
4.6183e-13
4.6183e-13
4.6183e-13
4.6183e-13
4.6183e-13
4.6183e-13
4.6183e-13
4.6183e-13
4.6183e-13
4.6183e-13
4.6183e-13
4.6183e-13
4.6183e-13
4.6183e-13
4.6183e-13
4.6183e-13
4.6183e-13
4.6183e-13
4.6183e-13
4.6183e-13
4.6183e-13
4.6183e-13
4.6183e-13
4.6183e-13
4.6183e-13
4.6183e-13
4.6183e-13
4.6183e-13
4.6183e-13
4.6183e-13
4.6183e-13
4.6183e-13
4.6183e-13
4.6183e-13
4.6183e-13
4.6183e-13
4.6183e-13
4.6183e-13
4.6183e-13
4.6183e-13
4.6183e-13
4.6183e-13
4.6183e-13
4.6183e-13
4.6183e-13
4.6183e-13
4.6183e-13
4.6183e-13
4.6183e-13
4.6183e-13
4.6183e-13
4.6183e-13
4.6183e-13
4.6183e-13
4.6183e-13
4.6183e-13
4.6183e-13
4.6183e-13
4.6183e-13
4.6183e-13
4.6183e-13
4.6183e-13
4.6183e-13
4.6183e-13
4.6183e-13
4.6183e-13
4.6183e-13
4.6183e-13
4.6183e-13
4.6183e-13
4.6183e-13
4.6183e-13
4.6183e-13
4.6183e-13
4.6183e-13
4.6183e-13
4.6183e-13
4.6183e-13
4.6183e-13
4.6183e-13
4.6183e-13
4.6183e-13
4.6183e-13
4.6183e-13
4.6183e-13
4.6183e-13
4.6183e-13
4.6183e-13
4.6183e-13
4.6183e-13
4.6183e-13
4.6183e-13
4.6183e-13
4.6183e-13
4.6183e-13
4.6183e-13
4.6183e-13
4.6183e-13
4.6183e-13
4.6183e-13
4.6183e-13
4.6183e-13
4.6183e-13
4.6183e-13
4.6183e-13
4.6183e-13
4.6183e-13
4.6183e-13
4.6183e-13
4.6183e-13
4.6183e-13
4.6183e-13
4.6183e-13
4.6183e-13
4.6183e-13
4.6183e-13
4.6183e-13
4.6183e-13
4.6183e-13
4.6183e-13
4.6183e-13
4.6183e-13
4.6183e-13
4.6183e-13
4.6183e-13
4.6183e-13
4.6183e-13
4.6183e-13
4.6183e-13
4.6183e-13
4.6183e-13
4.6183e-13
4.6183e-13
4.6183e-13
4.6183e-13
4.6183e-13
4.6183e-13
4.6183e-13
4.6183e-13
4.6183e-13
4.6183e-13
4.6183e-13
4.6183e-13
4.6183e-13
4.6183e-13
4.6183e-13
4.6183e-13
4.6183e-13
4.6183e-13
4.6183e-13
4.6183e-13
4.6183e-13
4.6183e-13
4.6183e-13
4.6183e-13
4.6183e-13
4.6183e-13
4.6183e-13
4.6183e-13
4.6183e-13
4.6183e-13
4.6183e-13
4.6183e-13
4.6183e-13
4.6183e-13
4.6183e-13
4.6183e-13
4.6183e-13
4.6183e-13
4.6183e-13
4.6183e-13
4.6183e-13
4.6183e-13
4.6183e-13
4.6183e-13
4.6183e-13
4.6183e-13
4.6183e-13
4.6183e-13
4.6183e-13
4.6183e-13
4.6183e-13
4.6183e-13
4.6183e-13
4.6183e-13
4.6183e-13
4.6183e-13
4.6183e-13
4.6183e-13
4.61831e-13
4.61832e-13
4.6183e-13
4.61835e-13
4.61793e-13
4.59895e-13
4.58695e-13
4.58486e-13
4.58465e-13
4.58469e-13
4.58468e-13
4.5847e-13
4.58469e-13
4.5847e-13
4.5847e-13
4.5847e-13
4.5847e-13
4.5847e-13
4.5847e-13
4.58471e-13
4.5847e-13
4.5847e-13
4.5847e-13
4.58471e-13
4.5847e-13
4.58471e-13
4.58471e-13
4.58471e-13
4.58471e-13
4.58471e-13
4.58471e-13
4.58471e-13
4.58471e-13
4.58471e-13
4.58471e-13
4.58471e-13
4.58471e-13
4.58471e-13
4.58471e-13
4.58471e-13
4.58471e-13
4.58471e-13
4.58471e-13
4.58471e-13
4.58471e-13
4.58471e-13
4.58471e-13
4.58471e-13
4.58471e-13
4.58471e-13
4.58471e-13
4.58471e-13
4.58471e-13
4.58471e-13
4.58471e-13
4.58471e-13
4.58471e-13
4.58471e-13
4.58471e-13
4.58471e-13
4.58471e-13
4.58471e-13
4.58471e-13
4.58471e-13
4.58471e-13
4.58471e-13
4.58471e-13
4.58471e-13
4.58471e-13
4.58471e-13
4.58471e-13
4.58471e-13
4.58471e-13
4.58471e-13
4.58471e-13
4.58471e-13
4.58471e-13
4.58471e-13
4.58471e-13
4.58471e-13
4.58471e-13
4.58471e-13
4.58471e-13
4.58471e-13
4.58471e-13
4.58471e-13
4.58471e-13
4.58471e-13
4.58471e-13
4.58471e-13
4.58471e-13
4.58471e-13
4.58471e-13
4.58471e-13
4.58471e-13
4.58471e-13
4.58471e-13
4.58471e-13
4.58471e-13
4.58471e-13
4.58471e-13
4.58471e-13
4.58471e-13
4.58471e-13
4.58471e-13
4.58471e-13
4.58471e-13
4.58471e-13
4.58471e-13
4.58471e-13
4.58471e-13
4.58471e-13
4.58471e-13
4.58471e-13
4.58471e-13
4.58471e-13
4.58471e-13
4.58471e-13
4.58471e-13
4.58471e-13
4.58471e-13
4.58471e-13
4.58471e-13
4.58471e-13
4.58471e-13
4.58471e-13
4.58471e-13
4.58471e-13
4.58471e-13
4.58471e-13
4.58471e-13
4.58471e-13
4.58471e-13
4.58471e-13
4.58471e-13
4.58471e-13
4.58471e-13
4.58471e-13
4.58471e-13
4.58471e-13
4.58471e-13
4.58471e-13
4.58471e-13
4.58471e-13
4.58471e-13
4.58471e-13
4.58471e-13
4.58471e-13
4.58471e-13
4.58471e-13
4.58471e-13
4.58471e-13
4.58471e-13
4.58471e-13
4.58471e-13
4.58471e-13
4.58471e-13
4.58471e-13
4.58471e-13
4.58471e-13
4.58471e-13
4.58471e-13
4.58471e-13
4.58471e-13
4.58471e-13
4.58471e-13
4.58471e-13
4.58471e-13
4.58471e-13
4.58471e-13
4.58471e-13
4.58471e-13
4.58471e-13
4.58471e-13
4.58471e-13
4.58471e-13
4.58471e-13
4.58471e-13
4.58471e-13
4.58471e-13
4.58471e-13
4.58471e-13
4.58471e-13
4.58471e-13
4.58471e-13
4.58471e-13
4.58471e-13
4.58471e-13
4.58471e-13
4.58471e-13
4.58471e-13
4.58471e-13
4.58471e-13
4.58471e-13
4.58471e-13
4.58471e-13
4.58471e-13
4.58471e-13
4.58471e-13
4.58471e-13
4.58471e-13
4.58471e-13
4.58471e-13
4.58471e-13
4.58471e-13
4.58471e-13
4.58471e-13
4.58471e-13
4.58472e-13
4.58472e-13
4.58472e-13
4.58473e-13
4.58474e-13
4.58475e-13
4.58476e-13
4.58478e-13
4.58481e-13
4.58484e-13
4.58488e-13
4.58494e-13
4.58502e-13
4.58511e-13
4.58523e-13
4.58539e-13
4.58558e-13
4.58581e-13
4.5861e-13
4.58645e-13
4.58687e-13
4.58738e-13
4.58797e-13
4.58866e-13
4.58946e-13
4.59038e-13
4.59143e-13
4.5926e-13
4.59389e-13
4.59532e-13
4.59687e-13
4.59852e-13
4.60028e-13
4.60211e-13
4.60399e-13
4.60588e-13
4.60766e-13
4.60933e-13
4.61087e-13
4.61227e-13
4.61353e-13
4.61465e-13
4.61563e-13
4.61648e-13
4.61721e-13
4.61783e-13
4.61835e-13
4.61878e-13
4.61914e-13
4.61944e-13
4.61967e-13
4.61987e-13
4.62002e-13
4.62014e-13
4.62023e-13
4.62031e-13
4.62037e-13
4.62041e-13
4.62044e-13
4.62047e-13
4.62049e-13
4.6205e-13
4.62051e-13
4.62052e-13
4.62053e-13
4.62053e-13
4.62053e-13
4.62053e-13
4.62054e-13
4.62054e-13
4.62054e-13
4.62054e-13
4.62054e-13
4.62054e-13
4.62054e-13
4.62054e-13
4.62054e-13
4.62054e-13
4.62054e-13
4.62054e-13
4.62054e-13
4.62054e-13
4.62054e-13
4.62054e-13
4.62054e-13
4.62054e-13
4.62054e-13
4.62054e-13
4.62054e-13
4.62054e-13
4.62054e-13
4.62054e-13
4.62054e-13
4.62054e-13
4.62054e-13
4.62054e-13
4.62054e-13
4.62054e-13
4.62054e-13
4.62054e-13
4.62054e-13
4.62054e-13
4.62054e-13
4.62054e-13
4.62054e-13
4.62054e-13
4.62054e-13
4.62054e-13
4.62054e-13
4.62054e-13
4.62054e-13
4.62054e-13
4.62054e-13
4.62054e-13
4.62054e-13
4.62054e-13
4.62054e-13
4.62054e-13
4.62054e-13
4.62054e-13
4.62054e-13
4.62054e-13
4.62054e-13
4.62054e-13
4.62054e-13
4.62054e-13
4.62054e-13
4.62054e-13
4.62054e-13
4.62054e-13
4.62054e-13
4.62054e-13
4.62054e-13
4.62054e-13
4.62054e-13
4.62054e-13
4.62054e-13
4.62054e-13
4.62054e-13
4.62054e-13
4.62054e-13
4.62054e-13
4.62054e-13
4.62054e-13
4.62054e-13
4.62054e-13
4.62054e-13
4.62054e-13
4.62054e-13
4.62054e-13
4.62054e-13
4.62054e-13
4.62054e-13
4.62054e-13
4.62054e-13
4.62054e-13
4.62054e-13
4.62054e-13
4.62054e-13
4.62054e-13
4.62054e-13
4.62054e-13
4.62054e-13
4.62054e-13
4.62054e-13
4.62054e-13
4.62054e-13
4.62054e-13
4.62054e-13
4.62054e-13
4.62054e-13
4.62054e-13
4.62054e-13
4.62054e-13
4.62054e-13
4.62054e-13
4.62054e-13
4.62054e-13
4.62054e-13
4.62054e-13
4.62054e-13
4.62054e-13
4.62054e-13
4.62054e-13
4.62054e-13
4.62054e-13
4.62054e-13
4.62054e-13
4.62054e-13
4.62054e-13
4.62054e-13
4.62054e-13
4.62054e-13
4.62054e-13
4.62054e-13
4.62054e-13
4.62054e-13
)
;

boundaryField
{
    sides
    {
        type            calculated;
        value           nonuniform List<scalar> 2(4.62054e-13 4.58242e-13);
    }
    empty1
    {
        type            empty;
    }
    empty2
    {
        type            empty;
    }
}


// ************************************************************************* //
