/*--------------------------------*- C++ -*----------------------------------*\
| =========                 |                                                 |
| \\      /  F ield         | OpenFOAM: The Open Source CFD Toolbox           |
|  \\    /   O peration     | Version:  2312                                  |
|   \\  /    A nd           | Website:  www.openfoam.com                      |
|    \\/     M anipulation  |                                                 |
\*---------------------------------------------------------------------------*/
FoamFile
{
    version     2.0;
    format      ascii;
    arch        "LSB;label=32;scalar=64";
    class       volVectorField;
    location    "0.0002";
    object      U;
}
// * * * * * * * * * * * * * * * * * * * * * * * * * * * * * * * * * * * * * //

dimensions      [0 1 -1 0 0 0 0];

internalField   nonuniform List<vector> 
800
(
(1.85824e-13 0 0)
(2.95728e-12 0 0)
(4.6275e-12 0 0)
(4.19492e-12 0 0)
(9.93032e-13 0 0)
(8.58593e-13 0 0)
(-3.64211e-12 0 0)
(-7.02559e-12 0 0)
(-4.33104e-12 0 0)
(-6.07146e-12 0 0)
(-6.59842e-12 0 0)
(-1.10256e-11 0 0)
(-1.25034e-11 0 0)
(-1.57039e-11 0 0)
(-1.70034e-11 0 0)
(-2.02878e-11 0 0)
(-1.9467e-11 0 0)
(-2.17731e-11 0 0)
(-2.26234e-11 0 0)
(-2.65659e-11 0 0)
(-2.31882e-11 0 0)
(-2.54575e-11 0 0)
(-2.4617e-11 0 0)
(-2.30556e-11 0 0)
(-1.71667e-11 0 0)
(-1.61921e-11 0 0)
(-1.47477e-11 0 0)
(-8.29509e-12 0 0)
(-7.86808e-12 0 0)
(-1.24209e-11 0 0)
(-1.03585e-11 0 0)
(-1.09409e-11 0 0)
(-8.6832e-12 0 0)
(-1.08279e-11 0 0)
(-9.47484e-12 0 0)
(-8.12061e-12 0 0)
(-8.7263e-12 0 0)
(-4.20064e-12 0 0)
(-3.31529e-12 0 0)
(3.36196e-13 0 0)
(-4.80594e-12 0 0)
(-7.23117e-12 0 0)
(-7.58129e-13 0 0)
(2.07474e-12 0 0)
(2.49384e-12 0 0)
(4.6545e-12 0 0)
(8.34173e-12 0 0)
(1.13597e-11 0 0)
(5.81091e-12 0 0)
(5.8592e-12 0 0)
(6.30604e-12 0 0)
(8.86091e-12 0 0)
(8.78115e-12 0 0)
(9.25935e-12 0 0)
(5.08411e-12 0 0)
(7.36488e-12 0 0)
(9.5267e-12 0 0)
(1.04593e-11 0 0)
(9.93281e-12 0 0)
(1.13195e-11 0 0)
(1.14787e-11 0 0)
(1.90331e-11 0 0)
(1.90396e-11 0 0)
(1.96688e-11 0 0)
(1.99632e-11 0 0)
(1.78611e-11 0 0)
(1.778e-11 0 0)
(1.66021e-11 0 0)
(2.05838e-11 0 0)
(1.76243e-11 0 0)
(1.62466e-11 0 0)
(1.38414e-11 0 0)
(1.25109e-11 0 0)
(6.45938e-12 0 0)
(5.21497e-12 0 0)
(6.35087e-12 0 0)
(7.03092e-12 0 0)
(4.89573e-12 0 0)
(3.06062e-12 0 0)
(3.33303e-12 0 0)
(4.84273e-12 0 0)
(-9.44007e-13 0 0)
(5.02185e-12 0 0)
(5.87165e-12 0 0)
(5.5148e-12 0 0)
(7.49163e-12 0 0)
(1.07483e-11 0 0)
(1.64094e-11 0 0)
(1.71076e-11 0 0)
(2.31542e-11 0 0)
(3.39483e-11 0 0)
(4.75152e-11 0 0)
(6.13392e-11 0 0)
(9.27749e-11 0 0)
(1.35459e-10 0 0)
(2.13617e-10 0 0)
(3.40809e-10 0 0)
(5.44536e-10 0 0)
(9.04373e-10 0 0)
(1.50152e-09 0 0)
(2.47945e-09 0 0)
(4.08052e-09 0 0)
(6.71763e-09 0 0)
(1.0975e-08 0 0)
(1.77438e-08 0 0)
(2.85477e-08 0 0)
(4.56819e-08 0 0)
(7.27116e-08 0 0)
(1.15109e-07 0 0)
(1.81396e-07 0 0)
(2.84546e-07 0 0)
(4.44123e-07 0 0)
(6.89889e-07 0 0)
(1.06632e-06 0 0)
(1.63992e-06 0 0)
(2.50936e-06 0 0)
(3.82043e-06 0 0)
(5.78684e-06 0 0)
(8.72027e-06 0 0)
(1.30724e-05 0 0)
(1.94937e-05 0 0)
(2.8915e-05 0 0)
(4.26598e-05 0 0)
(6.25973e-05 0 0)
(9.135e-05 0 0)
(0.000132572 0 0)
(0.000191321 0 0)
(0.000274542 0 0)
(0.000391711 0 0)
(0.000555654 0 0)
(0.000783605 0 0)
(0.00109853 0 0)
(0.00153081 0 0)
(0.00212027 0 0)
(0.00291872 0 0)
(0.00399293 0 0)
(0.00542817 0 0)
(0.00733239 0 0)
(0.00984086 0 0)
(0.0131214 0 0)
(0.01738 0 0)
(0.0228669 0 0)
(0.0298822 0 0)
(0.0387821 0 0)
(0.049983 0 0)
(0.0639661 0 0)
(0.0812785 0 0)
(0.102532 0 0)
(0.128401 0 0)
(0.159612 0 0)
(0.19693 0 0)
(0.241142 0 0)
(0.293035 0 0)
(0.353362 0 0)
(0.422809 0 0)
(0.501958 0 0)
(0.591242 0 0)
(0.690903 0 0)
(0.800953 0 0)
(0.921128 0 0)
(1.05086 0 0)
(1.18927 0 0)
(1.3352 0 0)
(1.4849 0 0)
(1.63239 0 0)
(1.77534 0 0)
(1.91239 0 0)
(2.04231 0 0)
(2.16412 0 0)
(2.27712 0 0)
(2.38084 0 0)
(2.47505 0 0)
(2.55975 0 0)
(2.63514 0 0)
(2.70158 0 0)
(2.75956 0 0)
(2.80966 0 0)
(2.85253 0 0)
(2.88888 0 0)
(2.9194 0 0)
(2.94479 0 0)
(2.96572 0 0)
(2.9828 0 0)
(2.99663 0 0)
(3.00771 0 0)
(3.01652 0 0)
(3.02346 0 0)
(3.02888 0 0)
(3.03307 0 0)
(3.03628 0 0)
(3.03873 0 0)
(3.04057 0 0)
(3.04195 0 0)
(3.04297 0 0)
(3.04372 0 0)
(3.04427 0 0)
(3.04467 0 0)
(3.04496 0 0)
(3.04516 0 0)
(3.0453 0 0)
(3.0454 0 0)
(3.04548 0 0)
(3.04553 0 0)
(3.04556 0 0)
(3.04559 0 0)
(3.0456 0 0)
(3.04562 0 0)
(3.04562 0 0)
(3.04563 0 0)
(3.04563 0 0)
(3.04564 0 0)
(3.04564 0 0)
(3.04564 0 0)
(3.04565 0 0)
(3.04565 0 0)
(3.04565 0 0)
(3.04565 0 0)
(3.04565 0 0)
(3.04565 0 0)
(3.04565 0 0)
(3.04565 0 0)
(3.04566 0 0)
(3.04566 0 0)
(3.04566 0 0)
(3.04566 0 0)
(3.04566 0 0)
(3.04566 0 0)
(3.04566 0 0)
(3.04566 0 0)
(3.04566 0 0)
(3.04566 0 0)
(3.04566 0 0)
(3.04566 0 0)
(3.04566 0 0)
(3.04566 0 0)
(3.04566 0 0)
(3.04567 0 0)
(3.04567 0 0)
(3.04567 0 0)
(3.04567 0 0)
(3.04567 0 0)
(3.04567 0 0)
(3.04567 0 0)
(3.04567 0 0)
(3.04567 0 0)
(3.04567 0 0)
(3.04567 0 0)
(3.04567 0 0)
(3.04567 0 0)
(3.04567 0 0)
(3.04567 0 0)
(3.04567 0 0)
(3.04567 0 0)
(3.04567 0 0)
(3.04567 0 0)
(3.04567 0 0)
(3.04567 0 0)
(3.04567 0 0)
(3.04567 0 0)
(3.04567 0 0)
(3.04567 0 0)
(3.04567 0 0)
(3.04567 0 0)
(3.04567 0 0)
(3.04567 0 0)
(3.04567 0 0)
(3.04567 0 0)
(3.04567 0 0)
(3.04567 0 0)
(3.04567 0 0)
(3.04567 0 0)
(3.04567 0 0)
(3.04567 0 0)
(3.04567 0 0)
(3.04567 0 0)
(3.04567 0 0)
(3.04567 0 0)
(3.04567 0 0)
(3.04567 0 0)
(3.04567 0 0)
(3.04567 0 0)
(3.04567 0 0)
(3.04567 0 0)
(3.04567 0 0)
(3.04567 0 0)
(3.04567 0 0)
(3.04567 0 0)
(3.04567 0 0)
(3.04567 0 0)
(3.04567 0 0)
(3.04567 0 0)
(3.04567 0 0)
(3.04567 0 0)
(3.04567 0 0)
(3.04567 0 0)
(3.04567 0 0)
(3.04567 0 0)
(3.04567 0 0)
(3.04567 0 0)
(3.04567 0 0)
(3.04567 0 0)
(3.04567 0 0)
(3.04567 0 0)
(3.04567 0 0)
(3.04567 0 0)
(3.04567 0 0)
(3.04567 0 0)
(3.04567 0 0)
(3.04567 0 0)
(3.04567 0 0)
(3.04567 0 0)
(3.04567 0 0)
(3.04567 0 0)
(3.04567 0 0)
(3.04567 0 0)
(3.04567 0 0)
(3.04567 0 0)
(3.04567 0 0)
(3.04567 0 0)
(3.04567 0 0)
(3.04567 0 0)
(3.04567 0 0)
(3.04567 0 0)
(3.04567 0 0)
(3.04567 0 0)
(3.04567 0 0)
(3.04567 0 0)
(3.04567 0 0)
(3.04567 0 0)
(3.04567 0 0)
(3.04567 0 0)
(3.04567 0 0)
(3.04567 0 0)
(3.04567 0 0)
(3.04567 0 0)
(3.04567 0 0)
(3.04567 0 0)
(3.04567 0 0)
(3.04567 0 0)
(3.04567 0 0)
(3.04567 0 0)
(3.04567 0 0)
(3.04567 0 0)
(3.04567 0 0)
(3.04567 0 0)
(3.04567 0 0)
(3.04567 0 0)
(3.04567 0 0)
(3.04567 0 0)
(3.04567 0 0)
(3.04567 0 0)
(3.04567 0 0)
(3.04567 0 0)
(3.04567 0 0)
(3.04567 0 0)
(3.04567 0 0)
(3.04567 0 0)
(3.04567 0 0)
(3.04567 0 0)
(3.04567 0 0)
(3.04567 0 0)
(3.04567 0 0)
(3.04567 0 0)
(3.04567 0 0)
(3.04567 0 0)
(3.04567 0 0)
(3.04567 0 0)
(3.04567 0 0)
(3.04567 0 0)
(3.04567 0 0)
(3.04567 0 0)
(3.04567 0 0)
(3.04567 0 0)
(3.04567 0 0)
(3.04567 0 0)
(3.04567 0 0)
(3.04567 0 0)
(3.04567 0 0)
(3.04567 0 0)
(3.04567 0 0)
(3.04567 0 0)
(3.04567 0 0)
(3.04567 0 0)
(3.04567 0 0)
(3.04567 0 0)
(3.04566 0 0)
(3.04566 0 0)
(3.04566 0 0)
(3.04566 0 0)
(3.04566 0 0)
(3.04566 0 0)
(3.04566 0 0)
(3.04566 0 0)
(3.04566 0 0)
(3.04566 0 0)
(3.04566 0 0)
(3.04566 0 0)
(3.04566 0 0)
(3.04566 0 0)
(3.04566 0 0)
(3.04566 0 0)
(3.04566 0 0)
(3.04566 0 0)
(3.04566 0 0)
(3.04566 0 0)
(3.04566 0 0)
(3.04566 0 0)
(3.04566 0 0)
(3.04566 0 0)
(3.04566 0 0)
(3.04566 0 0)
(3.04566 0 0)
(3.04566 0 0)
(3.04566 0 0)
(3.04566 0 0)
(3.04566 0 0)
(3.04566 0 0)
(3.04566 0 0)
(3.04566 0 0)
(3.04566 0 0)
(3.04566 0 0)
(3.04566 0 0)
(3.04566 0 0)
(3.04566 0 0)
(3.04566 0 0)
(3.04566 0 0)
(3.04566 0 0)
(3.04566 0 0)
(3.04566 0 0)
(3.04566 0 0)
(3.04566 0 0)
(3.04566 0 0)
(3.04566 0 0)
(3.04566 0 0)
(3.04566 0 0)
(3.04566 0 0)
(3.04566 0 0)
(3.04566 0 0)
(3.04566 0 0)
(3.04566 0 0)
(3.04566 0 0)
(3.04566 0 0)
(3.04566 0 0)
(3.04566 0 0)
(3.04566 0 0)
(3.04566 0 0)
(3.04566 0 0)
(3.04566 0 0)
(3.04566 0 0)
(3.04566 0 0)
(3.04566 0 0)
(3.04566 0 0)
(3.04566 0 0)
(3.04566 0 0)
(3.04566 0 0)
(3.04566 0 0)
(3.04565 0 0)
(3.04565 0 0)
(3.04565 0 0)
(3.04565 0 0)
(3.04565 0 0)
(3.04565 0 0)
(3.04565 0 0)
(3.04565 0 0)
(3.04565 0 0)
(3.04565 0 0)
(3.04565 0 0)
(3.04565 0 0)
(3.04565 0 0)
(3.04565 0 0)
(3.04565 0 0)
(3.04565 0 0)
(3.04565 0 0)
(3.04565 0 0)
(3.04565 0 0)
(3.04565 0 0)
(3.04565 0 0)
(3.04565 0 0)
(3.04565 0 0)
(3.04565 0 0)
(3.04565 0 0)
(3.04565 0 0)
(3.04565 0 0)
(3.04565 0 0)
(3.04565 0 0)
(3.04565 0 0)
(3.04565 0 0)
(3.04565 0 0)
(3.04565 0 0)
(3.04565 0 0)
(3.04565 0 0)
(3.04565 0 0)
(3.04565 0 0)
(3.04565 0 0)
(3.04565 0 0)
(3.04565 0 0)
(3.04565 0 0)
(3.04565 0 0)
(3.04565 0 0)
(3.04564 0 0)
(3.04564 0 0)
(3.04564 0 0)
(3.04564 0 0)
(3.04564 0 0)
(3.04564 0 0)
(3.04564 0 0)
(3.04564 0 0)
(3.04564 0 0)
(3.04564 0 0)
(3.04564 0 0)
(3.04564 0 0)
(3.04564 0 0)
(3.04564 0 0)
(3.04564 0 0)
(3.04564 0 0)
(3.04564 0 0)
(3.04564 0 0)
(3.04564 0 0)
(3.04564 0 0)
(3.04564 0 0)
(3.04564 0 0)
(3.04564 0 0)
(3.04564 0 0)
(3.04564 0 0)
(3.04564 0 0)
(3.04564 0 0)
(3.04563 0 0)
(3.04563 0 0)
(3.04563 0 0)
(3.04563 0 0)
(3.04563 0 0)
(3.04563 0 0)
(3.04563 0 0)
(3.04563 0 0)
(3.04563 0 0)
(3.04563 0 0)
(3.04563 0 0)
(3.04563 0 0)
(3.04563 0 0)
(3.04563 0 0)
(3.04563 0 0)
(3.04563 0 0)
(3.04563 0 0)
(3.04563 0 0)
(3.04563 0 0)
(3.04563 0 0)
(3.04562 0 0)
(3.04562 0 0)
(3.04562 0 0)
(3.04562 0 0)
(3.04562 0 0)
(3.04562 0 0)
(3.04562 0 0)
(3.04562 0 0)
(3.04562 0 0)
(3.04562 0 0)
(3.04562 0 0)
(3.04562 0 0)
(3.04562 0 0)
(3.04561 0 0)
(3.04561 0 0)
(3.04561 0 0)
(3.04561 0 0)
(3.04561 0 0)
(3.04561 0 0)
(3.04561 0 0)
(3.04561 0 0)
(3.04561 0 0)
(3.04561 0 0)
(3.0456 0 0)
(3.0456 0 0)
(3.0456 0 0)
(3.0456 0 0)
(3.0456 0 0)
(3.0456 0 0)
(3.0456 0 0)
(3.0456 0 0)
(3.04559 0 0)
(3.04559 0 0)
(3.04559 0 0)
(3.04559 0 0)
(3.04559 0 0)
(3.04559 0 0)
(3.04559 0 0)
(3.04558 0 0)
(3.04558 0 0)
(3.04558 0 0)
(3.04558 0 0)
(3.04558 0 0)
(3.04557 0 0)
(3.04557 0 0)
(3.04557 0 0)
(3.04556 0 0)
(3.04555 0 0)
(3.04555 0 0)
(3.04554 0 0)
(3.04552 0 0)
(3.0455 0 0)
(3.04547 0 0)
(3.04543 0 0)
(3.04536 0 0)
(3.04528 0 0)
(3.04515 0 0)
(3.04497 0 0)
(3.04473 0 0)
(3.04438 0 0)
(3.0439 0 0)
(3.04324 0 0)
(3.04233 0 0)
(3.04111 0 0)
(3.03946 0 0)
(3.03727 0 0)
(3.03436 0 0)
(3.03055 0 0)
(3.02559 0 0)
(3.01918 0 0)
(3.01099 0 0)
(3.0006 0 0)
(2.98753 0 0)
(2.97124 0 0)
(2.9511 0 0)
(2.92644 0 0)
(2.89651 0 0)
(2.86051 0 0)
(2.81762 0 0)
(2.76701 0 0)
(2.70785 0 0)
(2.63939 0 0)
(2.56097 0 0)
(2.47205 0 0)
(2.3723 0 0)
(2.26164 0 0)
(2.14024 0 0)
(2.00863 0 0)
(1.86765 0 0)
(1.71855 0 0)
(1.56292 0 0)
(1.4024 0 0)
(1.24273 0 0)
(1.09108 0 0)
(0.949379 0 0)
(0.818813 0 0)
(0.700088 0 0)
(0.593479 0 0)
(0.498891 0 0)
(0.415927 0 0)
(0.343956 0 0)
(0.282178 0 0)
(0.229688 0 0)
(0.185526 0 0)
(0.148723 0 0)
(0.118335 0 0)
(0.0934669 0 0)
(0.0732932 0 0)
(0.0570659 0 0)
(0.0441206 0 0)
(0.0338767 0 0)
(0.0258344 0 0)
(0.0195692 0 0)
(0.0147253 0 0)
(0.011008 0 0)
(0.00817604 0 0)
(0.00603399 0 0)
(0.00442514 0 0)
(0.0032251 0 0)
(0.00233608 0 0)
(0.00168186 0 0)
(0.00120361 0 0)
(0.000856251 0 0)
(0.000605575 0 0)
(0.000425809 0 0)
(0.000297695 0 0)
(0.000206949 0 0)
(0.000143061 0 0)
(9.83489e-05 0 0)
(6.7241e-05 0 0)
(4.57237e-05 0 0)
(3.09255e-05 0 0)
(2.08057e-05 0 0)
(1.39239e-05 0 0)
(9.27012e-06 0 0)
(6.14002e-06 0 0)
(4.04595e-06 0 0)
(2.65282e-06 0 0)
(1.73053e-06 0 0)
(1.1234e-06 0 0)
(7.25721e-07 0 0)
(4.66449e-07 0 0)
(2.98473e-07 0 0)
(1.90038e-07 0 0)
(1.20417e-07 0 0)
(7.58816e-08 0 0)
(4.76542e-08 0 0)
(2.99172e-08 0 0)
(1.8672e-08 0 0)
(1.16893e-08 0 0)
(7.26924e-09 0 0)
(4.43348e-09 0 0)
(2.69723e-09 0 0)
(1.68764e-09 0 0)
(9.28881e-10 0 0)
(5.47718e-10 0 0)
(3.08302e-10 0 0)
(1.50064e-10 0 0)
(4.94444e-11 0 0)
(2.94112e-11 0 0)
(-1.45584e-11 0 0)
(-3.82894e-11 0 0)
(-5.46466e-11 0 0)
(-6.61508e-11 0 0)
(-1.03975e-10 0 0)
(-7.906e-11 0 0)
(-4.74177e-12 0 0)
(3.25977e-11 0 0)
(8.40557e-12 0 0)
(-2.80835e-12 0 0)
(-2.90124e-12 0 0)
(-2.50073e-11 0 0)
(2.27607e-11 0 0)
(3.51787e-11 0 0)
(9.38271e-11 0 0)
(5.30671e-11 0 0)
(7.76836e-11 0 0)
(7.01424e-11 0 0)
(1.53625e-11 0 0)
(-8.52362e-12 0 0)
(-2.06343e-11 0 0)
(-5.13107e-11 0 0)
(-4.05393e-11 0 0)
(-4.83707e-11 0 0)
(-6.62772e-11 0 0)
(-8.27326e-11 0 0)
(-6.39936e-11 0 0)
(-5.99229e-11 0 0)
(-2.84273e-11 0 0)
(2.0472e-11 0 0)
(6.20833e-11 0 0)
(4.50154e-11 0 0)
(2.32941e-11 0 0)
(4.50387e-11 0 0)
(5.78399e-11 0 0)
(6.76542e-11 0 0)
(9.29757e-11 0 0)
(1.3182e-10 0 0)
(1.4677e-10 0 0)
(1.48261e-10 0 0)
(1.52996e-10 0 0)
(1.65276e-10 0 0)
(2.05891e-10 0 0)
(1.93978e-10 0 0)
(2.26629e-10 0 0)
(1.82897e-10 0 0)
(1.22266e-10 0 0)
(5.88829e-11 0 0)
(4.61803e-11 0 0)
(9.99282e-12 0 0)
(1.57277e-11 0 0)
(2.58412e-12 0 0)
(-9.33692e-12 0 0)
(-6.49104e-11 0 0)
(-8.77098e-11 0 0)
(-1.08151e-10 0 0)
(-9.6082e-11 0 0)
(-1.3661e-10 0 0)
(-1.89662e-10 0 0)
(-1.80123e-10 0 0)
(-1.94898e-10 0 0)
(-2.30231e-10 0 0)
(-1.98276e-10 0 0)
(-1.90935e-10 0 0)
(-1.201e-10 0 0)
(-1.24825e-10 0 0)
(-1.36128e-10 0 0)
(-7.00778e-11 0 0)
(-4.38434e-11 0 0)
(-2.89053e-11 0 0)
(-6.04654e-11 0 0)
(-2.03581e-11 0 0)
(-1.47155e-11 0 0)
(1.77547e-11 0 0)
(5.54081e-12 0 0)
(7.49072e-12 0 0)
(1.32191e-11 0 0)
(5.71817e-12 0 0)
(-2.74214e-11 0 0)
(-6.18324e-11 0 0)
(-7.73302e-11 0 0)
(-6.25476e-11 0 0)
(-7.92287e-11 0 0)
(-8.24904e-11 0 0)
(-5.73377e-11 0 0)
(-9.15034e-11 0 0)
(-1.24002e-10 0 0)
(-1.45656e-10 0 0)
(-8.93687e-11 0 0)
(-4.84602e-11 0 0)
(-7.78912e-11 0 0)
(-3.46969e-11 0 0)
(-1.29161e-11 0 0)
(-3.24855e-11 0 0)
)
;

boundaryField
{
    sides
    {
        type            fixedValue;
        value           uniform (0 0 0);
    }
    empty1
    {
        type            empty;
    }
    empty2
    {
        type            empty;
    }
}


// ************************************************************************* //
