/*--------------------------------*- C++ -*----------------------------------*\
| =========                 |                                                 |
| \\      /  F ield         | OpenFOAM: The Open Source CFD Toolbox           |
|  \\    /   O peration     | Version:  2312                                  |
|   \\  /    A nd           | Website:  www.openfoam.com                      |
|    \\/     M anipulation  |                                                 |
\*---------------------------------------------------------------------------*/
FoamFile
{
    version     2.0;
    format      ascii;
    arch        "LSB;label=32;scalar=64";
    class       volScalarField;
    location    "0.0001";
    object      p;
}
// * * * * * * * * * * * * * * * * * * * * * * * * * * * * * * * * * * * * * //

dimensions      [1 -1 -2 0 0 0 0];

internalField   nonuniform List<scalar> 
800
(
1e+07
1e+07
1e+07
1e+07
1e+07
1e+07
1e+07
1e+07
1e+07
1e+07
1e+07
1e+07
1e+07
1e+07
1e+07
1e+07
1e+07
1e+07
1e+07
1e+07
1e+07
1e+07
1e+07
1e+07
1e+07
1e+07
1e+07
1e+07
1e+07
1e+07
1e+07
1e+07
1e+07
1e+07
1e+07
1e+07
1e+07
1e+07
1e+07
1e+07
1e+07
1e+07
1e+07
1e+07
1e+07
1e+07
1e+07
1e+07
1e+07
1e+07
1e+07
1e+07
1e+07
1e+07
1e+07
1e+07
1e+07
1e+07
1e+07
1e+07
1e+07
1e+07
1e+07
1e+07
1e+07
1e+07
1e+07
1e+07
1e+07
1e+07
1e+07
1e+07
1e+07
1e+07
1e+07
1e+07
1e+07
1e+07
1e+07
1e+07
1e+07
1e+07
1e+07
1e+07
1e+07
1e+07
1e+07
1e+07
1e+07
1e+07
1e+07
1e+07
1e+07
1e+07
1e+07
1e+07
1e+07
1e+07
1e+07
1e+07
1e+07
1e+07
1e+07
1e+07
1e+07
1e+07
1e+07
1e+07
1e+07
1e+07
1e+07
1e+07
1e+07
1e+07
1e+07
1e+07
1e+07
1e+07
1e+07
1e+07
1e+07
1e+07
1e+07
1e+07
1e+07
1e+07
1e+07
1e+07
1e+07
1e+07
1e+07
1e+07
1e+07
1e+07
1e+07
1e+07
1e+07
1e+07
1e+07
1e+07
1e+07
1e+07
1e+07
1e+07
1e+07
1e+07
1e+07
1e+07
1e+07
1e+07
1e+07
1e+07
1e+07
1e+07
1e+07
1e+07
1e+07
1e+07
1e+07
1e+07
1e+07
1e+07
1e+07
1e+07
1e+07
1e+07
1e+07
1e+07
1e+07
1e+07
1e+07
1e+07
1e+07
1e+07
1e+07
1e+07
1e+07
1e+07
1e+07
1e+07
1e+07
1e+07
1e+07
1e+07
1e+07
1e+07
1e+07
1e+07
1e+07
1e+07
1e+07
1e+07
1e+07
1e+07
1e+07
1e+07
1e+07
1e+07
1e+07
1e+07
1e+07
1e+07
1e+07
1e+07
1e+07
1e+07
1e+07
1e+07
1e+07
1e+07
1e+07
1e+07
1e+07
1e+07
1e+07
1e+07
1e+07
1e+07
1e+07
1e+07
1e+07
1e+07
1e+07
1e+07
1e+07
1e+07
1e+07
1e+07
1e+07
1e+07
1e+07
1e+07
1e+07
1e+07
1e+07
1e+07
1e+07
1e+07
1e+07
1e+07
1e+07
1e+07
1e+07
1e+07
1e+07
1e+07
9.99999e+06
9.99999e+06
9.99998e+06
9.99997e+06
9.99995e+06
9.99991e+06
9.99986e+06
9.99977e+06
9.99963e+06
9.99942e+06
9.99908e+06
9.99857e+06
9.99779e+06
9.99662e+06
9.99487e+06
9.99232e+06
9.9886e+06
9.98327e+06
9.9757e+06
9.96509e+06
9.9504e+06
9.93034e+06
9.90329e+06
9.86731e+06
9.82014e+06
9.75919e+06
9.6816e+06
9.58436e+06
9.46445e+06
9.31906e+06
9.1458e+06
8.94306e+06
8.7103e+06
8.44835e+06
8.15979e+06
7.85177e+06
7.54805e+06
7.25933e+06
6.99031e+06
6.74459e+06
6.52448e+06
6.33103e+06
6.16418e+06
6.02289e+06
5.90536e+06
5.80934e+06
5.73226e+06
5.67145e+06
5.62429e+06
5.58837e+06
5.56145e+06
5.54163e+06
5.52727e+06
5.51704e+06
5.50988e+06
5.50493e+06
5.50158e+06
5.49935e+06
5.49788e+06
5.49693e+06
5.49633e+06
5.49595e+06
5.49571e+06
5.49556e+06
5.49546e+06
5.4954e+06
5.49536e+06
5.49534e+06
5.49532e+06
5.49531e+06
5.49531e+06
5.4953e+06
5.49529e+06
5.49528e+06
5.49527e+06
5.49527e+06
5.49526e+06
5.49526e+06
5.49526e+06
5.49526e+06
5.49526e+06
5.49525e+06
5.49525e+06
5.49524e+06
5.49524e+06
5.49524e+06
5.49524e+06
5.49524e+06
5.49524e+06
5.49523e+06
5.49523e+06
5.49523e+06
5.49522e+06
5.49522e+06
5.49522e+06
5.49522e+06
5.49522e+06
5.49522e+06
5.49522e+06
5.49522e+06
5.49521e+06
5.49521e+06
5.49521e+06
5.49521e+06
5.49521e+06
5.49521e+06
5.49521e+06
5.49521e+06
5.49521e+06
5.4952e+06
5.4952e+06
5.4952e+06
5.4952e+06
5.4952e+06
5.4952e+06
5.4952e+06
5.4952e+06
5.4952e+06
5.4952e+06
5.4952e+06
5.4952e+06
5.49519e+06
5.49519e+06
5.49519e+06
5.49519e+06
5.49519e+06
5.49519e+06
5.49519e+06
5.49519e+06
5.49519e+06
5.49519e+06
5.49519e+06
5.49519e+06
5.49519e+06
5.49519e+06
5.49519e+06
5.49519e+06
5.49519e+06
5.49518e+06
5.49518e+06
5.49518e+06
5.49518e+06
5.49518e+06
5.49518e+06
5.49518e+06
5.49518e+06
5.49518e+06
5.49518e+06
5.49518e+06
5.49518e+06
5.49518e+06
5.49518e+06
5.49518e+06
5.49518e+06
5.49517e+06
5.49517e+06
5.49517e+06
5.49517e+06
5.49517e+06
5.49517e+06
5.49517e+06
5.49517e+06
5.49517e+06
5.49517e+06
5.49517e+06
5.49517e+06
5.49517e+06
5.49517e+06
5.49517e+06
5.49516e+06
5.49516e+06
5.49516e+06
5.49516e+06
5.49516e+06
5.49516e+06
5.49516e+06
5.49516e+06
5.49516e+06
5.49516e+06
5.49516e+06
5.49516e+06
5.49516e+06
5.49515e+06
5.49515e+06
5.49515e+06
5.49515e+06
5.49515e+06
5.49515e+06
5.49515e+06
5.49515e+06
5.49515e+06
5.49514e+06
5.49514e+06
5.49514e+06
5.49514e+06
5.49514e+06
5.49514e+06
5.49514e+06
5.49514e+06
5.49513e+06
5.49513e+06
5.49513e+06
5.49513e+06
5.49513e+06
5.49513e+06
5.49513e+06
5.49512e+06
5.49512e+06
5.49512e+06
5.49512e+06
5.49512e+06
5.49512e+06
5.49511e+06
5.49511e+06
5.49511e+06
5.49511e+06
5.4951e+06
5.4951e+06
5.4951e+06
5.4951e+06
5.4951e+06
5.49509e+06
5.49509e+06
5.49509e+06
5.49509e+06
5.49508e+06
5.49508e+06
5.49507e+06
5.49507e+06
5.49507e+06
5.49506e+06
5.49506e+06
5.49506e+06
5.49505e+06
5.49504e+06
5.49504e+06
5.49503e+06
5.49503e+06
5.49502e+06
5.49501e+06
5.495e+06
5.49498e+06
5.49496e+06
5.49492e+06
5.49485e+06
5.49474e+06
5.49456e+06
5.49428e+06
5.49383e+06
5.49311e+06
5.49199e+06
5.49028e+06
5.48768e+06
5.48382e+06
5.47815e+06
5.46996e+06
5.45833e+06
5.44207e+06
5.41968e+06
5.38935e+06
5.34894e+06
5.29599e+06
5.22774e+06
5.14127e+06
5.03359e+06
4.90187e+06
4.74362e+06
4.55703e+06
4.34119e+06
4.09646e+06
3.82466e+06
3.5293e+06
3.21532e+06
2.89095e+06
2.58414e+06
2.3069e+06
2.06212e+06
1.85067e+06
1.67169e+06
1.52308e+06
1.40189e+06
1.30475e+06
1.22815e+06
1.16868e+06
1.1232e+06
1.08892e+06
1.06343e+06
1.04474e+06
1.0312e+06
1.02153e+06
1.01469e+06
1.00992e+06
1.00663e+06
1.00439e+06
1.00288e+06
1.00187e+06
1.0012e+06
1.00076e+06
1.00048e+06
1.0003e+06
1.00019e+06
1.00011e+06
1.00007e+06
1.00004e+06
1.00003e+06
1.00001e+06
1.00001e+06
1.00001e+06
1e+06
1e+06
1e+06
1e+06
1e+06
1e+06
1e+06
1e+06
1e+06
1e+06
1e+06
1e+06
1e+06
1e+06
1e+06
1e+06
1e+06
1e+06
1e+06
1e+06
1e+06
1e+06
1e+06
1e+06
1e+06
1e+06
1e+06
1e+06
1e+06
1e+06
1e+06
1e+06
1e+06
1e+06
1e+06
1e+06
1e+06
1e+06
1e+06
1e+06
1e+06
1e+06
1e+06
1e+06
1e+06
1e+06
1e+06
1e+06
1e+06
1e+06
1e+06
1e+06
1e+06
1e+06
1e+06
1e+06
1e+06
1e+06
1e+06
1e+06
1e+06
1e+06
1e+06
1e+06
1e+06
1e+06
1e+06
1e+06
1e+06
1e+06
1e+06
1e+06
1e+06
1e+06
1e+06
1e+06
1e+06
1e+06
1e+06
1e+06
1e+06
1e+06
1e+06
1e+06
1e+06
1e+06
1e+06
1e+06
1e+06
1e+06
1e+06
1e+06
1e+06
1e+06
1e+06
1e+06
1e+06
1e+06
1e+06
1e+06
1e+06
1e+06
1e+06
1e+06
1e+06
1e+06
1e+06
1e+06
1e+06
1e+06
1e+06
1e+06
1e+06
1e+06
1e+06
1e+06
1e+06
1e+06
1e+06
1e+06
1e+06
1e+06
1e+06
1e+06
1e+06
1e+06
1e+06
1e+06
1e+06
1e+06
1e+06
1e+06
1e+06
1e+06
1e+06
1e+06
1e+06
1e+06
1e+06
1e+06
1e+06
1e+06
1e+06
1e+06
1e+06
1e+06
1e+06
1e+06
1e+06
1e+06
1e+06
1e+06
1e+06
1e+06
1e+06
1e+06
1e+06
1e+06
1e+06
1e+06
1e+06
1e+06
1e+06
1e+06
1e+06
1e+06
1e+06
1e+06
1e+06
1e+06
1e+06
1e+06
1e+06
1e+06
1e+06
1e+06
1e+06
1e+06
1e+06
1e+06
1e+06
1e+06
1e+06
1e+06
1e+06
1e+06
1e+06
1e+06
1e+06
1e+06
1e+06
1e+06
1e+06
1e+06
1e+06
1e+06
1e+06
1e+06
1e+06
1e+06
1e+06
1e+06
1e+06
1e+06
1e+06
1e+06
1e+06
1e+06
1e+06
1e+06
1e+06
1e+06
1e+06
1e+06
1e+06
1e+06
1e+06
1e+06
1e+06
1e+06
1e+06
1e+06
1e+06
1e+06
1e+06
1e+06
1e+06
1e+06
1e+06
1e+06
1e+06
1e+06
1e+06
1e+06
1e+06
1e+06
1e+06
1e+06
1e+06
1e+06
1e+06
1e+06
1e+06
1e+06
1e+06
1e+06
)
;

boundaryField
{
    sides
    {
        type            zeroGradient;
    }
    empty1
    {
        type            empty;
    }
    empty2
    {
        type            empty;
    }
}


// ************************************************************************* //
