/*--------------------------------*- C++ -*----------------------------------*\
| =========                 |                                                 |
| \\      /  F ield         | OpenFOAM: The Open Source CFD Toolbox           |
|  \\    /   O peration     | Version:  2312                                  |
|   \\  /    A nd           | Website:  www.openfoam.com                      |
|    \\/     M anipulation  |                                                 |
\*---------------------------------------------------------------------------*/
FoamFile
{
    version     2.0;
    format      ascii;
    arch        "LSB;label=32;scalar=64";
    class       surfaceScalarField;
    location    "0.0001";
    object      phi;
}
// * * * * * * * * * * * * * * * * * * * * * * * * * * * * * * * * * * * * * //

dimensions      [1 0 -1 0 0 0 0];

oriented        oriented;

internalField   nonuniform List<scalar> 
799
(
-2.85772e-12
-3.70569e-12
-3.12072e-12
-5.92638e-13
4.41865e-13
2.99985e-12
5.81097e-12
3.07127e-12
4.82639e-12
3.23112e-12
3.24521e-12
1.68345e-12
9.32038e-13
2.40993e-12
1.28661e-12
-2.5184e-12
-2.73839e-12
-2.32847e-12
-2.00872e-12
4.08878e-13
3.69966e-14
5.98147e-13
1.6524e-12
-6.76452e-14
-6.32372e-13
-1.49274e-12
-1.6358e-12
8.10962e-13
1.60014e-13
1.24227e-12
2.56848e-12
3.02974e-12
2.15324e-12
-8.17253e-13
-2.85415e-13
1.34524e-13
-3.01948e-13
9.35113e-14
-9.43315e-13
-2.17293e-12
-4.67319e-13
-1.95778e-12
-2.00461e-12
-2.13553e-12
-7.09028e-13
-1.81392e-12
-1.35931e-12
-1.59725e-12
-7.08777e-13
-1.06306e-12
-1.57672e-12
-2.29019e-12
-1.70483e-13
-1.93954e-12
1.17795e-12
8.01135e-13
-1.11347e-12
1.11424e-13
-2.78899e-12
-3.49187e-12
-2.05279e-12
-2.32334e-12
-2.20562e-12
2.21146e-13
6.52688e-13
-1.0351e-12
1.80975e-12
1.57567e-12
3.85196e-12
1.50646e-12
2.44437e-12
2.44207e-14
-7.73215e-14
-1.29475e-13
5.09825e-13
-1.3549e-12
-1.88412e-12
-2.68366e-12
-2.76033e-12
-2.36784e-12
-1.68377e-12
-3.95608e-12
-4.20742e-12
-4.76969e-12
-1.00674e-12
1.16615e-12
-2.55375e-13
4.71187e-12
2.08645e-12
5.98804e-13
8.54665e-14
-1.08111e-12
-2.02587e-12
-1.8718e-12
-2.17487e-12
-2.05464e-12
3.26678e-13
-8.99266e-13
8.4172e-13
1.10198e-12
2.14023e-13
1.11372e-12
3.81778e-13
-1.08289e-12
-2.15611e-12
-1.47232e-12
-3.43011e-12
-4.42012e-12
-3.30361e-12
-1.68843e-12
-3.59894e-12
3.82337e-13
-3.02018e-13
2.88918e-13
2.87868e-12
-3.37628e-13
-5.26681e-13
2.04043e-13
1.37177e-12
8.35415e-15
-1.68336e-12
-2.85574e-12
-3.48116e-12
-3.37023e-13
-4.11034e-13
-1.57801e-12
2.45293e-13
-4.02237e-12
-2.29671e-12
1.20882e-13
-1.70313e-12
-1.89168e-12
-3.50944e-12
-2.36889e-12
-1.98299e-12
-4.37812e-12
-3.30927e-12
-3.56283e-12
-4.72595e-12
-3.04622e-12
-3.45144e-12
-5.20225e-12
-4.31404e-12
-1.67247e-12
-1.65078e-12
-1.71258e-12
1.574e-12
-1.1861e-12
-1.69822e-12
6.56009e-13
1.94675e-12
2.99871e-12
2.76254e-12
2.87821e-12
4.60181e-12
6.65367e-13
3.43065e-12
3.54285e-12
2.10158e-12
3.13906e-12
2.52674e-12
-7.31575e-13
-2.53506e-13
-8.15507e-13
-3.36175e-13
1.1814e-12
-4.52233e-13
-3.81528e-13
-1.24203e-12
1.51553e-12
2.80974e-12
2.25567e-12
1.76157e-12
2.15395e-12
2.08203e-12
8.1767e-13
2.57888e-14
6.00728e-13
-8.91929e-13
-2.78606e-12
-2.24328e-12
-9.30834e-14
1.02547e-12
1.28588e-12
-1.73217e-13
6.46307e-13
1.23415e-12
-2.37648e-13
9.06162e-13
1.09626e-13
2.02068e-12
-7.21248e-13
-1.94119e-12
-3.11291e-12
-1.97705e-12
-4.05453e-12
-4.99493e-12
-6.72405e-12
-6.42394e-12
-3.80131e-12
-4.66609e-12
-5.7508e-12
-1.76829e-12
-3.10961e-12
1.35874e-12
1.70579e-12
2.84055e-12
4.34281e-12
2.12072e-12
2.39163e-12
1.75456e-12
1.37612e-12
1.76905e-12
2.01375e-12
4.7899e-12
4.85164e-12
5.50211e-12
3.50001e-12
6.45245e-12
6.64934e-12
5.89127e-12
9.25417e-12
9.1478e-12
9.82911e-12
1.19129e-11
1.38698e-11
1.67825e-11
2.91118e-11
5.25909e-11
9.28499e-11
1.7441e-10
3.33342e-10
6.37598e-10
1.21389e-09
2.29583e-09
4.28393e-09
7.94249e-09
1.4561e-08
2.6479e-08
4.77824e-08
8.55684e-08
1.52091e-07
2.68253e-07
4.69448e-07
8.15093e-07
1.40397e-06
2.39887e-06
4.06541e-06
6.83273e-06
1.13874e-05
1.88166e-05
3.08242e-05
5.00511e-05
8.05472e-05
0.000128451
0.000202962
0.000317698
0.000492567
0.000756307
0.00114984
0.00173065
0.00257829
0.00380122
0.00554495
0.00800143
0.0114193
0.0161148
0.0224813
0.030998
0.0422338
0.0568457
0.0755689
0.0991958
0.128542
0.164398
0.207468
0.25829
0.317159
0.384033
0.458472
0.539552
0.62367
0.704401
0.780276
0.850192
0.913343
0.969281
1.0179
1.05938
1.09412
1.1227
1.1458
1.16413
1.17844
1.18941
1.19767
1.2038
1.20826
1.21146
1.21371
1.21527
1.21633
1.21704
1.21751
1.21782
1.21801
1.21814
1.21822
1.21826
1.21829
1.21831
1.21832
1.21833
1.21834
1.21834
1.21834
1.21835
1.21835
1.21835
1.21835
1.21835
1.21835
1.21835
1.21835
1.21836
1.21836
1.21836
1.21836
1.21836
1.21836
1.21836
1.21836
1.21836
1.21836
1.21836
1.21836
1.21836
1.21836
1.21836
1.21836
1.21836
1.21836
1.21836
1.21836
1.21836
1.21836
1.21836
1.21836
1.21836
1.21837
1.21837
1.21837
1.21837
1.21837
1.21837
1.21837
1.21837
1.21837
1.21837
1.21837
1.21837
1.21837
1.21837
1.21837
1.21837
1.21837
1.21837
1.21837
1.21837
1.21837
1.21837
1.21837
1.21837
1.21837
1.21837
1.21837
1.21837
1.21837
1.21837
1.21837
1.21837
1.21837
1.21837
1.21837
1.21837
1.21837
1.21837
1.21837
1.21837
1.21837
1.21836
1.21836
1.21836
1.21836
1.21836
1.21836
1.21836
1.21836
1.21836
1.21836
1.21834
1.21834
1.21834
1.21834
1.21834
1.21834
1.21834
1.21834
1.21834
1.21834
1.21834
1.21834
1.21834
1.21834
1.21834
1.21834
1.21834
1.21834
1.21834
1.21834
1.21834
1.21834
1.21834
1.21834
1.21834
1.21834
1.21834
1.21834
1.21834
1.21834
1.21834
1.21834
1.21833
1.21833
1.21833
1.21833
1.21833
1.21833
1.21833
1.21833
1.21833
1.21833
1.21833
1.21833
1.21833
1.21833
1.21833
1.21833
1.21833
1.21833
1.21833
1.21833
1.21833
1.21833
1.21833
1.21833
1.21833
1.21833
1.21832
1.21832
1.21832
1.21832
1.21832
1.21832
1.21832
1.21832
1.21832
1.21832
1.21832
1.21832
1.21832
1.21832
1.21832
1.21831
1.21831
1.21831
1.21831
1.21831
1.21831
1.21831
1.21831
1.2183
1.2183
1.2183
1.2183
1.2183
1.21829
1.21829
1.21828
1.21827
1.21824
1.21821
1.21815
1.21806
1.21791
1.21768
1.21732
1.21677
1.21595
1.21472
1.21294
1.21037
1.20674
1.20169
1.19478
1.18547
1.17313
1.15706
1.13647
1.11055
1.07847
1.0395
0.993018
0.938611
0.876172
0.805962
0.728676
0.645511
0.557771
0.471168
0.391998
0.321226
0.259371
0.206434
0.162015
0.12543
0.0958238
0.0722636
0.0538119
0.0395805
0.0287643
0.0206592
0.014668
0.0102976
0.00715007
0.0049112
0.00333782
0.00224505
0.00149472
0.000985261
0.000643096
0.000415729
0.000266214
0.00016889
0.000106171
6.61446e-05
4.08451e-05
2.50036e-05
1.51755e-05
9.13314e-06
5.45114e-06
3.22705e-06
1.89505e-06
1.10408e-06
6.38216e-07
3.66082e-07
2.08401e-07
1.17762e-07
6.60414e-08
3.67728e-08
2.03181e-08
1.11507e-08
6.08157e-09
3.33847e-09
1.80666e-09
9.60487e-10
5.13352e-10
2.7127e-10
1.55073e-10
9.19242e-11
6.5067e-11
3.95638e-11
2.02424e-11
1.88879e-11
1.72232e-11
2.28928e-11
2.35933e-11
3.1244e-11
3.727e-11
5.21244e-11
3.32016e-11
3.14039e-11
2.7558e-11
6.84702e-11
3.62409e-11
2.94622e-11
1.15718e-11
-1.85249e-11
1.34641e-11
-3.07157e-11
-3.02098e-11
-2.94094e-11
-4.21173e-11
-4.14727e-11
-4.3263e-11
-3.48369e-11
-3.45591e-11
-4.66541e-11
-4.10587e-11
-2.09864e-11
1.11829e-11
-8.60372e-12
-4.45446e-11
-5.93204e-12
-2.18223e-11
-4.42616e-12
-9.75256e-13
-4.13787e-13
-5.61472e-12
-3.28965e-11
-1.19193e-11
-2.07483e-11
3.11279e-12
-1.58438e-11
-3.33016e-11
-3.30529e-11
-3.26203e-11
-9.98906e-12
-5.7687e-11
-4.7558e-11
-5.79849e-11
-4.34475e-11
-6.43286e-11
-5.68148e-11
-7.70871e-11
-3.83995e-11
-6.65653e-11
-5.13399e-11
-7.0872e-11
-5.35774e-11
-7.62245e-11
-1.15714e-10
-8.44426e-11
-5.82543e-11
-4.97638e-11
-5.31332e-11
-3.57172e-11
-4.989e-11
-3.61544e-11
-5.27096e-11
-6.29497e-11
-6.32996e-11
-6.77393e-11
-5.51916e-11
-5.87101e-11
-1.07878e-10
-1.07066e-10
-1.28993e-10
-8.72022e-11
-9.11927e-11
-4.75796e-11
-7.63528e-11
-1.05534e-10
-6.95471e-11
-8.48419e-11
-6.98474e-11
-6.55208e-11
-3.52896e-11
-5.48651e-11
-9.15009e-12
-1.20981e-11
2.25275e-11
1.81497e-11
3.54462e-11
2.64973e-11
1.81475e-11
2.71128e-12
2.51663e-12
-6.12183e-13
-1.30234e-11
-2.10641e-11
-4.1389e-11
-4.95094e-11
-6.29861e-11
-4.19232e-11
-3.8821e-11
-1.94364e-11
-2.81945e-11
-1.71351e-11
8.46486e-12
1.88954e-11
-9.64132e-12
-2.73856e-11
-3.18337e-11
-2.29703e-11
-3.42324e-11
-4.78924e-11
-3.09981e-11
-1.11133e-11
-2.08055e-11
-2.03699e-11
-2.91965e-11
-4.27201e-11
-3.0053e-11
-4.71976e-11
-1.71689e-11
-2.05621e-11
-3.83672e-11
-2.06114e-11
-4.23621e-12
-4.53947e-12
1.62225e-11
-6.3709e-13
-1.07094e-11
-2.46595e-11
-1.58643e-11
-4.46973e-11
-1.37012e-11
-2.72236e-11
-6.5641e-12
-9.37353e-12
2.99834e-12
9.39587e-12
1.26056e-11
2.09988e-11
2.91752e-11
1.72257e-11
1.92573e-12
1.10102e-11
-1.36648e-11
-2.79896e-11
6.62946e-12
-7.35791e-11
-4.74651e-11
-5.05135e-11
-3.40201e-11
-5.68598e-11
-7.41656e-11
-3.861e-11
-3.94655e-11
-6.11348e-11
-4.66971e-11
-4.36667e-11
-7.09033e-11
-5.73495e-11
-1.66042e-11
-5.68341e-11
-4.5491e-11
-2.14284e-11
-5.56541e-11
-3.43218e-11
-3.20746e-11
-2.4517e-11
-3.9627e-11
-6.19598e-12
-2.45251e-11
-4.90919e-11
-2.29099e-11
-4.00421e-11
-5.31974e-11
-6.9891e-11
-9.96297e-11
-7.20157e-11
-6.09832e-11
-6.75e-11
-5.89524e-11
-6.81103e-11
-7.09858e-11
-6.46004e-11
-5.75761e-11
-5.83958e-11
-5.57076e-11
-4.275e-11
-1.30591e-11
-4.83833e-11
-7.70105e-11
-8.33679e-11
-5.31425e-11
-4.86477e-11
-3.83767e-11
-5.5304e-11
-4.20064e-11
-5.97026e-11
-4.79889e-11
-1.69918e-11
2.00985e-11
4.12202e-11
3.61355e-11
5.04921e-11
5.67936e-11
5.25111e-11
7.82656e-11
6.47544e-11
8.11208e-11
8.27005e-11
6.78236e-11
7.00567e-11
9.64154e-11
7.02411e-11
3.8129e-11
6.81136e-12
-1.07891e-11
2.61296e-11
4.428e-12
1.20557e-11
1.80999e-11
1.60291e-11
4.96923e-13
1.6951e-11
)
;

boundaryField
{
    sides
    {
        type            calculated;
        value           uniform 0;
    }
    empty1
    {
        type            empty;
        value           nonuniform List<scalar> 0();
    }
    empty2
    {
        type            empty;
        value           nonuniform List<scalar> 0();
    }
}


// ************************************************************************* //
