/*--------------------------------*- C++ -*----------------------------------*\
| =========                 |                                                 |
| \\      /  F ield         | OpenFOAM: The Open Source CFD Toolbox           |
|  \\    /   O peration     | Version:  2312                                  |
|   \\  /    A nd           | Website:  www.openfoam.com                      |
|    \\/     M anipulation  |                                                 |
\*---------------------------------------------------------------------------*/
FoamFile
{
    version     2.0;
    format      ascii;
    arch        "LSB;label=32;scalar=64";
    class       volScalarField;
    location    "0.0001";
    object      thermo:psiGasEff;
}
// * * * * * * * * * * * * * * * * * * * * * * * * * * * * * * * * * * * * * //

dimensions      [-2 4 2 0 0 0 0];

internalField   nonuniform List<scalar> 
800
(
8.4091e-10
8.4091e-10
8.4091e-10
8.4091e-10
8.4091e-10
8.4091e-10
8.4091e-10
8.4091e-10
8.4091e-10
8.4091e-10
8.4091e-10
8.4091e-10
8.4091e-10
8.4091e-10
8.4091e-10
8.4091e-10
8.4091e-10
8.4091e-10
8.4091e-10
8.4091e-10
8.4091e-10
8.4091e-10
8.4091e-10
8.4091e-10
8.4091e-10
8.4091e-10
8.4091e-10
8.4091e-10
8.4091e-10
8.4091e-10
8.4091e-10
8.4091e-10
8.4091e-10
8.4091e-10
8.4091e-10
8.4091e-10
8.4091e-10
8.4091e-10
8.4091e-10
8.4091e-10
8.4091e-10
8.4091e-10
8.4091e-10
8.4091e-10
8.4091e-10
8.4091e-10
8.4091e-10
8.4091e-10
8.4091e-10
8.4091e-10
8.4091e-10
8.4091e-10
8.4091e-10
8.4091e-10
8.4091e-10
8.4091e-10
8.4091e-10
8.4091e-10
8.4091e-10
8.4091e-10
8.4091e-10
8.4091e-10
8.4091e-10
8.4091e-10
8.4091e-10
8.4091e-10
8.4091e-10
8.4091e-10
8.4091e-10
8.4091e-10
8.4091e-10
8.4091e-10
8.4091e-10
8.4091e-10
8.4091e-10
8.4091e-10
8.4091e-10
8.4091e-10
8.4091e-10
8.4091e-10
8.4091e-10
8.4091e-10
8.4091e-10
8.4091e-10
8.4091e-10
8.4091e-10
8.4091e-10
8.4091e-10
8.4091e-10
8.4091e-10
8.4091e-10
8.4091e-10
8.4091e-10
8.4091e-10
8.4091e-10
8.4091e-10
8.4091e-10
8.4091e-10
8.4091e-10
8.4091e-10
8.4091e-10
8.4091e-10
8.4091e-10
8.4091e-10
8.4091e-10
8.4091e-10
8.4091e-10
8.4091e-10
8.4091e-10
8.4091e-10
8.4091e-10
8.4091e-10
8.4091e-10
8.4091e-10
8.4091e-10
8.4091e-10
8.4091e-10
8.4091e-10
8.4091e-10
8.4091e-10
8.4091e-10
8.4091e-10
8.4091e-10
8.4091e-10
8.4091e-10
8.4091e-10
8.4091e-10
8.4091e-10
8.4091e-10
8.4091e-10
8.4091e-10
8.4091e-10
8.4091e-10
8.4091e-10
8.4091e-10
8.4091e-10
8.4091e-10
8.4091e-10
8.4091e-10
8.4091e-10
8.4091e-10
8.4091e-10
8.4091e-10
8.4091e-10
8.4091e-10
8.4091e-10
8.4091e-10
8.4091e-10
8.4091e-10
8.4091e-10
8.4091e-10
8.4091e-10
8.4091e-10
8.4091e-10
8.4091e-10
8.4091e-10
8.4091e-10
8.4091e-10
8.4091e-10
8.4091e-10
8.4091e-10
8.4091e-10
8.4091e-10
8.4091e-10
8.4091e-10
8.4091e-10
8.4091e-10
8.4091e-10
8.4091e-10
8.4091e-10
8.4091e-10
8.4091e-10
8.4091e-10
8.4091e-10
8.4091e-10
8.4091e-10
8.4091e-10
8.4091e-10
8.4091e-10
8.4091e-10
8.4091e-10
8.4091e-10
8.4091e-10
8.4091e-10
8.4091e-10
8.4091e-10
8.4091e-10
8.4091e-10
8.4091e-10
8.4091e-10
8.4091e-10
8.4091e-10
8.4091e-10
8.4091e-10
8.4091e-10
8.4091e-10
8.4091e-10
8.4091e-10
8.4091e-10
8.4091e-10
8.4091e-10
8.4091e-10
8.4091e-10
8.4091e-10
8.4091e-10
8.4091e-10
8.4091e-10
8.4091e-10
8.4091e-10
8.4091e-10
8.4091e-10
8.4091e-10
8.4091e-10
8.4091e-10
8.4091e-10
8.4091e-10
8.4091e-10
8.4091e-10
8.4091e-10
8.4091e-10
8.4091e-10
8.4091e-10
8.4091e-10
8.4091e-10
8.4091e-10
8.4091e-10
8.4091e-10
8.4091e-10
8.4091e-10
8.4091e-10
8.4091e-10
8.4091e-10
8.4091e-10
8.4091e-10
8.4091e-10
8.4091e-10
8.4091e-10
8.4091e-10
8.4091e-10
8.4091e-10
8.4091e-10
8.4091e-10
8.4091e-10
8.4091e-10
8.4091e-10
8.40911e-10
8.40911e-10
8.40912e-10
8.40913e-10
8.40915e-10
8.40919e-10
8.40925e-10
8.40934e-10
8.40948e-10
8.40972e-10
8.41008e-10
8.41064e-10
8.4115e-10
8.41281e-10
8.41477e-10
8.41769e-10
8.42198e-10
8.42822e-10
8.4372e-10
8.44995e-10
8.46788e-10
8.49279e-10
8.52701e-10
8.57346e-10
8.63584e-10
8.71866e-10
8.82748e-10
8.96897e-10
9.15115e-10
9.38358e-10
9.67752e-10
1.00462e-09
1.05052e-09
1.1072e-09
1.17667e-09
1.26113e-09
1.36158e-09
1.47301e-09
1.59216e-09
1.71669e-09
1.84368e-09
1.96983e-09
2.09171e-09
2.20618e-09
2.31064e-09
2.4033e-09
2.4832e-09
2.55027e-09
2.60512e-09
2.64889e-09
2.68298e-09
2.70895e-09
2.72832e-09
2.74248e-09
2.75263e-09
2.75978e-09
2.76473e-09
2.76809e-09
2.77034e-09
2.77182e-09
2.77277e-09
2.77337e-09
2.77376e-09
2.774e-09
2.77415e-09
2.77425e-09
2.77431e-09
2.77435e-09
2.77437e-09
2.77439e-09
2.7744e-09
2.7744e-09
2.77441e-09
2.77442e-09
2.77443e-09
2.77444e-09
2.77444e-09
2.77445e-09
2.77445e-09
2.77445e-09
2.77445e-09
2.77445e-09
2.77446e-09
2.77446e-09
2.77447e-09
2.77447e-09
2.77447e-09
2.77447e-09
2.77447e-09
2.77448e-09
2.77448e-09
2.77448e-09
2.77448e-09
2.77449e-09
2.77449e-09
2.77449e-09
2.77449e-09
2.77449e-09
2.77449e-09
2.77449e-09
2.77449e-09
2.7745e-09
2.7745e-09
2.7745e-09
2.7745e-09
2.7745e-09
2.7745e-09
2.7745e-09
2.7745e-09
2.7745e-09
2.77451e-09
2.77451e-09
2.77451e-09
2.77451e-09
2.77451e-09
2.77451e-09
2.77451e-09
2.77451e-09
2.77451e-09
2.77451e-09
2.77451e-09
2.77452e-09
2.77452e-09
2.77452e-09
2.77452e-09
2.77452e-09
2.77452e-09
2.77452e-09
2.77452e-09
2.77452e-09
2.77452e-09
2.77452e-09
2.77452e-09
2.77452e-09
2.77452e-09
2.77452e-09
2.77452e-09
2.77452e-09
2.77453e-09
2.77453e-09
2.77453e-09
2.77453e-09
2.77453e-09
2.77453e-09
2.77453e-09
2.77453e-09
2.77453e-09
2.77453e-09
2.77453e-09
2.77453e-09
2.77453e-09
2.77452e-09
2.77453e-09
2.7745e-09
2.77487e-09
2.79021e-09
2.79442e-09
2.79499e-09
2.79502e-09
2.79498e-09
2.79499e-09
2.79497e-09
2.79499e-09
2.79497e-09
2.79498e-09
2.79498e-09
2.79498e-09
2.79498e-09
2.79498e-09
2.79498e-09
2.79498e-09
2.79498e-09
2.79498e-09
2.79498e-09
2.79498e-09
2.79498e-09
2.79498e-09
2.79498e-09
2.79499e-09
2.79499e-09
2.79499e-09
2.79499e-09
2.79499e-09
2.79499e-09
2.79499e-09
2.79499e-09
2.79499e-09
2.79499e-09
2.795e-09
2.795e-09
2.795e-09
2.795e-09
2.795e-09
2.795e-09
2.795e-09
2.795e-09
2.795e-09
2.79501e-09
2.79501e-09
2.79501e-09
2.79501e-09
2.79501e-09
2.79501e-09
2.79501e-09
2.79502e-09
2.79502e-09
2.79502e-09
2.79502e-09
2.79502e-09
2.79502e-09
2.79503e-09
2.79503e-09
2.79503e-09
2.79503e-09
2.79503e-09
2.79503e-09
2.79504e-09
2.79504e-09
2.79504e-09
2.79505e-09
2.79505e-09
2.79505e-09
2.79505e-09
2.79505e-09
2.79506e-09
2.79506e-09
2.79506e-09
2.79507e-09
2.79507e-09
2.79508e-09
2.79508e-09
2.79508e-09
2.79509e-09
2.79509e-09
2.79509e-09
2.7951e-09
2.79511e-09
2.79511e-09
2.79512e-09
2.79513e-09
2.79513e-09
2.79515e-09
2.79516e-09
2.79519e-09
2.79523e-09
2.7953e-09
2.79541e-09
2.79559e-09
2.79588e-09
2.79634e-09
2.79706e-09
2.7982e-09
2.79994e-09
2.80259e-09
2.80653e-09
2.81233e-09
2.82073e-09
2.83274e-09
2.84966e-09
2.8732e-09
2.90556e-09
2.94952e-09
3.00867e-09
3.08757e-09
3.19208e-09
3.32981e-09
3.5108e-09
3.74847e-09
4.06112e-09
4.4742e-09
5.02376e-09
5.76188e-09
6.76495e-09
8.15e-09
1.00756e-08
1.26088e-08
1.58182e-08
1.97923e-08
2.45692e-08
3.01074e-08
3.62652e-08
4.2802e-08
4.94086e-08
5.57607e-08
6.15767e-08
6.66617e-08
7.09233e-08
7.4362e-08
7.70459e-08
7.90809e-08
8.05856e-08
8.16743e-08
8.24472e-08
8.29867e-08
8.33578e-08
8.36095e-08
8.37781e-08
8.38897e-08
8.39627e-08
8.401e-08
8.40404e-08
8.40596e-08
8.40717e-08
8.40793e-08
8.40839e-08
8.40868e-08
8.40885e-08
8.40895e-08
8.40901e-08
8.40905e-08
8.40907e-08
8.40908e-08
8.40909e-08
8.40909e-08
8.4091e-08
8.4091e-08
8.4091e-08
8.4091e-08
8.4091e-08
8.4091e-08
8.4091e-08
8.4091e-08
8.4091e-08
8.4091e-08
8.4091e-08
8.4091e-08
8.4091e-08
8.4091e-08
8.4091e-08
8.4091e-08
8.4091e-08
8.4091e-08
8.4091e-08
8.4091e-08
8.4091e-08
8.4091e-08
8.4091e-08
8.4091e-08
8.4091e-08
8.4091e-08
8.4091e-08
8.4091e-08
8.4091e-08
8.4091e-08
8.4091e-08
8.4091e-08
8.4091e-08
8.4091e-08
8.4091e-08
8.4091e-08
8.4091e-08
8.4091e-08
8.4091e-08
8.4091e-08
8.4091e-08
8.4091e-08
8.4091e-08
8.4091e-08
8.4091e-08
8.4091e-08
8.4091e-08
8.4091e-08
8.4091e-08
8.4091e-08
8.4091e-08
8.4091e-08
8.4091e-08
8.4091e-08
8.4091e-08
8.4091e-08
8.4091e-08
8.4091e-08
8.4091e-08
8.4091e-08
8.4091e-08
8.4091e-08
8.4091e-08
8.4091e-08
8.4091e-08
8.4091e-08
8.4091e-08
8.4091e-08
8.4091e-08
8.4091e-08
8.4091e-08
8.4091e-08
8.4091e-08
8.4091e-08
8.4091e-08
8.4091e-08
8.4091e-08
8.4091e-08
8.4091e-08
8.4091e-08
8.4091e-08
8.4091e-08
8.4091e-08
8.4091e-08
8.4091e-08
8.4091e-08
8.4091e-08
8.4091e-08
8.4091e-08
8.4091e-08
8.4091e-08
8.4091e-08
8.4091e-08
8.4091e-08
8.4091e-08
8.4091e-08
8.4091e-08
8.4091e-08
8.4091e-08
8.4091e-08
8.4091e-08
8.4091e-08
8.4091e-08
8.4091e-08
8.4091e-08
8.4091e-08
8.4091e-08
8.4091e-08
8.4091e-08
8.4091e-08
8.4091e-08
8.4091e-08
8.4091e-08
8.4091e-08
8.4091e-08
8.4091e-08
8.4091e-08
8.4091e-08
8.4091e-08
8.4091e-08
8.4091e-08
8.4091e-08
8.4091e-08
8.4091e-08
8.4091e-08
8.4091e-08
8.4091e-08
8.4091e-08
8.4091e-08
8.4091e-08
8.4091e-08
8.4091e-08
8.4091e-08
8.4091e-08
8.4091e-08
8.4091e-08
8.4091e-08
8.4091e-08
8.4091e-08
8.4091e-08
8.4091e-08
8.4091e-08
8.4091e-08
8.4091e-08
8.4091e-08
8.4091e-08
8.4091e-08
8.4091e-08
8.4091e-08
8.4091e-08
8.4091e-08
8.4091e-08
8.4091e-08
8.4091e-08
8.4091e-08
8.4091e-08
8.4091e-08
8.4091e-08
8.4091e-08
8.4091e-08
8.4091e-08
8.4091e-08
8.4091e-08
8.4091e-08
8.4091e-08
8.4091e-08
8.4091e-08
8.4091e-08
8.4091e-08
8.4091e-08
8.4091e-08
8.4091e-08
8.4091e-08
8.4091e-08
8.4091e-08
8.4091e-08
8.4091e-08
8.4091e-08
8.4091e-08
8.4091e-08
8.4091e-08
8.4091e-08
8.4091e-08
8.4091e-08
8.4091e-08
8.4091e-08
8.4091e-08
8.4091e-08
8.4091e-08
8.4091e-08
8.4091e-08
8.4091e-08
8.4091e-08
8.4091e-08
8.4091e-08
8.4091e-08
8.4091e-08
8.4091e-08
8.4091e-08
8.4091e-08
8.4091e-08
8.4091e-08
8.4091e-08
8.4091e-08
8.4091e-08
8.4091e-08
8.4091e-08
8.4091e-08
8.4091e-08
8.4091e-08
8.4091e-08
8.4091e-08
8.4091e-08
8.4091e-08
8.4091e-08
8.4091e-08
8.4091e-08
8.4091e-08
8.4091e-08
8.4091e-08
8.4091e-08
8.4091e-08
8.4091e-08
8.4091e-08
8.4091e-08
8.4091e-08
8.4091e-08
8.4091e-08
8.4091e-08
8.4091e-08
8.4091e-08
8.4091e-08
8.4091e-08
8.4091e-08
8.4091e-08
8.4091e-08
8.4091e-08
8.4091e-08
8.4091e-08
8.4091e-08
8.4091e-08
)
;

boundaryField
{
    sides
    {
        type            calculated;
        value           nonuniform List<scalar> 2(8.4091e-08 8.4091e-10);
    }
    empty1
    {
        type            empty;
    }
    empty2
    {
        type            empty;
    }
}


// ************************************************************************* //
