/*--------------------------------*- C++ -*----------------------------------*\
| =========                 |                                                 |
| \\      /  F ield         | OpenFOAM: The Open Source CFD Toolbox           |
|  \\    /   O peration     | Version:  2312                                  |
|   \\  /    A nd           | Website:  www.openfoam.com                      |
|    \\/     M anipulation  |                                                 |
\*---------------------------------------------------------------------------*/
FoamFile
{
    version     2.0;
    format      ascii;
    arch        "LSB;label=32;scalar=64";
    class       volVectorField;
    location    "0.0001";
    object      U;
}
// * * * * * * * * * * * * * * * * * * * * * * * * * * * * * * * * * * * * * //

dimensions      [0 1 -1 0 0 0 0];

internalField   nonuniform List<vector> 
800
(
(-6.09065e-12 0 0)
(-7.12514e-12 0 0)
(-8.73665e-12 0 0)
(-5.0503e-12 0 0)
(-6.9573e-13 0 0)
(4.28746e-12 0 0)
(7.99958e-12 0 0)
(1.1955e-11 0 0)
(9.69073e-12 0 0)
(1.09661e-11 0 0)
(9.10855e-12 0 0)
(7.05716e-12 0 0)
(2.56347e-12 0 0)
(2.76668e-12 0 0)
(3.59019e-12 0 0)
(2.82858e-13 0 0)
(-7.86807e-12 0 0)
(-4.78832e-12 0 0)
(-7.66415e-12 0 0)
(-1.6551e-12 0 0)
(-1.05869e-12 0 0)
(1.31823e-12 0 0)
(1.94652e-12 0 0)
(2.45347e-12 0 0)
(-2.41448e-12 0 0)
(-1.68105e-13 0 0)
(-5.3169e-12 0 0)
(-1.67615e-12 0 0)
(1.52225e-12 0 0)
(2.56615e-13 0 0)
(5.64075e-12 0 0)
(6.37441e-12 0 0)
(6.39417e-12 0 0)
(1.46451e-12 0 0)
(-8.28971e-13 0 0)
(-7.24528e-13 0 0)
(-5.96835e-13 0 0)
(-9.31725e-13 0 0)
(-3.10495e-12 0 0)
(-2.47026e-12 0 0)
(-3.27979e-12 0 0)
(-2.95741e-12 0 0)
(-5.23246e-12 0 0)
(-3.0535e-12 0 0)
(-3.50149e-12 0 0)
(-3.09399e-12 0 0)
(-3.35254e-12 0 0)
(-3.43468e-12 0 0)
(-5.08084e-12 0 0)
(-1.74262e-12 0 0)
(-3.40603e-12 0 0)
(-3.52415e-12 0 0)
(-2.55462e-12 0 0)
(-3.42132e-12 0 0)
(-8.69631e-13 0 0)
(1.86523e-12 0 0)
(2.27064e-12 0 0)
(-2.00602e-12 0 0)
(-5.14857e-12 0 0)
(-9.67418e-12 0 0)
(-6.14805e-12 0 0)
(-6.00367e-12 0 0)
(-5.24797e-12 0 0)
(-1.2236e-12 0 0)
(1.99598e-12 0 0)
(-1.7788e-12 0 0)
(1.90806e-12 0 0)
(4.44734e-12 0 0)
(5.80987e-12 0 0)
(7.34531e-12 0 0)
(3.81685e-12 0 0)
(1.01329e-12 0 0)
(2.90554e-13 0 0)
(5.24096e-13 0 0)
(2.60022e-13 0 0)
(-2.54482e-12 0 0)
(-3.71592e-12 0 0)
(-7.03518e-12 0 0)
(-4.45547e-12 0 0)
(-6.52044e-12 0 0)
(-7.12651e-12 0 0)
(-6.987e-12 0 0)
(-1.10625e-11 0 0)
(-1.04694e-11 0 0)
(-9.86902e-12 0 0)
(-2.00661e-13 0 0)
(1.9678e-12 0 0)
(5.45427e-12 0 0)
(8.34904e-12 0 0)
(1.98841e-12 0 0)
(1.61924e-12 0 0)
(-1.53934e-12 0 0)
(-4.1917e-12 0 0)
(-4.17874e-12 0 0)
(-5.03154e-12 0 0)
(-4.24129e-12 0 0)
(-1.54329e-12 0 0)
(-9.8402e-13 0 0)
(1.6618e-12 0 0)
(3.63204e-12 0 0)
(1.65398e-12 0 0)
(2.4161e-12 0 0)
(1.5428e-12 0 0)
(-1.90477e-14 0 0)
(-5.09167e-12 0 0)
(-5.52858e-12 0 0)
(-6.13625e-12 0 0)
(-1.18083e-11 0 0)
(-7.54752e-12 0 0)
(-5.80764e-12 0 0)
(-6.73105e-12 0 0)
(-3.61609e-12 0 0)
(-2.01036e-12 0 0)
(-8.54243e-13 0 0)
(5.03828e-12 0 0)
(3.15683e-12 0 0)
(-4.08562e-13 0 0)
(1.08515e-12 0 0)
(6.82065e-13 0 0)
(2.3509e-12 0 0)
(-9.65787e-13 0 0)
(-5.41982e-12 0 0)
(-9.58905e-12 0 0)
(-4.09499e-12 0 0)
(9.93169e-13 0 0)
(-3.49829e-12 0 0)
(-5.96496e-12 0 0)
(-6.41445e-12 0 0)
(-6.90435e-12 0 0)
(-1.7348e-12 0 0)
(-3.57556e-12 0 0)
(-8.39674e-13 0 0)
(-7.19506e-12 0 0)
(-7.48643e-12 0 0)
(-5.98639e-12 0 0)
(-9.57412e-12 0 0)
(-9.59213e-12 0 0)
(-6.5641e-12 0 0)
(-1.12711e-11 0 0)
(-8.48223e-12 0 0)
(-7.1826e-12 0 0)
(-1.0588e-11 0 0)
(-1.10817e-11 0 0)
(-9.31605e-12 0 0)
(-4.84539e-12 0 0)
(-3.82311e-12 0 0)
(8.11838e-14 0 0)
(-1.69421e-12 0 0)
(-5.87473e-12 0 0)
(-1.95887e-13 0 0)
(5.32849e-12 0 0)
(6.2336e-12 0 0)
(6.28008e-12 0 0)
(5.66329e-12 0 0)
(1.17043e-11 0 0)
(6.36317e-12 0 0)
(5.31303e-12 0 0)
(9.54311e-12 0 0)
(6.24293e-12 0 0)
(6.26552e-12 0 0)
(7.54291e-12 0 0)
(8.1136e-13 0 0)
(4.85918e-13 0 0)
(-4.53732e-13 0 0)
(-2.35535e-12 0 0)
(1.77303e-14 0 0)
(-1.74935e-12 0 0)
(-4.64072e-15 0 0)
(-1.92306e-12 0 0)
(4.91782e-13 0 0)
(5.51285e-12 0 0)
(5.8088e-12 0 0)
(5.36687e-12 0 0)
(5.26405e-12 0 0)
(5.15836e-12 0 0)
(2.87877e-12 0 0)
(2.37232e-12 0 0)
(8.32545e-13 0 0)
(-1.547e-12 0 0)
(-4.47415e-12 0 0)
(-6.68744e-12 0 0)
(-3.05001e-12 0 0)
(1.3797e-12 0 0)
(2.80109e-12 0 0)
(-2.07259e-13 0 0)
(-3.82271e-14 0 0)
(3.17216e-12 0 0)
(1.68775e-12 0 0)
(2.10523e-12 0 0)
(2.16682e-12 0 0)
(1.10968e-12 0 0)
(3.76456e-13 0 0)
(-2.36999e-12 0 0)
(-6.3396e-12 0 0)
(-5.43488e-12 0 0)
(-4.64223e-12 0 0)
(-1.14129e-11 0 0)
(-1.39884e-11 0 0)
(-1.65044e-11 0 0)
(-1.2101e-11 0 0)
(-1.03261e-11 0 0)
(-1.21121e-11 0 0)
(-9.34183e-12 0 0)
(-5.68945e-12 0 0)
(-1.45605e-12 0 0)
(5.0304e-12 0 0)
(3.85077e-12 0 0)
(9.69283e-12 0 0)
(7.60235e-12 0 0)
(5.12433e-12 0 0)
(4.95908e-12 0 0)
(3.65283e-12 0 0)
(3.78849e-12 0 0)
(5.09838e-12 0 0)
(8.67165e-12 0 0)
(1.23241e-11 0 0)
(1.20945e-11 0 0)
(1.36234e-11 0 0)
(1.19711e-11 0 0)
(1.7294e-11 0 0)
(1.59955e-11 0 0)
(1.90553e-11 0 0)
(2.29874e-11 0 0)
(2.32375e-11 0 0)
(2.56434e-11 0 0)
(3.15987e-11 0 0)
(3.68891e-11 0 0)
(5.2594e-11 0 0)
(9.05065e-11 0 0)
(1.68363e-10 0 0)
(2.9978e-10 0 0)
(5.73143e-10 0 0)
(1.09758e-09 0 0)
(2.09747e-09 0 0)
(3.97805e-09 0 0)
(7.49061e-09 0 0)
(1.39864e-08 0 0)
(2.57225e-08 0 0)
(4.71116e-08 0 0)
(8.53184e-08 0 0)
(1.53599e-07 0 0)
(2.74279e-07 0 0)
(4.86153e-07 0 0)
(8.54944e-07 0 0)
(1.49175e-06 0 0)
(2.58234e-06 0 0)
(4.43455e-06 0 0)
(7.55373e-06 0 0)
(1.27612e-05 0 0)
(2.13792e-05 0 0)
(3.55145e-05 0 0)
(5.84897e-05 0 0)
(9.54898e-05 0 0)
(0.000154518 0 0)
(0.00024779 0 0)
(0.00039374 0 0)
(0.000619855 0 0)
(0.000966626 0 0)
(0.00149294 0 0)
(0.00228335 0 0)
(0.00345757 0 0)
(0.00518274 0 0)
(0.00768877 0 0)
(0.011287 0 0)
(0.0163923 0 0)
(0.0235477 0 0)
(0.0334511 0 0)
(0.0469821 0 0)
(0.0652252 0 0)
(0.0894869 0 0)
(0.1213 0 0)
(0.162413 0 0)
(0.214748 0 0)
(0.280341 0 0)
(0.361234 0 0)
(0.459339 0 0)
(0.576265 0 0)
(0.713114 0 0)
(0.870269 0 0)
(1.04717 0 0)
(1.24228 0 0)
(1.45006 0 0)
(1.65523 0 0)
(1.85033 0 0)
(2.03225 0 0)
(2.19853 0 0)
(2.34754 0 0)
(2.47855 0 0)
(2.59161 0 0)
(2.68741 0 0)
(2.76711 0 0)
(2.83226 0 0)
(2.88457 0 0)
(2.92585 0 0)
(2.95787 0 0)
(2.98228 0 0)
(3.00058 0 0)
(3.01406 0 0)
(3.02383 0 0)
(3.03079 0 0)
(3.03567 0 0)
(3.03903 0 0)
(3.04131 0 0)
(3.04283 0 0)
(3.04383 0 0)
(3.04448 0 0)
(3.0449 0 0)
(3.04516 0 0)
(3.04532 0 0)
(3.04542 0 0)
(3.04548 0 0)
(3.04552 0 0)
(3.04555 0 0)
(3.04556 0 0)
(3.04558 0 0)
(3.04559 0 0)
(3.0456 0 0)
(3.0456 0 0)
(3.0456 0 0)
(3.0456 0 0)
(3.04561 0 0)
(3.04561 0 0)
(3.04561 0 0)
(3.04562 0 0)
(3.04562 0 0)
(3.04562 0 0)
(3.04562 0 0)
(3.04563 0 0)
(3.04563 0 0)
(3.04563 0 0)
(3.04563 0 0)
(3.04563 0 0)
(3.04563 0 0)
(3.04563 0 0)
(3.04564 0 0)
(3.04564 0 0)
(3.04564 0 0)
(3.04564 0 0)
(3.04564 0 0)
(3.04564 0 0)
(3.04564 0 0)
(3.04564 0 0)
(3.04564 0 0)
(3.04564 0 0)
(3.04564 0 0)
(3.04564 0 0)
(3.04564 0 0)
(3.04564 0 0)
(3.04564 0 0)
(3.04564 0 0)
(3.04564 0 0)
(3.04565 0 0)
(3.04565 0 0)
(3.04565 0 0)
(3.04565 0 0)
(3.04565 0 0)
(3.04565 0 0)
(3.04564 0 0)
(3.04565 0 0)
(3.04565 0 0)
(3.04565 0 0)
(3.04565 0 0)
(3.04565 0 0)
(3.04565 0 0)
(3.04565 0 0)
(3.04565 0 0)
(3.04565 0 0)
(3.04565 0 0)
(3.04565 0 0)
(3.04565 0 0)
(3.04565 0 0)
(3.04565 0 0)
(3.04565 0 0)
(3.04565 0 0)
(3.04565 0 0)
(3.04565 0 0)
(3.04565 0 0)
(3.04565 0 0)
(3.04565 0 0)
(3.04565 0 0)
(3.04565 0 0)
(3.04565 0 0)
(3.04565 0 0)
(3.04564 0 0)
(3.04564 0 0)
(3.04564 0 0)
(3.04564 0 0)
(3.04564 0 0)
(3.04564 0 0)
(3.04564 0 0)
(3.04564 0 0)
(3.04564 0 0)
(3.04564 0 0)
(3.04564 0 0)
(3.04564 0 0)
(3.04564 0 0)
(3.04564 0 0)
(3.04564 0 0)
(3.04564 0 0)
(3.04564 0 0)
(3.04564 0 0)
(3.04564 0 0)
(3.04564 0 0)
(3.04564 0 0)
(3.04564 0 0)
(3.04564 0 0)
(3.04564 0 0)
(3.04564 0 0)
(3.04564 0 0)
(3.04564 0 0)
(3.04564 0 0)
(3.04564 0 0)
(3.04564 0 0)
(3.04564 0 0)
(3.04564 0 0)
(3.04563 0 0)
(3.04563 0 0)
(3.04563 0 0)
(3.04563 0 0)
(3.04563 0 0)
(3.04563 0 0)
(3.04563 0 0)
(3.04563 0 0)
(3.04563 0 0)
(3.04563 0 0)
(3.04563 0 0)
(3.04563 0 0)
(3.04563 0 0)
(3.04563 0 0)
(3.04563 0 0)
(3.04563 0 0)
(3.04563 0 0)
(3.04563 0 0)
(3.04562 0 0)
(3.04562 0 0)
(3.04562 0 0)
(3.04562 0 0)
(3.04562 0 0)
(3.04562 0 0)
(3.04562 0 0)
(3.04562 0 0)
(3.04562 0 0)
(3.04562 0 0)
(3.04562 0 0)
(3.04562 0 0)
(3.04562 0 0)
(3.04561 0 0)
(3.04561 0 0)
(3.04561 0 0)
(3.04561 0 0)
(3.04561 0 0)
(3.04561 0 0)
(3.04561 0 0)
(3.04561 0 0)
(3.04561 0 0)
(3.0456 0 0)
(3.0456 0 0)
(3.0456 0 0)
(3.0456 0 0)
(3.0456 0 0)
(3.0456 0 0)
(3.0456 0 0)
(3.04559 0 0)
(3.04559 0 0)
(3.04559 0 0)
(3.04559 0 0)
(3.04559 0 0)
(3.04559 0 0)
(3.04558 0 0)
(3.04558 0 0)
(3.04558 0 0)
(3.04558 0 0)
(3.04558 0 0)
(3.04557 0 0)
(3.04557 0 0)
(3.04557 0 0)
(3.04557 0 0)
(3.04556 0 0)
(3.04556 0 0)
(3.04556 0 0)
(3.04555 0 0)
(3.04555 0 0)
(3.04555 0 0)
(3.04554 0 0)
(3.04554 0 0)
(3.04553 0 0)
(3.04552 0 0)
(3.04551 0 0)
(3.04549 0 0)
(3.04546 0 0)
(3.04542 0 0)
(3.04535 0 0)
(3.04523 0 0)
(3.04503 0 0)
(3.04472 0 0)
(3.04424 0 0)
(3.04348 0 0)
(3.04231 0 0)
(3.04055 0 0)
(3.03792 0 0)
(3.03408 0 0)
(3.02852 0 0)
(3.02063 0 0)
(3.0096 0 0)
(2.99443 0 0)
(2.97388 0 0)
(2.94652 0 0)
(2.91066 0 0)
(2.86447 0 0)
(2.80595 0 0)
(2.73309 0 0)
(2.64397 0 0)
(2.53692 0 0)
(2.41069 0 0)
(2.26468 0 0)
(2.09911 0 0)
(1.91521 0 0)
(1.71535 0 0)
(1.50276 0 0)
(1.28317 0 0)
(1.0754 0 0)
(0.887363 0 0)
(0.721305 0 0)
(0.577806 0 0)
(0.45631 0 0)
(0.3554 0 0)
(0.273095 0 0)
(0.207109 0 0)
(0.155067 0 0)
(0.11466 0 0)
(0.0837534 0 0)
(0.0604529 0 0)
(0.0431292 0 0)
(0.0304211 0 0)
(0.0212194 0 0)
(0.0146401 0 0)
(0.00999322 0 0)
(0.00675006 0 0)
(0.00451272 0 0)
(0.00298664 0 0)
(0.00195713 0 0)
(0.00127008 0 0)
(0.000816372 0 0)
(0.000519836 0 0)
(0.00032797 0 0)
(0.00020505 0 0)
(0.000127061 0 0)
(7.80456e-05 0 0)
(4.75262e-05 0 0)
(2.86965e-05 0 0)
(1.71825e-05 0 0)
(1.02039e-05 0 0)
(6.01071e-06 0 0)
(3.51241e-06 0 0)
(2.03648e-06 0 0)
(1.17153e-06 0 0)
(6.6882e-07 0 0)
(3.79029e-07 0 0)
(2.13113e-07 0 0)
(1.18994e-07 0 0)
(6.59593e-08 0 0)
(3.62869e-08 0 0)
(1.98103e-08 0 0)
(1.08335e-08 0 0)
(5.91556e-09 0 0)
(3.14976e-09 0 0)
(1.68941e-09 0 0)
(9.26429e-10 0 0)
(4.6857e-10 0 0)
(2.8227e-10 0 0)
(1.79557e-10 0 0)
(1.31464e-10 0 0)
(6.78989e-11 0 0)
(4.69564e-11 0 0)
(3.04302e-11 0 0)
(4.02126e-11 0 0)
(6.69431e-11 0 0)
(6.73976e-11 0 0)
(8.09569e-11 0 0)
(1.3942e-10 0 0)
(8.89094e-11 0 0)
(8.54092e-11 0 0)
(7.74204e-11 0 0)
(1.2823e-10 0 0)
(1.48146e-10 0 0)
(7.66096e-11 0 0)
(5.7313e-11 0 0)
(1.77136e-12 0 0)
(1.54781e-12 0 0)
(-1.85657e-11 0 0)
(-6.39805e-11 0 0)
(-7.26532e-11 0 0)
(-1.01687e-10 0 0)
(-1.00761e-10 0 0)
(-1.21236e-10 0 0)
(-9.78592e-11 0 0)
(-7.59385e-11 0 0)
(-1.1961e-10 0 0)
(-1.17517e-10 0 0)
(-7.25989e-11 0 0)
(-1.26614e-11 0 0)
(1.11801e-11 0 0)
(-6.11512e-11 0 0)
(-4.64087e-11 0 0)
(-3.67987e-11 0 0)
(-3.04245e-11 0 0)
(-1.22358e-11 0 0)
(-4.30598e-12 0 0)
(-2.45215e-12 0 0)
(-6.76969e-11 0 0)
(-3.77467e-11 0 0)
(-2.92641e-11 0 0)
(-1.07446e-11 0 0)
(-1.44558e-11 0 0)
(-4.89327e-11 0 0)
(-9.63941e-11 0 0)
(-5.91776e-11 0 0)
(-4.68467e-11 0 0)
(-1.09332e-10 0 0)
(-1.11483e-10 0 0)
(-1.25368e-10 0 0)
(-1.6744e-10 0 0)
(-1.29048e-10 0 0)
(-1.40725e-10 0 0)
(-1.80244e-10 0 0)
(-1.38688e-10 0 0)
(-1.21967e-10 0 0)
(-1.31807e-10 0 0)
(-1.89134e-10 0 0)
(-1.6007e-10 0 0)
(-1.52291e-10 0 0)
(-2.57839e-10 0 0)
(-2.08653e-10 0 0)
(-1.92151e-10 0 0)
(-1.30626e-10 0 0)
(-1.37155e-10 0 0)
(-7.96313e-11 0 0)
(-1.14881e-10 0 0)
(-1.18532e-10 0 0)
(-1.21111e-10 0 0)
(-1.37706e-10 0 0)
(-1.6804e-10 0 0)
(-1.87391e-10 0 0)
(-1.31584e-10 0 0)
(-1.72784e-10 0 0)
(-2.23166e-10 0 0)
(-2.63365e-10 0 0)
(-2.8099e-10 0 0)
(-2.57712e-10 0 0)
(-2.3263e-10 0 0)
(-1.72399e-10 0 0)
(-1.68529e-10 0 0)
(-2.35608e-10 0 0)
(-1.81822e-10 0 0)
(-1.60141e-10 0 0)
(-1.98373e-10 0 0)
(-1.79109e-10 0 0)
(-1.21814e-10 0 0)
(-9.8438e-11 0 0)
(-6.70674e-11 0 0)
(-4.13189e-11 0 0)
(1.9529e-11 0 0)
(4.51991e-11 0 0)
(6.51696e-11 0 0)
(7.36983e-11 0 0)
(7.29117e-11 0 0)
(2.85454e-11 0 0)
(1.5939e-12 0 0)
(6.55243e-12 0 0)
(-3.06728e-11 0 0)
(-5.01699e-11 0 0)
(-8.71368e-11 0 0)
(-1.23133e-10 0 0)
(-1.08822e-10 0 0)
(-1.22623e-10 0 0)
(-1.13754e-10 0 0)
(-5.88353e-11 0 0)
(-5.17644e-11 0 0)
(-6.18664e-11 0 0)
(-2.48504e-12 0 0)
(4.33463e-11 0 0)
(2.50847e-11 0 0)
(-8.98612e-11 0 0)
(-5.82863e-11 0 0)
(-6.81538e-11 0 0)
(-6.35033e-11 0 0)
(-1.13572e-10 0 0)
(-9.86844e-11 0 0)
(-2.76175e-11 0 0)
(-8.54078e-11 0 0)
(-2.01062e-11 0 0)
(-5.53961e-11 0 0)
(-1.09319e-10 0 0)
(-1.02168e-10 0 0)
(-1.09604e-10 0 0)
(-7.90853e-11 0 0)
(-3.22419e-11 0 0)
(-7.01181e-11 0 0)
(-4.95815e-11 0 0)
(-2.68971e-11 0 0)
(-3.34316e-11 0 0)
(3.95713e-11 0 0)
(2.66743e-11 0 0)
(-3.26117e-11 0 0)
(-3.42568e-11 0 0)
(-6.02163e-11 0 0)
(-7.73033e-11 0 0)
(-6.5245e-11 0 0)
(-6.48113e-11 0 0)
(-4.4526e-11 0 0)
(-1.92661e-11 0 0)
(-1.72778e-12 0 0)
(2.21243e-11 0 0)
(4.02866e-12 0 0)
(6.04303e-11 0 0)
(5.85849e-11 0 0)
(6.3159e-11 0 0)
(4.61727e-11 0 0)
(2.59305e-11 0 0)
(-1.68646e-11 0 0)
(-6.90206e-11 0 0)
(-3.09209e-11 0 0)
(-7.86495e-11 0 0)
(-1.42791e-10 0 0)
(-1.10797e-10 0 0)
(-1.12454e-10 0 0)
(-1.27517e-10 0 0)
(-1.59697e-10 0 0)
(-9.73889e-11 0 0)
(-1.26812e-10 0 0)
(-9.74037e-11 0 0)
(-1.31093e-10 0 0)
(-1.05281e-10 0 0)
(-1.40521e-10 0 0)
(-1.57928e-10 0 0)
(-1.0188e-10 0 0)
(-1.01915e-10 0 0)
(-1.35705e-10 0 0)
(-6.94175e-11 0 0)
(-1.14935e-10 0 0)
(-1.11031e-10 0 0)
(-7.63176e-11 0 0)
(-7.2847e-11 0 0)
(-6.66656e-11 0 0)
(-4.96763e-11 0 0)
(-2.71162e-11 0 0)
(-9.95317e-11 0 0)
(-8.3566e-11 0 0)
(-9.21889e-11 0 0)
(-1.00635e-10 0 0)
(-1.56275e-10 0 0)
(-1.9069e-10 0 0)
(-1.79421e-10 0 0)
(-1.7206e-10 0 0)
(-1.85564e-10 0 0)
(-1.38189e-10 0 0)
(-1.58392e-10 0 0)
(-1.64484e-10 0 0)
(-1.79448e-10 0 0)
(-1.76103e-10 0 0)
(-1.57232e-10 0 0)
(-1.20801e-10 0 0)
(-1.31005e-10 0 0)
(-7.41252e-11 0 0)
(-7.09808e-11 0 0)
(-1.80555e-10 0 0)
(-1.85272e-10 0 0)
(-1.93451e-10 0 0)
(-1.21849e-10 0 0)
(-1.37602e-10 0 0)
(-1.37697e-10 0 0)
(-1.18772e-10 0 0)
(-1.63182e-10 0 0)
(-9.95325e-11 0 0)
(-7.74005e-11 0 0)
(6.12153e-14 0 0)
(6.6757e-11 0 0)
(7.08042e-11 0 0)
(1.11272e-10 0 0)
(1.31243e-10 0 0)
(1.34939e-10 0 0)
(1.6385e-10 0 0)
(1.84413e-10 0 0)
(1.75954e-10 0 0)
(1.97391e-10 0 0)
(2.32364e-10 0 0)
(1.66246e-10 0 0)
(1.91707e-10 0 0)
(2.28695e-10 0 0)
(1.20918e-10 0 0)
(7.38048e-11 0 0)
(-1.498e-11 0 0)
(3.4314e-11 0 0)
(3.0447e-11 0 0)
(8.99586e-12 0 0)
(5.09105e-11 0 0)
(4.21367e-11 0 0)
(4.04336e-11 0 0)
(1.42457e-11 0 0)
(2.65903e-11 0 0)
)
;

boundaryField
{
    sides
    {
        type            fixedValue;
        value           uniform (0 0 0);
    }
    empty1
    {
        type            empty;
    }
    empty2
    {
        type            empty;
    }
}


// ************************************************************************* //
