/*--------------------------------*- C++ -*----------------------------------*\
| =========                 |                                                 |
| \\      /  F ield         | OpenFOAM: The Open Source CFD Toolbox           |
|  \\    /   O peration     | Version:  2312                                  |
|   \\  /    A nd           | Website:  www.openfoam.com                      |
|    \\/     M anipulation  |                                                 |
\*---------------------------------------------------------------------------*/
FoamFile
{
    version     2.0;
    format      ascii;
    arch        "LSB;label=32;scalar=64";
    class       volScalarField;
    location    "0.00015";
    object      alphat;
}
// * * * * * * * * * * * * * * * * * * * * * * * * * * * * * * * * * * * * * //

dimensions      [1 -1 -1 0 0 0 0];

internalField   nonuniform List<scalar> 
109340
(
0.47624650865844
0.32660142499721
0.17625026789555
0.14728922766671
0.14267581319292
0.14559144375145
0.1510138429646
0.16050099039395
0.13988467129551
0.12442036978003
0.11218128383353
0.10219762641281
0.093879406262509
0.086834437478397
0.080787883278444
0.075539993837884
0.070941521937344
0.066878459527349
0.063262094123919
0.060022281516654
0.057102765440619
0.054457844128451
0.052049939347756
0.049847793334373
0.047825113531885
0.045959532486377
0.044231780856159
0.042625002562046
0.041124147378638
0.039715366558424
0.038385306578753
0.037120104567568
0.035903644909718
0.034714029164085
0.03351542570229
0.032239141744893
0.47071325154213
0.22825670319004
0.16721269381952
0.15296107636252
0.15193150371964
0.15495474111758
0.13874090509058
0.12068755364697
0.10666035451841
0.095555196033126
0.086564288186865
0.079140917565939
0.072909801302415
0.067606118962103
0.063037885956783
0.05906255585378
0.055572071681036
0.052483022729055
0.049729982358025
0.047260852142117
0.045033543137916
0.043013614291893
0.041172567984234
0.039486600465182
0.03793564724627
0.036502626808055
0.035172826539088
0.033933373100826
0.032772739610514
0.031680246183196
0.030645452191327
0.029657259532357
0.028702333961156
0.027761930048032
0.026804374269513
0.025765626395218
0.27645853550305
0.19481199082674
0.16791344856153
0.15761065007561
0.1260843016493
0.10511431290981
0.089908085459871
0.078448325825685
0.06954191095459
0.062450698735857
0.056688107191377
0.051921635963035
0.047918440281844
0.04451164623373
0.041579003751547
0.039029133130231
0.036792457325592
0.034815100740418
0.033054568444983
0.031476575588809
0.030053030874631
0.028760834602376
0.027581023394741
0.026498019556412
0.02549888727202
0.024572801231001
0.023710614929142
0.022904354239208
0.022146960614964
0.021431888667634
0.020752680219646
0.02010242840301
0.019472628250448
0.018851360059157
0.018218981625726
0.017531962323621
0.15887615404067
0.16048596075292
0.10071771782212
0.073320283952259
0.057676586263962
0.047574927108346
0.040534531336232
0.035358553824247
0.031400939241521
0.028282526158094
0.025766253525163
0.023696147143842
0.021965397167163
0.020498501946135
0.019240725198508
0.018151489380793
0.017200002998354
0.016362131796523
0.015616289213109
0.014943977996127
0.014331429880605
0.013768882161662
0.013249255119022
0.012767273888069
0.012318829784094
0.011900549982688
0.011509279714677
0.011142598633167
0.010798194868485
0.010473795694493
0.010166810497569
0.0098733446399208
0.0095870772471765
0.0093001822206548
0.0090033406470416
0.0086755177723175
0.095679753872885
0.031277507193821
0.019018623936121
0.013792052608758
0.010911944860279
0.0091039507554468
0.0078740747834444
0.0069903195408548
0.0063293271456208
0.0058200569502881
0.0054189988350488
0.0050985583298618
0.0048404583973353
0.0046323863143988
0.0044659670824735
0.004335334488012
0.0042352982430731
0.0041571793065166
0.0040867669376702
0.0040164330540996
0.0039455006881699
0.0038762258660576
0.00381100170504
0.0037514540770779
0.0036984561017516
0.0036523995134986
0.0036133048642922
0.0035809525811967
0.0035553947606985
0.0035361860148879
0.0035222658141345
0.0035124513061095
0.0035050365058182
0.0034967830351447
0.0034794173502065
0.0034289423249313
0.0002409520902258
0.00035963209169637
0.00046271010086722
0.00054313065650583
0.00060060823218225
0.00063850548665381
0.00066128131958044
0.00067311089777637
0.00067731651983243
0.00067665454318198
0.00067271961198738
0.00066676818521552
0.00065966400140137
0.00065198969948301
0.00064413595038342
0.00063638033402871
0.00062890279276388
0.00062182302858067
0.00061526310943831
0.00060937313473035
0.00060401502767033
0.00059909629138972
0.00059456494386336
0.00059038514025686
0.00058652196896602
0.00058293524282638
0.0005795762005086
0.00057638388169009
0.0005732782500517
0.00057014886794909
0.00056683598110882
0.00056308396212116
0.0005584596954364
0.00055206792512102
0.0005412810513799
0.00051442981340032
0.028485518462251
0.015321931040264
0.0082687449516998
0.0050859974362185
0.0033895678739798
0.0022943617642915
0.0015497037209004
0.0010341645389992
0.00069828589890114
0.0005100301930918
0.0004164138702658
0.00041509587142126
0.00038121825535017
0.00034063660114732
0.00029439724587306
0.0002477514101598
0.00020746277926292
0.00017260611826825
0.00014402901665333
0.00012169562848543
0.00010325253146602
8.7882239596215e-05
7.3701611073069e-05
5.9590976909553e-05
4.8668914766823e-05
4.0187612840679e-05
3.3609983307323e-05
2.8141681311576e-05
2.3929506955206e-05
2.0420894196428e-05
1.7537230448843e-05
1.5237120522569e-05
1.3217974446679e-05
1.1633892613736e-05
1.0195771853474e-05
9.0646968321697e-06
8.0198355601969e-06
7.1900742941063e-06
6.4172488547733e-06
5.7941968114232e-06
5.21536125478e-06
4.7353837677783e-06
4.2993628974791e-06
3.9187451966195e-06
3.5859431394726e-06
3.2790346435304e-06
3.0191601407434e-06
2.7731819303801e-06
2.5651085867794e-06
2.3707523160607e-06
2.1973499863191e-06
2.0402782909467e-06
1.8980225414225e-06
1.768870578037e-06
1.6512587920312e-06
1.5438919525693e-06
1.4456791507579e-06
1.355696392498e-06
1.2731325354309e-06
1.1972401381901e-06
1.1273339438168e-06
1.0628099848367e-06
1.0031470754344e-06
9.4788830881461e-07
8.9663117704097e-07
8.4902436978647e-07
8.0475657425548e-07
7.6357084972007e-07
4.6848947862378e-06
0.00032473462582309
0.00094455796951715
0.00088727208690167
0.00079621091395966
0.00072675337998681
0.0006732668346232
0.00063058148087747
0.00059544930240783
0.00056593231403202
0.0005409401739479
0.00051988672486511
0.00050242952790037
0.00048827936609021
0.0004771422026976
0.00046858616561586
0.00046136864131525
0.00045645701536811
0.00045257253894758
0.00044952393336712
0.00044732691866452
0.0004463444213124
0.00044707299807452
0.00044955720023992
0.00045282047715162
0.00045469857935228
0.00045209094992757
0.00044234158974173
0.00042483029440023
0.00040078854001975
0.0003717195585028
0.00033856807989792
0.00030378286456582
0.00027170948628534
0.00024524005786956
0.00022428788075915
0.00020440598790367
0.00019218669940011
0.00018230655176103
0.00017450541164071
0.00016850032188138
0.00016403846695757
0.00016054895221903
0.00015797062882652
0.00015598510756356
0.00015455155647141
0.00015386702914257
0.00015373992976439
0.00015400882435139
0.00015460785800956
0.00015545740150498
0.00015637722286319
0.00015724457609668
0.00015799316563392
0.00015856085259334
0.00015892009852464
0.00015908178363685
0.00015907353177505
0.00015892172474768
0.00015864677477875
0.00015826140517899
0.00015780012902091
0.00015728606691203
0.00015679069897499
0.00015637098964558
0.00015605944349048
0.00015590211874797
0.00015588678351786
0.00015597711082331
0.00015612425838228
0.00015621572036978
0.00015582328462197
0.021832383619653
0.011831280723703
0.0069346224272562
0.0045409667788576
0.0030645596384549
0.0020556727069766
0.0013748989075851
0.00091486915856904
0.00060873720685111
0.00041309116747217
0.0002922069120187
0.00022347491167374
0.0001829725924918
0.00015428734040068
0.00013393419673347
0.00011856006021039
0.00010633244205717
9.643120226264e-05
8.7426851068679e-05
7.9250516076482e-05
7.1956791196693e-05
6.5483188361392e-05
5.9662821342016e-05
5.4488142026981e-05
4.5472808442199e-05
3.7631754567794e-05
3.1441094382279e-05
2.6506025647641e-05
2.2518377251468e-05
1.9284674706922e-05
1.6621562225304e-05
1.4426662460725e-05
1.2591093592251e-05
1.1051987405557e-05
9.7491717195625e-06
8.6413155908442e-06
7.6928192767068e-06
6.8778198086021e-06
6.1725555028661e-06
5.5610824342839e-06
5.0266527573906e-06
4.5599292900217e-06
4.1477024683014e-06
3.785179097875e-06
3.4623860059314e-06
3.1767504011237e-06
2.9208341151811e-06
2.6927388384384e-06
2.4874124272918e-06
2.3029743552334e-06
2.1361960316147e-06
1.9852171445157e-06
1.8482347359587e-06
1.7236128040899e-06
1.6100884247204e-06
1.5063540831056e-06
1.4114355178409e-06
1.3244043600406e-06
1.2444779865544e-06
1.1709348076572e-06
1.1031457665468e-06
1.0405390993954e-06
9.8261168526473e-07
9.289184174021e-07
8.7907591388565e-07
8.3275064780254e-07
7.8964969488252e-07
7.4903580349972e-07
1.7605609808541e-05
0.00058142897187368
0.00094840034250535
0.00086134335338249
0.00077622893150953
0.00071154093906415
0.00066125932452412
0.00062077933064947
0.00058724658420427
0.00055899204596282
0.00053507468141182
0.00051499646123184
0.00049842662513056
0.00048509472893111
0.00047466975572806
0.00046669051302968
0.00046125526967319
0.00045632915172003
0.00045244739023349
0.00044939259505203
0.00044718227215074
0.00044617724394935
0.00044687021261734
0.00044931785104514
0.00045255456513086
0.00045443416913198
0.00045187296774025
0.00044221566337665
0.00042482778737115
0.00040090578047966
0.0003719468869732
0.00033889177975551
0.00030415868883754
0.00027208093406322
0.0002455654116372
0.00022455269824861
0.00020457761743092
0.00019227794550786
0.00018232069523794
0.00017444492028842
0.00016836781805697
0.0001638420542028
0.0001602888688328
0.0001576507529354
0.0001556242628635
0.00015412571738655
0.00015336662950434
0.00015317222341066
0.00015337205391944
0.00015390188199107
0.00015468403150444
0.000155540909201
0.00015634820815694
0.00015704040568001
0.00015755774313789
0.00015787210279876
0.00015799302837003
0.00015794774000038
0.00015776222898713
0.0001574554006854
0.00015703809645792
0.00015655076525229
0.00015601008296968
0.00015549218064639
0.00015505038617782
0.00015471388714987
0.00015452757436483
0.00015448085619154
0.00015454395782113
0.00015464980454574
0.00015457721447265
0.00015420142667323
0.015907360000091
0.0079178544696853
0.0047738734487706
0.0031755814639049
0.0021139650654371
0.0014509558449969
0.00099195968197426
0.00068593449448164
0.00048305009508151
0.00034931466447127
0.0002685407318269
0.00021192421554908
0.00017386005104848
0.00014650865273895
0.00012544078547127
0.00010860375917326
9.5178378588454e-05
8.3922891947859e-05
7.3843697356271e-05
6.5246100153685e-05
5.8214561523439e-05
5.224960014281e-05
4.7168543162625e-05
4.2985713109183e-05
3.9445483848627e-05
3.633662174109e-05
3.076430602529e-05
2.5935562586761e-05
2.2043525202189e-05
1.8874511035074e-05
1.6277088034161e-05
1.4124569922084e-05
1.2335392843599e-05
1.0829541029019e-05
9.5596101667959e-06
8.4769315051049e-06
7.5525869385113e-06
6.7549922757977e-06
6.0670062453418e-06
5.4676688693095e-06
4.9463086027928e-06
4.4880054176135e-06
4.0855706854192e-06
3.7291460982176e-06
3.4135520580692e-06
3.1325694946639e-06
2.8818324186095e-06
2.657588360342e-06
2.4559325925802e-06
2.2746632896259e-06
2.1106779198724e-06
1.9623958261047e-06
1.8275576162155e-06
1.7048896866468e-06
1.5930196698514e-06
1.4908244448501e-06
1.3972939076511e-06
1.3115109545391e-06
1.2326975857678e-06
1.1601551590195e-06
1.0932709340705e-06
1.0314810013687e-06
9.7428893550696e-07
9.2126074151823e-07
8.7202643748675e-07
8.262608506293e-07
7.8366371248032e-07
7.4363906909252e-07
1.878016190082e-05
0.00059284601836119
0.00094843690974242
0.00086004616876241
0.00077517774231109
0.00071075446727506
0.00066065831434793
0.00062031109328894
0.00058688804422681
0.0005587266410606
0.00053489289177656
0.00051488383116508
0.00049836670659996
0.00048507241810384
0.00047467113772842
0.00046670273733301
0.00046125858279788
0.0004563589931469
0.00045249171325243
0.00044945573596125
0.00044726401079459
0.00044627371551162
0.00044696535629359
0.00044942287997644
0.00045268666683996
0.00045463613841999
0.00045220695441605
0.00044273677308152
0.00042556533233234
0.0004018287276895
0.00037301502361045
0.00034007726200363
0.00030536549023006
0.00027319433408175
0.00024651021166729
0.00022530775632162
0.00020507788955479
0.00019257120165277
0.00018241849976502
0.00017435736592808
0.00016810272759093
0.000163421143683
0.00015972023166914
0.00015695289481752
0.00015482984176733
0.00015319818242325
0.00015227877860399
0.00015194131963446
0.0001520008644983
0.00015238639185834
0.00015302862503745
0.00015375677345805
0.00015444249317349
0.00015502164511753
0.00015543606504556
0.00015565689996564
0.00015569255958339
0.00015556839188781
0.00015530936707648
0.00015493295184172
0.00015444843967402
0.00015389950249698
0.00015329766056418
0.00015272753080067
0.00015223807510616
0.00015184774496218
0.00015160128337225
0.0001514906580391
0.00015149064061789
0.00015150060969235
0.00015123702161024
0.00015085460000613
0.0082780487635262
0.0044173637975762
0.0027012878052398
0.0017544526765631
0.0012078363595659
0.00086893076503579
0.00064728471914736
0.00049703348664388
0.00039129309638744
0.00031725331213159
0.00025875481322218
0.00021179559029857
0.000174602768329
0.00014570794586641
0.00012330078541569
0.00010607211834179
9.208249225747e-05
8.049108114987e-05
7.0524204306329e-05
6.1772084057042e-05
5.4139325535693e-05
4.7903787834083e-05
4.2795482608075e-05
3.8437377109182e-05
3.4787392587846e-05
3.180523102061e-05
2.9236210486764e-05
2.537052312893e-05
2.1576278939659e-05
1.8483855411557e-05
1.5944019101888e-05
1.3839523281041e-05
1.2085473087811e-05
1.061215148317e-05
9.3657001606898e-06
8.3061073414245e-06
7.3992743386601e-06
6.6195742138814e-06
5.945583299158e-06
5.3601293008135e-06
4.8496869442516e-06
4.4024215238736e-06
4.0091446277904e-06
3.6612914745888e-06
3.3531453510142e-06
3.0784475103841e-06
2.8336254734946e-06
2.6139904105035e-06
2.4169065635638e-06
2.2392074254841e-06
2.0787309397511e-06
1.933383911539e-06
1.8012977010432e-06
1.6810351774267e-06
1.5712525421361e-06
1.4709574511307e-06
1.379119283203e-06
1.2948751558884e-06
1.2174514220196e-06
1.1461702361643e-06
1.0804204323532e-06
1.01965164296e-06
9.6338272005165e-07
9.1119698173986e-07
8.6273528316738e-07
8.1767377532383e-07
7.757235923709e-07
7.3653921371698e-07
2.0918526024811e-05
0.00060876448992432
0.00094799684780718
0.0008581819520197
0.0007736802744702
0.00070962757042663
0.00065979029074874
0.00061963320886211
0.00058636848306754
0.00055834319538565
0.00053462949858473
0.00051471973965814
0.00049827791600138
0.00048503778651125
0.00047467169431957
0.00046672505247613
0.00046129764668166
0.00045642523291839
0.00045258552417148
0.0004495824947276
0.00044742366873905
0.00044645862355543
0.00044716413181492
0.00044964042696732
0.00045295161531956
0.00045501333764136
0.00045278955574415
0.00044360706497715
0.00042675932182341
0.00040331569108346
0.00037473465378465
0.00034196377115762
0.00030728045441378
0.00027496014494926
0.0002480095661492
0.00022651137787867
0.0002058898211632
0.00019306709130121
0.00018260884305017
0.00017425746971945
0.00016772498449676
0.00016279794656292
0.00015887127435165
0.00015589079891249
0.00015361812030024
0.00015180837507491
0.00015064156925833
0.0001500873554327
0.00014993787507628
0.00015011005487836
0.00015054362862894
0.00015108061481512
0.0001515859154888
0.00015199761767113
0.00015225855171453
0.00015233976057548
0.00015224797350218
0.00015200589168072
0.00015163629118207
0.000151152969004
0.00015057504211223
0.0001499226333466
0.00014923234193483
0.00014858537890143
0.00014802400350406
0.00014755690814009
0.00014722420171157
0.00014701745643904
0.00014691241063438
0.00014679525580987
0.00014641118464924
0.00014599636304858
0.0032054782962465
0.0022645185227498
0.0015955023051834
0.0012087670081377
0.00093303180041377
0.00071647003592762
0.00056981737874245
0.00046556943800692
0.00038694450221627
0.00031491488358771
0.00026128653402729
0.00021709334693331
0.00018058048306075
0.00015100922018898
0.00012659134953646
0.00010696475304877
9.1819258488416e-05
7.9294326017756e-05
6.8692222316881e-05
5.9908725756507e-05
5.262736584475e-05
4.632389036347e-05
4.1006735570614e-05
3.6664777056313e-05
3.2992552711838e-05
2.9842916001834e-05
2.722274567144e-05
2.4768267822977e-05
2.109441656888e-05
1.8090812978469e-05
1.5616330635675e-05
1.3565109938839e-05
1.1849745845122e-05
1.0408338651508e-05
9.1880561077199e-06
8.150225756499e-06
7.2609231214418e-06
6.4967630650332e-06
5.8353835031102e-06
5.2614134630674e-06
4.7602707734319e-06
4.321660121334e-06
3.9352323921414e-06
3.5939322744347e-06
3.2911431468552e-06
3.0218953671249e-06
2.7817119849928e-06
2.5665378313933e-06
2.3734453904183e-06
2.1994626872366e-06
2.0425003139406e-06
1.9002446215194e-06
1.771158979075e-06
1.6535504417553e-06
1.5461701572582e-06
1.4479676572172e-06
1.3580079299568e-06
1.2754795817472e-06
1.199618910917e-06
1.129755872801e-06
1.0652865734314e-06
1.0056813533388e-06
9.504731402298e-07
8.9925292766126e-07
8.5166946653705e-07
8.0741583522011e-07
7.6620712505884e-07
7.2812522124549e-07
2.3825636832726e-05
0.0006290101025812
0.00094686727267353
0.00085571592487534
0.00077175137668483
0.00070816367456756
0.0006586549988847
0.00061874591080941
0.00058568841266106
0.00055784210922817
0.000534283637965
0.00051450206410775
0.0004981575362389
0.0004849876459769
0.00047466816523435
0.00046675290654034
0.00046134911499499
0.00045650728730058
0.00045270576879492
0.00044974840447964
0.00044763594104969
0.00044670745902242
0.00044743916018515
0.00044994441757295
0.00045332176032779
0.0004555310151254
0.00045357698184437
0.0004447744958018
0.00042835525160503
0.00040530961088914
0.00037705377218766
0.00034451438479719
0.00030988226869974
0.00027737470314481
0.00025007243130385
0.00022817642734354
0.000207043142792
0.00019379893960704
0.00018292645056653
0.00017417889481988
0.00016726951241794
0.00016199537058036
0.00015776778910576
0.00015449208164922
0.00015196853009477
0.00014997196543847
0.00014847418967782
0.00014762486384788
0.0001471937095312
0.0001470822197742
0.00014723787832824
0.00014751798497372
0.00014778061828509
0.00014796777930353
0.00014802332027464
0.00014791779002315
0.00014765659065178
0.00014725926017534
0.00014674344825312
0.00014613199991945
0.00014541715153312
0.00014463422199197
0.00014384096421401
0.00014310372052497
0.00014245226551765
0.0001418951399906
0.00014145741807694
0.00014113103116745
0.00014089086393771
0.00014062592590137
0.00014015714501173
0.00013976328808958
0.0010984455619659
0.00095837322485501
0.00098933806894227
0.0010324738776942
0.0010768665890045
0.00093785728355968
0.00071235365650931
0.00054156387522493
0.00041964342463619
0.00033788237293463
0.00027554085529653
0.00022715305070196
0.0001885389039388
0.00015712316611137
0.00013153117836868
0.0001106239625196
9.352511695394e-05
7.9571695921687e-05
6.8264061619173e-05
5.903735145062e-05
5.1467956915591e-05
4.5307203114576e-05
4.0131821823058e-05
3.5739839235957e-05
3.2094720484261e-05
2.8978125178873e-05
2.6284206440704e-05
2.3989048129844e-05
2.0579026168809e-05
1.7679137528736e-05
1.528301141829e-05
1.3287580156281e-05
1.1618294627354e-05
1.0212036534566e-05
9.0194430356194e-06
8.0033239580826e-06
7.1332431460303e-06
6.3836658265731e-06
5.7348572789572e-06
5.1712152519754e-06
4.6792790068785e-06
4.248072552936e-06
3.8682792802639e-06
3.53286735768e-06
3.2352358415335e-06
2.9705930808141e-06
2.7342816895448e-06
2.522917863502e-06
2.3330800973133e-06
2.1621212057108e-06
2.0077376626019e-06
1.8679095959719e-06
1.7410175250733e-06
1.6254764458401e-06
1.5201008242309e-06
1.423744446068e-06
1.3355127962252e-06
1.2545845427289e-06
1.1802279169944e-06
1.1117706268033e-06
1.0486312487961e-06
9.9027104830995e-07
9.361989573608e-07
8.8600121203566e-07
8.3934381283516e-07
7.9594642243031e-07
7.5553858565732e-07
7.1890270027394e-07
2.7401924181782e-05
0.00065354823970163
0.00094489968383662
0.00085263422890369
0.00076938374422066
0.00070635806338001
0.00065725113834377
0.0006176501888631
0.00058484940848324
0.0005572239987551
0.0005338547622499
0.0005142289080956
0.00049800279264031
0.00048491870776437
0.00047465682266743
0.00046678124734523
0.00046140809502724
0.00045660168497992
0.0004528476022286
0.0004499472038597
0.00044789421633434
0.00044701469234733
0.00044778272324811
0.00045032388827217
0.00045378018080606
0.00045616893171805
0.00045454670325526
0.00044621574215698
0.00043033174989465
0.00040778947786738
0.00037995273785013
0.00034771528303296
0.00031316806587937
0.00028045187135807
0.00025272553022163
0.00023032823848436
0.00020858679911451
0.00019481714134599
0.00018342108356403
0.00017416680619825
0.00016677623459589
0.00016104498790055
0.00015643564459745
0.00015277575396784
0.00014991273160328
0.0001476705797254
0.00014580389570946
0.00014457036306432
0.00014378660844036
0.0001433200444524
0.00014312732564109
0.00014308277484973
0.00014303873085444
0.00014294316495494
0.00014274294840615
0.00014240680202907
0.00014193605596651
0.00014134928003297
0.00014066925239619
0.00013988770034283
0.00013900175595809
0.00013807545143024
0.00013717617093103
0.00013634676680763
0.00013560080267597
0.00013494739626435
0.00013439723399042
0.0001339424957881
0.00013356286828127
0.00013315691151902
0.00013263797416046
0.00013234552248602
1.5053436734549e-05
0.00019811859207963
0.00028269840585251
0.00037922378209993
0.00046486563157581
0.00054005639620881
0.00061164465743487
0.00066196214613616
0.00050976188109127
0.00039535792920785
0.00031350871904639
0.00025419159558339
0.00020839082667327
0.00017210371886313
0.00014293514943752
0.00011920593633122
9.9802370846801e-05
8.41313172874e-05
7.1451196156117e-05
6.116672739595e-05
5.2874366664207e-05
4.6148513742908e-05
4.0671772130753e-05
3.6180893172898e-05
3.2264432034589e-05
2.910032495118e-05
2.6385154207933e-05
2.4042056587842e-05
2.0822622937813e-05
1.7889934186672e-05
1.5468484700536e-05
1.3453272113664e-05
1.1761905070019e-05
1.0334714793856e-05
9.1258595315578e-06
8.0951360421472e-06
7.2110460336866e-06
6.4498966504652e-06
5.7915529351971e-06
5.2190885160931e-06
4.7193253582038e-06
4.2815880947016e-06
3.8964857864284e-06
3.5562528622013e-06
3.2545127623505e-06
2.9863736958756e-06
2.7471529659771e-06
2.5332159683689e-06
2.3411327255007e-06
2.1683676357943e-06
2.0124591567742e-06
1.8713925581082e-06
1.7433925206421e-06
1.6269502855213e-06
1.5208808463687e-06
1.4239896570661e-06
1.3353160334023e-06
1.2539830967744e-06
1.1792861306456e-06
1.1105696826655e-06
1.0472283795643e-06
9.887151952636e-07
9.3454949155773e-07
8.8432386354428e-07
8.376781318992e-07
7.9430372032332e-07
7.5392928094717e-07
7.1526661499451e-07
9.8036710288771e-06
0.00044901246927674
0.00094937178921191
0.00087343809499451
0.00078502942801572
0.00071828640207208
0.00066671971796329
0.00062544163756181
0.00059144787454222
0.00056290729967865
0.00053876631415394
0.00051842908733951
0.00050153130062889
0.00048779649313816
0.00047694142737681
0.00046856544163239
0.00046146781051716
0.00045670340526024
0.00045300521949088
0.00045017244237514
0.00044819177017429
0.00044737242033244
0.00044818379492781
0.00045076612179316
0.00045431382037816
0.00045691153248264
0.00045567732974534
0.00044790430975843
0.00043265902129324
0.00041072441220982
0.00038340189461643
0.0003515449879407
0.00031713143378588
0.0002842045379211
0.00025600631943165
0.0002330049180969
0.00021166175360371
0.00019692507435963
0.00018456088452349
0.00017435445969731
0.00016604807915951
0.00015943817195071
0.00015410327428621
0.0001497164801264
0.0001461817849776
0.00014334830541286
0.00014097638813171
0.00013898830690578
0.00013755423057135
0.00013643072848882
0.00013559327598708
0.00013494708592362
0.00013433246341026
0.00013371168849314
0.00013304204813896
0.00013228429391799
0.00013142609110647
0.00013052747152305
0.00012953456250386
0.0001284368814201
0.00012728895613916
0.00012616084471449
0.00012511587005812
0.00012416253684256
0.00012328804759103
0.00012249984126483
0.00012178629541308
0.00012115331709703
0.00012058615020262
0.00012002860509909
0.0001195412490827
0.00011952224337443
3.3513488559186e-06
2.2993177927388e-05
4.8963046598264e-05
7.8906789004857e-05
0.00011441149054836
0.0001559877909422
0.00019834382305321
0.00024203188548553
0.00028256653876417
0.00030943143551459
0.00031599775802423
0.00026261932772482
0.00021182586499172
0.00017260499869725
0.00014210414374534
0.00011799886662828
9.8382978278519e-05
8.2554600902717e-05
6.9832662855064e-05
5.9548431870776e-05
5.1233166458548e-05
4.4484412480935e-05
3.8956507650925e-05
3.4419978843128e-05
3.0725255757555e-05
2.766380652618e-05
2.4942849523998e-05
2.2007868037019e-05
1.8899917072981e-05
1.6328380922536e-05
1.4189632610698e-05
1.2394493075933e-05
1.0883589113084e-05
9.6027409551128e-06
8.510204549831e-06
7.5716289959623e-06
6.7638883752779e-06
6.0654407406379e-06
5.4585327664427e-06
4.9284257419359e-06
4.4641196995726e-06
4.0562143495452e-06
3.696333617938e-06
3.3774619032794e-06
3.0941433726777e-06
2.841758065581e-06
2.6162261796595e-06
2.414015974621e-06
2.2322636902502e-06
2.0685407610687e-06
1.9206608414724e-06
1.7867040400833e-06
1.6650270323612e-06
1.5543173654314e-06
1.4533966175647e-06
1.36123153041e-06
1.2768545741945e-06
1.1994417755876e-06
1.1283020919033e-06
1.0628237108698e-06
1.0024561484418e-06
9.4668836694456e-07
8.9506558071007e-07
8.4719486034237e-07
8.0273800108949e-07
7.6140470358172e-07
7.2294470527714e-07
6.9291317188937e-07
4.1672627497885e-05
0.00073994813067719
0.00093390443862123
0.00083957800891629
0.00075951793866188
0.00069885876932411
0.00065144509028826
0.00061313887921046
0.00058139601024611
0.00055466586386817
0.00053205128314262
0.00051304292399258
0.00049728998667332
0.00048455081743712
0.00047452285818265
0.00046680907329346
0.00046156469057135
0.00045690247951268
0.00045334086948356
0.00045067462196824
0.00044887311256807
0.00044820533627249
0.00044912248493161
0.00045180060513547
0.00045555805596654
0.00045864212466057
0.00045832778212622
0.00045190889814144
0.00043823891540362
0.00041783237909135
0.00039183349234558
0.00036100158932847
0.00032705591308897
0.00029377652220045
0.00026456301312364
0.00024024134127921
0.00021773375603208
0.00020144405038704
0.00018744516557472
0.00017556138681798
0.00016558721897201
0.00015733019921374
0.00015061852566788
0.0001449149415555
0.00014012626134324
0.00013609824472713
0.00013263837989619
0.0001296788411363
0.00012712214279865
0.00012484768019333
0.00012288325965266
0.00012119315928079
0.00011958418543638
0.00011804590040586
0.00011660220451824
0.00011518977416348
0.00011376376811581
0.00011230170848844
0.00011082466410587
0.00010936484708828
0.00010799464633096
0.00010676548378151
0.00010568106468917
0.00010472693908104
0.00010394650890659
0.00010333287489924
0.00010285521401016
0.00010248755254574
0.00010219875626527
0.00010190432654904
0.00010160372692995
0.0001018176703723
3.0563573640634e-06
7.7362478330975e-06
1.4889950381199e-05
2.487811388175e-05
3.8093731805747e-05
5.4469624354741e-05
7.4250540391246e-05
9.6491293815063e-05
0.0001209559341582
0.00014591837948117
0.00016658352341458
0.00017723772686574
0.00017636684679459
0.00016436113599299
0.00014225307110377
0.0001175913702253
9.837925983305e-05
8.2811728454187e-05
7.0158602238597e-05
5.9799644146773e-05
5.1425980426992e-05
4.4589905718116e-05
3.8978582444123e-05
3.4348043172749e-05
3.0512711159506e-05
2.7313971274488e-05
2.3816597394662e-05
2.0507251168033e-05
1.7737581494604e-05
1.5407582835009e-05
1.3443179197022e-05
1.1784679674283e-05
1.0377104860821e-05
9.1792011095755e-06
8.151451919193e-06
7.2683621060303e-06
6.5073014562633e-06
5.8476377059469e-06
5.2720605279894e-06
4.7676913602413e-06
4.3250300739322e-06
3.9347582810801e-06
3.5894170681689e-06
3.2826068002215e-06
3.0097720828723e-06
2.7661636616119e-06
2.5480864583566e-06
2.3521751748217e-06
2.1758637733282e-06
2.0168827879274e-06
1.8730884507997e-06
1.7426831504419e-06
1.6241246877658e-06
1.5162153782361e-06
1.4178053184941e-06
1.3278750039821e-06
1.2455162906656e-06
1.1699371384037e-06
1.1004821381242e-06
1.0365321674225e-06
9.7754560235717e-07
9.2304644865794e-07
8.7260215363705e-07
8.2584411057123e-07
7.8243109491089e-07
7.4206935079111e-07
7.0450278282782e-07
6.9480015086196e-07
6.1172004618538e-05
0.00080228072455559
0.00092235516495128
0.00082796541832696
0.00075082792959412
0.00069226162698024
0.00064633411611659
0.0006091565664004
0.00057832521157704
0.00055235894564612
0.00053038453447713
0.00051189941872596
0.00049655177892147
0.00048410958224103
0.00047428419774521
0.00046671014658843
0.00046158348202423
0.00045704555312079
0.00045365076439458
0.00045118960031923
0.00044960972941235
0.00044913354284828
0.00045018003140794
0.00045296410239114
0.00045695099939432
0.00046057617741956
0.00046132881716227
0.000456529669136
0.00044479710374174
0.00042632474746334
0.00040205365604486
0.00037264185620249
0.00033953178324982
0.00030614838043711
0.00027599594493989
0.000250319032683
0.00022661669268649
0.00020857550335418
0.00019264131063025
0.00017867539951222
0.00016655051631404
0.00015614233905955
0.0001473384697816
0.00013988181198769
0.00013340231989134
0.0001277867163542
0.00012285040613038
0.00011846360821927
0.00011450174472612
0.00011090518847388
0.000107653759852
0.00010466971019556
0.00010189937112601
9.9327645799285e-05
9.6948121699139e-05
9.4778968030014e-05
9.2807887802298e-05
9.1033968671094e-05
8.9447276243784e-05
8.8115833320438e-05
8.7035503099642e-05
8.6255796293162e-05
8.5753400851169e-05
8.5486639335987e-05
8.5505947968427e-05
8.5790561119984e-05
8.6273011099998e-05
8.6901863301684e-05
8.7511917252486e-05
8.7842141311806e-05
8.7719539138725e-05
8.7804218085644e-05
2.7335462626651e-06
4.8860349591938e-06
6.8360585728174e-06
1.0920379697748e-05
1.662862342714e-05
2.4091499281921e-05