/*--------------------------------*- C++ -*----------------------------------*\
| =========                 |                                                 |
| \\      /  F ield         | OpenFOAM: The Open Source CFD Toolbox           |
|  \\    /   O peration     | Version:  2312                                  |
|   \\  /    A nd           | Website:  www.openfoam.com                      |
|    \\/     M anipulation  |                                                 |
\*---------------------------------------------------------------------------*/
FoamFile
{
    version     2.0;
    format      ascii;
    arch        "LSB;label=32;scalar=64";
    class       volScalarField;
    location    "0.00015";
    object      cSound;
}
// * * * * * * * * * * * * * * * * * * * * * * * * * * * * * * * * * * * * * //

dimensions      [0 1 -1 0 0 0 0];

internalField   nonuniform List<scalar> 
109340
(
555.97941995571
554.91618904918
552.88755434501
550.42188789219
547.68476104824
544.81693081346
541.87337527205
538.88249118599
535.87761915134
532.79019620715
529.48703855197
525.84615957553
521.72768959949
516.97105718412
511.39975325318
504.82768995629
497.06489163246
487.92660730895
477.24311960442
464.87180212472
450.70812032307
434.7009510818
416.86419797564
397.28470376537
376.12205159681
353.60250816437
330.00366442456
305.63252560022
280.79876301964
255.78640457076
230.82700105378
206.07553531937
181.59317575314
157.3531194594
133.2990681148
109.48623674928
556.13798357502
554.77347502293
552.49612439377
549.86193734268
547.04260230915
544.16144898183
541.25488893117
538.32123785751
535.31870175351
532.1788856901
528.7978844539
525.05084629357
520.79140877822
515.85355794492
510.05675685084
503.21135997962
495.12813368297
485.62466810543
474.5361244823
461.72744543254
447.10578714572
430.63491693632
412.34625667581
392.34522721111
370.80941343718
347.98010431406
324.14526448331
299.61596340473
274.69875558697
249.6673150309
224.73542312415
200.0316400751
175.57556177243
151.27901039759
126.95000213209
102.64134577271
556.72950369529
555.15210466816
552.64683494018
549.95084451547
547.15553821144
544.31564078183
541.42477056152
538.48288702557
535.47034729103
532.32189991196
528.9367055957
525.18904813117
520.93138538482
515.99694124424
510.20487800766
503.36620996519
495.29094658352
485.79641601436
474.71703648202
461.91707592553
447.3023991437
430.83578228768
412.54786300506
392.54335563083
370.9996219159
348.15800771651
324.30704726269
299.75884228072
274.82129876378
249.76904240627
224.81580573921
200.08599798996
175.57611096043
151.12906372181
126.38805276495
100.95962346494
557.55162431831
555.65357887766
553.02446373752
550.25449612134
547.4067100374
544.50871670804
541.57013597941
538.59503708915
535.56001519049
532.39880384151
529.01076417106
525.26891453253
521.02384924687
516.10710307481
510.33579060192
503.51870909104
495.46393002798
485.98672462996
474.91874968125
462.12243034634
447.49992899425
431.01210815909
412.68825545414
392.63246522194
371.02348803478
348.10488851461
324.16894545524
299.53251605437
274.50877512603
249.37717393254
224.35489969314
199.56671700486
174.98285399997
150.36218985441
125.08808192286
97.912120160752
558.8452112388
556.38385375371
553.37428621117
550.41675873743
547.49219174144
544.56611525451
541.61864297691
538.64712624405
535.62176081215
532.47356822808
529.10315663228
525.38262008476
521.15951940963
516.2609197295
510.49777664209
503.67091388465
495.57917518962
486.02779704288
474.82936137737
461.84217726399
446.95409096828
430.12127545745
411.37399570872
390.82337264178
368.6654818667
345.16746010195
320.65167834271
295.46844251557
269.96450923121
244.44983011634
219.16379032513
194.26048596018
169.69382094175
145.16483600315
119.78169643438
90.869541782321
561.24900453994
556.77192589693
553.45816459362
550.43917983169
547.51098305257
544.59091766761
541.65060655354
538.67445637372
535.61513396886
532.37548904295
528.81827888617
524.76773074682
520.01499757813
514.32440924101
507.44208316106
499.10856489229
489.07551585263
477.13214005308
463.14028016722
446.93044852236
428.4855983381
407.89324819861
385.35769911956
361.19618220805
335.81826908108
309.69016197396
283.29258994435
257.0774081334
231.42999955849
206.64100272118
182.8812665972
160.24240564096
138.57625143551
117.53497464713
96.19559507092
70.961230413107
86.94496277808
68.052615602465
54.113552214512
44.659044065838
38.471900136389
34.292846283981
31.488077183097
29.66969943051
28.593952242751
28.0986459294
28.029728333846
28.401355921968
29.011749251472
29.8094442899
30.724034687966
31.692782946171
32.673696268587
33.636497267925
34.56291868557
35.443776546841
36.273630095563
37.049975418762
37.774331289151
38.44929722969
39.077554041046
39.663218340916
40.210283216499
40.718942215099
41.196474400858
41.642862309403
42.061810853159
42.456523312717
42.827035938676
43.177987556489
43.50825506736
43.822275684601
44.118744751359
44.401466212059
44.669310063766
44.925354103168
45.16879778193
45.401904653817
45.624444110179
45.837654985245
46.04209427253
46.237993211423
46.426564051518
46.607448020967
46.781965696864
46.949828152156
47.111776744083
47.268055831806
47.4190177534
47.564941899935
47.706105789413
47.842755608245
47.975128432574
48.103444055726
48.227909101446
48.348712252029
48.466028656518
48.580021458272
48.690845567477
48.798646757554
48.903561151262
49.005716366311
49.105231409395
49.202217863703
49.29867322989
50.060299322059
50.743912016656
51.122962490133
51.46035563666
51.775629538168
52.072466470014
52.354238372518
52.623958291331
52.88372014844
53.134403817261
53.375720326835
53.606554907114
53.825587838925
54.032063767826
54.226409130534
54.433315320269
54.611326861248
54.790236615213
54.978434053336
55.187455898932
55.431446360682
55.724663138749
56.075428194385
56.477737906092
56.905862738119
57.317597829159
57.670533232486
57.93943180887
58.120080306707
58.225744540062
58.278525461257
58.30059352921
58.307631141899
58.308303833293
58.306287425226
58.30197244573
58.297236489884
58.291444045477
58.284676813934
58.277091771737
58.268900133076
58.260383024051
58.251933058541
58.243762797594
58.236118291173
58.229016039288
58.222774720531
58.217388931103
58.212685563552
58.208958363308
58.206582266455
58.205524492494
58.205744934883
58.207191566197
58.209815679076
58.213577566731
58.218447924425
58.224411448291
58.231472982556
58.239657893296
58.249040355794
58.259736966726
58.271967313117
58.285983573762
58.301965390218
58.319740155778
58.337883141873
58.352421776265
58.354356288518
58.326382740019
58.244927754873
79.515930969971
61.202409720736
48.764224665237
40.878845468984
35.7246493307
32.3802300766
30.206578324645
28.876598965785
28.178764377389
27.963021218861
28.12604410593
28.571773804523
29.271302824051
30.107128508784
31.027082967938
31.990279967482
32.95657329354
33.902116763803
34.810932806072
35.67328881325
36.484898334019
37.244796063985
37.953984500909
38.614857843636
39.230496298393
39.804455546243
40.340075887467
40.840628495415
41.308985359853
41.748153277895
42.160458852049
42.548461037786
42.914035063222
43.259208184404
43.585588457368
43.894750357846
44.188036587155
44.466719168761
44.731881753129
44.984572984381
45.225662777447
45.456040626815
45.676378232993
45.887446107995
46.08978321107
46.284046078486
46.470673672079
46.650211477761
46.823033421074
46.989586565195
47.150201471978
47.305240329149
47.455016299196
47.599816770114
47.739916139684
47.875556030833
48.006971353034
48.134376258099
48.257972583526
48.377945627832
48.494469439655
48.607705570366
48.717806056672
48.824913673337
48.929163263476
49.030682585247
49.129590227185
49.226003036421
49.340582906412
50.31263114768
50.849030163377
51.211699233223
51.543092378214
51.853350983531
52.145989451903
52.424365282958
52.691303887703
52.9486087554
53.196845817204
53.435480451334
53.663280523365
53.879013134801
54.082169492974
54.273549761561
54.433353588033
54.611251968962
54.790038133967
54.978074187638
55.18687568473
55.43056961925
55.7234134434
56.073774294178
56.475741054703
56.903693249082
57.315501566991
57.668710923894
57.937999963766
58.119054803285
58.225073794836
58.278106203458
58.300322235998
58.307436763305
58.308149696242
58.306159154927
58.301864157963
58.297145396937
58.29136339491
58.284595539393
58.276996463447
58.268776612729
58.260219970861
58.251730284166
58.243522733485
58.235867105673
58.228778545904
58.222573388692
58.217241504975
58.212597267863
58.209078518242
58.206961402065
58.206228373382
58.206844589628
58.208760915412
58.211925662277
58.216296680994
58.221845266335
58.228558747878
58.236445967439
58.245532309012
58.255904221608
58.267694176503
58.281145344868
58.296539006048
58.314086652368
58.333662634531
58.353886723221
58.370826875483
58.375476810875
58.350330710975
58.271569296502
75.628213299435
56.195615308034
44.655055902883
37.686903059026
33.340347211901
30.675677875296
29.084730514623
28.207342491999
27.846041559802
27.843203584847
28.194570608044
28.746771590633
29.467309833677
30.305438690706
31.213286096295
32.153625511745
33.096521378575
34.020748335891
34.910318744512
35.755837895013
36.553656385291
37.302383138603
38.002342406373
38.655751650223
39.265502263322
39.83450371388
40.365771396852
40.862705656979
41.328094076004
41.764594299425
42.174748948071
42.56074484019
42.924741821598
43.268448247179
43.593643135771
43.90170220313
44.194095270059
44.471938196546
44.736427036058
44.988473923597
45.229067608592
45.458946885667
45.67892334176
45.889615469605
46.09168618336
46.285665871161
46.472084779046
46.651415609524
46.824071673215
46.990477862473
47.15097149572
47.305915127288
47.455598002904
47.600322217946
47.740350749543
47.875933899981
48.007301185535
48.134665654252
48.25822706882
48.37817086443
48.494670786549
48.607888060902
48.717973844244
48.825070092094
48.929310907234
49.030823942735
49.12972650392
49.226131460425
49.343013855989
50.321541334904
50.852801258235
51.215018006394
51.546283009179
51.856378739875
52.14883155494
52.427010855913
52.693737653718
52.950806194639
53.198777994452
53.437120543546
53.664612850631
53.880037364589
54.082896830587
54.273992373044
54.433521927459
54.611181726957
54.789696596617
54.977387163974
55.185718902749
55.428780406951
55.72082622703
56.070321948552
56.4715503689
56.899125376837
57.311083900779
57.664877225277
57.935004427492
58.116932974292
58.223710636221
58.277278785368
58.299801603091
58.307066876673
58.307851469675
58.30590451167
58.301641274263
58.296955657712
58.291193934506
58.284423491072
58.276793863244
58.268509096896
58.259864461806
58.25129785111
58.243007412384
58.235329040528
58.228274071336
58.222151292477
58.216900909935
58.212450815888
58.209385112611
58.207851641351
58.207857516806
58.209378519048
58.212368636969
58.216771001674
58.222539490779
58.229644812391
58.238079980125
58.247864320832
58.259023938844
58.271675095242
58.285989588968
58.302267300386
58.320858949638
58.342047664023
58.365812101526
58.390861125927
58.41333360586
58.424159489867
58.40533394253
58.332522747373
68.491148506711
48.234920815604
38.444286262259
33.055577880939
30.254063701973
28.647530694928
27.854041089987
27.551641726679
27.582731927013
27.851628929078
28.371768021508
29.0038784677
29.744513405615
30.572600567994
31.453798564628
32.365113511227
33.279264678596
34.175318417199
35.040371710041
35.865845595156
36.646395078541
37.380190081817
38.068419636627
38.712237441471
39.313851862813
39.876216557246
40.40224104336
40.894541360934
41.35601614164
41.78921994807
42.19653163374
42.58009280666
42.941938901685
43.283831469593
43.607370685292
43.914041200535
44.205143528872
44.481889102132
44.745355116096
44.996529867569
45.23629949692
45.465470972448
45.684794304768
45.89491267163
46.096465378262
46.289973514174
46.47598225254
46.654919783238
46.827244016834
46.993329199993
47.153553704801
47.308246203775
47.457713657411
47.60224105892
47.742090124586
47.877513539087
48.008736530886
48.135972469552
48.25941848734
48.37925911592
48.495666204879
48.608800520831
48.718812646446
48.825844383043
48.930028056453
49.031489616248
49.13034667623
49.22670376355
49.347704259993
50.334078643413
50.858395450329
51.219924529442
51.550936033876
51.860766066342
52.152939501768
52.430832258223
52.697253484747
52.953981709017
53.201571363816
53.439493195784
53.666541798277
53.881522122992
54.083954315597
54.27464498924
54.433805856931
54.611096648873
54.789196375693
54.976361168132
55.183981097953
55.426083253189
55.716923983682
56.065107426272
56.465209092766
56.892196395834
57.304364158003
57.659029666086
57.930420037179
58.113682474735
58.221617700688
58.276008460479
58.299005547917
58.306500995441
58.30739302656
58.305513162662
58.301297149257
58.296662785278
58.290933978614
58.284163801625
58.276492518458
58.268114918628
58.259342768844
58.25065216964
58.242268709313
58.234555641696
58.227556711797
58.221558620522
58.216402275157
58.212374158758
58.210017078456
58.209427042962
58.210635308379
58.213631553603
58.218372460325
58.224795476051
58.232848518358
58.242502760604
58.253760679512
58.266649512099
58.281214313637
58.297617780492
58.316109286058
58.337089063106
58.361026091872
58.388322450538
58.419115450625
58.452216223467
58.483817160308
58.504647967995
58.495579491849
58.431807023345
53.630108187602
36.702672638733
30.673449904539
28.198441793089
27.284742563558
26.946915175778
26.983492358993
27.218061149622
27.608718474979
28.113342169056
28.697199758733
29.361992465221
30.103759918535
30.909025720933
31.757788085206
32.628535026089
33.503982825484
34.366217216494
35.201532814929
36.001274661015
36.760632576996
37.477457592821
38.150810446837
38.782510259378
39.374349376657
39.928601884699
40.447709243529
40.934399913884
41.391084316565
41.82023024444
42.224069930268
42.604701506186
42.963970492876
43.303645877077
43.625254493685
43.930236338194
44.219834989255
44.495265363635
44.757546252199
45.007668526219
45.246478937269
45.474803662704
45.693338435437
45.902764276826
46.103667675791
46.296604245237
46.48207106177
46.660522762457
46.832395784269
46.998068443453
47.157917598899
47.312260322741
47.461415076169
47.605653548966
47.745240580112
47.880419515369
48.011418277471
48.138449600927
48.261708646769
48.381377776252
48.497627286761
48.610617824814
48.720499510777
48.82741252651
48.931487963764
49.032850172533
49.131616881239
49.227881160408
49.354841281316
50.350127963849
50.865838223719
51.226454986931
51.557061640132
51.866505948347
52.158301157329
52.435817289232
52.701840952014
52.958127343187
53.205220332526
53.442595242518
53.669066634095
53.883468833134
54.085345515362
54.275512317093
54.434203453476
54.611001772265
54.788546725201
54.975009324498
55.181680598172
55.422504061343
55.711738460638
56.0581657931
56.456748348013
56.882923172226
57.295340986029
57.651151099243
57.924220716546
58.109271749981
58.218766964846
58.2742753048
58.297921748389
58.305732227608
58.306768072257
58.304977263822
58.300821846234
58.2962591621
58.290579989122
58.283820213326
58.276103033038
58.267612547738
58.258680805778
58.249833279724
58.241341248032
58.233595871267
58.226676887318
58.220821918906
58.215844378802
58.212504444914
58.211166112318
58.211950598884
58.214921798241
58.22008926295
58.227413290071
58.236824014154
58.248262446628
58.261700535975
58.277153093097
58.294654624876
58.31429458468
58.3363203802
58.361113935801
58.389242235398
58.421355494025
58.458034911807
58.499633386474
58.545023757794
58.590338327802
58.625740836569
58.630052908166
58.578120774946
26.703800673986
24.533963908452
24.767138702457
25.315507784393
25.855214043031
26.368843962302
26.877684712986
27.410642335008
27.948553211191
28.529848895746
29.147551556042
29.818456644973
30.540329357871
31.308533354388
32.113300927224
32.938884238385
33.769860137266
34.591409267938
35.39184426054
36.162155375726
36.896688315777
37.592640397194
38.249390585671
38.866829973756
39.446795974822
39.991218293202
40.502302117453
40.982101815735
41.4330000284
41.857309419994
42.257057322222
42.634134317792
42.990387209437
43.327437974329
43.64676254654
43.949734051363
44.237596557552
44.511465035982
44.772372933922
45.021268322393
45.258996273486
45.486333261371
45.703984264254
45.912610075733
46.112785535424
46.305059783878
46.48991197345
46.667811196073
46.839165018717
47.004367477027
47.163774618344
47.317715259502
47.466496704291
47.610390453795
47.749659590129
47.884541288446
48.015265503304
48.142040724313
48.265061355833
48.384508832461
48.500553591626
48.613354981476
48.723061207905
48.829811340002
48.933736156225
49.034959614484
49.133596371718
49.229719858349
49.364868881637
50.369481645711
50.875144638146
51.234611982947
51.564651600854
51.873584059313
52.164901210016
52.441952227278
52.707488959302
52.963234927713
53.209719605449
53.446424113711
53.672187416645
53.885879902456
54.087074822368
54.276599724459
54.434720275841
54.610906613714
54.787762061369
54.973351345199
55.178843740134
55.418077309653
55.705309218043
56.049535245853
56.446195641368
56.87131644743
57.284006495822
57.641219254963
57.916377222239
58.103669835759
58.215132710256
58.272060444839
58.29653845217
58.304753746946
58.305969181041
58.30428373062
58.300204806385
58.295733055878
58.29012444219
58.283393120676
58.275633600935
58.267020106916
58.257907210714
58.24888189963
58.240276868478
58.23251516953
58.225704429437
58.2199317755
58.215403665662
58.213020478812
58.21308871159
58.215785999407
58.221225609671
58.229447750531
58.240421166931
58.254066640682
58.2703154183
58.289143104934
58.310575608396
58.334658409484
58.361566202197
58.391707056694
58.425675808694
58.464310971414
58.508530311702
58.559173826899
58.616856546222
58.680365597395
58.745526364497
58.801270735391
58.822789391502
58.78480039997
26.005779754337
22.921736755876
24.121436105916
25.122408272085
25.946565236164
26.644277768314
27.247960042798
27.817615956677
28.380988427575
28.954028924043
29.555328836537
30.190950305956
30.864482868443
31.576343394529
32.322194475358
33.092410075965
33.873741414492
34.653940973971
35.420631752905
36.164627121609
36.879357367554
37.560822190746
38.20691952455
38.817480490757
39.392693289939
39.933932490619
40.443241183136
40.922456116428
41.373417941166
41.798175404751
42.198836804635
42.577160623979
42.934778823742
43.273278934886
43.594158439745
43.898713135087
44.188130408851
44.463542756921
44.725972780682
44.976335517461
45.21548109844
45.444191901582
45.663171366299
45.873059831727
46.074445486964
46.267879613182
46.453845516068
46.632803638515
46.805165506982
46.971333233865
47.131661511302
47.286483718983
47.436102240159
47.580798202733
47.720837631444
47.856458244744
47.987887704659
48.115335176864
48.239001060937
48.359068689462
48.475708988141
48.589082250923
48.699339176161
48.806620884885
48.911059092288
49.012776785161
49.111891324952
49.208511587725
49.309087060137
50.18085156902
50.78708373867
51.158311706083
51.493466341662
51.806684487747
52.101494405272
52.381269122757
52.648914630226
52.906394865383
53.154511753717
53.392979020901
53.620769572721
53.836715735624
54.040197642039
54.231708108504
54.435363531504
54.610822034422
54.786857724573
54.97140878348
55.175499899729
55.412840660666
55.697679570306
56.03925914766
56.433584781078
56.857389705746
57.270348302513
57.629202096631
57.906847095881
58.096832000136
58.210675322409
58.269334890607
58.294838022489
58.303555074653
58.304990692141
58.30342705097
58.299033088111
58.294723693188
58.289265363217
58.282611121485
58.274809549942
58.266009639847
58.256603234925
58.247290848549
58.238517559804
58.230752246229
58.224098279001
58.218506891897
58.215123489197
58.214722276596
58.217705321775
58.224392437628
58.235010730026
58.249678183107
58.26839231143
58.29106118152
58.317595070091
58.347982651409
58.382252889711
58.420502504094
58.463151130226
58.511010026784
58.565218725391
58.627304371373
58.698801848637
58.78113731333
58.875269226032
58.979350602622
59.08794621954
59.186065480074
59.238651974048
59.223474594684
34.28942068628
28.757445425887
28.465560249447
28.487552213496
28.659308569225
28.919020146786
29.254473890768
29.663433161377
30.081854841134
30.545573229451
31.050995411137
31.588567012898
32.160464900157
32.767065763486
33.405032621255
34.067839073581
34.745752892726
35.428659037547
36.107537799212
36.772992699511
37.418192796866
38.038758071503
38.631941867945
39.196414545999
39.732007201375
40.239184817494
40.718796615696
41.171949502197
41.600345874224
42.005459372485
42.388817634008
42.75179094156
43.09587187754
43.422381448301
43.732552110381
44.027500049072
44.308333369637
44.576039090367
44.831507506943
45.075562154718
45.308979310602
45.5324771875
45.746690853536
45.952203823774
46.149566671006
46.339290345277
46.521835272626
46.697622978925
46.86705006671
47.0304869049
47.188274166924
47.340721623546
47.488117163748
47.630731947265
47.768816105882
47.902603124794
48.032306319676
48.158127636675
48.280256415105
48.398869975883
48.514134261982
48.626204435538
48.735226257081
48.841335788624
48.944659332509
49.045314501971
49.143414080137
49.239027583197
49.419750044811
50.443603004876
50.913620419854
51.268476388429
51.59591882117
51.902619852889
52.191949643031
52.467113936507
52.730688844719
52.98425366249
53.228272843499
53.462252685649
53.685133637866
53.89593268236
54.094346828327
54.281255390893
54.437069782097
54.610737294867
54.784761936346
54.966769765084
55.167426188043
55.40011373028
55.679030488551
56.013988811616
56.40236117339
56.822666584449
57.236001100969
57.598758388349
57.882520378707
58.079233014603
58.199096243979
58.262208931308
58.290396706645
58.300444058803
58.302447733541
58.301189317811
58.296865856317
58.292797931301
58.287641642546
58.28121987756
58.273494198767
58.264550526961
58.254820240058
58.245193171749
58.236282169243
58.228562671886
58.221898866804
58.217470745617
58.216779896022
58.22075145583
58.230214479782
58.2459003002
58.268376745488
58.298016057391
58.334958575907
58.379135373561
58.430426054379
58.488835195721
58.554435581333
58.627596031643
58.709547563561
58.802511045161
58.909337049095
59.03346547372
59.178040927256
59.345335287838
59.535029157334
59.741750959631
59.953559615193
60.142066693789
60.250064706761
60.267946437676
37.74875752657
32.598352749083
31.922289382586
31.617243035797
31.470220018596
31.423659727141
31.48222529194
31.629108078226
31.859855570474
32.164774766025
32.50867393978
32.902238348098
33.35055600955
33.838965666605
34.361417398944
34.913279947072
35.487363108358
36.07473977691
36.667111919772
37.256916076513
37.836938253092
38.401462673695
38.946749114305
39.470376369235
39.971076258273
40.448490775958
40.902687779815
41.334267101405
41.744159768788
42.133305692306
42.502852027155
42.853978578205
43.187766496794
43.50531449325
43.807574192519
44.095591413457
44.370330177831
44.632640709136
44.883308451858
45.123085923533
45.352711453761
45.572811026542
45.783976307113
45.986744114234
46.181648351213
46.369145466161
46.549673555033
46.723631219226
46.891397526394
47.053324050086
47.209725979895
47.360900882154
47.507124497475
47.64866057661
47.785748505929
47.91861099685
48.047457641247
48.17248444341
48.293877041739
48.411805217956
48.526428530583
48.63789869973
48.746357953323
48.851940282814
48.954767234408
49.054958269766
49.152619587302
49.247800380903
49.493025414571
50.503038951576
50.947343506089
51.29843043785
51.623537621985
51.928270835902
52.215880870764
52.489421185061
52.751299944659
53.002966022027
53.244827943985
53.476417727499
53.696769205065
53.905028045194
54.101001611302
54.285617200747
54.439420859053
54.6108756018
54.782428099734
54.961321262787
55.157769412819
55.384730370068
55.656286558157
55.982876658245
56.363508899472
56.778961865365
57.192193347632
57.559474719414
57.850751449336
58.055953917081
58.183525227475
58.252528841565
58.28436606906
58.296270106979
58.299047934554
58.298125065277
58.293903950458
58.290070278704
58.285327872897
58.279317560564
58.271898685495
58.263061272067
58.253228115232
58.24346935093
58.234536802362
58.226697381576
58.220521778971
58.218373864485
58.221992681441
58.233094430014
58.253353346453
58.284339532626
58.327392258804
58.383516522064
58.453345946981
58.53706054796
58.63461684015
58.745792455498
58.870825088064
59.011023981722
59.169642877659
59.352405497233
59.566406063486
59.818385356934
60.112957227304
60.451053804363
60.8254937728
61.219146575915
61.601625524038
61.917768712064
62.084201210003
62.131148465456
40.275246713893
35.185667187725
34.396591499562
33.999124132466
33.74227777224
33.582216078973
33.493104716923
33.49652979136
33.580775499198
33.727056087248
33.953953832933
34.228545582653
34.540699675505
34.911014078925
35.327158316151
35.777303591311
36.254818734156
36.753087034876
37.26355744776
37.778972089401
38.292987465291
38.80017541119
39.29571734053
39.776469364131
40.240258360879
40.685832311837
41.112650672862
41.520657299143
41.910134576754
42.281595195882
42.635775076774
42.973471377702
43.295476477706
43.602658475469
43.895891600523
44.175956103597
44.443657940112
44.699689946565
44.944787835933
45.179626119053
45.404805150052
45.620912001393
45.828457507186
46.027983292473
46.219944578765
46.404780085405
46.582885350834
46.754641626223
46.920415695876
47.080521074088
47.235258426595
47.384902786858
47.529725191319
47.66997492833
47.805875770647
47.937641285473
48.065469935214
48.189554733935
48.310074045275
48.427191729185
48.541061733849
48.651827784174
48.759628635175
48.864594183542
48.966845724973
49.06649894093
49.163664125981
49.258307066499
49.621757992614
50.567713387749
50.987295501592
51.334146077501
51.656482127066
51.958912550622
52.244520812821
52.516158018456
52.776030060041
53.025437463768
53.264730510173
53.493478012959
53.710829855665
53.916083653508
54.10917693838
54.291095012386
54.442536478809
54.611397632503
54.780064649185
54.955340781985
55.146903161307
55.367184167323
55.630059710582
55.946590549849
56.317614598136
56.726591385579
57.138878838548
57.510966343394
57.810940272798
58.026317782538
58.16333608736
58.239789072295
58.276418460937
58.290858815866
58.29469702786
58.294156019499
58.289992280219
58.28645646294
58.282105888206
58.276672975482
58.269843577381
58.261496833805
58.251965781491
58.242375437481
58.233501097189
58.225578920765
58.220850121579
58.222059871281
58.232108574384
58.254246052979
58.291729459793
58.347826638735
58.42552849943
58.52731366097
58.655032605559
58.809883028734
58.992248401347
59.202020193423
59.439598092464
59.708087602591
60.016257652934
60.377144625464
60.805025591941
61.309502371064
61.892084945042
62.539933746186
63.219955426614
63.88270859078
64.466482876599
64.889977198854
65.083621917864
65.157351807239
42.519665064519
37.099489256787
36.264261621281
35.830411130718
35.539453472494
35.331092700859
35.187096938372
35.110264819656
35.103324030312
35.159603455489
35.273057608358
35.457829388023
35.687068441067
35.952587738243
36.270343778767
36.630437045923
37.022644832109
37.439078123088
37.874214856845
38.320876241347
38.772355004478
39.223276689585
39.669379873913
40.106650765833
40.532529877299
40.945201044959
41.343473149478
41.726671162442
42.094535564255
42.447143007181
42.784809787889
43.107989057133
43.417251574505
43.713213282051
43.996480009428
44.267670075709
44.52747617593
44.776507348949
45.01535682929
45.244614756934
45.464762281262
45.6763325692
45.879829775493
46.075681871099
46.264319210984
46.446113287257
46.621452284826
46.790700811038
46.954171245826
47.112170139145
47.264965716451
47.412832402658
47.556021531635
47.694762886803
47.829274501438
47.959751891852
48.086392283735
48.209377611164
48.328874785147
48.44504263805
48.558027590355
48.667972515805
48.775008543157
48.879258190331
48.980843211219
49.079868794037
49.17644261041
49.270782009402
49.797823352292
50.635364605441
51.033436049385
51.375706510976
51.694860654062
51.994670908008
52.277989053767
52.547417384866
52.804936335652
53.051691995597
53.287982530262
53.513429099135
53.727321083351
53.929128400766
54.118934204305
54.297787601003
54.446554190333
54.612485469296
54.777911831679
54.94914557373
55.135253825024
55.34804250509
55.601067043637
55.905944285992
56.26543850221
56.666047251512
57.076118916922
57.452862614112
57.762416147492
57.989519834905
58.137790188498
58.223328625228
58.266103540027
58.283952529259
58.289290869936
58.289237247814
58.285035558539
58.281784618438
58.277847602813
58.272981209168
58.266990485822
58.259547374942
58.250857646141
58.241835679754
58.232987176377
58.225718930869
58.222992049881
58.228650433156
58.247767354849
58.285972966557
58.34936185663
58.444421245147
58.577285206069
58.754124034437
58.980711643293
59.260622498247
59.594996384648
59.983507063548
60.425997330157
60.929396224926
61.511555911806
62.199113144305
63.014512179762
63.955478173765
64.98880972004
66.04925988779
67.054501461891
67.925134208489
68.585260457242
68.980551351223
69.137771787123
69.240389520382
44.85967151064
38.593349881596
37.749915032627
37.290612083991
36.988773763934
36.762950753956
36.599173127282
36.481897083786
36.422156585057
36.422225359777
36.4694132456
36.568341306647
36.737613620853
36.940293140183
37.170821815598
37.449577344367
37.76925150606
38.116708088808
38.484715614223
38.867915129115
39.261659330786
39.660231083885
40.058790916723
40.453907694745
40.84229578641
41.221779147962
41.590846644124
41.948478847455
42.293977656213
42.62696343069
42.947364696861
43.255328521627
43.551129802045
43.835129386769
44.107770555476
44.36953368001
44.620902222254
44.862345231609
45.094357824566
45.317466894579
45.532107304825
45.73871255092
45.937716960389
46.129474896617
46.314388074615
46.492826415366
46.665113625383
46.831570261148
46.992476004565
47.148111241946
47.298753725255
47.444636741161
47.585992301217
47.72303447747
47.855963799697
47.984987368227
48.110279089108
48.232008963827
48.350337526786
48.465413242791
48.577384924542
48.686384240052
48.792535325064
48.895958225194
48.9967625285
49.095052892076
49.190934001959
49.284870269274
49.998212940729
50.705212426954
51.085599490024
51.423150950918
51.738852363648
52.035751554814
52.316459260537