/*--------------------------------*- C++ -*----------------------------------*\
| =========                 |                                                 |
| \\      /  F ield         | OpenFOAM: The Open Source CFD Toolbox           |
|  \\    /   O peration     | Version:  2312                                  |
|   \\  /    A nd           | Website:  www.openfoam.com                      |
|    \\/     M anipulation  |                                                 |
\*---------------------------------------------------------------------------*/
FoamFile
{
    version     2.0;
    format      ascii;
    arch        "LSB;label=32;scalar=64";
    class       volScalarField;
    location    "0.00015";
    object      dydt;
}
// * * * * * * * * * * * * * * * * * * * * * * * * * * * * * * * * * * * * * //

dimensions      [0 0 -1 0 0 0 0];

internalField   nonuniform List<scalar> 
109340
(
0
0
0
0
0
0
6.326690380181e-08
0.0014219787896408
0.0090563592887296
0.026770391079499
0.058133764690965
0.10650104375917
0.1751340673968
0.26741926013317
0.38708810692685
0.53846374129783
0.72686315190909
0.95903525890789
1.2437528561643
1.5924839693434
2.0204317325777
2.5474853359147
3.1997274774548
4.0115553861087
5.0290756937531
6.3148530505019
7.9555937693942
10.074512435922
12.852436178103
16.565446001635
21.655601266247
28.872731542156
39.574729131406
56.387219434877
84.698998973205
136.19111620984
0
0
0
0
0
0
2.4278774237899e-05
0.0022461898105723
0.011444857250864
0.031567008591111
0.066145591469695
0.11850967515402
0.19194521107151
0.28990974688408
0.41626582040198
0.57560496246315
0.7735222192272
1.0172026399002
1.3160334834414
1.6823428545952
2.1323980471563
2.6874787222703
3.3755089686581
4.2334189061517
5.3108425845567
6.6754679781068
8.4216037911106
10.684264926497
13.663477053722
17.668211523158
23.20075384728
31.130812410779
43.083539038066
62.337323248891
96.258171480541
161.53556253049
0
0
0
0
0
0
1.110308502332e-05
0.0019807798169764
0.010761482696841
0.030426685976137
0.064569295358979
0.11656513182112
0.18974285343069
0.28758887389489
0.41396703496274
0.57340111125491
0.77145354657605
1.0152444407333
1.3141195001263
1.6803603644607
2.130237958867
2.6849947886578
3.3725094316394
4.229673611217
5.306067402548
6.6693480980353
8.4137652236067
10.674250543055
13.650731374586
17.652343756515
23.18256972158
31.118392568865
43.131407967186
62.727962741343
98.328284370214
172.60369736222
0
0
0
0
0
0
4.3481050298541e-06
0.0018036501693082
0.010367290281991
0.0298721851868
0.063928603728421
0.11588908770023
0.18904746310974
0.28684694368405
0.4131195713455
0.57237132924726
0.77013863056865
1.0135213654465
1.3119029912078
1.6775444557465
2.1268920705212
2.6812298687645
3.3685164731461
4.2258225792285
5.3028635042772
6.667642244264
8.4148626526855
10.680144524546
13.664537944054
17.679403531673
23.232909765896
31.214484419089
43.364375566573
63.50171783844
101.73653338742
192.44420446633
0
0
0
0
0
0
2.507972745959e-06
0.0017018140216407
0.010042265984739
0.029234283784627
0.062914038286539
0.1144523955624
0.18716316004836
0.28451207220265
0.41035682071511
0.56923242343657
0.7666909259553
1.0098376366505
1.3087353313122
1.6755088411252
2.1275945072618
2.6869864575487
3.3827696450316
4.2538234707503
5.3520897216143
6.7490527451969
8.5443074726581
10.880629168442
13.9698660066
18.140564369743
23.932590746313
32.278148963497
45.072972481163
66.6228632543
109.58160127819
231.70566869891
0
0
0
0
0
0
7.5101656508897e-05
0.0032290938975961
0.014908744813459
0.039522570290982
0.080927458390022
0.14275922273449
0.22870958364051
0.34282131244
0.48985643972838
0.67568209374198
0.90775621117595
1.1952617218179
1.5489265257997
1.9913531893346
2.5448913425077
3.2402253037624
4.1181834758106
5.2329327726101
6.6570974782633
8.4894468692702
10.866940421287
13.98448386791
18.129249608019
23.744065196249
31.562392749023
42.797641640812
60.018067457535
89.061277735684
147.97841842242
346.99620624096
231.64786482444
388.19913663105
601.86473642022
855.08338517163
1131.2977391679
1450.227315833
1815.9428900476
2231.3439675661
2693.6483918228
3191.45857161
3734.7486260983
4202.6946810346
4641.8208174527
5009.3459402687
5283.9438619378
5472.9672901666
5580.7512027638
5620.3828180184
5605.5416978513
5545.5495592003
5451.5906109915
5336.6337198185
5207.3883508069
5069.0516390751
4927.7205152329
4784.6635166926
4638.5579604628
4502.6429248751
4366.1898082151
4234.329005936
4110.2745728913
3986.0617118366
3872.9087950588
3758.9881585697
3655.5052239199
3551.8651412182
3457.3361920536
3363.1825909441
3276.8711858435
3191.2477048592
3112.3155101755
3034.400459711
2962.017775441
2891.0316375645
2824.163185821
2759.7090828791
2697.898829898
2639.081621672
2582.0622917633
2527.8390787559
2475.4693223959
2425.2727367946
2376.9617380584
2330.4669106613
2285.6965278292
2242.5674057622
2200.9945319517
2160.8979605396
2122.2006560151
2084.8334244886
2048.7330827579
2013.8398937792
1980.0959371856
1947.4459804406
1915.8374849871
1885.2227772474
1855.5577048776
1826.7978100013
1798.1147301179
1830.2330222097
1383.629405039
1265.0557086845
1184.5763736825
1112.9808086687
1048.2767738496
989.53325068066
935.90179320699
886.6615679647
841.22951956608
799.14533128344
760.0264845647
723.54394214774
689.3373823056
657.00774826493
622.2578743598
592.2272439227
562.22927111726
531.40510707516
498.93479229685
464.23811944314
427.33478835498
389.0793596519
350.90604912836
314.32795234852
280.52840498857
250.49755121809
225.22741495869
205.55463458215
191.6272726179
182.78918918273
177.76140486912
175.14958510532
173.80787182656
173.03044614808
172.4034415376
171.99723598435
171.65604424361
171.36774569351
171.11641526505
170.88497484092
170.64830924787
170.38375068125
170.06694192615
169.66220733464
169.22421914026
168.70767929758
168.10782205483
167.42812555056
166.65292884629
165.78835886474
164.83486078553
163.79529840844
162.67650865269
161.48048791741
160.2054554222
158.85029959802
157.41369640673
155.89422972061
154.28970792353
152.59099029344
150.79355729238
148.88303127993
146.84719508598
144.67311914027
142.31211055791
139.6305578309
136.27672851691
131.45135788815
123.8038198526
111.02965495818
291.65297301064
497.71399106796
755.05567323002
1034.1100147481
1353.7855405689
1705.0267236345
2100.147308873
2535.5583567197
3002.1004925378
3488.3539481004
3974.16302754
4447.3357385781
4822.4374159311
5134.3091799193
5371.4213722833
5524.3975711252
5605.8574689424
5624.3075159631
5591.1638976435
5519.0595388245
5418.4362407418
5297.9859547875
5165.1921265004
5025.5959667366
4882.8645213841
4739.7830998939
4598.5317004629
4460.1238622088
4326.0968175718
4196.3951108086
4071.896516014
3952.2580617094
3837.8033701744
3728.4174854645
3623.8650208144
3524.1606929225
3428.9082924764
3338.0688899992
3251.2768664746
3168.4485050242
3089.2861138207
3013.6204811602
2941.2974329456
2872.0476962286
2805.8213884476
2742.3013536629
2681.5056346091
2623.1150766014
2567.1500202043
2513.3606568328
2461.7151443484
2412.0562837195
2364.2976372808
2318.3247838628
2274.0440833761
2231.3764326634
2190.2360563433
2150.5467424856
2112.235161487
2075.2344476691
2039.4807683672
2004.9143400887
1971.4787954725
1939.1218305529
1907.79482321
1877.4532078748
1848.0480356317
1819.5393223562
1798.4963348168
1669.9924875265
1342.8701984697
1243.3619309327
1165.4931587029
1095.7801975354
1032.7140467441
975.38003204853
922.96128890293
874.76694726426
830.25115237119
788.9754651588
750.57858083114
714.72694595621
681.05701870817
649.15367677927
622.29439897279
592.29804852829
562.32230175743
531.52658706613
499.08924806622
464.42784345198
427.55881625587
389.33018591179
351.1734450491
314.60077356367
280.79597276262
250.74965751641
225.45363632293
205.74841092017
191.78364113035
182.91083468287
177.85484644228
175.22231355935
173.86749055464
173.08174135829
172.44712476837
172.03480739968
171.68675456512
171.39101352087
171.13172383676
170.89147600881
170.64596111164
170.37306141159
170.04638169668
169.62940302542
169.1776618235
168.64282740437
168.02506696175
167.32124637074
166.52027901815
165.62795660801
164.64507582956
163.57457022588
162.42238763174
161.19086767115
159.87846654523
158.483708227
157.00501243617
155.44031968297
153.7876968532
152.03660244162
150.18118463489
148.20631902163
146.09974070087
143.84957613272
141.41158490059
138.66535805924
135.28325520944
130.51193006343
123.06092250895
110.6762210247
344.01154515001
629.26507543774
935.21487932674
1271.1202948422
1649.0144805921
2047.9531357172
2464.249463796
2899.0902189962
3342.9376993195
3809.1620192473
4208.0862911912
4593.5849557162
4929.5594614461
5200.6682937032
5404.4298793145
5539.5315978178
5608.6050278393
5617.907762584
5579.952441171
5506.7699951694
5406.0417717472
5285.7609110711
5153.7441881499
5014.9246790125
4872.702830261
4730.3140358213
4589.9536209095
4452.4095575111
4318.7887318799
4189.9431375536
4065.8374868161
3946.8992344658
3832.8142796623
3723.8711966637
3619.6792802582
3520.3175994112
3425.3606945374
3334.7943994028
3248.2458759137
3165.6565171745
3086.6664256483
3011.235551962
2939.0319682132
2869.9978033147
2803.854832655
2740.530566463
2679.8064826456
2621.5805112379
2565.6979632803
2512.0335217148
2460.4745836484
2410.8929168985
2363.2086592167
2317.3049968067
2273.0966703487
2230.489905681
2189.4049919866
2149.7662492074
2111.5022012539
2074.5457645652
2038.8331050408
2004.3047094155
1970.9045311052
1938.5803051119
1907.2824710579
1876.9679211316
1847.5915655473
1819.1068741416
1798.910274592
1662.8867811626
1341.2507079977
1242.4364734815
1164.6875006427
1095.0650936776
1032.0811632431
974.82152069374
922.46917375314
874.33805847269
829.88011444546
788.65937300307
750.31555188356
714.51491330263
680.89497354603
649.04246684143
622.24215401981
592.28622543764
562.36017469083
531.61783948358
499.23937571269
464.63902853102
427.82997547903
389.64598119654
351.51837622347
314.95982962221
281.15678559921
251.09973834271
225.77584731283
206.02855411431
192.01390119313
183.0892438377
177.99257315725
175.33332828162
173.96353475616
173.17096169065
172.52842442613
172.10717565953
171.74743932049
171.43798254126
171.16383931877
170.90742627481
170.64359925286
170.34740980268
170.00051878451
169.55766224529
169.07538867838
168.5045002739
167.84854630039
167.09609698685
166.24308047734
165.29359629396
164.2487803426
163.11148741848
161.88688116462
160.57777142677
159.18278150264
157.70029299036
156.12832198161
154.46218191919
152.70142980025
150.83282822994
148.84731523528
146.72855505792
144.463855401
142.04450214044
139.43557324846
136.54485358673
133.09845656467
128.44925855514
121.38686666706
109.84131266407
465.72151189881
923.07953177794
1349.7240490713
1819.0389169574
2236.164129505
2668.2232492457
3070.7008934091
3458.7566269512
3837.1213202882
4213.3154441175
4501.8386373035
4797.7810890971
5067.5543704851
5288.2642790907
5458.6603218299
5566.1171252551
5615.4170628354
5614.958658617
5571.3228634569
5492.9787299087
5390.3996866351
5271.4819929564
5139.7435158877
5001.2533940074
4860.3203575344
4719.0341050365
4579.2019087559
4442.6420099169
4309.9552088506
4181.7658951717
4058.4106981016
3940.0639556155
3826.656046164
3718.1445778468
3614.5089122297
3515.4734437376
3420.9525589541
3330.6724726192
3244.4773092477
3162.1096961439
3083.4227314638
3008.1881409045
2936.2240939949
2867.3645196786
2801.4183828346
2738.2538688875
2677.6796612904
2619.6009878827
2563.840904339
2510.3071766556
2458.8512486238
2409.3779855362
2361.7793459315
2315.9636004878
2271.8380266031
2229.3074876519
2188.2938761014
2148.7199536674
2110.5158291357
2073.6144323901
2037.9534178937
2003.4738121937
1970.1193297707
1937.8375404071
1906.5780999558
1876.298707016
1846.957850836
1818.5038579232
1799.8581032635
1652.6487290368
1339.0242276379
1241.0950695689
1163.5289938597
1094.0353205812
1031.1696867716
974.0170453722
921.76054202156
873.71941551684
829.34477438922
788.20310856981
749.93578245627
714.20863680287
680.66031963602
648.87891207866
622.1472772122
592.2561915132
562.40280210807
531.74092621361
499.45177363261
464.94564707625
428.2255367019
390.11166906127
352.02976062874
315.49369833094
281.69429642535
251.62217312747
226.25855990232
206.44857162114
192.35790247005
183.35699894264
178.19958313672
175.50022116447
174.10878678612
173.305528937
172.65192881483
172.21753535893
171.84144049762
171.51254113698
171.21668052002
170.93527828407
170.64299535863
170.3143482601
169.9303085564
169.44883508038
168.92161583698
168.29769605967
167.58034881563
166.75564925401
165.823733362
164.78694264596
163.64682104638
162.40655855613
161.07136893069
159.64406570027
158.12320585064
156.50660664513
154.79079628041
152.97071159382
151.04422372159
148.99528035726
146.81056961527
144.47063645335
141.96213396418
139.28205531359
136.41197176152
133.30235583749
129.75596580152
125.26030789486
118.79198214872
108.57199911815
886.07303985589
1720.0450918986
2405.7904344336
2958.4411281468
3330.640305571
3657.7126052312
3918.668854011
4160.9825911571
4380.6606287503
4588.9929005089
4810.5806325471
5028.8349247657
5226.8378748862
5391.6627789685
5515.2089063451
5594.7353423079
5625.5275013466
5611.3548151382
5559.9335863039
5478.727445774
5374.3883348313
5253.351138154
5123.0586326717
4985.9637249658
4845.8088813139
4705.4174641801
4567.0036329298
4431.3880096379
4299.6536915306
4172.3510486594
4049.8256622745
3932.1322114196
3819.4334646161
3711.5375443287
3608.4043755155
3509.8422171754
3415.7579102762
3325.8559537537
3240.008063317
3157.9645693339
3079.5750481414
3004.5953987713
2932.8933151841
2864.2493336179
2798.5257690802
2735.537944617
2675.1567042453
2617.2337718222
2561.6330903406
2508.2342241612
2456.9082109062
2407.5575574688
2360.0673290064
2314.3519054593
2270.3158746216
2227.8751755874
2186.9447300128
2147.4474851299
2109.3134218268
2072.4769402748
2036.8769460802
2002.4547792315
1969.154371422
1936.9227607025
1905.7100983356
1875.4728389542
1846.1738824619
1817.7471920731
1801.4386618552
1639.3609279517
1336.2382976145
1239.3620903553
1162.0214675644
1092.6964110826
1029.9849214242
972.97096502245
920.83897775587
872.91359515857
828.6471647645
787.60824498597
749.44037764104
713.80884020135
680.35340929601
648.66336897186
622.01926541108
592.21630807148
562.45877664332
531.90381990688
499.73366320659
465.35353404066
428.75160891536
390.73194284422
352.71132495504
316.20659592323
282.41398517681
252.32378939442
226.90937910858
207.01673007694
192.82452339226
183.72095088039
178.48051404915
175.72591871418
174.30445192335
173.48662188531
172.81944179772
172.36776933372
171.9701253512
171.6157062367
171.29060738001
170.97566562559
170.64554313323
170.27430879169
169.84184438178
169.30885717454
168.72105740552
168.02717395292
167.22781510259
166.30869839006
165.27227736321
164.11959163915
162.85257809894
161.4746855005
159.99157209779
158.40587628344
156.71534699527
154.91723436832
153.00652184596
150.97813860524
148.82584210744
146.53087733869
144.07285323895
141.42929170646
138.58736412077
135.55220848228
132.33111611023
128.93040970342
125.25080306563
120.95433503884
115.28470036378
106.8289878449
4224.0043760704
5007.9134587989
5052.4242723292
4920.1470513079
4827.9663984681
4791.6552421521
4799.3682892346
4826.3887963143
4907.6173900855
5005.1224369397
5131.5828144042
5261.0122651722
5386.5415274458
5496.1663060949
5576.8069023662
5623.0552473175
5632.4036393927
5605.6403049799
5546.4284879479
5460.7395512732
5354.7918440411
5234.2180276121
5103.1601602951
4967.4420492342
4828.8791982146
4689.9645091544
4552.4674519862
4418.3199547691
4287.8538635175
4161.5567881564
4039.9047207168
3923.1692711997
3811.1843269511
3703.9721153464
3601.4613023469
3503.4767557283
3409.830988003
3320.3897056021
3234.9372963746
3153.2648658478
3075.1840640086
3000.5223700997
2929.0944578223
2860.7082491926
2795.2141773057
2732.4454256908
2672.2698349644
2614.5258096465
2559.0985535791
2505.8529633543
2454.679083228
2405.4612522374
2358.0972159333
2312.4945012769
2268.5627513904
2226.2211066949
2185.3820562683
2145.9705289315
2107.91638839
2071.1553060001
2035.6251288812
2001.2670712141
1968.0267320829
1935.8527475163
1904.6956483814
1874.5106852708
1845.2566850121
1816.85731552
1803.9150611891
1623.4132632927
1332.9609886717
1237.2531154613
1160.1737760997
1091.0556585776
1028.5327740641
971.68787082109
919.70791206322
871.92318629258
827.78902295714
786.87596812666
748.83007961519
713.31586686174
679.97429170044
648.39593425642
621.85750430264
592.16501155952
562.52662088755
532.104846738
500.08294286976
465.85990728366
429.40560549961
391.50510059038
353.56338050878
317.09953019709
283.31653289264
253.20463686846
227.72791680337
207.73306843417
193.41403164743
184.18226451273
178.83720621825
176.0121178226
174.55222412242
173.7166469186
173.03366536497
172.56134981704
172.13782795644
171.75244868021
171.39076499066
171.03393152552
170.65662168482
170.23255824567
169.73957993484
169.14176076767
168.4782853109
167.69835615262
166.79548589881
165.76115207832
164.59539895535
163.2992470589
161.87425389736
160.32422521846
158.65514575159
156.86964177452
154.96430691429
152.93578427186
150.77721517886
148.48403910244
146.04670338392
143.43710741261
140.62692370301
137.59104980966
134.32100917805
130.83643807647
127.18157898148
123.42820950581
119.59494556454
115.55989017
110.88254307903
104.5796881141
17932.238975982
10796.2297448
8405.6894979294
7117.5070603944
6337.5675031399
5875.08137558
5624.176122685
5483.8660866787
5417.6197687124
5404.7499015093
5424.3770976466
5468.5979294195
5524.8914340207
5581.2918280904
5625.43942282
5647.3076042687
5642.8496208535
5609.2973396063
5548.3091824768
5463.7173588666
5360.0712138284
5242.0441639537
5114.3792025579
4979.9375694131
4843.1522269157
4706.1703698814
4569.9494285152
4436.1127772684
4305.9850707012
4180.1125825327
4058.4461294459
3941.3483396405
3829.1047943519
3721.6007025764
3618.6304603651
3520.1504668378
3426.0567414175
3336.1126408685
3250.1317230603
3167.9572252395
3089.3970199613
3014.2482587836
2942.3356387725
2873.4984266615
2807.5708788996
2744.3819095249
2683.793132533
2625.6613625212
2569.8648114783
2516.2633524253
2464.7458417878
2415.1973961134
2367.522244039
2321.6217235139
2277.4004996116
2234.7765217187
2193.6693990532
2154.0057825286
2115.7102596505
2078.7157430131
2042.9605212145
2008.3871796221
1974.9408968924
1942.5677733387
1911.2182060355
1880.845075146
1851.4062542079
1822.8584270013
1795.2065567342
1757.4212586603
1363.8831525331
1255.4895147306
1176.3600727432
1105.6864264248
1041.8304985578
983.85126285717
930.90525952289
882.29608879355
837.45034500031
795.91902981279
757.33073865957
721.35650546353
687.64262247
655.79880420271
621.66226371554
592.10134557528
562.6049467921
532.34212697716
500.49711576861
466.46213298099
430.1859356019
392.43053405423
354.58540026531
318.17190814877
284.40214849614
254.26574058973
228.71651034014
208.6010592284
194.13092298154
184.74559608762
179.27365891108
176.36189966176
174.85265641679
173.98974998783
173.43102429536
172.92304805818
172.4551880293
172.01427359322
171.58690254281
171.15511197718
170.69343394172
170.17503089785
169.57414325832
168.86065467181
168.06079683825
167.12226936987
166.03293982034
164.78931828948
163.38859060007
161.83028364325
160.11659878949
158.25123653721
156.24044025936
154.08638307749
151.78392760759
149.32743381256
146.71189639147
143.93049847364
140.95553719344
137.75159685455
134.27985879778
130.51340644594
126.4636630368
122.19654199321
117.83332770061
113.54583198902
109.55091463121
106.03627438738
102.95232444749
100.40387767129
11155.147716112
12571.385979866
10530.632978708
9122.9917736018
8128.4362672785
7415.1545365818
6890.4491012014
6488.0557611398
6249.3645039792
6067.9572486957
5934.123476468
5848.5618546956
5793.0484670325
5754.5895091779
5721.4140803233
5682.7698731051
5632.3164269757
5566.7011276206
5484.1092200874
5385.9118732701
5274.9757733658
5154.2342822066
5026.7016061714
4895.1931161469
4761.7666897074
4628.051609788
4496.0898506937
4367.162071661
4241.3383968933
4119.3315253412
4001.4560809117
3888.2057181689
3779.3137337928
3674.8508059926
3574.7543840619
3479.0293091208
3387.3825957505
3299.6932862867
3215.8040492376
3135.5846272473
3058.8221891937
2985.3310137166
2914.9535373405
2847.5460054219
2782.9441147553
2720.9894410601
2661.5480980138
2604.4929848791
2549.698055454
2497.0347089597
2446.3917147401
2397.6666196611
2350.7634448034
2305.5868506829
2262.0457269854
2220.0580797896
2179.5488584579
2140.4479009837
2102.685878404
2066.1971483524
2030.9208866034
1996.8004200163
1963.7830490744
1931.8177694563
1900.8554539864
1870.8487852114
1841.7565900216
1813.4929488273
1821.5676704762
1564.1601066953
1320.4688440677
1228.7383345392
1152.685097486
1084.4056760192
1022.6384946108
966.46769236293
915.09597734129
867.87382542768
824.27292478796
783.87049263673
746.32069045834
711.28443673454
678.40655817096
647.28283149622
621.16890259797
591.93296609799
562.78632052032
532.91562337152
501.5086178958
467.9417558741
432.11400412667
394.72830224307
357.13286563453
320.85195702331
287.12340894515
256.93187512777
231.21081682604
210.80267373206
195.96151454379
186.19464418822
180.40222183252
177.2677918071
175.6328165417
174.7069755954
174.15289109768
173.59590213905
173.06028085717
172.53065703805
171.99443783084
171.43588838421
170.83031960938
170.15070036709
169.36802286292
168.45654981332
167.42503079052
166.21227665827
164.81549161921
163.22400545758
161.43179419419
159.43823544435
157.24463839322
154.85124925231
152.26245421418
149.47557911128
146.4831425318
143.27697897115
139.84458474601
136.16272278704
132.18936687534
127.87545234086
123.19008361173
118.14234785379
112.80781552253
107.32797099916
101.91636162964
96.928531296563
92.84443497252
90.262528703475
89.865381643233
93.463597741707
8617.662120911
10986.837592072
10273.616031521
9348.3976840789
8577.0305274208
7964.2012303006
7464.8273551058
7059.6563454532
6714.715325718
6444.5898160788
6247.4062474019
6088.2582226415
5954.6723122622
5849.8576570126
5763.3217833764
5684.3645655524
5603.9362875214
5517.8209133524
5423.1401997419
5318.9215004946
5205.8701092788
5085.9355193795
4961.0484277484
4833.155469204
4704.0842297153
4575.1841610497
4447.777926671
4322.747345234
4200.7569901863
4082.5075655202
3968.1128442517
3857.748700208
3751.5472489339
3649.4623113147
3551.6552125973
3457.8754428602
3367.9965258022
3281.8816806557
3199.4503709096
3120.5286050355
3044.909459189
2972.4580517036
2903.0299420159
2836.4900257647
2772.6547340233
2711.4087990416
2652.6090396269
2596.1456057069
2541.8867155586
2489.7130010707
2439.5219778814
2391.2136687413
2344.6967735856
2299.8715232151
2256.6551087204
2214.9679373926
2174.7372733999
2135.8946321109
2098.3699014189
2062.1026524332
2027.0338583684
1993.1076520778
1960.2721607262
1928.4761229722
1897.6703719996
1867.8144921141
1838.8602122345
1810.6584307033
1844.6917018486
1517.970293862
1310.1811161277
1221.3255476055
1146.1595611859
1078.6075924471
1017.4873745049
961.89217726299
911.04223262479
864.30514867915
821.16732324433
781.21139452204
744.09582707144
709.478540271
677.00678228649
646.2808765764
620.5338786355
591.70077969343
562.98687846181
533.60192206494
502.74056080014
469.76169077133
434.50626525906
397.60125430358
360.33784116276
324.23945188698
290.57506768755
260.32747028396
234.40730724051
213.6470825264
198.3536716372
188.10998861969
181.90675905748
178.47795526954
176.6707851029
175.66076656238
175.11155754549
174.50576537316
173.89926526115
173.27192414275
172.61141985528
171.90398473224
171.12646982737
170.25291650195
169.25427428765
168.10640819984
166.78878738852
165.25308811865
163.49310403194
161.4956096373
159.25369700601
156.75878321178
154.00317669409
150.97986973314
147.6820679648
144.09198961264
140.19417898816
135.96536466067
131.39501925325
126.44945626049
121.08726749555
115.27142745412
109.00047301099
102.39260781713
95.677815011982
89.201420142802
83.368954180033
78.672578092155
75.628088797812
74.938840564765
77.717808095968
87.987764791393
7508.1596351491
9239.1804628838
9362.2302456188
8878.9246836655
8347.0175014941
7881.9374961894
7477.7321592843
7124.1418010658
6817.9797147885
6549.0138236158
6326.6860205261
6142.750963103
5998.6667469254
5866.3780891761
5750.5195293999
5647.0780323102
5548.0310161867
5448.0969730496
5345.3590019544
5237.6851148146
5124.570982693
5006.6183184902
4885.2385830402
4761.7756154991
4637.5509756836
4513.749771002
4391.2550568059
4270.9668682952
4153.5154215335
4039.3050850359
3928.6454458905
3821.7537941483
3718.7655401783
3619.6408582697
3524.3588927479
3432.8247254206
3344.9829190212
3260.8192453599
3180.0937866692
3102.6784151882
3028.4376676126
2957.2383524274
2888.9754534668
2823.4468182508
2760.5514680291
2700.1440985627
2642.1278292108
2586.3695890336
2532.7453291653
2481.1584092074
2431.5020625753
2383.6929909107
2337.6289522571
2293.219781816
2250.3866949137
2209.0537560632
2169.1543580276
2130.6162999053
2093.3743208908
2057.3680649167
2022.5405013381
1988.8405680034
1956.2153528979
1924.6130763053
1893.9886808006
1864.3023993028
1835.5125492636
1807.3744800841
1878.2986487421
1472.5350846295
1298.5950138419
1212.5818453802
1138.4656977137
1071.7683929564
1011.3997583949
956.47311992393
906.23316152652
860.0664187026
817.47497564204
778.04749779469
741.44482787629
707.32199484689
675.32844944546
645.06988343652
619.75088590209
591.39176853263
563.18671353948
534.3735000444
504.15808765164
471.88224115421
437.32311105804
401.01576920013
364.17673631413
328.32076548753
294.75113496574
264.45646228216
238.32284198057
217.16543027039
201.34998865836
190.54216713484
183.83668343353
180.03378073514
178.00016668027
176.87612856436
176.32801007853
175.67792306073
175.00833824631
174.28907537493
173.50374703094
172.63895093336
171.67275585021
170.58131985331
169.33870719228
167.91990755402
166.27759768668
164.37499988346
162.20654873211
159.76848001496
157.04197534874
153.99879328488
150.59203423327
146.76591578619
142.48453549718
137.74579046854
132.54493845085
126.90829518013
120.84015772853
114.31611630297
107.32005470875
99.932682529685
92.320524161984
84.809001824394
77.931200362008
72.168608609842
67.909278026097
65.422775745135
65.015318145751
67.173842636078
73.257195944109
89.787391459516
7050.4534617852
7911.5523977887
8358.2713297641
8232.5029799203
7902.1216811406
7567.0650322531
7254.995780265
6973.414416858
6712.5168691304
6482.641636001
6270.9452964337
6092.8522183452
5935.0623546974
5803.8576619143
5681.4981993307
5567.7692267881
5459.898398071
5355.5235489015
5249.8699221559
5142.0069505705
5031.0468505782
4916.8777559576
4800.2500549386
4682.0978139403
4563.4001355199
4445.1493780372
4328.1197227359
4212.9677054063
4100.3078965502
3990.6021208755
3884.1312940051
3781.0569349114
3681.4782753478
3585.4710227285
3493.0657772628
3404.1877124266
3318.7403561159
3236.6704882278
3157.831994336
3082.1342135995
3009.5079228602
2939.7527697333
2872.7604888304
2808.4106585002
2746.5742849298
2687.1728705939
2630.0523321734
2575.1031207127
2522.2239398789
2471.3117382301
2422.2925278309
2375.054436917
2329.5136963985
2285.5875546295
2243.198983956
2202.2839171135
2162.7657209885
2124.5803355585
2087.6658820402
2051.9630207363
2017.4209178156
1983.9831270068
1951.6002025785
1920.2273752215
1889.8260687735
1860.3471910944
1831.753149657
1803.7781518822
1900.6547856518
1431.0365955428
1285.8515263871
1202.5386784862
1129.6213575923
1063.9042545915
1004.3921876437
950.22867373188
900.68856244181
855.17876815361
813.21726893673
774.3990500666
738.38443605024
704.8269678322
673.37810457732
643.6499788578
618.81344465199
590.99158984172
563.36315361808
535.19900686199
505.72121238076
474.25712720152
440.51810634256
404.93093440433
368.6201122102
333.07794175338
299.64350106405
269.32021404656
242.97218331406
221.38863166153
204.99425315063
193.54549257235
186.24594102148
181.98690798589
179.66077351979
178.38161470554
177.82256429384
177.13205221865
176.41606140329
175.62355627858
174.73070039503
173.72031522529
172.56892329596
171.25367607068
169.75072699374
168.02460653096
166.03098031067
163.72032429276
161.12739439546
158.23616375275
154.98389900084
151.26293404693
146.97013974184
142.05845845226
136.55553578115
130.47394454345
123.78502652777
116.61000659632
109.01117236713
101.02985248815
92.791669809787
84.630297064295
77.163676964837
71.111941530134
67.014736766248
65.062019309439
65.080383077838
66.708009293749
69.781158591033
74.715131321294
83.347865195672
102.90115744802
6976.7524609261
6945.8650124182
7446.6759878685
7559.034763348
7400.801655519
7170.7119534906
6937.7022565717
6717.6579277776
6507.549299736
6310.9309308829
6131.6784716793
5965.5292248187
5819.0338228447
5689.0089796212
5570.5500753873
5459.3051885091
5349.2748814686
5243.7258638959
5139.5308205722
5034.6100289073
4927.5848458013
4818.4157450374
4707.4741373027
4595.3382854753
4482.7792112579
4370.5604677131
4259.3792468544
4149.7929544302
4042.2923991811
3937.3335574822
3835.2272133081
3736.1788697452
3640.3103963066
3547.6795594072
3458.3219921775
3372.2296488576
3289.3448769385
3209.604209947
3132.9131840457
3059.1695441394
2988.259205936
2920.0566616631
2854.5011744587
2791.4903887987
2730.8683888564
2672.5450579131
2616.4123964392
2562.3621128607
2510.3250268658
2460.194537128
2411.8705157944
2365.279321044
2320.3283712805
2276.9518130233
2235.0801051235
2194.6314482856
2155.5486306595
2117.7630608765
2081.2204688148
2045.8686082042
2011.6476880294
1978.5103026106
1946.4083225973
1915.2981762502
1885.1370123509
1855.8789386041
1827.4937107928
1797.8690912862
1850.3113832222
1394.3775875553
1271.9422995377
1191.266102497
1119.6455816303
1055.025678844
996.47657107697
943.17583794308
894.43042243995
849.66769257673
808.4205811866
770.29068201687
734.93592103852
702.00947501281
671.16529488255
642.02330893446
617.7171391849
590.48776694811
563.49486944264
536.04696211042
507.38723614286
476.83461571781
444.03584698639
409.29374822598
373.62659788377
338.4826255021
305.23566292538
274.91410432509
248.36396510992
226.34506334576