/*--------------------------------*- C++ -*----------------------------------*\
| =========                 |                                                 |
| \\      /  F ield         | OpenFOAM: The Open Source CFD Toolbox           |
|  \\    /   O peration     | Version:  2312                                  |
|   \\  /    A nd           | Website:  www.openfoam.com                      |
|    \\/     M anipulation  |                                                 |
\*---------------------------------------------------------------------------*/
FoamFile
{
    version     2.0;
    format      ascii;
    arch        "LSB;label=32;scalar=64";
    class       volScalarField;
    location    "0.00015";
    object      k;
}
// * * * * * * * * * * * * * * * * * * * * * * * * * * * * * * * * * * * * * //

dimensions      [0 2 -2 0 0 0 0];

internalField   nonuniform List<scalar> 
109340
(
6.910289611184
6.9066216150443
6.9082335875051
6.9110225470995
6.9113252422674
6.9076165421161
6.8993679207362
6.8871190106451
6.8717021781051
6.8528238934254
6.8306181167281
6.8052942373016
6.7770617223722
6.7461198869917
6.7126569257914
6.6768545107249
6.638889536834
6.5989344062841
6.5571584014068
6.5137261830111
6.4687957511545
6.4225158659443
6.3750244298152
6.3264466462799
6.2768926826357
6.2264542364036
6.1751991729278
6.1231643786624
6.0703457055244
6.0166813793276
5.9620234304312
5.9060833783231
5.8483128911898
5.7875950324487
5.7213381814791
5.6429949179006
6.9057263937178
6.9045609258362
6.9058627552001
6.9059716923108
6.9027442989465
6.8955396804548
6.8842326979074
6.8684983300738
6.84859370245
6.8249294022625
6.7977661212523
6.7673371534005
6.733877701003
6.6976218796209
6.6588011776372
6.6176426427592
6.5743699730871
6.5292039927929
6.48236290282
6.434059984651
6.3844998321994
6.3338727749181
6.2823514901032
6.2300884213391
6.1772127289275
6.123825472891
6.0699948704662
6.0157498378632
5.9610681581363
5.9058585213859
5.8499262476266
5.7929064203608
5.7341113042408
5.6721237520049
5.6036616627265
5.520416799273
6.9003347558316
6.9005162660484
6.9006085882322
6.8977038005457
6.8903469889636
6.8779944589574
6.8604388607311
6.8377994619833
6.8103347400376
6.7784279637501
6.7424659269806
6.7028160287789
6.6598434274169
6.6139133585313
6.5653891954899
6.5146308316097
6.4619924607068
6.4078285365231
6.352494788491
6.2963302825668
6.2396490338586
6.1827203776474
6.1257748997305
6.0690066322806
6.0125555542043
5.9565160867401
5.9009475481088
5.8458445322563
5.7911536647164
5.7367457119511
5.6823748296639
5.6276262716864
5.5717214052651
5.5130580896111
5.4479143326949
5.3663344330641
6.8892455746141
6.8947280077552
6.8931307843097
6.883740467126
6.8663813671448
6.8411031497004
6.8082124243925
6.7681727503334
6.7216098435202
6.6692875255947
6.6120492493003
6.5507662380916
6.4863109376678
6.4195356030703
6.3512795570657
6.282356874466
6.2135593484239
6.1458312300554
6.0798832963477
6.016327452292
5.9556336536724
5.898073963547
5.8437470693282
5.7926600684294
5.7447607786567
5.6999485933724
5.6579562898972
5.6186941242299
5.5820054192793
5.5476924391872
5.5154394821579
5.4847124513637
5.4544454066377
5.4222394378607
5.3818460740851
5.3140898757636
6.8768746191866
6.9038918611885
6.9108294013514
6.8974765379431
6.8632133513542
6.8095305283445
6.7396387643036
6.6576228526664
6.5679137689362
6.4749158588699
6.3826861499339
6.29509097283
6.2154719360697
6.1468242012591
6.0918935593327
6.0532721587073
6.0335101213755
6.0358567785962
6.0606333250624
6.10521996737
6.1659693120471
6.2398308072483
6.3244212690904
6.4179197606707
6.5189099276378
6.6262561862138
6.7389985255001
6.8562900037258
6.9781708686654
7.1038660114118
7.2315764047037
7.3589375239825
7.4826276459293
7.5955651090004
7.6778651968185
7.6563318175764
8.33699837991
12.369415446638
15.807718937565
18.425082874496
20.23086681239
21.355992942181
21.963751928349
22.203234959875
22.191110665151
22.022415677432
21.752087716022
21.422751394307
21.063385705903
20.693314493701
20.32534021514
19.968429577932
19.628313498251
19.308741532369
19.013319530997
18.745644316397
18.501210268266
18.277113479349
18.071873749315
17.884680273676
17.714971913109
17.562323826734
17.426451067114
17.307248863346
17.204857788377
17.119768268814
17.053063623447
17.006945930878
16.984774101711
16.994328579588
17.043969273673
17.124808899035
5.5390770503384
5.399508994468
5.2227726234684
5.009076006072
4.7596259939456
4.4733202333099
4.1546137636233
3.8107737973979
3.4515818911154
3.0926526022738
2.7485875173107
2.4636573881012
2.2188640563742
1.9914543072648
1.7839547087196
1.5960014315661
1.4292554333818
1.2831076575145
1.1557616755362
1.0454872365676
0.95008477380941
0.86692160989278
0.79458197770865
0.73165931779089
0.67630976882795
0.6278140286316
0.58586922015092
0.54656729079856
0.51327602416637
0.48248323340885
0.45461903791242
0.43063972142368
0.40730807894288
0.38782377871164
0.36822344716016
0.35192890900289
0.33534383127029
0.3215155607466
0.30743877792688
0.29558791265847
0.28364587418389
0.27331943154346
0.26325724213783
0.25399669277853
0.24543262283527
0.23702972143033
0.22959375724749
0.22212118884821
0.21556122838322
0.20908594037855
0.20306711838322
0.19734081140436
0.19191985928926
0.18676935442623
0.18186851753168
0.17719975675684
0.17275341686337
0.16851994474189
0.16449070322574
0.16065324418562
0.15699306950462
0.15349511884001
0.15014516182713
0.14692993096084
0.14383875322439
0.14086490289385
0.13800495979642
0.13525688235656
2.836540902014
3917.9754008318
3185.7919920143
2106.586049285
1480.527988134
1096.3969648935
846.14552594547
674.37706530409
551.1180667785
459.35580537968
389.02591252819
333.94486681116
290.14650543402
254.96408223621
226.49640952368
203.29502081887
181.9980801754
166.44964245916
153.27917633953
141.95229601061
132.10131779989
123.5042872895
115.99756028279
109.29817894991
102.8359097647
95.775804803031
87.200392191092
76.683645217119
64.730503738754
52.655140992887
41.867248267578
33.230234338468
26.891724263484
22.483552659584
19.44024913941
17.266262198006
15.361811668408
14.259869666028
13.413175529252
12.784133914795
12.333062852979
12.027270306925
11.840111729338
11.747405451543
11.721597949491
11.753551631119
11.863597871601
12.034463209446
12.251877364364
12.508470887414
12.788656085246
13.071469036408
13.340955733071
13.586015658867
13.797059150199
13.969065784664
14.102865418669
14.202957370186
14.274244928295
14.320680535237
14.344864098994
14.351278342171
14.345326160399
14.337275990178
14.336427106025
14.34927551051
14.383471501776
14.43912616768
14.508023617747
14.570736684138
14.609870895984
14.334089594651
5.4052860859543
5.2450886780307
5.0344229204991
4.7795849001439
4.4831890319972
4.1523543143595
3.796190531885
3.4259210830551
3.053124905927
2.6890606342103
2.3449610601572
2.0294813203628
1.7594699085105
1.5276364826711
1.3339146063023
1.1765345631048
1.050244144374
0.94960421571248
0.86599820853195
0.79567132440723
0.73574478953086
0.6839888964943
0.6388107561082
0.59887026102066
0.56312573351434
0.53084431050166
0.50148430136703
0.47455347968293
0.44968536457747
0.42700906615504
0.40609989286987
0.38700476716481
0.36933586289798
0.35301753252651
0.33786591013562
0.32377945627018
0.3106758741581
0.29848916065225
0.28713071139679
0.27656274466252
0.26668307136073
0.25748156275812
0.24880952893346
0.24069478550426
0.23299633130642
0.22578054265373
0.21893508214082
0.21251485370735
0.20642972656072
0.20069262522698
0.19523803731701
0.19005308333293
0.18511203532877
0.18039625415823
0.17589703440281
0.1715992928661
0.16749829819719
0.16358476021745
0.15985042566815
0.15628423097316
0.15287483053682
0.14960904042507
0.14647372898641
0.14345688366762
0.14054996308568
0.13774834515207
0.1350503594797
0.13224492577146
59.601928255776
4210.741764195
2852.7608146988
1913.6589339144
1364.1742833666
1021.928215792
795.87418268832
638.8358200891
524.99403727409
439.54309365992
373.6376981293
321.78976403834
280.43221877699
247.14063434372
220.15168196174
198.10676127871
181.96112390427
166.42756751158
153.26548442182
141.94439987725
132.09720004122
123.5015088044
115.9933581462
109.29285577595
102.83273520537
95.781168641377
87.221951883719
76.72611326221
64.792792888587
52.728697778983
41.940984702101
33.298152536676
26.949258902404
22.52968596845
19.476204148763
17.294092427162
15.379660164789
14.270007599722
13.416572834602
12.781415286921
12.324698033492
12.01354909315
11.82117832133
11.723674809133
11.694340596366
11.72085944023
11.824540982909
11.988982284925
12.199805291601
12.449150022837
12.722330972963
12.998382107939
13.261425843314
13.500415110107
13.705871924742
13.87280626374
14.001987020695
14.097853176271
14.165261071887
14.207811036296
14.228067484156
14.231145375292
14.221891733857
14.211109492664
14.207745138798
14.217890379181
14.248855289618
14.301329687333
14.368157474495
14.427457069336
14.440506711994
14.173579867736
5.2461841272644
5.0679257333526
4.832727069417
4.5519369697668
4.2361014388721
3.8981442272441
3.5479934626181
3.1951709891311
2.8491976464666
2.5127001820134
2.2067175202567
1.9249599218484
1.6752482100705
1.4591067256527
1.2751681228098
1.1215056577151
0.99515146419881
0.89150488056834
0.80373581355586
0.72923609236701
0.66618377947982
0.61281801255111
0.56737640072311
0.52848473808299
0.49500929297637
0.46587824621145
0.44017609251477
0.41735095212161
0.39690493189554
0.37843115062728
0.36174771490539
0.34653641365633
0.33265567808899
0.31974674094553
0.30774370063706
0.29643356454866
0.28582106844311
0.27579319642785
0.26640254592495
0.25754185407866
0.24925501157285
0.24141510862799
0.23404116979867
0.22702276201942
0.2203785530248
0.21405632351539
0.20806727764588
0.20239474571769
0.19700915924785
0.19190375145636
0.1870323510665
0.18238900245178
0.17793476369444
0.17366771716083
0.16957668372247
0.16565856855728
0.16190863191427
0.15832019572192
0.15488654121624
0.15159946391352
0.14844977763288
0.14542573869129
0.14251534879015
0.13970797057026
0.13699670031261
0.13437850212776
0.13185209664244
0.12924831284469
68.579949717154
4219.4716268107
2843.1282515728
1906.2835551572
1359.1635420455
1018.589545922
793.61628380928
637.27032754829
523.88385918362
438.74363519125
373.05820127615
321.36987098942
280.12966458581
246.92441865628
219.99853263114
197.99910402829
181.89282616561
166.38711226992
153.24549297896
141.94109921641
132.10763347077
123.5222891611
116.0205556064
109.32817355497
102.88236980747
95.857036613925
87.337568607118
76.888262884466
64.995508301726
52.950718070524
42.157377737516
33.493729322824
27.113967865483
22.662180862519
19.580257693785
17.374802773406
15.433082625817
14.302939695533
13.43155403456
12.780370609167
12.309233696723
11.984815813443
11.780028232602
11.671510295332
11.634235750503
11.649772932499
11.74013947873
11.892081695968
12.090430869903
12.326314430286
12.586513465794
12.850332476428
13.101751559666
13.329720559488
13.524697965208
13.681709096396
13.801555289934
13.888606899984
13.947620382572
13.981468537482
13.993007777921
13.987911878876
13.970661878702
13.953250929645
13.944283181231
13.948643147592
13.973124063636
14.019210465927
14.080832156411
14.134164317757
14.107627148367
13.845471672262
5.1635251222462
4.9025403145926
4.5617742446793
4.1938767981294
3.8450396433289
3.5078657282066
3.1869371340883
2.8799890399452
2.586841570436
2.3055522642432
2.052445650925
1.8129344884294
1.5938369787502
1.4000783042587
1.230564043318
1.0861925656901
0.96561996138943
0.86454460990219
0.77789646223374
0.70379022519003
0.64007973090128
0.58515040803414
0.53818817403404
0.49784297037753
0.46294619403326
0.43272787725742
0.4064682809895
0.38341780602674
0.36308815884021
0.34505595627397
0.32899592722485
0.31460379360936
0.30163317381866
0.28985088405851
0.27904534033655
0.26911267720259
0.25992138432901
0.25140857974423
0.24348470512132
0.23610537148532
0.22921780006516
0.22275845751069
0.21665766519684
0.21084346494971
0.20529216706525
0.19996624851315
0.19489777496876
0.19005541535467
0.18545207629949
0.18105075895575
0.17684385039837
0.17280616715359
0.16892017604673
0.16517614704789
0.16156742419643
0.15809788021007
0.15476408667028
0.15156366402621
0.1484916224842
0.14554231646872
0.142707817497
0.13997820855693
0.13734315096878
0.13479364159484
0.13232399278888
0.12993227316903
0.12761890561186
0.12528345184762
85.941235623182
4220.0157903689
2826.4921157586
1895.0088802952
1351.8265247967
1013.7722293854
790.37095174853
635.02047743165
522.28689842907
437.59232358723
372.2226900898
320.76383998579
279.69237022639
246.61158560934
219.77692484318
197.84451231939
181.79262105979
166.32626800772
153.21664253195
141.93936035412
132.12873910237
123.56152683021
116.07367993305
109.39633062691
102.97461746499
95.990654675969
87.532239054584
77.153549535909
65.320909500348
53.305687706103
42.505110502549
33.807009427956
27.378125537641
22.875086149115
19.747679215211
17.504763756261
15.520373937136
14.358670985137
13.458870372706
12.782246077071
12.288262289772
11.942942849764
11.718628108457
11.592335971141
11.542008877691
11.542768744918
11.612855049621
11.746192196979
11.925792188984
12.142163590106
12.383084901659
12.628808205611
12.862894277098
13.074430872249
13.253851389436
13.396168797994
13.502206631057
13.576181084056
13.62231106886
13.642903961164
13.641960354236
13.623566513265
13.59503157603
13.568293244609
13.551204874606
13.547501606073
13.563299262921
13.600133744614
13.651801030947
13.691632221369
13.639320100588
13.388043341979
7.092062035654
5.8856531163235
4.7919614766417
4.0384851612241
3.4929589376704
3.0573942312712
2.7458432698224
2.5180564823226
2.3119155366818
2.1028393565779
1.8954077155791
1.6959522008971
1.5111636243651
1.3426223696874
1.1914550288981
1.0586013729035
0.9446217814078
0.84619425776803
0.76115005791668
0.6879332071869
0.6249681686591
0.57077691360627
0.52370305322789
0.48296110059369
0.44756083149685
0.41667002157828
0.38956469998773
0.3657814459825
0.34481804320242
0.32626079413626
0.30977521917351
0.29510282458241
0.28194796265433
0.27011498286155
0.25939004982019
0.24963919589438
0.24071800195277
0.23255810380326
0.22504535701472
0.21812934290985
0.21173051338311
0.20580735792882
0.20026913684581
0.19507073045095
0.19015495065555
0.18550728377755
0.18110882116991
0.17694310441932
0.17299820983388
0.1692444166685
0.16566243526973
0.16221628533225
0.158895613875
0.15567938694671
0.15256484354843
0.14955410988478
0.14665010507535
0.14385371651402
0.14116164389003
0.13856944165758
0.13607053901667
0.13365699922396
0.13131982160569
0.12905075702693
0.12684478935373
0.12470137587015
0.12262237059104
0.12060657293841
112.38190653389
4211.2203015632
2801.8967406407
1879.6427518794
1342.177404784
1007.5163238755
786.1690644531
632.10618852548
520.21521400269
436.09622049916
371.13501404629
319.97344829773
279.12090365864
246.20189862507
219.48620852348
197.64172733992
181.65849429887
166.24351524836
153.1769159469
141.93668651971
132.15767768488
123.61607472026
116.14895345903
109.49312811159
103.10423480923
96.175373679487
87.798346399808
77.513999603388
65.761813459888
53.787425288103
42.979865141508
34.235831058189
27.740992699227
23.168977162866
19.979774217555
17.685305305524
15.644646891088
14.440482996621
13.501671781553
12.789779174817
12.264025003996
11.889780806729
11.638688907419
11.487769306119
11.416131839821
11.400875839927
11.443680807054
11.55170785197
11.70622297811
11.89669917128
12.111792058629
12.333012067766
12.54354256531
12.732824970971
12.891361734539
13.014112952462
13.101859137943
13.158500915847
13.187303924963
13.191281673304
13.172437780966
13.137436928712
13.095977432121
13.058728803509
13.032125421271
13.019482299947
13.025325662178
13.050879249145
13.089181981708
13.11259825284
13.045236481478
12.813755765959
11.402849070843
7.5792346190784
5.7983837100766
4.5690431245581
3.7208287922135
3.1203876294268
2.6728475246967
2.3438266786533
2.0823736350345
1.8972220829197
1.7504275951037
1.597059622927
1.4393990817405
1.2891191401966
1.1537595484161
1.0336517534909
0.92685875348933
0.83212152302581
0.74912579861752
0.67703649491716
0.61466482392645
0.56078384412369
0.51430213496398
0.47375578578196
0.43838765205647
0.40740526940989
0.38016540453175
0.35602300007099
0.33466182542633
0.31570998207958
0.29881846053689
0.2837006274348
0.27016936000184
0.25799561615913
0.24698739136986
0.23700878854923
0.22794953175747
0.21969128027693
0.21214614891153
0.20523945792817
0.19890203264623
0.19306536435868
0.1876606028696
0.18263334651736
0.17792519556503
0.17351248900166
0.16936680312585
0.16548086550705
0.16182466954174
0.15837637067547
0.15510792230869
0.15199443710019
0.14901707369769
0.14615646127433
0.14340620438173
0.1407587863329
0.13821432809271
0.13576890797855
0.13341918821777
0.13115816489015
0.12897838747108
0.12687097797393
0.12482487417279
0.12283099318058
0.12088585228914
0.11899006694211
0.11714659017252
0.11550613167477
149.17335969045
4192.7778194454
2768.984987484
1860.2786649988
1330.311620913
999.88609648003
781.05046886006
628.55144482479
517.6829265205
434.2634170908
369.79951074432
319.00065782675
278.41577937544
245.69498109965
219.12546550905
197.38932510473
181.48889501954
166.13748880753
153.12459390987
141.93092673486
132.19208431855
123.68347885408
116.24327780752
109.61485394251
103.26694407835
96.406433546941
88.130472150405
77.963872328718
66.313135389472
54.392033798422
43.578742431015
34.779493121491
28.203777821694
23.546708846699
20.280492385791
17.919812682985
15.811369998697
14.553710991068
13.564954972739
12.807309064705
12.240081787396
11.82817402882
11.542366240323
11.359183208633
11.258695259549
11.222185711341
11.23401911983
11.309072338215
11.43212106264
11.590118450056
11.772533078522
11.962496563317
12.142861709942
12.303717338627
12.435868620621
12.534126821297
12.598924923761
12.634017081809
12.642340350892
12.624482699525
12.58416685685
12.531525125414
12.47739846357
12.430182805642
12.394563656796
12.373454947058
12.369604339663
12.383457368717
12.407646099211
12.415621233914
12.341909968793
12.139449104333
6.3610101301946
6.8166136307248
5.1300354358079
4.3974294361587
3.7622703084936
3.2343087062585
2.8240782344329
2.4963414363449
2.1742269687006
1.9092882067962
1.701337466336
1.5353681572831
1.407998389578
1.283475844132
1.1569428495902
1.0392046683858
0.93354230815476
0.84031716441353
0.75805292392617
0.68541389746409
0.62182625656341
0.5664990888308
0.51845625757315
0.47684418049113
0.44044789400719
0.40846203731676
0.38036263272307
0.35553761307804
0.33347004075165
0.31377316207952
0.29620672674425
0.28046884629085
0.26629613955604
0.25350825935801
0.24195912936197
0.23148183649677
0.22195131085635
0.21328432239268
0.20538865266318
0.1981681804574
0.1915544134768
0.18548804217315
0.17990373390787
0.17473585435157
0.16993189953171
0.16546052954914
0.16128889304166
0.15739822861464
0.15376012155265
0.15035661615522
0.14715672385088
0.14413536022166
0.14126693998289
0.13853364954008
0.13592701399443
0.13343639149686
0.13105684054098
0.12878188729668
0.1266081046663
0.12452950523972
0.12253832787329
0.1206247467514
0.11877778023609
0.1169874552268
0.11524629511559
0.11355134922494
0.11190291799948
0.11012435078211
14.732077370915
4276.4027503817
3043.2075948938
2015.5683085414
1423.5022182354
1059.6531870392
821.64380302787
657.48938912626
539.16351387039
450.73917507654
382.75996083564
329.38287513908
286.83796588199
252.58294558885
224.79823561427
202.09885391748
181.28220897687
166.00685115975
153.0581073822
141.92026497254
132.22994692085
123.76144177705
116.35390172079
109.75852779403
103.45936542405
96.679598449028
88.523552149466
78.497838925108
66.970210707287
55.116110675328
44.29984145319
35.438124210259
28.76838700118
24.01160861027
20.65482537217
18.211888517105
16.143215049222
14.785667878844
13.703089555917
12.858142184606
12.211035094836
11.726554521436
11.374378421995
11.129621149031
10.972227336409
10.885726296208
10.853325093148
10.863604410478
10.928374235791
11.025803594401
11.146955104568
11.277962641406
11.401127924498
11.508120304688
11.590919447634
11.643692480659
11.665547205427
11.663443022383
11.63333017397
11.576943116017
11.504217669855
11.427504952135
11.357264760753
11.298280634974
11.252360558979
11.221840707862
11.206769676998
11.206331042121
11.213242180739
11.204615428173
11.135077440896
10.990296575904
4.1622847349226
3.419871925869
3.1709956452353
2.9314306360462
2.7930032222262
2.6360831153054
2.4566110993437
2.284176036824
2.1127074075928
1.9382120306426
1.7372889245136
1.504247909636
1.3288019094653
1.1859029284935
1.0723734459935
0.97624319671872
0.88282452873548
0.79735635925067
0.72092656125333
0.65385457933565
0.59531253146611
0.54401893448397
0.49885856078806
0.45906394404011
0.42404954887527
0.39325403366741
0.36603654753666
0.34186464360604
0.32045707459379
0.30137427709928
0.2842763209402
0.26882397098286
0.25487427319282
0.24223130649815
0.23073287956569
0.22022326899912
0.2106393796359
0.20188497858757
0.19386881617079
0.18650250056684
0.17973084413096
0.17349998070651
0.16775054773135
0.16242783905814
0.15749324506211
0.15291425659589
0.14865918713068
0.14469900280118
0.14101086763944
0.13757257424435
0.1343583766006
0.13134143466117
0.12849870799858
0.12581549396163
0.12328066852078
0.12088603583021
0.11862173451374
0.1164789889319
0.11445017203055
0.11252789360808
0.11070404389357
0.10896847880238
0.10730989669947
0.10571766728936
0.10418388890948
0.10270493330368
0.10128061792286
0.10091817302965
361.83852843297
4038.5080844149
2631.8633953875
1782.5287315537
1283.2202456187
969.63309745886
760.6742282499
614.31730649044
507.47919537323
426.83315380797
364.35250442166
315.00790627144
275.50224539113
243.58453569523
217.61067225295
196.31824641868
180.75027155021
165.66447673335
152.87529644683
141.87650679081
132.30749677885
123.93993916358
116.61431315771
110.10065565643
103.91972878248
97.334842305876
89.471359601567
79.794930275383
68.580260865775
56.906677459594
46.100671470446
37.101073373546
30.21169807851
25.217143780062
21.643740195839
19.012191014304
16.801785313682
15.27878528948
14.032541312527
13.028272383547
12.230844471697
11.607490266243
11.129069085053
10.768297681437
10.502862261023
10.314251656034
10.18651488936
10.108950105098
10.071615765375
10.061488276539
10.072862696189
10.098275713618
10.117918844003
10.126700438227
10.123720020764
10.101837456488
10.056845389366
9.9872723776259
9.8985251059862
9.7986122131658
9.7000783482225
9.613231892917
9.5435482827513
9.4927311206403
9.4653653798894
9.4636785508468
9.485740068277
9.5275901236856
9.5799973834684
9.6084584522097
9.5678438596493
9.4867964839182
3.6627019804967
2.0363860851094
2.0914239083872
2.0228937962722
1.997990674333
1.9805740999556
1.965125921884
1.92053899903
1.8697383390356
1.7899401321132
1.694962387523
1.5724743375258
1.3924372537413
1.2026290214759
1.0613395699831
0.94728623244673
0.85464578286416
0.7793491067704
0.70838447891696
0.64400301390371
0.58672689644677
0.53629609839766
0.4921025399465
0.45334625248528
0.4191460303198
0.38880210355664
0.36176427347506
0.33766699263131
0.31620316808655
0.29700245165322
0.27979151473631
0.26432140685693
0.25034837850482
0.23769255155654
0.22613767515366
0.21559060970866
0.20595147706097
0.19711986352551
0.18899257827341
0.18149682837555
0.1745863920974
0.16819545282264
0.16227191061756
0.15676835096168
0.15166196771713
0.14691116951557
0.14248697127658
0.13835719423639
0.13450261589056
0.13090301916226
0.12753324433631
0.12437014021034
0.12139310465099
0.11859059505078
0.11595095437672
0.11346487187765
0.11112278846513
0.10891488406114
0.10683292563076
0.10486708040841
0.10300845168408
0.10124807436765
0.099576026047977
0.097983397001671
0.096461938901165
0.095006553096454
0.093614696262641
0.096496806996333
728.04751510989
3896.6241900806
2521.8654812127
1718.6715117002
1244.031451718
944.19160836208
743.36798492957
602.11379699152
498.65438103911
420.35449515247
359.56489276481
311.46881883235
272.89623680778
241.67719233213
216.22505698886
195.32380061474
180.04630706389
165.19914114525
152.61083113703
141.78708111673
132.37109983334
124.13188291015
116.90986200376
110.49675071998
104.45769166049
98.104314401784
90.595108422873
81.352435109303
70.54134613311
59.119896122099
48.361998247004
39.22388749784
32.088488881123
26.817840245347
22.99055853835
20.142009349901
17.774881463539
16.056259531978
14.607262254301
13.395528771424
12.393733369178
11.576515623625
10.918198641009
10.393837680816
9.9784513273824
9.6510956887298
9.3926102894008
9.1869134444999
9.0201614842425
8.8817666103548
8.7621822340505
8.6523795680233
8.5452335507999
8.4373753503752
8.3270121831628
8.2158904224772
8.1036692740631
7.991774046061
7.8851730668766
7.7928539487117
7.7213933392538
7.6815249664741
7.6785533326742
7.7142324464433
7.8002474681011
7.9370727439125
8.1155793842434
8.3220555447751
8.5236678373533
8.6527812744888
8.6427095166671
8.5797398775214
3.4049971799607
1.5535490026944
1.4749666496791
1.4821969492452
1.4891988125265
1.509281195584
1.530968801643
1.5481352212087
1.5498102607426
1.5507942851223
1.5227129345367
1.4665158085717
1.3933397335216
1.2707777186416
1.1006468107606
0.95998243938502
0.85241776230421
0.7655530798014
0.6939257262291
0.63511544132815
0.58080213461418
0.53186105967246
0.4882140446059
0.449590594831
0.41556414331096
0.38552604781151
0.35887748346069
0.3351014989659
0.31381017659576
0.2946809077831
0.27744649891253
0.26188035821445
0.2477756963073
0.23497870747718
0.22335261592224
0.21276304965363
0.20309457818061
0.19421343833593
0.18605476539419
0.1785405091051
0.17159180216565
0.16514700361833
0.15914464154875
0.15356964173479
0.14837780593914
0.14354010502708
0.13901717710798
0.13478582887445
0.13082788690956
0.12711662086362
0.12363232685968
0.12035106264729
0.11726010625018
0.11434706398877
0.1116003153372
0.10901106313722
0.10656884449185
0.10426620138593
0.10209346064743
0.10004093673816
0.098099638535048
0.096260229753685
0.094515239225804
0.092857121387822
0.091278860165599
0.089775251426875
0.088342496032198
0.11218069048626
1512.0937688634
3709.8404192277
2398.4504920444
1646.8544188886
1199.6096762081
915.10221676424
723.41319777537
587.93401813838
488.32906898367
412.72430451496
353.88877569039
307.24266270542
269.75940800362
239.35989179785
214.52287412619
194.08516083464
179.15133563167
164.59027645805
152.24277849896
141.62911120171
132.397218624
124.31366157426
117.21733783034
110.92174134522
105.04281233101
98.947456225061
91.840759086403
83.105944369642
72.7884785928
61.703048301862
51.049732001917
41.796670710961
34.410479142556
28.84234646296
24.737559852904
21.655905436416
19.134573387449
17.209899497106
15.538211802097
14.083702882144
12.826597331475
11.753606167323
10.850592886721
10.098593245421
9.475525310265
8.9580146391127
8.5246503299973
8.1550377785091
7.8308167211727
7.5378943044127
7.2674004012002
7.0163308624005
6.78711473762
6.5838631517008
6.4090619386597
6.2626758424056
6.1432474759512
6.0513933388371
5.9943220400009
5.9798260406103
6.012308293379
6.1104617078713
6.287497696868
6.545876643899
6.8787982440023
7.2780593651735
7.7407734503505
8.231890888891
8.6811225752672
8.971825593318
9.01610748624
8.987927190661
3.5080966575107
1.3603737527222
1.1440701394704
1.1385626091475
1.1579414500893
1.1865331884659
1.2188736454069
1.2524089370129
1.2803387204001
1.2988985892027
1.320002248482
1.3109705160014
1.2746549502401
1.2296434930469
1.1413752095901
1.0148398360532
0.87664591037032
0.77445096729325
0.69426851145055
0.62884262569107
0.5739611394787
0.52787533502107
0.48580411588475
0.44792758596924
0.41407846382566
0.38396434765654
0.3572071848778
0.33341248810524
0.3121881312835
0.29317422935254
0.2760466837122
0.26053121713473
0.24642742006955
0.23358306423826
0.22186211802605
0.21115571740299
0.20137784598603
0.19242389063329
0.18420674803483
0.17664577994563
0.16964304642346
0.16315488237944
0.15713246232254
0.15152802840646
0.14630904525407
0.14142768891039
0.13686330188769
0.13259028177066
0.12857931684646
0.12480961107863
0.12125492294479
0.11790577870665
0.11474582807169
0.11176144518322
0.10894265067441
0.10627808203161
0.10376268039886
0.10138626936249
0.099138578175803
0.097010500314914
0.094992541318524
0.093078950517311
0.091261889946592
0.089533783788693
0.0878893636424
0.086323055382293
0.084829732221796
0.25479829453614
2637.7169899562
3484.759825528
2263.2794951988
1568.0364172832
1150.5273422004
882.70768513315
701.02033440026
571.91128830463
476.5888580074
403.99669439313
347.35562312144
302.34425493087
266.0941860868
236.62592587388
212.49087631251
192.58448939672
178.04465998793
163.81476145388
151.745687029
141.37523199283
132.35731408638
124.45600454115
117.50777186258
111.3462869212
105.64051694231
99.819344935786
93.147513877446
84.980684955213
75.242587787071
64.586617566214
54.111725878011
44.794972756049
37.175470055062
31.305641235908
26.912472471194
23.591470459721
20.930388388877
18.814856927493
16.931124783606
15.228977128409
13.688969740707
12.308559871768
11.091094589982
10.035397964247
9.1308811789568
8.3562261735602
7.6915428787783
7.1171263127357
6.6120112069336
6.1615118835708
5.7595209316769
5.40785904201
5.1125893715401
4.8795682327567
4.7097192810304
4.5983368231752
4.5467036186391
4.5507752334609
4.6201989068289
4.7711259840694
5.0134322649686
5.3608283087198
5.8296759116286
6.4579417688048
7.2612177003073
8.2128030464233
9.2223725638843
10.165151672914
10.895668221985
11.268959221941
11.293641587182
11.278187901176
4.1861061665023
1.2278791009349
0.98112752191094
0.91724759109942
0.93241371928539
0.96121435022724
0.9955824900823
1.030349228166
1.0657807838455
1.0965448048848
1.1221695030258
1.1434527954712
1.146186995277
1.1188777632557
1.0910187525363
1.0258496090062
0.92820757476397
0.80572879463781
0.70919943550379
0.63477124512293
0.57483122422301
0.52520094399126
0.48294066069555
0.44654054600963
0.4135147697644
0.38371419717017
0.35694988269078
0.33300950641083
0.3116143911722
0.29244073825176
0.27522698969993
0.25971896536169
0.24563836929715
0.23279868053004
0.22107413010589
0.21035447666836