/*--------------------------------*- C++ -*----------------------------------*\
| =========                 |                                                 |
| \\      /  F ield         | OpenFOAM: The Open Source CFD Toolbox           |
|  \\    /   O peration     | Version:  2312                                  |
|   \\  /    A nd           | Website:  www.openfoam.com                      |
|    \\/     M anipulation  |                                                 |
\*---------------------------------------------------------------------------*/
FoamFile
{
    version     2.0;
    format      ascii;
    arch        "LSB;label=32;scalar=64";
    class       volScalarField;
    location    "0.00015";
    object      nut;
}
// * * * * * * * * * * * * * * * * * * * * * * * * * * * * * * * * * * * * * //

dimensions      [0 2 -1 0 0 0 0];

internalField   nonuniform List<scalar> 
109340
(
0.00071888097944609
0.00049299961040655
0.00026605080997413
0.00022233785047752
0.00021537792340265
0.00021978368228678
0.00022797398902699
0.00024230105125318
0.00021118192836279
0.00018783969409945
0.00016936598288904
0.00015429701457383
0.00014174230705816
0.00013110996632497
0.00012198523890138
0.00011406672008437
0.00010712924982434
0.00010100087812031
9.5547863002439e-05
9.0664524862498e-05
8.6266194634479e-05
8.2284195328725e-05
7.8662191731852e-05
7.535349401258e-05
7.2319048401616e-05
6.9525917120957e-05
6.6946104553501e-05
6.4555636619223e-05
6.233382408962e-05
6.0262650505109e-05
5.8326232335733e-05
5.6510283154203e-05
5.4801423896364e-05
5.3185895126748e-05
5.1646035616784e-05
5.0151691637611e-05
0.00071052787007397
0.00034455018270097
0.00025240924314917
0.00023090060605708
0.0002293509964525
0.00023391951647689
0.00020944738178711
0.00018219722479843
0.00016102426490042
0.00014426202485279
0.00013069127942377
0.00011948687197216
0.00011008240963571
0.00010207823923912
9.518465374343e-05
8.9186577889007e-05
8.392100638244e-05
7.9262152682897e-05
7.5111398802559e-05
7.1390275284332e-05
6.803546201589e-05
6.4995235412248e-05
6.2226912049581e-05
5.9694984685948e-05
5.736971311733e-05
5.5226027061097e-05
5.3242665602559e-05
5.1401479917679e-05
4.968685384875e-05
4.8085227476182e-05
4.6584675052181e-05
4.5174496521851e-05
4.3844783323007e-05
4.2585880586634e-05
4.1387493084565e-05
4.0233193911696e-05
0.00041730428845227
0.00029406507595329
0.00025346676677966
0.00023791916552844
0.0001903327253645
0.00015868028606722
0.00013572774921363
0.00011843020072628
0.00010498674398479
9.4283259447923e-05
8.5585340979568e-05
7.839115422197e-05
7.2349287003035e-05
6.7207907099927e-05
6.2782541924563e-05
5.8935320721188e-05
5.55612902195e-05
5.2579208827067e-05
4.9925029090308e-05
4.7547116621675e-05
4.5403213317925e-05
4.3458630904499e-05
4.1684971347926e-05
4.0059009193377e-05
3.8561590293106e-05
3.717686024783e-05
3.5891658103332e-05
3.4694821148735e-05
3.3576909645949e-05
3.2529788857012e-05
3.1546324873039e-05
3.062022978838e-05
2.9745721798445e-05
2.8918001829157e-05
2.8135368431717e-05
2.739963029e-05
0.00023981646108893
0.00024224969999775
0.00015203383459949
0.00011067946968625
8.7066528036186e-05
7.1818885505906e-05
6.1191994954694e-05
5.337930812796e-05
4.7405661836787e-05
4.2698758790556e-05
3.8900795123091e-05
3.5776362403223e-05
3.3164262959506e-05
3.0950557953718e-05
2.9052654528323e-05
2.7409334554458e-05
2.5974155593882e-05
2.4710729815678e-05
2.3586521032193e-05
2.2573664432857e-05
2.1651447487425e-05
2.0805222000108e-05
2.0024413613913e-05
1.930120411658e-05
1.8629578112795e-05
1.8004689226077e-05
1.7422100315671e-05
1.6878600893535e-05
1.6371318442349e-05
1.5897711395377e-05
1.5455202746106e-05
1.5040016280815e-05
1.4646206531002e-05
1.4268860524613e-05
1.3909617314203e-05
1.3581999843423e-05
0.00014442296679189
4.7212397317941e-05
2.8708623974163e-05
2.0819549780681e-05
1.6472274719587e-05
1.3743275476834e-05
1.1886906347169e-05
1.0552984854904e-05
9.555313284639e-06
8.786664810569e-06
8.1813689416059e-06
7.6977798330209e-06
7.3083167162459e-06
6.994402885075e-06
6.7434071480242e-06
6.5464874704692e-06
6.3958244807402e-06
6.2783328231266e-06
6.1725743153875e-06
6.0670510082335e-06
5.9607672841696e-06
5.8571649476948e-06
5.7599044965894e-06
5.6715030263606e-06
5.5933608734033e-06
5.5261793057511e-06
5.4701379310366e-06
5.4251099745705e-06
5.3914656792224e-06
5.3689552176111e-06
5.3566125742736e-06
5.3536582598257e-06
5.3592677998886e-06
5.371955224622e-06
5.3872876399012e-06
5.3971191669315e-06
3.6369668255285e-07
5.4285166528583e-07
6.9846083188969e-07
8.1987331166032e-07
9.0665639799704e-07
9.6388455683944e-07
9.9828740688691e-07
1.0161667253885e-06
1.0225374764819e-06
1.0215609900307e-06
1.0156453299253e-06
1.006688450171e-06
9.9599579084551e-07
9.8444876313949e-07
9.7263932769343e-07
9.6098913469672e-07
9.4977294554108e-07
9.3917519354042e-07
9.2938462759431e-07
9.2063440218065e-07
9.1272367097053e-07
9.0552261001167e-07
8.9896551413412e-07
8.9301498126773e-07
8.8764032629184e-07
8.8281017935295e-07
8.7849037186778e-07
8.7464282327708e-07
8.7122206436467e-07
8.6816971460897e-07
8.6540711910361e-07
8.6279995633179e-07
8.6013257894676e-07
8.5689814417758e-07
8.5114947018541e-07
8.3330029138536e-07
4.5049417882308e-05
2.4926109915951e-05
1.407095947279e-05
9.2327705384247e-06
6.6959411911303e-06
5.0398908490696e-06
3.8733903966941e-06
3.0123718069613e-06
2.4285220995911e-06
2.1678458356768e-06
2.2175409283308e-06
2.8008203124134e-06
3.2971057732259e-06
3.797138197728e-06
4.2232542312009e-06
4.5551583933361e-06
4.8521921936269e-06
5.0888555000477e-06
5.3003856609531e-06
5.5280225443066e-06
5.7227596102345e-06
5.8826012241186e-06
5.8988823382526e-06
5.6480661941467e-06
5.417804992181e-06
5.2079499360637e-06
5.0201668346332e-06
4.8377235761063e-06
4.678406474616e-06
4.5268284135906e-06
4.3853057393333e-06
4.2604078981609e-06
4.1353114780434e-06
4.0285492649246e-06
3.9183403668194e-06
3.8250065168399e-06
3.7276974239399e-06
3.6451591161756e-06
3.5591269822976e-06
3.4854917258826e-06
3.4096139823726e-06
3.3429500341437e-06
3.2766971654097e-06
3.2147473908124e-06
3.1565623065377e-06
3.0985570723755e-06
3.0466124652411e-06
2.9934799052124e-06
2.9463019545056e-06
2.8989034199657e-06
2.8542352703695e-06
2.8112063481308e-06
2.7699539388264e-06
2.7303052967811e-06
2.6921627405869e-06
2.6554241265183e-06
2.6200385297564e-06
2.5859550699972e-06
2.5531366070867e-06
2.5215196257377e-06
2.4910223860375e-06
2.461553549271e-06
2.4330287565651e-06
2.405376490525e-06
2.3785477317411e-06
2.3525172698018e-06
2.3272737438663e-06
2.3028255887996e-06
1.4682137672827e-05
0.00044521284066
0.00046704326155974
0.00041648677450422
0.00037937515021633
0.00035210352234433
0.00033130895240835
0.00031480096487714
0.00030122219271059
0.00028978182549896
0.00028005405885413
0.00027182468305018
0.00026496833783198
0.00025937086037502
0.00025487969377221
0.0002512817257781
0.00024797007793302
0.00024544509720005
0.00024316641825247
0.00024113921171058
0.00023955260380056
0.00023879130241193
0.00023931775251318
0.00024134225236642
0.00024435640023219
0.00024704332425752
0.00024737650289557
0.00024354028369418
0.00023491852944247
0.00022215143930058
0.00020621636686097
0.00018782781032063
0.0001684921071726
0.00015069819789548
0.00013605473470414
0.00012450362739734
0.00011361949253502
0.00010693521305581
0.00010154570865323
9.7309081461969e-05
9.4068695097765e-05
9.1684037226379e-05
8.9836197686438e-05
8.8492467943053e-05
8.7470748014638e-05
8.6731673707618e-05
8.6448700068857e-05
8.6473064188099e-05
8.6719560652961e-05
8.7148329659949e-05
8.7714418721817e-05
8.8317052655239e-05
8.8883644170059e-05
8.9376236963531e-05
8.9762436709097e-05
9.002599990334e-05
9.0170657802235e-05
9.0212091874489e-05
9.0166763565265e-05
9.0047946110024e-05
8.9864598240093e-05
8.963316899589e-05
8.9370062164859e-05
8.9109778389495e-05
8.8882915216148e-05
8.8710761307259e-05
8.8616190762219e-05
8.8594695614115e-05
8.8612388790529e-05
8.8595935467908e-05
8.8478065089002e-05
8.7523070941416e-05
3.4809080515973e-05
1.9567279739998e-05
1.21404221425e-05
8.5931934815166e-06
6.4050069637496e-06
4.8475195254395e-06
3.740309217574e-06
2.9345941831783e-06
2.3508706398241e-06
1.9585978849075e-06
1.7310001632915e-06
1.6798891549355e-06
1.7505780660829e-06
1.8869686050241e-06
2.0946316954323e-06
2.360198941986e-06
2.6771857656567e-06
3.0442594624559e-06
3.4262701613562e-06
3.8158449064988e-06
4.2122260902985e-06
4.6124362197043e-06
5.0076936555787e-06
5.4004647406046e-06
5.2762242447033e-06
5.0710539021214e-06
4.8843167501619e-06
4.713912123161e-06
4.556831915766e-06
4.4131119071089e-06
4.2797445700662e-06
4.1568570396164e-06
4.0421972395716e-06
3.9354467838134e-06
3.8355016474384e-06
3.7418042849246e-06
3.6537929410616e-06
3.5710668042797e-06
3.4930462507803e-06
3.4195806692666e-06
3.3500434119463e-06
3.284472615956e-06
3.2219166570291e-06
3.1627335805398e-06
3.1060332100025e-06
3.0523851064919e-06
3.0009611985472e-06
2.9521808171405e-06
2.9053922401145e-06
2.8607620383287e-06
2.8178595024596e-06
2.7766622067357e-06
2.7370370061966e-06
2.6988842187144e-06
2.66216893696e-06
2.62678242622e-06
2.5926945125748e-06
2.5598408648249e-06
2.5281760373224e-06
2.4976352334805e-06
2.4681498898714e-06
2.4396332192072e-06
2.4120028232403e-06
2.3851922667751e-06
2.3591634070246e-06
2.3338989833338e-06
2.3093913373313e-06
2.28420094274e-06
5.510891444558e-05
0.00048946261229506
0.00045286976563637
0.00040565438466146
0.00037147280111691
0.00034616100165567
0.00032665663315291
0.00031101715327052
0.0002980580507685
0.00028710079186353
0.00027778508681855
0.00026992868638519
0.00026341216842898
0.00025811763593127
0.00025387719658616
0.00025046647889276
0.00024795156810865
0.00024543124182758
0.00024315496299537
0.00024112970575144
0.00023954370927725
0.00023877990412541
0.000239299410046
0.00024131625571006
0.00024432791234417
0.0002470249686367
0.00024738715131942
0.0002435974924201
0.00023503157659327
0.0002223151097709
0.00020641956856487
0.00018806467787388
0.00016874116325264
0.0001509309741926
0.00013625251978939
0.00012466195992507
0.00011372226611795
0.00010699153554023
0.00010155771229356
9.7278334706585e-05
9.3996639204684e-05
9.1574905719099e-05
8.9690628116095e-05
8.8313602552737e-05
8.7269771087509e-05
8.6493795114973e-05
8.6168418201418e-05
8.6153067532576e-05
8.6360145507731e-05
8.6747710328647e-05
8.7274273370772e-05
8.7840217857895e-05
8.8372713938284e-05
8.8834224651036e-05
8.9192787405256e-05
8.9432161925467e-05
8.9555624932898e-05
8.9578408915334e-05
8.9516581076685e-05
8.9382131312371e-05
8.9183896346732e-05
8.8941023571508e-05
8.8665841250361e-05
8.8396154859672e-05
8.8160958241065e-05
8.7979403164504e-05
8.7873649463366e-05
8.7841015243091e-05
8.7851175778512e-05
8.782336441361e-05
8.7632598218274e-05
8.6711495651136e-05
2.5475770760826e-05
1.3285678775015e-05
8.5982272355876e-06
6.2866727348475e-06
4.7050499134342e-06
3.7036506710742e-06
2.9564068468946e-06
2.4279940479543e-06
2.062811198555e-06
1.830735249501e-06
1.7400569620095e-06
1.7184686996749e-06
1.7775905790212e-06
1.8953990708775e-06
2.0549792992754e-06
2.2477010065032e-06
2.4752297891466e-06
2.7207344583944e-06
2.9579942401687e-06
3.2001942165016e-06
3.461920526895e-06
3.730041103418e-06
4.0053168439743e-06
4.3037530788896e-06
4.6171692673133e-06
4.9342257262788e-06
4.8121339477526e-06
4.6409211535516e-06
4.4843774934949e-06
4.3407350707116e-06
4.2088457670586e-06
4.086692617659e-06
3.9741771949518e-06
3.8693948684239e-06
3.7720995767944e-06
3.6812005615251e-06
3.5961321468641e-06
3.5158594467211e-06
3.4405034303004e-06
3.3691984543847e-06
3.3022043670494e-06
3.2385322552579e-06
3.1783126286958e-06
3.1207855763638e-06
3.0661586241638e-06
3.014040748616e-06
2.9644273653293e-06
2.9171243786282e-06
2.8718660130464e-06
2.828633838836e-06
2.7870948881327e-06
2.7472546762127e-06
2.7088302538604e-06
2.6718327130979e-06
2.6361770434324e-06
2.6018280047583e-06
2.5687306120811e-06
2.5368209778741e-06
2.5060494344749e-06
2.4763605062056e-06
2.4476896675065e-06
2.4199490432078e-06
2.3930550727209e-06
2.3669448689623e-06
2.3415877207322e-06
2.3169733134337e-06
2.2930872250408e-06
2.2689113667367e-06
5.8705902851671e-05
0.00049063273899156
0.00045230244483482
0.00040504308751986
0.00037098853467776
0.00034579033361633
0.00032636253955885
0.00031077701173696
0.00029786246739535
0.00028694549336187
0.00027766568465931
0.00026983893035467
0.00026334475427631
0.00025806537007289
0.0002538339870716
0.00025042786628471
0.00024792009523331
0.00024540692203882
0.0002431380152507
0.00024112090812819
0.00023954196706872
0.00023878094392915
0.00023929671607418
0.00024131082670632
0.00024433181245955
0.00024706567613072
0.0002475046414031
0.00024382857535252
0.00023539429196802
0.00022279620170219
0.00020699339724334
0.00018870972490058
0.00016940371173862
0.00015154442304565
0.00013677399065584
0.00012508071872913
0.00011400194234363
0.00010715713021557
0.00010161480299182
9.7232011766367e-05
9.3850865643505e-05
9.1341747138249e-05
8.9374088969867e-05
8.7921069011112e-05
8.6826326098713e-05
8.5975425916949e-05
8.5558772999593e-05
8.5461685523599e-05
8.5589051239699e-05
8.5894561940006e-05
8.6342218706956e-05
8.6836107413226e-05
8.7301745088606e-05
8.770218951937e-05
8.8005486108552e-05
8.8195318378794e-05
8.8274569141156e-05
8.8257615770167e-05
8.8159708277152e-05
8.7990080821701e-05
8.7759549519576e-05
8.7487968746279e-05
8.7183884858768e-05
8.6891588157892e-05
8.6638094732366e-05
8.6436539414736e-05
8.6308311698442e-05
8.6253342117915e-05
8.6245030444542e-05
8.6195896250945e-05
8.5902853435258e-05
8.5008100605196e-05
1.3391152236178e-05
7.6649310685772e-06
5.1888837897169e-06
3.8317463313561e-06
3.0435699849034e-06
2.5626203457881e-06
2.2527862252045e-06
2.0584328057187e-06
1.9459860107199e-06
1.9149764214862e-06
1.8974345047845e-06
1.9098723295648e-06
1.9536225403781e-06
2.0333400416171e-06
2.1530600927695e-06
2.3145930872653e-06
2.5014536904371e-06
2.7068093724967e-06
2.9137503888822e-06
3.1082614917826e-06
3.2892689359125e-06
3.4848680143538e-06
3.6933714497358e-06
3.9020886765816e-06
4.1222861958778e-06
4.3664222059348e-06
4.6169250727564e-06
4.5789872782568e-06
4.4234848449583e-06
4.2804599660422e-06
4.1487589555868e-06
4.0270478108691e-06
3.9143612560179e-06
3.809731148156e-06
3.7122203617566e-06
3.6213953018676e-06
3.5364648734861e-06
3.4570285921203e-06
3.3824888607484e-06
3.3123665053017e-06
3.2465587896472e-06
3.1846534848719e-06
3.1261310387242e-06
3.0706532328063e-06
3.0179727976244e-06
2.9677137084289e-06
2.9199398006832e-06
2.874248106115e-06
2.8306767539034e-06
2.7889076593462e-06
2.7488900982988e-06
2.710431625848e-06
2.6733941446042e-06
2.6376975566593e-06
2.6032685503777e-06
2.570107323897e-06
2.5381413171677e-06
2.5073203406432e-06
2.4775905977706e-06
2.4489030946582e-06
2.4211883681977e-06
2.3943596895709e-06
2.36833495362e-06
2.3430567725223e-06
2.3185019111719e-06
2.2946553245194e-06
2.2715138177269e-06
2.2488472578666e-06
6.5208458066995e-05
0.00049160018134512
0.00045135979330372
0.00040416595784599
0.00037030409771596
0.00034526016966645
0.00032593793274291
0.00031042961860028
0.00029757991406062
0.00028672129070155
0.00027749312844273
0.00026970893458829
0.00026324677317867
0.00025798926766198
0.00025377123015974
0.0002503730242628
0.00024787531209381
0.00024537108916838
0.00024311388906183
0.00024111057910787
0.00023954427468151
0.00023879019244211
0.00023930518102816
0.00024131891776847
0.00024435763476185
0.00024715021602779
0.000247707908751
0.00024420608197663
0.00023597168139321
0.00022355861361484
0.00020790488737186
0.00018972836139313
0.00017044933109112
0.00015251401632926
0.00013760011759666
0.00012574649173444
0.0001144543983221
0.00010743571602653
0.00010172475800093
9.7180961142103e-05
9.3644771255088e-05
9.0997695014609e-05
8.8902170133548e-05
8.7327700577198e-05
8.6146941036976e-05
8.5196928786741e-05
8.46404381201e-05
8.4419933908008e-05
8.4426989802603e-05
8.4611568134273e-05
8.4941375928779e-05
8.5327801293981e-05
8.5693268556169e-05
8.6002275103665e-05
8.6223182305882e-05
8.6339403287824e-05
8.635300802388e-05
8.6276824902155e-05
8.6123911375551e-05
8.5901846470316e-05
8.5627228278504e-05
8.5307177650293e-05
8.4963543273839e-05
8.4640112658634e-05
8.436029904659e-05
8.4132029914953e-05
8.3974232522648e-05
8.3888145508411e-05
8.3847105445724e-05
8.3754590700015e-05
8.341103369245e-05
8.2567772092429e-05
5.3666224395871e-06
4.351122361242e-06
3.6359297421989e-06
3.2808147839142e-06
2.9834639385869e-06
2.6902738669961e-06
2.501906250521e-06
2.3936900672585e-06
2.3374658578698e-06
2.2475534843188e-06
2.2267215858029e-06
2.2318584628453e-06
2.2598774243235e-06
2.3165993234395e-06
2.3911556152588e-06
2.4926425138476e-06
2.6355536383855e-06
2.7917400742623e-06
2.9494009136622e-06
3.1153092339192e-06
3.2885602215656e-06
3.4497162836231e-06
3.6125659558276e-06
3.7904544743314e-06
3.9719247673034e-06
4.1538870319052e-06
4.3526631459607e-06
4.5200694363861e-06
4.3678494815622e-06
4.2270720667543e-06
4.0967702262089e-06
3.9761903596057e-06
3.8640810438185e-06
3.7598476065944e-06
3.6626368334365e-06
3.5720116097538e-06
3.4872176990257e-06
3.4079485929797e-06
3.3334952111545e-06
3.2636827409966e-06
3.1980427063658e-06
3.1363523111428e-06
3.0779672963978e-06
3.0226781718522e-06
2.970175462455e-06
2.9204403465978e-06
2.8732823507733e-06
2.8284082645492e-06
2.7856843672594e-06
2.7449691742026e-06
2.7061401873067e-06
2.6689201407889e-06
2.6332659055047e-06
2.5988968500722e-06
2.5657419997519e-06
2.5337719759156e-06
2.50295106813e-06
2.4732439488142e-06
2.444594877518e-06
2.4169503386643e-06
2.3902388129566e-06
2.3643785724357e-06
2.3392871759322e-06
2.3149031829963e-06
2.2912029578866e-06
2.2681874426882e-06
2.2458468809709e-06
2.2252167198602e-06
7.3965115445354e-05
0.00049222991856579
0.00044998070452082
0.00040302768283973
0.00036942606968576
0.00034457219769173
0.00032538293583734
0.00030997540181401
0.00029721117124246
0.00028642885440939
0.0002772676121373
0.00026953838068363
0.00026311760251548
0.0002578885279451
0.00025368811139381
0.00025030086095495
0.00024781560413839
0.00024532257858223
0.00024308110118647
0.00024109675727796
0.00023954829899773
0.00023880498026747
0.00023932143099395
0.00024133639189375
0.00024439931593943
0.00024726947991998
0.00024798459565581
0.00024471462953798
0.00023674700396783
0.00022458463076871
0.00020913798843504
0.00019110842998739
0.00017187102144983
0.00015384012144341
0.00013873674443342
0.000126667347115
0.00011509687763905
0.00010784626253383
0.00010190655457715
9.7142926321702e-05
9.3396325423152e-05
9.0554164659301e-05
8.8288405161591e-05
8.6546654109699e-05
8.5222771239952e-05
8.4168726762934e-05
8.3424605087847e-05
8.3035899873577e-05
8.2882340202088e-05
8.2906369224605e-05
8.3079541077857e-05
8.3322165158226e-05
8.3553390751782e-05
8.3740110932329e-05
8.3851361157094e-05
8.3869877009587e-05
8.3796567933129e-05
8.3642598329795e-05
8.3417146240861e-05
8.313420713811e-05
8.2793872044829e-05
8.2414243665302e-05
8.2027237720177e-05
8.1670241351562e-05
8.136014677937e-05
8.1104455328173e-05
8.091465408472e-05
8.079339727279e-05
8.0712238877211e-05
8.0574196168744e-05
8.0217313872936e-05
7.9467032040778e-05
2.4463541304075e-06
2.9478917550176e-06
3.6266528182783e-06
4.2882567490608e-06
5.0179664777042e-06
4.8980947124079e-06
4.1816500100669e-06
3.585818506191e-06
3.1686888702323e-06
2.9364116105964e-06
2.7915029711572e-06
2.7121548324335e-06
2.6823298110999e-06
2.6888740195356e-06
2.7251594693578e-06
2.7853163928691e-06
2.8643257482663e-06
2.9589703546232e-06
3.0697008198198e-06
3.1927399620922e-06
3.3259210447851e-06
3.4742114247559e-06
3.6241783322911e-06
3.7759107492662e-06
3.9388898211441e-06
4.1030782786144e-06
4.2657148437657e-06
4.4371569779477e-06
4.3134318644944e-06
4.1764347530344e-06
4.0490514133772e-06
3.9303843227026e-06
3.8199629204208e-06
3.7168833418537e-06
3.6204628642828e-06
3.5303069336996e-06
3.4459990769429e-06
3.3668940821801e-06
3.2925794957458e-06
3.2227735845348e-06
3.1571759317385e-06
3.0953999611467e-06
3.0370166272303e-06
2.9817695114716e-06
2.9293661001139e-06
2.8797358260194e-06
2.8326441051499e-06
2.7880026236621e-06
2.7455328232943e-06
2.7050752778909e-06
2.6664466658114e-06
2.6294909962149e-06
2.5940864628011e-06
2.5600876093773e-06
2.5274585116974e-06
2.4961011515804e-06
2.4659461269763e-06
2.4369536396993e-06
2.4091027035542e-06
2.3823109740395e-06
2.3565185445724e-06
2.3316079569853e-06
2.3074425945471e-06
2.2839306531459e-06
2.2610566812339e-06
2.2388508443514e-06
2.2173077013209e-06
2.1997178920983e-06
8.4566518084859e-05
0.00049292688586322
0.00044817185665357
0.00040163234002388
0.00036835275170665
0.00034372451627058
0.0003246969834316
0.00030941493763119
0.00029675718175422
0.00028606885027182
0.00027698920275218
0.00026932675875761
0.00026295637482494
0.00025776210647152
0.00025358350765945
0.00025021003889137
0.00024773958061593
0.00024526015054889
0.0002430381768177
0.00024107759214543
0.00023955198232433
0.00023882316977505
0.00023934258172192
0.00024135935984123
0.00024445156564846
0.00024741626380605
0.0002483246755006
0.00024534137756564
0.00023770611824965
0.00022585987206454
0.00021067824593545
0.00019284005630957
0.00017366650799333
0.00015553023276508
0.00014019932812267
0.00012785939006533
0.00011595748954432
0.00010841798724741
0.00010218918928727
9.7144334559362e-05
9.3129120541577e-05
9.003014397187e-05
8.7548501627485e-05
8.5589405741379e-05
8.4071737130962e-05
8.2880032484557e-05
8.1926191149967e-05
8.1318727646959e-05
8.0964634419213e-05
8.0788091495567e-05
8.0765357469109e-05
8.0827007630775e-05
8.0889032935724e-05
8.0922037254407e-05
8.0896802120496e-05
8.0794809305427e-05
8.0614234642869e-05
8.0365768259392e-05
8.0060450734962e-05
7.9696690494003e-05
7.92780070483e-05
7.8837384721407e-05
7.8411036032263e-05
7.8025089136662e-05
7.7689082395995e-05
7.7410761346702e-05
7.7194739617165e-05
7.7043173107169e-05
7.6927589578562e-05
7.6759402150748e-05
7.6420929964797e-05
7.5808519518773e-05
9.8443271729816e-07
1.90860992916e-06
2.2157105722201e-06
2.776854560269e-06
3.3671428723485e-06
4.0296457586858e-06
4.8423108719082e-06
5.6663621276183e-06
4.7923708726645e-06
4.1414446496965e-06
3.7101562928504e-06
3.4472904540486e-06
3.2820892402047e-06
3.1861020765653e-06
3.1408353282232e-06
3.1299816279515e-06
3.1436288497179e-06
3.181889502964e-06
3.239568434551e-06
3.3131647476635e-06
3.4050885578118e-06
3.5130503253323e-06
3.6375183985025e-06
3.7759652226331e-06
3.9052595416276e-06
4.0607645174242e-06
4.2178908394074e-06
4.3769569138942e-06
4.294211303809e-06
4.1586888456626e-06
4.0326451390838e-06
3.9151502505847e-06
3.8052180402455e-06
3.7022504230993e-06
3.6058814652436e-06
3.5154934422656e-06
3.4305928136118e-06
3.3508744771774e-06
3.2759163247424e-06
3.205283310728e-06
3.1387467461748e-06
3.076066198472e-06
3.0168785214235e-06
2.9608189277806e-06
2.9076474926281e-06
2.8572722028129e-06
2.8094918971109e-06
2.764176097789e-06
2.7210881188943e-06
2.6801170536721e-06
2.6410501101231e-06
2.6037402057054e-06
2.5680257053808e-06
2.5337977953801e-06
2.5010128828473e-06
2.4695693801353e-06
2.4393961243383e-06
2.4104035530159e-06
2.3825532476413e-06
2.3557982106402e-06
2.3300711496312e-06
2.3052735111774e-06
2.2813039813947e-06
2.2580887924063e-06
2.2355739139791e-06
2.2137445068776e-06
2.1926125099136e-06
2.1690691093227e-06
3.0775728343242e-05
0.00048093443723888
0.00045993226062864
0.00041004807053123
0.00037434794905063
0.00034819337790855
0.00032818511018033
0.00031225454597562
0.00029914936385541
0.00028812644715237
0.00027876696285673
0.00027084547090256
0.00026422630320045
0.00025879614171707
0.00025441101646658
0.00025087586394749
0.00024764574876432
0.00024518251897703
0.00024298363577438
0.00024105139057068
0.00023955345982327
0.00023884262996578
0.00023936598668531
0.00024138464538772
0.00024450999925162
0.00024758367438996
0.00024871799714772
0.00024607323369813
0.00023883442681695
0.00022736955208344
0.00021251176482258
0.00019491351025191
0.0001758336891097
0.00015759245198561
0.00014200712708675
0.00012933798226378
0.00011766512549996
0.00010959577030975
0.00010283304450503
9.7260435728327e-05
9.2734936542993e-05
8.9143933492149e-05
8.6253875421056e-05
8.3885437542023e-05
8.1986807048547e-05
8.0464899645031e-05
7.9223157844084e-05
7.8186992540371e-05
7.74641202767e-05
7.6916263097037e-05
7.6531366649187e-05
7.6257464943722e-05
7.6004936185151e-05
7.5752699100435e-05
7.5477478629363e-05
7.5155706278711e-05
7.4777671645752e-05
7.4376223625267e-05
7.3920523415315e-05
7.3410021856338e-05
7.2874897367511e-05
7.2355970217989e-05
7.1886497543329e-05
7.1473843252162e-05
7.1116846551657e-05
7.0824957781175e-05
7.0594744182414e-05
7.0426349778999e-05
7.0293920026277e-05
7.0128436974462e-05
6.9875472576075e-05
6.9537847109384e-05
4.9067716231872e-07
1.2603717128981e-06
1.5037900168769e-06
1.7744175823513e-06
2.138113021147e-06
2.6194388248433e-06
3.1632799013501e-06
3.8113932513381e-06
4.574616292882e-06
5.2667936916529e-06
5.770081823534e-06
5.2479036727494e-06
4.7136169208003e-06
4.3451974677922e-06
4.101911706372e-06
3.9457880193419e-06
3.8387900511988e-06
3.7751622764722e-06
3.748362999966e-06
3.7491867853175e-06
3.774768714836e-06
3.8219191030304e-06
3.8861119953233e-06
3.967831891631e-06
4.0722007207298e-06
4.1928719125394e-06
4.3017129672911e-06
4.2991450636941e-06
4.1609996420935e-06
4.0326459636765e-06
3.9137331830707e-06
3.8031414923954e-06
3.7003082463003e-06
3.6039510945996e-06
3.513265022927e-06
3.4275547277268e-06
3.3468173975799e-06
3.270654265894e-06
3.1986739782709e-06
3.1305052326957e-06
3.0660247876407e-06
3.0050326428674e-06
2.9472170572803e-06
2.8922834033625e-06
2.8400722245479e-06
2.7904517368573e-06
2.7432655281081e-06
2.6983510688156e-06
2.6555860174303e-06
2.6148468082122e-06
2.5759783104415e-06
2.5388182444675e-06
2.5032358129137e-06
2.4691672233287e-06
2.4365527467246e-06
2.4053297078522e-06
2.3753972143234e-06
2.3466714816374e-06
2.3190999282106e-06
2.2926416920537e-06
2.2672404681909e-06
2.2428069516898e-06
2.2192428462944e-06
2.196471247455e-06
2.1744491381937e-06
2.1531622766969e-06
2.1326106031434e-06
2.1307101463964e-06
0.00012435036057993
0.00049132345426665
0.00044042852489236
0.00039580394056141
0.0003638910009933
0.00034020727930749
0.00032186352154122
0.00030711261519259
0.00029489689238401
0.00028458924658901
0.00027583459945223
0.00026843719719257
0.0002622683634529
0.00025721485852338
0.00025312592806916
0.00024980980668416
0.00024739785073932
0.00024497486650491
0.00024283267686799
0.00024097038945408
0.00023954152547498
0.00023887667579146
0.00023941021326406
0.00024143029216049
0.00024462736969928
0.00024795116793205
0.00024962019559432
0.00024779331556337
0.00024153004336063
0.00023102155184227
0.00021699318535992
0.00020003654540568
0.00018126594252731
0.00016286021953286
0.0001467335067215
0.00013334985169084
0.00012105122085262
0.00011212971218671
0.00010446446853605
9.7961094109598e-05
9.2505207037093e-05
8.7991308892926e-05
8.4326313616419e-05
8.1215304962315e-05
7.8606492806663e-05
7.6413318480939e-05
7.4551039727596e-05
7.2962700349308e-05
7.1604403656427e-05
7.0408520319537e-05
6.9392857278866e-05
6.853943370619e-05
6.7741121527582e-05
6.6992380858102e-05
6.6307603244729e-05
6.5649358048959e-05
6.4990805009578e-05
6.4314553264736e-05
6.3635390650036e-05
6.2974552935396e-05
6.2374534885472e-05
6.1866360371064e-05
6.1456542459404e-05
6.1146588437805e-05
6.0967526293031e-05
6.0919651455989e-05
6.0988283681411e-05
6.1145187245204e-05
6.135134620072e-05
6.1497197509593e-05
6.1459915101934e-05
6.1401830525521e-05
5.6183729381655e-07
9.6288419001011e-07
1.1466188615474e-06
1.3102570854985e-06
1.5473054507788e-06
1.8505708850885e-06
2.2384162272048e-06
2.699907684455e-06
3.252646529907e-06
3.9022446833001e-06
4.5641587639177e-06
5.0852096338366e-06
5.4047903933531e-06
5.4857598267411e-06
5.2580407378178e-06
4.881041748959e-06
4.6338344354936e-06
4.4600752948868e-06
4.3414897425947e-06
4.2619075635172e-06
4.2225143033637e-06
4.2127918853659e-06
4.2274459380134e-06
4.2629845445076e-06
4.3181304743649e-06
4.3899797222255e-06
4.3294814120881e-06
4.1990071944064e-06
4.0739303753456e-06
3.954306242536e-06
3.8405626357518e-06
3.7334852872403e-06
3.6326704660858e-06
3.5381955335843e-06
3.4492736549613e-06
3.3659754177248e-06
3.2881705940514e-06
3.2150505933294e-06
3.1457786812543e-06
3.0799627894179e-06
3.0175146555622e-06
2.9581368040111e-06
2.9016087098417e-06
2.8477104862697e-06
2.7964280299422e-06
2.7475240744254e-06
2.7008734817476e-06
2.6563051691325e-06
2.6137614607133e-06
2.5731453203654e-06
2.5342934304845e-06
2.4970667951866e-06
2.4613541045312e-06
2.4271275684336e-06
2.3943254772074e-06
2.3628812590199e-06
2.3327121402759e-06
2.3037408070133e-06
2.2759247382452e-06
2.2492079916271e-06
2.2235358996887e-06
2.1988410271926e-06
2.1750439666785e-06
2.1520855145981e-06
2.1299149334339e-06
2.1084995352556e-06
2.0878268437308e-06
2.1459881296404e-06
0.00017302348183651
0.00048629271034094
0.00043339479891451
0.00039060529186927
0.00035994884292745
0.00033711196321223
0.00031937395477586
0.00030508916392407
0.00029325579386595
0.00028327281584907
0.00027479325517378
0.00026762062745465
0.00026162456320842
0.00025669312173423
0.00025268302220933
0.00024941782824457
0.00024705661245435
0.00024468366349715
0.00024261155078016
0.0002408360432423
0.00023949371813557
0.0002388883476611
0.00023943488193868
0.00024144933884019
0.00024471574559201
0.00024831052375628
0.00025059444290378
0.00024974140515312
0.00024467440002614
0.00023537337639967
0.00022242466644703
0.00020635099233424
0.00018810768064835
0.00016968358384125
0.00015306241576273
0.0001389487489325
0.00012601620619805
0.00011613309155789
0.00010739860879081
9.9738263859945e-05
9.3082183197423e-05
8.7363588027588e-05
8.2523205291398e-05
7.8424312987294e-05
7.4860022531657e-05
7.177209906324e-05
6.9070296718673e-05
6.6673764473945e-05
6.452197638482e-05
6.258296776749e-05
6.0849193668105e-05
5.9279046806124e-05
5.7845259127843e-05
5.6542432055717e-05
5.5365468153016e-05
5.4322598547914e-05
5.3404359086852e-05