/*--------------------------------*- C++ -*----------------------------------*\
| =========                 |                                                 |
| \\      /  F ield         | OpenFOAM: The Open Source CFD Toolbox           |
|  \\    /   O peration     | Version:  2312                                  |
|   \\  /    A nd           | Website:  www.openfoam.com                      |
|    \\/     M anipulation  |                                                 |
\*---------------------------------------------------------------------------*/
FoamFile
{
    version     2.0;
    format      ascii;
    arch        "LSB;label=32;scalar=64";
    class       volScalarField;
    location    "0.00015";
    object      omega;
}
// * * * * * * * * * * * * * * * * * * * * * * * * * * * * * * * * * * * * * //

dimensions      [0 0 -1 0 0 0 0];

internalField   nonuniform List<scalar> 
109340
(
9612.5642613448
9900.4219016253
10701.344891426
12429.980871342
15313.966466535
19241.098623029
23813.174432154
28423.809863907
32539.252915146
36482.299049089
40330.519743172
44105.158198283
47812.554085149
51453.906030843
55028.43611446
58534.641004723
61970.839408657
65335.416177508
68626.949838108
71844.265360568
74986.450701386
78052.848913286
81043.056256895
83956.911742191
86794.459016906
89555.873467605
92241.351668084
94850.964212148
97384.458505174
99840.968309509
102218.55915728
104513.42744482
106718.26524526
108818.23119939
110779.8132645
112518.53593845
9719.1492192965
10817.578353837
13664.130387847
17963.437264358
22965.966619896
28030.456425283
32868.554570449
37698.150109984
42531.439014394
47309.258338963
52013.92282044
56636.658418652
61171.241829526
65612.631345762
69956.667548385
74199.983892137
78339.980137115
82374.800226714
86303.3175545
90125.160030907
93840.765433595
97451.339851975
100958.75374786
104365.35756086
107673.76013009
110886.5837138
114006.21666422
117034.56490937
119972.7432186
122820.6422505
125576.19519883
128234.00073886
130782.06504061
133192.5904518
135395.0492067
137210.50363014
9961.6819892102
13962.518697725
21389.087433974
28991.795533686
36201.588432929
43344.983989023
50545.587770215
57736.957465663
64868.520363147
71894.289648463
78780.616514576
85504.749806329
92051.265510571
98409.750339309
104573.48482925
110538.65070879
116303.85894889
121870.00678535
127240.68276455
132422.96757269
137427.47655694
142266.80060939
146954.03886934
151501.66602932
155920.84010288
160221.0635065
164410.00109608
168493.28916254
172474.29039125
176353.61044511
180127.95000791
183787.8523636
187311.68949332
190644.50310852
193632.2371579
195854.26431913
11922.845139422
28461.244772726
45339.452250669
62195.278732719
78863.617534985
95254.933316081
111259.85399615
126793.93921909
141789.17840367
156193.94367665
169972.08484758
183103.19434548
195581.33843009
207412.59697708
218612.71061734
229205.01269318
239220.84111513
248711.03669937
257769.3966842
266519.75226207
275068.61410219
283490.07588173
291831.1208508
300119.10311095
308367.73349748
316581.33732833
324757.41657899
332888.6179412
340962.48502746
348961.7028021
356866.2005128
364674.63525023
372413.5253106
380005.07668482
386915.46665269
391259.75092224
46688.01703387
146230.48718954
240723.11538062
331298.06410816
416652.43375241
495480.90190166
566980.05077734
630875.80852282
687357.24023771
736902.56752273
780148.92073564
817780.07547398
850465.59657892
878820.43717776
903385.10275442
924659.55002789
943351.42240758
961378.91198803
981864.78046186
1006291.1881052
1034425.4385543
1065332.9491265
1098008.009132
1131608.2757676
1165472.7944759
1199066.4471053
1231961.3527959
1263806.6391029
1294299.4138974
1323137.5050606
1350027.8962558
1374562.4331692
1396203.3481672
1413929.3406964
1425181.9672579
1418596.0288754
4713533.5954101
5536076.1090382
6151155.877269
6580953.4749019
6861807.6860407
7031131.4039531
7120923.64078
7156000.5353516
7154236.3822953
7129551.9048549
7089812.3189079
7041093.6005618
6987544.5327563
6931967.8683108
6876261.0584497
6821795.182983
6769485.3562649
6719965.3806359
6673862.3451919
6631814.8879642
6593186.580774
6557575.3870227
6524794.1510118
6494755.9970852
6467409.4751318
6442721.3089042
6420677.6484107
6401291.2999222
6384613.1580579
6370750.3275886
6359907.4918023
6352475.3978133
6349042.4779191
6350942.6851908
6359664.7407642
6374254.4847684
113843.20862868
114015.91329231
113258.40363083
112681.53979304
113175.73990273
115158.10959708
119273.57596648
125739.50355284
133860.45101054
144393.1920761
157219.53286244
169391.42244012
178819.48005314
182267.80749576
181186.23400341
177419.19390507
172009.6787979
165778.43103861
159259.91179853
152743.25502036
146419.73136642
140371.25993372
134700.42834318
129541.56212778
124830.95456629
120549.16739582
116703.13745534
112980.26482912
109711.72063635
106583.06198669
103668.72116459
101079.45805132
98495.139025317
96268.843498653
93974.339309134
92007.401151735
89960.045876218
88203.436530345
86380.390319317
84805.225748633
83190.025513242
81759.951166445
80342.255890136
79009.844911746
77753.137432752
76496.806705132
75360.341975532
74201.663576044
73163.318530056
72125.873162418
71145.89343468
70197.910422183
69286.299890814
68406.033071253
67554.800751767
66731.244544797
65935.44900251
65167.39084027
64426.91032245
63712.866854494
63023.548236493
62357.009818238
61711.215464258
61083.964002976
60473.351577056
59878.371437297
59298.980259688
58735.182991892
193196.72415713
8800230.0091427
6821192.4980461
5057990.2610177
3902543.3987698
3113848.3295868
2553947.0629896
2142233.1585524
1829606.450372
1585178.106283
1389110.0672489
1228530.3272091
1095023.3065885
983009.74083042
888640.46472882
809032.25329803
733951.78036183
678154.27709884
630346.811213
588673.63380529
551450.14374326
517205.9704103
484701.02641634
452876.26960557
420843.93806335
387688.29350431
352500.70710193
314870.47667815
275544.47872792
237023.63198126
203025.82624688
176918.60583234
159602.27879361
149195.89599325
142885.50252723
138680.7963667
135204.01583974
133350.55178302
132090.02829512
131376.57578025
131106.98346737
131181.72662083
131796.67032062
132750.34276479
134005.9187276
135516.25523499
137232.80815272
139170.07940494
141281.5894374
143530.81620981
145798.78965857
148006.17370504
150094.60804224
152009.26018412
153706.37937239
155167.01619157
156401.93564518
157439.61895869
158309.38545291
159033.94973317
159627.53275398
160111.24567992
160516.01412044
160894.53087304
161295.64462598
161753.49302674
162312.00391327
162979.57871622
163724.55156403
164462.81205999
165124.21334359
163774.98458944
138184.54800811
136973.65757577
133959.24394073
130120.19752974
125927.5888998
121961.95024827
118602.85556764
116069.65447513
114351.92345698
113580.25552178
113535.30939264
114158.80055238
114882.35650347
115296.42214195
115658.91352784
116111.61589816
116608.88390858
116950.83841493
116602.55814874
115718.57485287
114399.82168077
112751.45729551
110879.63009865
108830.85896981
106728.92344931
104681.25970414
102672.35460321
100670.83714847
98683.772605617
96759.174737262
94888.815493862
93100.331206126
91370.074493722
89702.021630295
88089.105726565
86530.30239306
85028.319658374
83585.431752364
82200.661194407
80876.215948968
79605.855377795
78393.578776473
77224.073562127
76103.402128225
75014.114645036
73968.563853078
72954.985971432
71985.717295323
71050.553419454
70153.554380994
69285.937480769
68446.598535425
67632.273480293
66841.049685399
66072.829549154
65326.801014516
64603.946737578
63904.269388493
63227.569326007
62572.880490391
61939.038291059
61324.398785524
60727.01390525
60144.788185811
59576.188180597
59020.697183436
58478.767672079
57895.48690617
1081529.7099462
8602785.2964113
6299296.246218
4717461.4801994
3672339.6148115
2952176.0420849
2436424.3732218
2054021.179769
1761381.8379355
1530971.3735267
1345060.3213029
1192128.8113081
1064613.7589221
957472.87259954
867158.15725901
790951.19696052
733857.52424256
678102.61754899
630320.19800779
588664.09443376
551453.42968838
517219.02333764
484720.61892634
452902.99840914
420880.01415293
387738.81510837
352572.68382181
314970.86648943
275676.96999588
237180.00019576
203183.18168038
177056.9195296
159707.67525204
149271.45398069
142941.97405572
138727.9041462
135238.77680065
133375.10792483
132107.86784779
131390.15306412
131118.49676512
131188.22234992
131799.48194842
132750.49902003
134002.19171699
135510.98578401
137225.92603788
139159.08775264
141266.61343466
143509.83992169
145774.12657353
147977.57137815
150062.44860349
151973.1293107
153665.69790523
155120.99858775
156349.60987862
157380.03551276
158241.75701876
158955.83186133
159536.28476647
160006.53920797
160398.76837912
160766.15001211
161156.88193802
161604.76052101
162151.62766807
162809.24859253
163551.11183395
164278.11853562
164784.64641691
163456.75693059
196066.60713162
191819.93988381
183396.02480333
172984.57206832
162396.38061145
152656.69857373
144210.07767731
137217.79055443
131675.140203
127046.94756631
123560.11958341
120547.43939444
118277.60164649
116471.04735556
114922.39815612
113500.37452901
111987.19785997
110267.38545893
108116.71450657
105781.01090845
103430.46385919
101147.02205353
98976.301895186
96933.531690509
95009.57875292
93181.101744507
91472.119706963
89928.472885652
88508.367654439
87181.351651863
85949.387296794
84796.30010804
83704.289409024
82634.818057681
81584.193198469
80526.328189478
79480.134981234
78442.611431766
77431.268801756
76440.096232233
75481.400866647
74544.605271739
73636.925356429
72745.389410555
71874.478798338
71019.717836821
70188.01677496
69381.596204981
68599.704287342
67843.263706173
67106.56026204
66389.550277596
65686.937540978
64999.472575311
64326.743207533
63670.068987772
63030.600076468
62408.895662237
61805.062216859
61218.656788306
60648.937487287
60094.545833294
59553.727122587
59024.598503433
58505.901401707
57997.431972411
57499.817365251
56964.901643816
1168195.1283576
8600061.2912284
6285900.6933095
4706372.2697495
3663626.8105322
2945685.4252385
2431701.5208977
2050570.9994009
1758811.2519335
1529013.8557358
1343551.6950317
1190969.2592059
1063737.4013985
956828.95611501
866702.42692552
790643.25774026
733675.20286903
678004.96777998
630281.91137014
588671.88382082
551500.99620279
517303.79790168
484839.73165111
453059.54584468
421076.44015656
387982.00589873
352872.4476115
315337.37492951
276113.35754291
237664.36620542
203665.32603915
177488.09363412
160055.33519429
149541.50345534
143157.75682129
138908.72190327
135375.61122685
133476.32273055
132181.07636976
131442.00533335
131157.38051346
131208.5239108
131805.8552359
132749.86788271
133994.33412945
135501.19476875
137217.24923271
139151.03151908
141261.41947809
143505.17834756
145774.72821856
147983.74615386
150074.33753322
151988.45812787
153680.16885363
155129.65254725
156348.0334621
157364.40168689
158208.55870716
158898.23497052
159447.12403975
159883.83407829
160243.62646071
160582.29830361
160948.63609716
161374.38220039
161897.78004762
162535.27250876
163265.43203513
163977.23015267
164227.68958425
162872.38008722
385592.29491069
363258.03897207
324911.70110406
283336.70533707
246826.93802928
216546.40193582
193056.66376565
174963.03344135
160907.34612783
149475.14673451
140895.35658957
133759.80665022
127840.93300697
123011.28097017
118960.08542102
115567.47594287
112826.29212496
110234.61554637
107333.27552006
104186.36819372
100990.21023669
97890.200428661
94998.356545668
92336.547434028
89890.48704435
87650.02230595
85601.131715632
83734.193332966
82081.926708543
80611.887276455
79299.841409639
78122.686490148
77058.082811067
76081.716212129
75169.390053265
74311.875608776
73497.516199783
72723.893669052
71983.889717066
71279.965881617
70603.311049255
69947.471073028
69305.369005023
68664.042783177
68023.199952912
67380.572440395
66747.189419166
66123.524601207
65515.102013593
64918.161900777
64332.819456046
63755.958831658
63185.660964983
62621.336790822
62063.295073027
61514.116060473
60975.362413228
60448.464270557
59933.881981075
59431.635651976
58941.228766613
58461.645995223
57991.438566935
57528.969496428
57073.057456312
56623.87365137
56182.315342272
55710.076088702
1317946.1402827
8584243.7625268
6262170.79521
4688689.9886241
3650584.838609
2936255.9555155
2424912.4521875
2045618.1993682
1755114.7565782
1526194.0350384
1341376.2430035
1189296.3074265
1062472.1695508
955898.622622
866043.50187703
790198.99568623
733403.49841289
677856.01217908
630225.78892226
588689.89025413
551583.79083801
517448.0809557
485044.57544271
453326.79111326
421409.45407884
388389.92827412
353368.77008063
315936.23267455
276816.73120556
238441.6634375
204444.97981678
178186.37751214
160623.25010243
149986.77957396
143514.9879239
139206.77638648
135603.12373019
133648.95321767
132306.73276788
131530.35251812
131222.08666941
131244.45457488
131814.87123265
132745.23312215
133980.48426046
135483.39017961
137202.20863156
139140.03071572
141255.68395684
143504.76959412
145783.89820341
148003.44101334
150103.9054038
152024.24420156
153715.6369666
155157.0695171
156360.58245155
157356.05823989
158171.06830482
158819.6822507
159318.01867819
159700.12006625
160010.17674384
160305.70870495
160634.86056542
161026.68174972
161517.3947468
162122.23624911
162817.79744662
163473.21510303
163519.3750371
162146.1134617
1321513.1333517
1071668.9092137
803340.92985876
593659.90472453
446679.81352228
346667.73371529
280025.668648
234455.98313654
202779.71953889
180249.22713692
163753.1412976
151140.15046674
141137.97877986
133035.95084703
126363.15633306
120813.93448794
116195.32020693
112004.32125985
108071.28476921
104357.3277432
100813.43487906
97385.493776875
94082.659056765
91000.983167934
88154.371205685
85535.105053596
83126.962697727
80923.855513811
78944.580086377
77183.636565435
75614.496803295
74217.479017196
72966.368835707
71842.002954534
70820.575890079
69887.565654242
69028.670627596
68239.909569739
67510.328576948
66835.33916144
66206.280785949
65619.974260429
65065.388147621
64535.726054955
64021.453634384
63520.312610958
63032.03063951
62559.251660057
62102.588458029
61656.217584906
61217.240720486
60779.744906228
60341.651613244
59902.103056681
59462.270003448
59024.2970979
58590.879758951
58163.981997406
57744.391591526
57332.349548464
56927.591619333
56529.441089575
56136.682557307
55747.798860379
55361.655726358
54978.426175553
54599.613014592
54199.922129826
1519390.6729844
8555392.8006517
6226704.195293
4663805.5694721
3633142.0950495
2923962.9042179
2416134.8917391
2039214.0306177
1750321.8732593
1522528.9414308
1338544.4162967
1187116.4599497
1060821.8568054
954683.40754373
865181.2941394
789616.65008211
733038.96633332
677652.73057667
630147.36727474
588712.54894596
551695.32924188
517644.45859464
485326.16981538
453695.05714577
421867.93532099
388949.63385942
354047.58173636
316752.61814029
277772.52661167
239497.35609244
205509.60379375
179143.48969561
161405.87555259
150604.25684459
144012.13102664
139620.08132583
135925.90183158
133898.78014633
132490.71011748
131659.39774618
131311.6436694
131300.2096752
131825.79168938
132734.99044293
133956.35548717
135452.63518169
137173.9284232
139117.03094152
141239.04983338
143495.59970538
145785.49546005
148015.98163401
150126.07450695
152051.68501938
153740.63767894
155170.28778967
156353.17127067
157318.1749324
158088.64866805
158674.53515722
159099.18760453
159407.3590248
159654.01001062
159895.80277223
160178.24373659
160527.33782955
160976.10265429
161533.98284616
162170.96891117
162739.4237403
162623.70118927
161246.18520274
4661160.4301721
2571069.5130436
1598825.1428019
1065477.9766997
741501.32503792
536950.44046502
404380.2455309
317124.61372967
258978.18803183
219748.53108931
192205.0392715
172282.16541474
157193.50417779
145318.05731101
135765.86644127
127953.43495363
121309.98084081
115457.09564588
110234.89223915
105566.59345541
101371.01940641
97563.808706426
94074.787247494
90815.22084822
87747.101229044
84887.196730513
82246.05159089
79806.111804989
77585.976999211
75593.179529549
73799.621202551
72181.396052314
70725.649863658
69411.814262231
68219.838354504
67135.462440047
66149.040283461
65250.428114056
64431.595102148
63684.107041542
62999.983829443
62371.702132851
61791.1015656
61249.987906419
60738.463368614
60252.918838567
59791.063345351
59354.63048083
58941.079913068
58547.860745285
58170.269931682
57803.748831609
57444.91397437
57090.413913562
56739.291156719
56391.459233844
56049.208285903
55712.552658697
55381.27868975
55055.014361857
54732.600245455
54413.512183228
54096.632552321
53780.526572202
53464.317499185
53147.831282425
52832.807148385
52509.520466094
1763976.6076305
8505881.7842791
6178399.9739733
4631795.0015882
3611515.360614
2908975.2087771
2405474.9773325
2031419.1992049
1744466.379753
1518038.1110287
1335068.3242162
1184437.29579
1058790.7578236
953185.0296498
864115.60251516
788894.50630886
732579.32611465
677392.91701367
630043.3780193
588735.45845454
551830.47552317
517887.26768251
485677.37914091
454156.21757786
422443.37361644
389652.77408971
354900.18047036
317777.10348863
278971.09202644
240822.03403922
206849.74966218
180354.0912976
162401.94006076
151396.34544407
144654.70453643
140152.49622127
136354.88368049
134237.05199265
132743.54231939
131837.94117071
131431.3043677
131380.15232449
131839.67773013
132717.16411908
133917.71888823
135402.76680553
137123.65926137
139070.94546921
141198.94623926
143463.20398832
145762.16149387
148001.23020714
150117.52853555
152044.08781684
153725.09536407
155135.29803523
156286.60347116
157206.44940556
157909.93224287
158406.61163308
158734.65195945
158954.09480791
159128.09082686
159310.07504356
159540.61078517
159841.53536019
160238.95411796
160733.99977297
161289.93729278
161747.23728998
161499.08113495
160133.0454861
6461599.6791053
3571506.9520386
2315300.3375652
1583600.9199318
1117347.9864457
802628.54353562
583208.78380946
440554.51807035
345136.83851904
279947.1447221
234956.28257905
203236.22271227
180255.80780631
162956.43760512
149432.24984797
138457.15088693
129324.39213212
121612.93427228
114952.01673459
109117.46475461
103981.92169644
99449.258697089
95423.912289902
91825.652827274
88550.594898359
85530.927305714
82713.261097442
80082.772765038
77655.713042314
75450.021322652
73452.217224239
71636.802763562
69981.834612258
68474.098287979
67101.243258873
65846.186402666
64697.655162018
63650.346751376
62696.550309272
61825.480385507
61028.948484055
60300.406494922
59632.409004981
59016.05556222
58443.08842889
57908.563764505
57408.563166714
56942.185680765
56506.851242704
56100.764684592
55719.019978769
55357.043650446
55009.940004453
54674.311341132
54348.786016522
54032.250549508
53725.116324242
53427.521352412
53139.674755073
52860.853988799
52589.95112346
52325.568383334
52065.740122663
51808.173186197
51551.100321466
51293.791524798
51036.340207641
50770.328298345
478691.42873266
8891862.2150105
6616643.0481182
4915443.9525351
3802617.9169552
3043289.3164256
2503598.66289
2105619.9104227
1802322.1140159
1564379.7351174
1373046.3499449
1216128.4220166
1085576.8801503
975991.92906434
883602.59998333
805573.12583796
732022.29346322
677074.58040803
629911.17444766
588755.22201531
551985.12690404
518171.49139071
486092.04395343
454703.85085072
423129.38424079
390492.62309901
355919.36717345
319001.93997289
280404.34371137
242407.61425743
208458.30107418
181814.61184737
163611.34858083
152365.21995649
145449.21649991
140808.509599
137196.25913481
134910.93531306
133255.70221007
132203.21385894
131676.75042485
131546.29891297
131870.92598993
132676.43914303
133829.18217454
135285.40201044
136996.87551597
138943.8838547
141076.59387023
143348.14446837
145652.11092682
147893.22789224
150005.09830999
151916.96720179
153567.92063169
154927.59042779
156003.08151732
156816.82201489
157376.18778223
157702.48834243
157862.55741587
157934.51345766
157988.8455952
158075.73961167
158223.55889762
158444.72145728
158747.93239621
159121.28169764
159519.37488402
159772.78136475
159356.02337105
158047.69679763
5625484.3172952
2713383.5922145
2108669.168998
1652052.293216
1306293.5376203
1006354.1436067
776602.50624525
599302.11505256
461832.70297011
368006.06671083
301085.66527217
250971.07755327
215036.49828771
188555.44852407
168551.42932925
152966.32423923
140397.32910764
129995.91956453
121244.79261565
113797.6823448
107384.94495399
101803.28480847
96912.351631187
92600.900680004
88777.566374839
85369.398462129
82298.837167931
79519.215690827
77014.444161921
74733.631420628
72635.590532811
70684.714602492
68879.200387603
67212.70631589
65674.772059597
64250.839590582
62937.219039262
61726.175307738
60609.120369183
59575.846933258
58620.153645028
57736.471222141
56918.287479699
56159.032987329
55453.9577201
54799.104595195
54190.593512546
53624.972848583
53099.717619348
52612.097126412
52158.194056213
51733.295578517
51333.041551931
50954.626634002
50596.347108224
50257.574018056
49937.641502002
49635.830938989
49351.117059825
49082.198059164
48827.658753772
48585.75934067
48354.283028848
48130.68571321
47912.773437427
47699.578622208
47491.378770028
47363.63282464
2909830.9546147
8219652.5513784
5975687.8736016
4503564.8938344
3526386.3138025
2850124.4871439
2363344.0180094
2000299.8121884
1720869.9327777
1499821.7920172
1320909.360701
1173488.2854013
1050459.3148941
947008.02703856
859693.33095538
785870.85520982
730605.6661772
676250.91135635
629549.93709491
588771.53791483
552336.37055829
518844.87572065
487089.96816728
456034.96840089
424808.26618144
392556.49859473
358429.97153554
322022.12595592
283940.91232525
246326.27131882
212452.16246759
185471.47621603
166670.57063936
154839.18572868
147503.73435101
142573.76947357
138798.97447824
136259.91712205
134328.36551199
132994.35354377
132217.90279106
131916.32687687
131976.23147238
132589.51236388
133613.1645875
134979.76348987
136638.13310425
138549.56103189
140656.37378534
142901.57257781
145157.05349485
147335.26624842
149361.5490243
151161.9725783
152678.11721982
153875.64717624
154742.58839976
155287.90717889
155550.63000121
155596.37593963
155513.43775201
155387.06067819
155289.3784914
155245.47424744
155252.57387672
155346.89258168
155533.80904812
155819.13398152
156149.75019661
156242.21657761
155676.164599
154503.47982663
5202566.8845347
2114881.6298334
1823992.2423436
1543890.7514112
1291271.0113749
1070250.3297305
877909.07606934
711335.06159773
574836.0056477
458695.00182122
371363.59079413
309225.07639856
257630.20439308
219227.4287353
191293.59037008
170208.47066835
153862.21587868
140766.60805232
129922.27605585
120793.04526838
113033.99978157
106371.24012258
100588.47900141
95526.631052117
91061.579284803
87095.53810893
83558.338526409
80415.911904397
77616.242535742
75108.611583596
72851.699418136
70797.495241319
68915.796475911
67179.032164949
65560.955080614
64049.965597904
62634.060846345
61311.589912302
60078.154702878
58928.253613691
57857.67826366
56858.578208611
55924.808216618
55050.663231934
54234.175202523
53470.384803195
52755.885175482
52086.332490774
51459.407414268
50872.765765003
50322.998435083
49806.493142307
49319.642560781
48860.470538562
48427.398647553
48019.709600097
47636.73431733
47277.403659981
46940.447474168
46624.003115223
46326.417171184
46046.109343758
45781.155495464
45529.509091078
45289.103985785
45058.844694
44838.343056916
44966.142013332
4207796.0019198
8012919.1888332
5818864.2030983
4400021.0633996
3456134.0483842
2800824.9821964
2327578.6075019
1973566.6427713
1700407.6013825
1483921.0528992
1308492.424741
1163844.5877462
1043083.3919458
941502.4083986
855716.60136996
783118.84114078
728765.38407634
675153.9468722
629033.65749194
588728.66041104
552712.19998518
519623.01269818
488274.14392236
457639.4835072
426853.16961436
395087.21949326
361520.81974802
325746.68609486
288307.01587731
251174.95031261
217430.91276489
190083.3480573
170585.74519937
158046.1682754
150203.8134168
144959.99067747
141052.34556581
138257.4020599
136009.79024554
134306.81719339
133148.28835602
132509.61739312
132304.58756971
132533.35968018
133294.79460366
134468.62798629
135986.24496515
137789.03166762
139799.83239268
141919.86937009
143998.32940832
145960.16694266
147725.73724519
149222.00980073
150400.82674184
151242.58857445
151741.71945185
151909.37908534
151822.90369017
151539.88609291
151169.61914794
150800.85207711
150561.09124616
150499.97224786
150720.55307296
151233.80080554
151975.32762249
152835.68567189
153639.00659353
153951.74714469
153338.99461082
152308.29880015
5186483.8222979
1811794.3500649
1556029.4747255
1383847.0974017
1210907.6118048
1045997.5576245
893538.15736499
754514.19609225
631232.2146129
526863.58216339
433616.89404151
356782.92924857
302384.43127802
256501.23022085
217847.56701072
189409.6905561
168135.24757368
151772.94255564
138786.46961593
128121.34464603
119131.82747586
111446.04220761
104811.76325831
99050.398600635
94012.066595851
89573.796977893
85637.714023323
82131.866661719
79001.701075819
76201.243796114
73683.367513966
71408.416903246
69345.872532661
67466.790932798
65744.091267666
64158.917843072
62690.941710661
61325.143008035
60051.655349318
58855.933654937
57728.153914095
56659.523628968
55647.662336118
54696.002469642
53801.439976531
52961.666496774
52171.523092009
51427.673783688
50727.411238899
50066.796388896
49443.199902747
48852.93099382
48293.935271549
47764.321161064
47262.715557666
46788.614222641
46341.184287429
45919.772847984
45522.837782941
45148.574916522
44795.32518797
44461.425807597
44145.52715735
43846.093992675
43561.583703297
43290.901668468
43033.449235108
44881.504813726
6130238.7773126
7738102.7004512
5636375.0144392
4280820.6756336
3375269.1086789
2743849.686772
2286005.8974634
1942309.6713929
1676363.5819771
1465163.7227596
1293795.5061173
1152389.1816399
1034283.6834909
934896.40823328
850908.13584069
779754.89950737
726473.97481798
673749.99357144
628323.98272224
588584.62975846
553066.6490083
520455.76728715
489590.91886637
459461.10577257
429205.45685426
398023.09140949
365123.97319878
330097.57263609
293414.58425907
256863.20440084
223315.10978835
195608.85767495
175352.79708004
162000.70064033
153567.300631
147989.51076381
143993.78931488
141001.1848999
138474.76852846
136382.25781234
134742.73238473
133591.29411711
132940.93260937
132731.804159
132965.20110932
133743.19208606
134949.02446369
136496.09647739
138260.25523141
140036.42525792
141694.04760647
143143.15307703
144329.98566659
145227.33002015
145803.56394036
146051.25870441
146040.06665055
145717.57018895
145155.06639408
144559.1690692
144194.99774338
144201.10035569
144754.18167194
145852.49878634
147378.75468705
149299.51921376
151584.35968036
154016.03244892
156157.00524074
157265.19072813
156846.71168566
156302.08198914
5829183.3617716
1656796.3926259
1368345.1512882
1234671.7801035
1114800.7422612
991905.19849748
872473.1957357
759223.8409302
654333.33954922
559269.02394311
476759.94194118
400160.86391263
334851.23512055
288536.85780891
249503.5959672
213811.86500069
185950.86192304
164955.35394448
148822.65148017
136064.02188941
125665.65079321
116949.67064968
109500.53993051
103063.6679892
97463.062071468
92552.963283128
88214.904116731
84361.564278324
80924.134056374
77842.866463138
75067.413053082
72558.189153726
70282.010404646
68210.25230889
66320.401843147
64593.851914586
63011.27263121
61555.206135759
60209.779651344
58957.893418413
57786.942810743
56688.136711708
55651.529553595
54672.082836328
53744.028619849
52861.447691426
52022.575290245
51226.897402817
50472.194674982
49756.674142996
49077.0261037
48432.311883236
47819.912866193
47237.657059238
46684.381786627
46158.913895721
45661.217698392
45189.940905163
44743.327509881
44319.674551428
43917.208848173
43534.988687238
43171.67512403
42825.927620932
42496.821363834
42183.354074914
41885.17062499
55773.507923222
8137824.7627836
7416782.3048293
5430350.497195
4146820.7690961
3284330.0403294
2679557.9501284
2238870.5994303
1906702.4564198
1648864.7048265
1443643.1324932
1276885.2141763
1139167.3702187
1024087.6366357
927201.16371371
845263.73784933
775760.9521132
723702.77641625
672001.38263234
627375.72776741
588287.93386932
553342.45933515
521280.6551277
490973.4984695
461430.20352282
431793.6212293
401289.51306772
369158.39849191
334984.50347391
299163.6615466
263288.40446923
230005.32331954
201994.39433742
180954.04726725
166702.48541453
157585.85947214
151631.1067528
147566.93099701
144475.02347752
141791.55846052
139410.57244552
137317.79072375
135559.20216794
134212.26272861
133344.25138711
132968.7646981
132965.28903545
133524.89461945
134517.66229446
135711.67557189
136798.85828126
137660.48239841
138193.91128627
138393.99939224
138364.1050159
138108.04203238
137677.76822622
137128.87399546
136683.98874176
136505.03593312
136702.35287504
137644.32550958
139466.75897104
142108.73633332
145714.2801874
150237.59210097
155392.94619592
160431.87140352
164702.07792181
167628.3660927
168769.17777825
168292.24703521
168158.21521708
7374880.0727839
1541823.6022703
1256217.5374017
1114355.5502784
1022486.4416182
929157.78057878
836076.1845617
744164.97887952
655838.80286096
573406.34915155
498061.92016342
429779.64878951
367038.60363676
311792.25960399
272807.15589323
239576.34980361
207889.19356264
181477.10273172
161273.74937993
145624.28204271
133224.09146042
123146.17156907
114734.48165831
107561.28692704
101356.00537331
95934.88001596
91164.777554701
86943.955874445
83191.588249308
79836.823155153
76818.539229348
74087.395865949
71606.543541639
69347.386007377
67285.192237451
65399.476216979
63673.125639233
62090.042596871
60633.436368484
59287.027952376
58037.923262198
56873.978602417
55783.793966066
54760.970879227
53799.844667767
52893.194321321
52036.45708938
51223.105547644
50446.868822824
49704.809779663
48993.644348026
48312.075128735
47660.667712271
47038.309737526
46444.385547532
45879.75416542
45342.961843897
44832.882372121
44347.465260221
43884.814485917
43444.110412688
43023.68517049
42622.317240939
42238.990416245
41872.720013678
41523.059624564
41189.082199183
138382.89652142
9049347.0906901
7070483.3727186
5208229.1848054
4001022.79947
3184578.9341762
2608512.5559325