/*--------------------------------*- C++ -*----------------------------------*\
| =========                 |                                                 |
| \\      /  F ield         | OpenFOAM: The Open Source CFD Toolbox           |
|  \\    /   O peration     | Version:  2312                                  |
|   \\  /    A nd           | Website:  www.openfoam.com                      |
|    \\/     M anipulation  |                                                 |
\*---------------------------------------------------------------------------*/
FoamFile
{
    version     2.0;
    format      ascii;
    arch        "LSB;label=32;scalar=64";
    class       volScalarField;
    location    "0.00015";
    object      p;
}
// * * * * * * * * * * * * * * * * * * * * * * * * * * * * * * * * * * * * * //

dimensions      [1 -1 -2 0 0 0 0];

internalField   nonuniform List<scalar> 
109340
(
389516.97181939
387957.19863402
385008.05291324
381470.08669859
377600.75236399
373610.34063676
369580.72690148
365562.03061165
361641.35057747
357809.51654144
354012.22762042
350245.86307234
346513.98845034
342819.04704506
339162.75865966
335546.64448728
331970.13510717
328430.86668801
324924.07657705
321443.11308127
317977.99125832
314517.83927226
311050.28519288
307560.55096886
304028.89114242
300429.6618475
296728.61590962
292879.6372552
288819.38736873
284458.89840724
279670.09906872
274262.96578318
267950.40584129
260307.3045104
250745.47244452
238536.31098992
389750.44793265
387748.59945936
384443.03516139
380673.60223376
376701.63708388
372707.22298243
368742.52762036
364818.31959006
360930.83865927
357083.45838086
353270.5947137
349493.18879552
345753.69573094
342053.64785128
338394.0475647
334774.49295166
331195.02133186
327652.72244862
324142.03435608
320655.20308634
317182.02495994
313711.38778657
310230.55567438
306723.9235464
303170.61282105
299543.12889703
295804.73055654
291905.60157208
287776.7783066
283320.60116213
278394.66907588
272783.42824567
266148.43913756
257966.95667059
247385.24339359
233491.1265776
390623.33073595
388302.50138762
384660.45658499
380799.90732182
376859.53363871
372919.35835931
368972.12560363
365030.02375768
361117.95021854
357243.61782825
353406.07424573
349605.90085253
345844.93478687
342124.69146695
338446.71382825
334812.08472766
331220.52741052
327669.22985527
324152.15666746
320661.17841146
317185.30815154
313713.24260639
310232.1011949
306726.0736052
303174.14333019
299548.56242834
295812.46116446
291915.91346984
287789.79776837
283335.81519202
278409.93729796
272790.404309
266110.56925799
257759.45234464
246643.39885783
231018.36857189
391841.62610655
389038.02356672
385206.06377041
381231.76102488
377211.06257144
373185.25998437
369168.803583
365175.92831357
361223.05483483
357315.89208653
353454.01241863
349636.88720726
345864.68079912
342137.69581157
338456.16557384
334820.04907693
331228.59609068
327678.59860646
324163.10389376
320674.21655668
317199.49375944
313728.18232705
310247.74486816
306742.36436773
303191.57358261
299567.5190082
295833.41760946
291939.36588268
287816.07512465
283364.34458706
278438.19191836
272810.2419237
266076.93653391
257514.36290805
245630.43364453
227078.6261372
393770.77909722
390113.07187748
385712.61588975
381462.88751097
377330.84636441
373264.37503837
369234.44636159
365243.00156978
361293.69813238
357386.9761252
353524.47717658
349706.66394768
345933.88437273
342206.58039777
338525.23273617
334890.27386157
331301.95233617
327758.27523975
324245.53631652
320762.54711785
317291.59290691
313823.45925493
310346.16362933
306843.37521903
303295.74657297
299675.15040872
295944.9190046
292055.12973231
287936.16621121
283487.70606006
278558.15231018
272927.47916174
266144.38256207
257375.97104799
244629.16199696
221615.33388465
397395.56647539
390685.06536883
385832.60195632
381493.22049179
377355.97134177
373298.13590252
369278.60928618
365290.01680811
361338.64952673
357426.05402276
353554.97079152
349726.28051352
345940.53781304
342198.2492196
338499.97975516
334846.42936678
331238.57786046
327682.71671088
324194.10647335
320705.73797116
317227.19414584
313752.03354778
310268.40035475
306760.63582315
303208.20948651
299583.35529857
295849.12788529
291955.5855839
287833.16030067
283381.06751745
278437.59266438
272809.45926671
266001.43933531
257133.77104849
243916.66165793
216054.02401129
223830.92223064
209150.40469153
196868.79311739
186880.62828075
178099.48620808
168563.66206498
157999.02616693
146313.48560653
133626.74856207
120235.42192238
106062.33620733
93062.936775274
80525.952337438
69063.003514164
58981.944242259
50220.298731748
42753.95337026
36450.688766971
31158.767026553
26758.226835402
23109.346016801
20056.949609514
17501.049298923
15356.807541552
13537.795693635
12001.185243428
10718.927929464
9565.2682350634
8613.0361130667
7772.9862882019
7032.6362992524
6413.9855685923
5835.0708963822
5361.7452281898
4907.0039827524
4535.6479121909
4174.5861455231
3877.89550631
3588.1531666115
3347.3670152174
3113.4590430514
2914.2660737509
2725.4136706854
2557.0188267954
2403.845757766
2259.3388150819
2132.8624104566
2009.8986830089
1903.0538322761
1800.5116049918
1706.8445683372
1619.8565517052
1539.2420665329
1464.3802416348
1394.6955140238
1329.6965787992
1268.9740201576
1212.1802271592
1159.0070484379
1109.1577259497
1062.3517884145
1018.3409156334
976.91218450509
937.87385148816
901.04867027826
866.27562399591
833.40736794476
802.32700049395
775.14810382829
1826.8164135833
5192.916114813
5551.1135445069
5541.3855946104
5517.0104977122
5494.4851554344
5474.9921606521
5459.0275157792
5446.8011108233
5438.4453373924
5434.1608112971
5434.3732214897
5439.5361696918
5450.7311739595
5468.7572147565
5498.1047119112
5531.4732906765
5572.0400960268
5619.3490469294
5671.7213534982
5727.559412997
5784.9791777757
5841.196130841
5894.7732536144
5944.0519750927
5987.8458327438
6024.6412122527
6054.6750213863
6078.1045456702
6095.0537367984
6106.0782723899
6112.1314309489
6113.8532842875
6112.375344437
6108.4438667957
6099.4353068002
6092.3620051287
6084.7436311395
6076.602129632
6068.0894510814
6059.4047161389
6050.7681547738
6042.29050357
6034.3811361544
6028.3125571825
6019.8344981819
6011.9092808874
6004.2407695004
5996.9991190528
5990.2962403397
5984.1611507849
5978.8046624948
5974.2310367041
5970.2210698508
5966.7854205123
5964.0575238696
5962.0180115437
5960.5559195467
5959.5506632643
5958.8868930376
5958.7837511609
5959.047189184
5960.1310817288
5962.2115991643
5965.1429639207
5969.1168663167
5973.6840127372
5978.918045756
5986.0432432787
5991.7489977566
6024.9437286801
216281.74194998
200784.00860119
189184.58170863
180175.41768558
170788.84885979
160955.91831382
150065.02704388
138246.53739344
125741.26871149
112804.76257984
99813.297046955
87018.104538415
75596.021591623
65093.203115934
55706.400423783
47576.777657116
40601.908618347
34702.591368816
29756.627574427
25621.208875137
22168.26098226
19283.064104223
16862.482589169
14822.117918202
13096.754679092
11630.125151683
10376.760758464
9301.920530042
8371.916882518
7567.749912324
6864.5002860668
6251.235752325
5710.5910455118
5233.8804465325
4810.9701131401
4434.6766751935
4098.5431800343
3797.5623942348
3526.8635462792
3283.119756509
3062.394159823
2862.8679796819
2680.8526787827
2515.7051186377
2364.1832875396
2226.1462429939
2098.9044724746
1982.385290659
1874.6666027101
1775.4504716695
1683.5033482526
1598.2984587163
1519.2135186563
1445.6645851215
1377.2098212718
1313.3275576416
1253.6580214646
1197.8326497706
1145.5438370363
1096.4956436064
1050.4317077271
1007.1144710573
966.33149193777
927.88639088958
891.60399495573
857.3274227101
824.91737696862
794.24317885738
777.41639624214
3002.8674555727
5398.8807489204
5552.077737222
5535.0707834742
5510.8298630051
5488.8765730435
5470.1345827594
5454.9597830323
5443.6171450969
5436.2016443069
5433.0251143627
5434.4264487287
5441.0909503877
5454.0006841546
5473.8593997093
5497.1726989267
5530.2220961489
5570.7224451704
5617.856496349
5669.9803571963
5725.5086867539
5782.5421510442
5838.374582482
5891.5866558066
5940.5895304254
5984.2696896429
6021.1377618419
6051.4345428181
6075.1983915483
6092.6425328699
6104.1349335688
6110.6078612395
6112.7307495688
6111.5689158242
6107.8628181778
6099.0175953854
6092.0269428399
6084.4793737835
6076.3982213625
6067.945282427
6059.3356193341
6050.7361664815
6042.2250022919
6034.2354181964
6028.1854416683
6019.7256292819
6011.9159746719
6004.2694154874
5997.1653893007
5990.5796363305
5984.5450798984
5979.2355735795
5974.6600509996
5970.6615243696
5967.228899884
5964.4764230775
5962.3989335262
5960.8963705342
5959.8768495771
5959.1614688889
5959.0177141588
5959.2802313088
5960.3683742194
5962.4346456133
5965.3560305509
5969.3398039798
5973.8851670466
5979.0932464705
5986.015146871
5991.0361370841
6023.5610641046
209758.41606098
191484.75034443
180958.44600839
171667.46027591
161704.55037406
151446.18085953
140733.00647086
129458.1900553
117824.49940269
105657.53181828
94370.18960813
83146.255359076
72545.872704466
62825.400375931
54078.815667004
46374.134326361
39722.21641325
34073.600270423
29303.770761257
25282.920024519
21912.799969104
19090.27352143
16713.50614815
14706.252278272
13007.058875589
11559.64231177
10319.605408968
9255.2518773649
8335.8626684772
7536.4858515538
6840.2049330971
6229.23382418
5693.2221140235
5218.4728200965
4798.4687553355
4423.4545761793
4089.4416908234
3789.2848845633
3520.1797911788
3276.8637758812
3057.5356859522
2858.0704150966
2677.2091824817
2512.0186245155
2361.3555169573
2223.2654956082
2096.5540803921
1980.1157334064
1872.6533492173
1773.6027735762
1681.8174756249
1596.8804869532
1517.8988839481
1444.4712494519
1376.0705093381
1312.2763119522
1252.6934881478
1196.9503418342
1144.7312118986
1095.7454844114
1049.7399023875
1006.4760371622
965.74010401607
927.33787191936
891.09834470665
856.86532177527
824.4896809789
793.83865266722
778.55232626312
3055.5077485209
5406.6451028553
5552.7996546919
5535.4739894957
5511.2814388684
5489.4259732197
5470.7821401802
5455.7101840336
5444.426206539
5437.0833157419
5433.9738707182
5435.4304577422
5442.145938745
5455.08813691
5474.9326636058
5497.9415685722
5531.1153880238
5571.5843543133
5618.708073037
5670.8179350365
5726.3499497458
5783.2993540348
5839.1487236477
5892.334788115
5941.2936424923
5984.9247452164
6021.7175217182
6051.9712260169
6075.5977146706
6092.9137050569
6104.3758895679
6110.7518428474
6112.8184292882
6111.6285784305
6107.8291054606
6098.8856368674
6091.8493235579
6084.2866686198
6076.2047879386
6067.7583226409
6059.13958044
6050.5493991158
6042.2413689122
6033.9856092475
6027.9252026519
6019.5127950083
6011.7639976983
6004.1278723924
5997.0609947145
5990.5084507646
5984.4899526933
5979.146319068
5974.504766194
5970.4694237901
5967.0053823093
5964.2114585675
5962.0685861303
5960.4914573598
5959.5203073913
5958.7816675374
5958.6276539206
5958.9557263433
5960.0925816834
5962.1741111341
5965.0835007475
5969.1036189085
5973.6700412908
5978.8371898694
5984.8413249276
5990.9167472713
6023.523056629
197523.07642261
176228.96914349
166029.30073193
155451.41831298
146397.58863299
136462.06765482
126750.2915933
116910.937385
106897.39552867
96656.749879844
87405.261399298
77852.854742274
68544.621171724
59840.383581003
51839.461461246
44743.265590086
38548.148340124
33204.84786773
28657.135300552
24816.143584098
21569.138942182
18819.486611211
16506.671125385
14549.224741759
12881.846584328
11459.132276135
10241.076876451
9191.0746622485
8283.0569971428
7493.6438462449
6804.506024879
6199.75925379
5667.7751471726
5197.6013586592
4780.0522724217
4408.429593352
4076.1080635174
3778.2421389703
3510.3194018011
3268.7330438467
3050.1735296594
2851.8492549152
2671.6637424905
2507.1820527425
2357.0844694222
2219.3910847718
2093.2361346626
1976.9908728462
1869.9654544877
1771.0451245439
1679.5700322499
1594.8038075149
1516.0587357842
1442.8089546599
1374.5275601452
1310.8569333321
1251.3766070936
1195.7380910048
1143.6166724327
1094.7245328772
1048.7997345331
1005.6050123129
964.93068824983
926.58878173651
890.40881102512
856.23108424414
823.90806941461
793.29326870931
780.87610024985
3132.7693928854
5416.581203648
5553.8471906239
5535.9893980382
5511.9231494323
5490.2176256704
5471.7135217319
5456.7803201119
5445.5930305199
5438.3518115483
5435.338176676
5436.8706327923
5443.6575390496
5456.6518889626
5476.520495058
5499.4533054488
5532.7043307184
5573.1860825101
5620.3193454229
5672.4261093433
5727.939104295
5784.8520934338
5840.68791803
5893.8313082125
5942.7361320044
5986.3092384363
6023.0020286579
6053.139903464
6076.6039044164
6093.7271396264
6105.0163634966
6111.1846720486
6113.095766555
6111.7875779486
6107.8633470159
6098.7536826826
6091.6369177412
6083.9961060433
6075.8576677835
6067.3827271708
6058.770632895
6050.2255699699
6041.9950121333
6033.8217850088
6027.6625462882
6019.2549905101
6011.568334937
6004.0542746909
5997.0378225
5990.5501810399
5984.5971742364
5979.2805821591
5974.6217282141
5970.5437217046
5967.0254805626
5964.1580792838
5961.9247936669
5960.3057215853
5959.3144360117
5958.5563441204
5958.3576755989
5958.6929246368
5959.8196131606
5961.8877862275
5964.7761956867
5968.8002801646
5973.3008227468
5978.4117212637
5984.494204379
5991.5365128549
6022.3394857836
171063.49705529
151335.22122467
140117.67070323
130611.58341028
123405.6313574
116067.13545135
109187.33555773
102103.51661975
94923.514783002
87549.158080749
79707.517463915
71699.490275779
63801.322695316
56242.604998394
49199.544369418
42780.51605529
37091.516780288
32137.908454864
27868.769920044
24218.560839447
21116.840885703
18488.934075442
16246.35736667
14342.725219404
12721.284690334
11333.6658407
10138.665718177
9108.4182436715
8215.7236212178
7438.3640258657
6758.3836218704
6161.8687876162
5635.5135177359
5170.2464296027
4756.8933879129
4388.7899836701
4059.1571048812
3763.839559458
3497.8509366904
3258.0226345836
3040.7581802036
2843.8237630282
2664.461152212
2500.9828396191
2351.4740970163
2214.5321308778
2088.8041934668
1973.0470688617
1866.4081761686
1767.8209398951
1676.677685533
1592.1225901173
1513.6474018043
1440.6160617473
1372.5522285232
1309.0340073114
1249.6864439766
1194.1796879238
1142.1849599916
1093.4089203676
1047.5843255929
1004.479747415
963.88913774985
925.62439616197
889.51450289209
855.4034959279
823.14408890958
792.59722286345
784.33092667247
3234.6461689424
5428.2497702041
5554.9388601121
5536.6252170579
5512.7523303579
5491.2446710695
5472.921086711
5458.1592022952
5447.1080933749
5439.9944389045
5437.1024705239
5438.7309899375
5445.60808738
5458.6735415795
5478.5951232015
5501.4664975867
5534.7682544462
5575.2806968074
5622.4336373398
5674.5433868127
5730.0310546357
5786.933485842
5842.7594307952
5895.8673591659
5944.6828875139
5988.1373132228
6024.6522729912
6054.5800539142
6077.8233125743
6094.6898020407
6105.7730620415
6111.7234082193
6113.4575096379
6112.0023997342
6107.9179062905
6098.5820183224
6091.3653078641
6083.629991339
6075.4221896505
6066.9188995064
6058.3237001517
6049.8298133777
6041.6489755679
6033.5645321079
6027.2913972502
6018.9323653201
6011.3405705868
6003.8993233919
5996.9569355648
5990.5434791424
5984.6517768909
5979.3544749242
5974.6681140009
5970.5110657682
5966.8901517017
5963.9271149599
5961.5953752741
5959.9448888182
5958.9017038161
5958.1508225296
5957.8787024875
5958.2256350429
5959.3446705645
5961.3843883608
5964.2784969447
5968.318478937
5972.7530365644
5977.8338763354
5984.0390046244
5991.4866281593
6020.3025623754
103570.79765602
99979.49087903
98736.942976109
98524.02947512
97277.922599585
94929.242903187
91672.948237696
87837.231851327
82973.52661232
77570.462169091
71516.946620741
65180.438140577
58706.15187141
52307.985604166
46211.689571329
40557.21069901
35438.372954373
30900.109452185
26941.743159933
23522.604694592
20587.582961622
18076.771286486
15937.433923212
14100.229291833
12527.807070641
11178.516232958
10017.007405134
9008.632709126
8133.2731419863
7370.7769196295
6702.9209921775
6114.8559990346
5596.3401638615
5137.168821987
4728.7738040153
4364.5627285156
4038.792311481
3746.194983426
3482.6651209359
3244.8093034279
3029.4217046708
2833.8375977806
2655.7070097869
2493.2964276259
2344.6764958828
2208.5192097143
2083.3583444792
1968.2429483635
1862.0405409076
1763.9154838273
1673.0936320598
1588.8699163109
1510.6853930858
1437.915084427
1370.105301385
1306.7873378415
1247.6301289483
1192.287809924
1140.4374398982
1091.7900369585
1046.0889166395
1003.1032663666
962.61819128476
924.44311918247
888.41156395128
854.37598284854
822.19664623882
791.68861106246
789.30099235465
3358.3472348111
5440.7708380396
5555.9268463059
5537.3503228755
5513.7585944034
5492.502461188
5474.4010660364
5459.8428382813
5448.9643186133
5442.0045595111
5439.2578056816
5441.0004296343
5447.9843708178
5461.1363701447
5481.1286531676
5503.9556321188
5537.2957605747
5577.8457572125
5625.0201047894
5677.1395419078
5732.611472564
5789.5207477629
5845.322336482
5898.3544095223
5947.0405424909
5990.3438701758
6026.6519345448
6056.3305621755
6079.3092258493
6095.8858165923
6106.7009203223
6112.3805876742
6113.9026890633
6112.2397134855
6107.8904251021
6098.3217883632
6090.9672643547
6083.1118212473
6074.8212519236
6066.2831127441
6057.7110485073
6049.281229493
6041.1503967696
6033.2100487456
6026.855651399
6018.5859817236
6011.0882595524
6003.7499511033
5996.8875498155
5990.5531617791
5984.7039329711
5979.4218888902
5974.7086177472
5970.4813575366
5966.7630196516
5963.7098274208
5961.2884670826
5959.6308084538
5958.5048166044
5957.5437952355
5957.0818883087
5957.4007631936
5958.554467396
5960.6041250693
5963.5343081551
5967.5975457139
5972.0474215183
5977.3384884919
5983.5782840572
5991.0305111765
6018.2637247665
10105.880002058
46055.03173015
60045.608663077
68563.719863778
73737.544851899
76068.66327111
76072.652422973
74624.597007492
72076.324522888
68638.251329638
64521.153595904
59836.015868938
54776.982401794
49539.997500554
44336.519502054
39355.869923605
34718.361808668
30513.11372978
26771.916043226
23489.462666304
20637.350928985
18175.441792096
16054.299655928
14235.319575061
12665.55415071
11308.412088654
10138.447363667
9124.9253802232
8241.6749370298
7468.5863924085
6792.4894322568
6198.0960841854
5672.3460630293
5206.0610533454
4792.0589397489
4422.7205851606
4091.8162695027
3794.8166453368
3527.5237857548
3286.0385557101
3067.2828928902
2868.7446738353
2688.0509753544
2523.1476348763
2372.265279619
2234.0695576655
2107.1048459313
1990.2875852177
1882.4889546715
1782.9497757058
1690.8276856371
1605.434466077
1526.1238388856
1452.329721429
1383.6176259364
1319.4934928941
1259.5750076466
1203.4968621703
1150.9730892043
1101.71758298
1055.4581981313
1011.950869347
970.9805703646
932.36133505418
895.91994165783
861.49849362686
828.94961394326
798.12320500344
774.17893203991
2348.7083561001
5308.7109246993
5558.015681187
5544.0529732491
5520.5716752255
5498.9552147579
5480.2850195003
5465.0713658482
5453.4605260882
5445.6900372282
5442.0037457348
5442.7463181913
5448.4453404437
5460.0866970821
5478.4015749036
5506.8755450731
5540.2581095778
5580.8475299805
5628.0421151945
5680.1795301185
5735.6385426141
5792.5438756241
5848.2956459009
5901.2324495159
5949.7699115101
5992.8809526421
6028.9455701401
6058.3193565845
6080.9736457092
6097.216877769
6107.7109732909
6113.0907873154
6114.3837591372
6112.5592504145
6108.0531085014
6098.167672477
6090.493340144
6082.4065999246
6073.9402492704
6065.2941621512
6056.6767641777
6048.2573789296
6040.1022796285
6032.2980928266
6025.6850909226
6017.5300063417
6010.171108151
6003.0030329383
5996.331716401
5990.1415946466
5984.4135962173
5979.1643278666
5974.3945003795
5970.0192219624
5966.1027784687
5962.8172673222
5960.2445186453
5958.3877132906
5956.8030109119
5955.6223725137
5954.9373820224
5955.2235744679
5956.6003870855
5958.8731695725
5961.9005582556
5965.6010571474
5969.8787458293
5975.1098485544
5981.3649598877
5989.2794742875
6014.2682778501
7949.6055811977
14677.759085104
25104.471349016
33699.267345693
40449.263920855
45386.391265109
48652.911811445
50596.470916399
50760.013704296
50029.765726842
48507.170773567
46226.00517005
43383.382691625
40140.678566083
36677.024706422
33174.450264957
29770.226059745
26563.438209999
23622.930674509
20976.236384618
18624.377100948
16553.868695336
14741.141844369
13158.320430287
11779.568232884
10580.17433584
9532.4460032908
8612.82387926
7808.6049933509
7102.2846914967
6480.1817106329
5928.3493940162
5439.3523391315
5004.5102034717
4616.4794261811
4268.3556225395
3956.0565979675
3675.0524166138
3421.3649110718
3191.43967826
2982.7322868943
2792.9764089642
2619.9422511567
2461.6736920648
2316.6668709131
2183.602946892
2061.2180083008
1948.3695744395
1844.1423246349
1747.7607709762
1658.4817797087
1575.6180741055
1498.5601664196
1426.8253314713
1359.9574237899
1297.5464768911
1239.1880042764
1184.5349160701
1133.2930391302
1085.1932117438
1039.9903718452
997.45511930424
957.38182298822
919.58732425835
883.90499883937
850.1859065876
818.30155432538
788.08417473249
818.15317446676
3824.7409863783
5480.1382384425
5558.7439342036
5540.0750771603
5517.7801734198
5497.5900017455
5480.3932806754
5466.6305895062
5456.4529633684
5450.095828089
5447.8954722252
5450.0660350253
5457.4410163938
5470.9072349773
5491.1515967073
5513.8776094476
5547.3360432086
5588.0090397637
5635.2449009555
5687.4146476992
5742.8391464441
5799.6977739823
5855.3033360558
5907.9900756076
5956.1508540967
5998.7328716236
6034.2299637053
6062.8596470152
6084.7260107293
6100.184160151
6109.8871119095
6114.5342561427
6115.2322161162
6112.8605739051
6107.812760818
6097.1809809287
6089.0613185598
6080.6480623331
6071.9487712416
6063.2031490468
6054.5814836201
6046.2402909116
6038.1655353066
6030.6066013857
6023.805356398
6015.9808898348
6008.9093124345
6002.0723926028
5995.6577942494
5989.6749553504
5984.1100967569
5978.9022682426
5974.0723919165
5969.5537497069
5965.4415325229
5961.7949134631
5958.9953268956
5956.7639413283
5954.882220412
5953.4952096873
5952.9359880556
5953.3886961865
5954.6169857712
5956.7367826263
5959.8558457144
5963.6593489315
5968.4189451423
5973.8298753216
5979.9972635158
5987.4526544156
6009.2733272586
7689.8561638395
8436.4046773293
12978.669504707
18446.624621812
23492.664036249
27795.92736345
31259.609390019
33858.296648071
35665.476191655
36542.350003732
36485.86646307
35784.405852046
34542.599222722
32788.572894208
30666.960922402
28322.137371351
25900.194745463
23502.719627526
21210.390224623
19074.898996218
17124.225941293
15366.349439316
13797.059583618
12404.559750675
11172.969086829
10087.043459117
9129.5346020214
8284.7419647504
7538.9353075599
6877.7503152691
6291.1184498078
5770.1867096377
5306.0001260941
4891.8202815232
4519.7622347921
4185.5788645748
3884.9557223846
3613.7118804749
3367.9693395209
3144.7596465963
2942.0237601095
2757.2530250457
2588.4293391008
2433.6928896098
2291.8944809633
2161.5439361778
2041.515491052
1930.6821865853
1828.2323086736
1733.4323128345
1645.5166156112
1563.8392773558
1487.8207215828
1417.032472761
1351.0173050568
1289.3578438276
1231.6761281887
1177.6351523437
1126.9594343239
1079.3664901157
1034.6084038993
992.47188065211
952.75900093415
915.30018621086
879.92445758709
846.482465937
814.83895272979
784.8829200223
865.72938379533
4198.6701305137
5507.4093008921
5561.3091140214
5542.5954279947
5521.3248258461
5502.0082888154
5485.5583149594
5472.4475261837
5462.8498540983
5456.9850899062
5455.2086792579
5457.7116163814
5465.3771304552
5479.0673222607
5499.4788182215
5522.1744386149
5555.6844841753
5596.428684089
5643.6921567628
5695.8699521103
5751.2339074981
5807.9850509993
5863.3761166093
5915.7308645651
5963.4029924166
6005.3129407323
6040.116291256
6067.8337260553
6088.7238202446
6103.1832362855
6111.8785522134
6115.6436564349
6115.6306795216
6112.6369905816
6106.9520092999
6095.2892138133
6086.7247093479
6078.0011495577
6069.1437081259
6060.3418242142
6051.7332333925
6043.4698392082
6035.5164003371
6028.1916322638
6021.2890849475
6013.8886632105
6007.1806772461
6000.6995382342
5994.6186228751
5988.8766368191
5983.511102461
5978.4039097642
5973.3332966955
5968.4853983386
5964.072889971
5960.3390614693
5957.4194619015
5954.6853066201
5952.8072460415
5951.6926373532
5951.2058372505
5952.2184360013
5954.0381551437
5956.7190084296
5960.1584577266
5963.9558353712
5968.2275085965
5972.9147510014
5979.041993085
5985.970814491
6004.2142649257
7008.9962404707
6995.3726295603
8441.6667479767
11608.338998255
15087.040905047
18365.151797854
21274.483317511
23722.770700844
25664.474244509
27035.403665045
27761.696495718
27896.80780967
27443.849576629
26618.818335187
25418.140305452
23935.028903285
22281.722666863
20556.470921693
18827.728728155
17156.286217051
15581.662613762
14125.509083528
12796.127809058
11594.322575051
10514.656008401
9548.6531257557
8687.0949366304
7919.1475557798
7234.563371062
6623.9415539479
6078.8068001552
5591.2806572259
5153.8903764558
4761.0594328675
4408.0239986538
4089.9536903776
3802.744227283
3541.9455189959
3305.255305972
3090.2105177164
2894.2194804347
2715.2184795052
2551.0370719032
2400.6822266408
2262.5235026293
2135.3947582204
2018.0370180399
1909.5704834351
1809.2978345132
1716.3482823231
1630.0712482981
1549.7824280611
1475.0357388256
1405.3941197906
1340.3915703615
1279.6348165319
1222.737952168
1169.4175326243
1119.3946840894
1072.3971368071
1028.1846213686
986.52926330382
947.25508520682
910.20147656304
875.20446854208
842.1116209168
810.78662895042
780.78390836162
976.08115619946
4572.4658769397
5533.285430326
5564.7092747022
5545.7499649399
5525.468661735
5507.0815112895
5491.4573311289
5479.065932571
5470.1018375484
5464.7735800785
5463.4393035616
5466.2941306007
5474.2540002935
5488.1593914242
5508.718796347
5531.4102525653
5564.9365235917
5605.7183996619
5652.9749107221
5705.1192719196
5760.3788076655
5816.951577307
5872.054400982
5923.987403687
5971.0534818433
6012.1256509357
6046.071366641
6072.6796664364
6092.3843535638
6105.6380484182
6113.1258528897
6115.9610226821
6115.2379454835
6111.4704751542
6105.1075168995
6092.3829510495
6083.4173518974
6074.4002119702
6065.3951005019
6056.5567109523
6047.9920813105
6039.8401219997
6032.0695068897
6025.0000863386
6018.1367449702
6011.182878923
6004.8522421033
5998.7387537846
5992.9769433115
5987.452412045
5982.0155695108
5976.8560924533
5971.911680906
5967.114396142
5962.7937315022
5959.2785051888
5956.4143456937
5954.369657227
5952.3692383116
5951.8553707783
5952.4521750539
5953.9234076032
5955.8643784651
5958.3451547664
5961.1940560484
5964.4997507608
5968.1987303799
5972.0906768548
5977.6050339898
5983.7092659607
5999.286770796
6365.0255233037
6365.1822297726
6596.9275391488
8176.7848532215
10492.543241275
12893.3004432
15180.959883342
17249.308336159
18992.390860727
20376.914215719
21392.185373235
21884.057416169
21986.238323345
21684.337432383
21071.468147917
20175.903241195
19092.460407218
17877.244479429
16603.892616007
15322.281159776
14075.252234808
12891.080830951
11784.296668346
10763.325470913
9830.5052086223
8983.4326524366
8217.7840106267
7528.0240457169
6907.2264659041
6348.570594748
5845.8179242332
5393.169627086
4985.3162431336
4617.3098179125
4284.4285112706
3982.7405606557
3709.3346631059
3460.9220743381
3234.7812975255
3028.6455144279
2839.8113911119
2666.9286030589
2508.5114992107
2362.9303264083
2229.0008111538
2105.2607228379
1990.9628181116
1885.3375884097
1787.4721864969
1696.6808062519
1612.1730001715
1533.5506387777
1460.3168391537
1391.9867744924
1328.1557425176
1268.3909778408
1212.4217852724
1159.943690684
1110.6649038171
1064.3399206785
1020.7176328685
979.62507656405
940.87669621491
904.2904412074
869.72071892131
837.01487133391
806.05943682341
776.21884366014
1195.87926185
4899.3863454172
5555.3111082878
5568.5476563625
5549.3698336761
5530.0249941215
5512.5756136147
5497.8154999646
5486.1853621657
5477.8896299595
5473.1212560527
5472.2266787499
5475.4434945767
5483.6893008888
5497.7885817687
5518.4623097912
5541.1732446744
5574.6693590474
5615.4246579622
5662.595941595
5714.6224646071
5769.6873523875
5825.9449511392
5880.6748635942
5932.0757901391
5978.4104258234
6018.4665634112
6051.4114399694
6076.7351152414
6095.0452026992
6106.8446685975
6113.1386293949
6115.1250849174
6113.5270254066
6108.9617483202
6101.937941899
6088.1825377667
6078.8992405571
6069.6634047934
6060.5661396323
6051.7449636334
6043.2904733926
6035.30703131
6027.7869970319
6020.9909159377
6014.2870795894
6007.7789305007
6001.8347631002
5996.1443802533
5990.5083432102
5985.0500652697
5979.8640423864
5975.0059902763
5970.4046727769
5966.0416599494
5962.1570455408
5959.0028531781
5956.5037331685
5954.4499610307
5953.9848249943
5953.9702371249
5954.4546293403
5955.5932303883
5957.3377423838
5959.4020727698
5961.5730872636
5963.9015664859
5966.3584888135
5969.5532362161
5974.3070378648
5981.0981700257
5994.8004876099
5843.4264699381
5822.9798901221
5783.919564504
6370.9648207974
7807.1750099535
9542.7918393779
11300.104608065
12971.581939656
14454.863536237
15714.901644078
16720.4556368
17405.218114753
17753.873067368
17752.052672392
17495.978169333
17007.394396096
16334.084361346
15506.084869828
14586.138609493
13621.019342793
12649.202613915
11699.655561094
10791.726713394
9936.7495670336
9141.0189745136
8407.2261060793
7734.6581106707
7121.361907683
6563.8833103667
6057.7319537199
5598.5673706379
5182.1384894826
4804.3815837812
4461.477046614
4149.8269434784
3866.2928405262
3608.11153138
3372.4429234665
3156.9059461584
2959.8450805765
2779.3079404268
2613.665780021
2461.3841523068
2320.7795239886
2191.1144071697
2071.4215639226
1960.708681745
1858.2091970389
1762.9634277853
1674.3764804301
1592.0395751867
1515.3111675886
1443.7600499594
1376.8958063171
1314.2840030577
1255.7091760581
1200.792370752
1149.2579373194
1100.8200271361
1055.2144091202
1012.288472852
971.82714121524
933.64381093179
897.57702759136
863.46296801587
831.17711178216
800.59886371505
772.75937872729
1684.3318004005
5164.959244428
5574.14343958
5571.9007345066
5553.0450503812
5534.6669620219
5518.1712789848