/*--------------------------------*- C++ -*----------------------------------*\
| =========                 |                                                 |
| \\      /  F ield         | OpenFOAM: The Open Source CFD Toolbox           |
|  \\    /   O peration     | Version:  2312                                  |
|   \\  /    A nd           | Website:  www.openfoam.com                      |
|    \\/     M anipulation  |                                                 |
\*---------------------------------------------------------------------------*/
FoamFile
{
    version     2.0;
    format      ascii;
    arch        "LSB;label=32;scalar=64";
    class       volScalarField;
    location    "0.00015";
    object      pTsat;
}
// * * * * * * * * * * * * * * * * * * * * * * * * * * * * * * * * * * * * * //

dimensions      [1 -1 -2 0 0 0 0];

internalField   nonuniform List<scalar> 
109340
(
389516.97160591
387957.1988594
385008.05297268
381470.08671508
377600.7523633
373610.34062625
369580.72689813
365562.03061859
361641.35059203
357809.51654962
354012.22763235
350245.86308521
346513.98845268
342819.04704628
339162.75866529
335546.64448531
331970.13510825
328430.86668672
324924.07658516
321443.1130805
317977.99125844
314517.83927176
311050.28519704
307560.55096827
304028.89114317
300429.66184823
296728.61591277
292879.63725563
288819.38736435
284458.89840527
279670.09906475
274262.96578159
267950.40584072
260307.30451011
250745.4724433
238536.3109897
389750.44796661
387748.59955605
384443.03518669
380673.60224366
376701.63708349
372707.22298579
368742.52762668
364818.31959622
360930.83866971
357083.45839171
353270.59471828
349493.18880188
345753.69573209
342053.64785207
338394.04756506
334774.49295146
331195.02133597
327652.72244414
324142.03435492
320655.20308787
317182.02495725
313711.38778406
310230.55567505
306723.92355001
303170.61282035
299543.12889447
295804.73055405
291905.60157088
287776.77830589
283320.60116047
278394.66907557
272783.42824416
266148.43913749
257966.9566693
247385.24339328
233491.12657711
390623.33073982
388302.5014298
384660.456599
380799.90733471
376859.53365043
372919.35836823
368972.12561231
365030.02376579
361117.95022202
357243.61782666
353406.07424313
349605.90085756
345844.93478734
342124.69146956
338446.71383051
334812.08472913
331220.52740887
327669.22985559
324152.15667043
320661.1784125
317185.30815474
313713.24260682
310232.10119173
306726.07360637
303174.14333334
299548.56242926
295812.46116416
291915.91347014
287789.79776535
283335.81519225
278409.93729701
272790.40430907
266110.56925743
257759.45234437
246643.39885751
231018.36857061
391841.62605367
389038.02358933
385206.06379173
381231.76103164
377211.0625812
373185.259988
369168.80359042
365175.92831573
361223.0548373
357315.89208286
353454.01241562
349636.88721238
345864.68080436
342137.69581419
338456.16557606
334820.04908265
331228.59608748
327678.59860188
324163.10389689
320674.21655464
317199.49375551
313728.18232958
310247.74486842
306742.36436757
303191.57358247
299567.51900941
295833.41761033
291939.36588106
287816.07512436
283364.34458783
278438.19191898
272810.24192426
266076.93653317
257514.36290823
245630.43364489
227078.62613645
393770.77904957
390113.07188964
385712.61589461
381462.8875061
377330.84636
373264.37503826
369234.44635913
365243.00156667
361293.69813203
357386.97612396
353524.47717774
349706.66394868
345933.88437707
342206.58039495
338525.23273929
334890.2738642
331301.95233863
327758.27523664
324245.53631303
320762.54711685
317291.59290642
313823.45925951
310346.16362966
306843.37522026
303295.74657379
299675.15040643
295944.91900422
292055.12973101
287936.16621067
283487.70605802
278558.15231087
272927.47916207
266144.38256186
257375.97104725
244629.16199621
221615.33388357
397395.56643647
390685.06537131
385832.60195917
381493.22049045
377355.97134264
373298.13590275
369278.6092863
365290.01681033
361338.6495254
357426.05402114
353554.97079317
349726.28051831
345940.53781309
342198.24921809
338499.9797537
334846.42937299
331238.57785888
327682.71670896
324194.10647339
320705.73797138
317227.1941458
313752.03354526
310268.40035345
306760.63582227
303208.20948651
299583.35529855
295849.12788521
291955.58558367
287833.16029894
283381.06751761
278437.59265911
272809.4592677
266001.43933534
257133.77104782
243916.66165648
216054.02400945
223830.9222222
209150.40469088
196868.79303183
186880.62942134
178099.48425785
168563.66122972
157999.02632421
146313.48591161
133626.74845743
120235.4267217
106062.31717221
93062.935949062
80525.955105531
69063.002603601
58981.944534281
50220.298314335
42753.953815032
36450.688822403
31158.766813643
26758.226949228
23109.346117008
20056.949765464
17501.049138901
15356.805277749
13537.793203619
12001.196311781
10718.942127542
9565.2629624815
8613.0461978927
7772.9748653497
7032.6645004438
6413.9773188327
5835.0747123259
5361.7384305319
4907.007278589
4535.6401115351
4174.5890138412
3877.8916153643
3588.1556007622
3347.3627677568
3113.4631563621
2914.263139898
2725.4242462835
2557.0150667232
2403.8388580447
2259.3361303986
2132.867422286
2009.8967401485
1903.052849591
1800.5124276023
1706.8441814297
1619.8566750176
1539.2420278259
1464.3802673264
1394.6955005373
1329.6965884962
1268.9740130971
1212.1802243156
1159.0070388134
1109.157717862
1062.3517800021
1018.3409108457
976.91218311234
937.87385508001
901.04867803252
866.27563413583
833.40737743533
802.32700709937
775.14807456018
1826.8187622225
5192.9154248187
5551.1134537296
5541.3855131957
5517.0103751717
5494.4850081872
5474.9920010686
5459.0273637524
5446.8009524317
5438.4451883828
5434.1606681843
5434.373090611
5439.536035788
5450.7310401264
5468.7570772469
5498.1048744574
5531.4732801999
5572.0400791867
5619.3490260705
5671.7213280819
5727.5593839029
5784.9791314803
5841.1960703123
5894.7731830125
5944.0519029404
5987.845772145
6024.6411722027
6054.6749968559
6078.1045314401
6095.0537435738
6106.078283913
6112.1314479988
6113.8533005087
6112.375361961
6108.4438884903
6099.435329573
6092.3620286294
6084.7436541005
6076.602151077
6068.0894705176
6059.4047334341
6050.7681688465
6042.2905162774
6034.3811436855
6028.3125632943
6019.8345051972
6011.9092823929
6004.240768575
5996.9991163754
5990.2962359617
5984.1611448531
5978.8046552953
5974.2310290283
5970.2210622847
5966.7854136347
5964.0575180415
5962.0180071543
5960.5559166067
5959.5506605885
5958.8868901442
5958.783748352
5959.0471856958
5960.1310781948
5962.2115963158
5965.1429616028
5969.1168645076
5973.6840115139
5978.9180450693
5986.0432441346
5991.7490035424
6024.943732587
216281.74194599
200784.00863271
189184.58468264
180175.43851746
170788.84971486
160955.90497928
150065.02686297
138246.53733464
125741.26882679
112804.76234054
99813.297934302
87018.104938175
75596.020755752
65093.20351679
55706.400212491
47576.777708648
40601.908725726
34702.591331383
29756.627658393
25621.208813733
22168.260937335
19283.064092359
16862.482567828
14822.11806581
13096.754926414
11630.124336273
10376.760064176
9301.9221253525
8371.915659842
7567.7508951453
6864.4991738358
6251.2366645229
5710.5908408202
5233.8809954477
4810.9705106247
4434.6771456577
4098.5434953247
3797.5629218797
3526.8634489082
3283.1201769676
3062.3936463525
2862.8681923073
2680.8520552758
2515.7052658556
2364.1828220517
2226.1463847535
2098.9043955513
1982.3855157828
1874.6667430302
1775.45039506
1683.5034111156
1598.2984160808
1519.2135297002
1445.6645849601
1377.2098198738
1313.327557921
1253.6580164917
1197.8326433091
1145.5438275344
1096.4956345137
1050.431699798
1007.1144665975
966.33149127606
927.88639450019
891.60400178472
857.32743109341
824.91738491754
794.24318476966
777.41622307156
3002.8665425926
5398.8804743927
5552.0776847077
5535.0707199936
5510.8297719963
5488.8764656066
5470.1344699788
5454.9596738646
5443.6170413751
5436.2015495253
5433.0250325098
5434.4263606916
5441.0908555469
5454.0005807092
5473.8592834727
5497.1728591115
5530.2221100758
5570.722456683
5617.8565035581
5669.9803584521
5725.5086821872
5782.5421254736
5838.3745400825
5891.5865992133
5940.5894685404
5984.2696352741
6021.1377244212
6051.4345193624
6075.1983771351
6092.6425359756
6104.1349420946
6110.6078779778
6112.7307646892
6111.5689291625
6107.8628377277
6099.0176163534
6092.0269645011
6084.4793949073
6076.3982408468
6067.9452995084
6059.3356343806
6050.7361785923
6042.225016673
6034.235430397
6028.1854484511
6019.7256373795
6011.9159790317
6004.2694170428
5997.1653890571
5990.57963418
5984.5450764566
5979.2355691179
5974.6600462479
5970.66151986
5967.2288958919
5964.4764203959
5962.3989317542
5960.8963695913
5959.876849074
5959.1614686562
5959.0177139044
5959.2802310136
5960.3683734292
5962.4346451114
5965.3560299996
5969.3398035242
5973.88516719
5979.0932473529
5986.015147824
5991.0361380933
6023.5610840646
209758.41606131
191484.75030558
180958.44511761
171667.47120668
161704.54176717
151446.2579484
140733.00614069
129458.19024701
117824.49931163
105657.53159827
94370.189761624
83146.255153633
72545.872712785
62825.400162896
54078.815641909
46374.134505638
39722.216454695
34073.600158446
29303.77087203
25282.920025404
21912.799903922
19090.273582216
16713.506124481
14706.252317635
13007.058966824
11559.642252692
10319.605292806
9255.252233978
8335.8622143062
7536.486067858
6840.2048416383
6229.2338187599
5693.2221863319
5218.4727060271
4798.4688944934
4423.4544668598
4089.441816046
3789.2848001916
3520.1798631088
3276.863767178
3057.5356886397
2858.070511232
2677.2091106629
2512.0187816406
2361.3553897976
2223.2656214209
2096.5539420001
1980.1158068534
1872.6532726363
1773.6028116959
1681.8174608504
1596.8804818501
1517.8988952386
1444.4712343516
1376.070514656
1312.2763062134
1252.6934840938
1196.9503332761
1144.7312023555
1095.7454743224
1049.7398940337
1006.4760319377
965.74010276951
927.33787488413
891.09835108788
856.86532984886
824.48968842012
793.83865908485
778.55212497891
3055.5068754363
5406.6447995434
5552.7995904853
5535.4739250931
5511.2813513485
5489.4258709585
5470.7820334645
5455.7100855644
5444.4261092081
5437.0832265992
5433.9737937365
5435.4303738811
5442.1458478027
5455.0880377766
5474.9325532528
5497.9417348111
5531.1154000734
5571.5843619925
5618.708079446
5670.8179354909
5726.3499427645
5783.2993256441
5839.1486800397
5892.3347304788
5941.2935796724
5984.9246899745
6021.7174821422
6051.9712030231
6075.5977051548
6092.9137062007
6104.3758977312
6110.7518500583
6112.8184433082
6111.6285923466
6107.8291242211
6098.8856579281
6091.8493454502
6084.2866903672
6076.2048086487
6067.7583414225
6059.1395978773
6050.549414257
6042.2413793854
6033.9856175234
6027.9252077398
6019.5128009464
6011.7639977978
6004.1278717291
5997.0609920171
5990.5084466799
5984.4899475218
5979.1463132326
5974.5047601771
5970.4694179441
5967.0053769951
5964.2114541937
5962.0685830384
5960.4914550473
5959.520305717
5958.7816661068
5958.6276527378
5958.9557254278
5960.0925811844
5962.1741103905
5965.083500433
5969.1036189153
5973.6700418199
5978.8371913878
5984.8413278749
5990.9167544684
6023.523069195
197523.07642384
176228.96929048
166029.30088657
155451.34110396
146397.58360103
136462.07124843
126750.29170549
116910.93691302
106897.39545806
96656.750108653
87405.261299678
77852.854641365
68544.621106307
59840.383462764
51839.461581453
44743.265566476
38548.148335415
33204.847961613
28657.135331608
24816.143506208
21569.138863335
18819.486710658
16506.671116173
14549.224740563
12881.846634676
11459.132310768
10241.076754939
9191.074689945
8283.0570848753
7493.6436625771
6804.5062468341
6199.7590089852
5667.7753369757
5197.6011700225
4780.0524560935
4408.4294439036
4076.1082246618
3778.2420004837
3510.3195481382
3268.7329120864
3050.1736526031
2851.8491466888
2671.6638357677
2507.1820028138
2357.0845160534
2219.391101152
2093.2361267269
1976.9909305017
1869.965408382
1771.0451796445
1679.5699912013
1594.8038329261
1516.0587136938
1442.8089552592
1374.5275584074
1310.8569263941
1251.376602493
1195.7380809784
1143.6166628179
1094.7245221606
1048.7997259608
1005.6050063257
964.9306863338
926.58878399992
890.40881700764
856.23109237954
823.90807845421
793.29327425615
780.87590437863
3132.7685552434
5416.5809197141
5553.847131918
5535.9893367168
5511.9230636294
5490.2175249459
5471.7134167525
5456.7802240169
5445.5929355292
5438.3517243631
5435.3381016544
5436.870550782
5443.6574501493
5456.6517919953
5476.520387006
5499.4534763857
5532.7043443125
5573.1860917187
5620.3193534147
5672.426111358
5727.9390989453
5784.852066838
5840.6878768544
5893.8312532125
5942.7360715582
5986.3091855017
6023.0019905938
6053.1398823068
6076.6038967858
6093.7271419245
6105.0163719497
6111.1846798302
6113.0957780254
6111.7875926168
6107.8633661844
6098.7537034508
6091.6369394457
6083.9961274629
6075.8576878999
6067.3827455728
6058.7706496677
6050.2255844936
6041.9950249522
6033.821792986
6027.6625533513
6019.2549972924
6011.5683367427
6004.0542748591
5997.0378206324
5990.5501783092
5984.597170139
5979.2805772756
5974.6217232029
5970.5437166824
5967.0254760966
5964.1580757161
5961.9247909363
5960.3057193322
5959.3144341644
5958.5563428519
5958.3576749385
5958.6929239556
5959.8196128837
5961.8877860128
5964.776195785
5968.8002805794
5973.3008239622
5978.4117234488
5984.4942072207
5991.5365192088
6022.3395008843
171063.49704696
151335.22126526
140117.67062739
130611.58328992
123405.63985453
116067.13449365
109187.33582181
102103.51617052
94923.514854818
87549.158103762
79707.517526096
71699.490239843
63801.322590264
56242.604989168
49199.544397657
42780.515998196
37091.516843121
32137.908499396
27868.769879745
24218.560851536
21116.840930548
18488.934141548
16246.357313865
14342.7252336
12721.284710093
11333.665839625
10138.665707001
9108.4181833729
8215.7237008394
7438.3639405665
6758.3836322083
6161.8687696328
5635.5134893425
5170.2464814282
4756.8933521719
4388.7900300128
4059.1570779285
3763.8395973886
3497.8509300134
3258.0226395101
3040.758198522
2843.8237418442
2664.4612029106
2500.9827998358
2351.4741592225
2214.5320883931
2088.8042448132
1973.0470476925
1866.4082013364
1767.8209440861
1676.6776764555
1592.1226003642
1513.6473813239
1440.6160697533
1372.5522156304
1309.0340052178
1249.686435891
1194.1796784549
1142.1849499585
1093.408909793
1047.584316994
1004.4797410414
963.88913532236
925.62439780031
889.514508634
855.40350415846
823.14409736588
792.5972289896
784.33072350782
3234.6454319973
5428.2495019778
5554.9388009927
5536.6251587901
5512.7522466528
5491.2445724076
5472.9209840767
5458.1591081343
5447.1080014469
5439.9943543276
5437.1023977602
5438.7309103119
5445.6080010461
5458.6734473072
5478.5950177621
5501.466674681
5534.7682697285
5575.2807078596
5622.4336473784
5674.5433916402
5730.0310506127
5786.9334640877
5842.7593929917
5895.8673073551
5944.6828305741
5988.1372635846
6024.6522376458
6054.5800343658
6077.823304776
6094.689805416
6105.7730713477
6111.723415133
6113.4575211501
6112.0024146293
6107.917925064
6098.5820390822
6091.3653295977
6083.6300128565
6075.4222098555
6066.9189181237
6058.3237170533
6049.8298280892
6041.6489879205
6033.5645417327
6027.2914035915
6018.9323714599
6011.3405721933
6003.8993231446
5996.9569337183
5990.5434762315
5984.6517727063
5979.3544700219
5974.6681087417
5970.5110605842
5966.8901470353
5963.9271108661
5961.5953718579
5959.944886513
5958.9017018406
5958.1508209665
5957.878701487
5958.2256340162
5959.3446701849
5961.3843876865
5964.2784965462
5968.3184789369
5972.7530372538
5977.833877809
5984.0390074097
5991.4866356458
6020.3025767453
103570.7976155
99979.490893388
98736.942951694
98524.028433583
97277.921050387
94929.243693051
91672.948469499
87837.231914835
82973.526673622
77570.462211913
71516.946687847
65180.438145508
58706.151794657
52307.985587055
46211.689530722
40557.210700897
35438.373013902
30900.109443844
26941.743148899
23522.604730602
20587.582946576
18076.771223649
15937.433929947
14100.229320748
12527.807098249
11178.516224886
10017.007428918
9008.6327025446
8133.2731110711
7370.7769401556
6702.9209001054
6114.8560506691
5596.3400985179
5137.1688913111
4728.7737430617
4364.5627871152
4038.7922706727
3746.1950470356
3482.6650719924
3244.8093479465
3029.4216605111
2833.8376356642
2655.7069847469
2493.2964508347
2344.6765003062
2208.5192135537
2083.3583716061
1968.2429395116
1862.0405774162
1763.915469093
1673.0936519254
1588.8699047132
1510.6853925006
1437.9150815015
1370.1052921257
1306.7873364338
1247.63011801
1192.2878022152
1140.4374292366
1091.7900273976
1046.0889082499
1003.1032603673
962.61818868327
924.44312024337
888.41156902729
854.37599089264
822.19665542363
791.68863566339
789.30076199607
3358.3466142549
5440.7705973719
5555.9267950539
5537.3502671581
5513.7585129054
5492.5023650095
5474.4009662837
5459.8427464488
5448.9642303381
5442.0044781672
5439.2577333765
5441.0003509112
5447.9842875613
5461.1362790491
5481.1285512026
5503.9557991659
5537.2957775171
5577.8457699551
5625.0201168074
5677.1395485915
5732.6114683222
5789.5207287376
5845.3223018273
5898.3543615345
5947.0404893647
5990.3438241657
6026.6519023075
6056.3305449615
6079.309220457
6095.8858209574
6106.7009310043
6112.3805941008
6113.9026999114
6112.2397284383
6107.8904438805
6098.321809437
6090.9672858817
6083.1118424039
6074.8212716369
6066.283130981
6057.7110651712
6049.2812441974
6041.1504092721
6033.2100585683
6026.8556588926
6018.5859889519
6011.0882630579
6003.7499528815
5996.8875501898
5990.5531606919
5984.7039311746
5979.4218864278
5974.7086146875
5970.4813540936
5966.7630164431
5963.7098237925
5961.288464271
5959.6308066397
5958.5048165149
5957.5437942458
5957.0818869493
5957.4007613826
5958.5544661717
5960.6041236584
5963.5343065118
5967.5975443842
5972.04741963
5977.3384876989
5983.578285404
5991.0305207136
6018.2637383746
10105.880020485
46055.031653231
60045.608372569
68563.719931675
73737.544547557
76068.663335642
76072.652716225
74624.597184361
72076.324689396
68638.251399964
64521.15364126
59836.015898244
54776.982355288
49539.997454736
44336.519464534
39355.869922931
34718.36184199
30513.113712259
26771.916061169
23489.462702057
20637.35090869
18175.441780749
16054.299711149
14235.319600271
12665.554072729
11308.41206881
10138.447354606
9124.9253629051
8241.6748966987
7468.5863857063
6792.4893919081
6198.0960937026
5672.3460393262
5206.0610635581
4792.0589184145
4422.7206031617
4091.8162698396
3794.8166720603
3527.5237678481
3286.0385751111
3067.2828641853
2868.7446937552
2688.0509484066
2523.1476582524
2372.2652656993
2234.0695758021
2107.1048530527
1990.287595576
1882.4889782211
1782.9497749934
1690.8277058037
1605.4344566968
1526.1238453397
1452.3297153097
1383.61762196
1319.4934893554
1259.5749975182
1203.4968558708
1150.9730787487
1101.7175745894
1055.4581899724
1011.9508632934
970.98056688127
932.36133444394
895.91994413772
861.49849805076
828.94961629662
798.12320989644
774.17886247626
2348.7082984457
5308.7104946575
5558.0156446697
5544.0529260715
5520.571601239
5498.9551239135
5480.2849230593
5465.0712749354
5453.4604403579
5445.689958359
5442.0036777272
5442.7462437052
5448.4452626868
5460.0866117776
5478.4014800789
5506.8757198943
5540.2581280998
5580.8475443017
5628.0421295315
5680.179538803
5735.6385404786
5792.5438602629
5848.2956151852
5901.2324057786
5949.7698626052
5992.8809105756
6028.9455414086
6058.3193422034
6080.9736424324
6097.2168838608
6107.7109843262
6113.0907941317
6114.3837713442
6112.5592657938
6108.0531292852
6098.1676913817
6090.4933601863
6082.4066196232
6073.94026781
6065.2941798231
6056.6767806132
6048.2573933085
6040.1022922488
6032.2981029913
6025.685099088
6017.5300143776
6010.1711133838
6003.0030372206
5996.3317194682
5990.1415968034
5984.4135975855
5979.1643285233
5974.3945004279
5970.0192217915
5966.1027779907
5962.8172673139
5960.2445186309
5958.3877138488
5956.8030110592
5955.6223728136
5954.9373831833
5955.2235752908
5956.6003881286
5958.8731704166
5961.900558916
5965.6010588989
5969.8787489715
5975.1098532295
5981.3649683123
5989.2794905832
6014.2682915155
7949.6056078975
14677.75904919
25104.471556163
33699.267620241
40449.263957876
45386.39131811
48652.911719649
50596.47108656
50760.013847377
50029.765803179
48507.170857801
46226.005296161
43383.382637371
40140.678534115
36677.024636999
33174.450248442
29770.226028942
26563.438238504
23622.93069842
20976.236382025
18624.37709356
16553.868713326
14741.141845915
13158.320430927
11779.568269835
10580.174386582
9532.4459994404
8612.8238706553
7808.6049858052
7102.2846623395
6480.18168148
5928.3493672385
5439.35232659
5004.5101952154
4616.4794231463
4268.355636254
3956.056603461
3675.0524248065
3421.3649219024
3191.4396858931
2982.7322933305
2792.9763968176
2619.9422523708
2461.6736773886
2316.6668765158
2183.6029422495
2061.2180194358
1948.3695840739
1844.1423356413
1747.7607863999
1658.48178428
1575.6180865987
1498.5601671893
1426.8253344882
1359.9574205445
1297.5464699434
1239.1879987345
1184.5349066061
1133.2930328359
1085.1932045733
1039.9903666336
997.45511547232
957.38182081876
919.58732454686
883.90500101871
850.18591049763
818.30155813318
788.08412355917
818.15263531746
3824.7400872716
5480.1380516732
5558.7438980734
5540.075024106
5517.780098593
5497.5899157918
5480.3931932984
5466.6305089739
5456.4528892724
5450.0957598871
5447.8954109785
5450.0659693415
5457.4409452179
5470.9071558391
5491.151506975
5513.8777994081
5547.3360633179
5588.0090593733
5635.2449194784
5687.4146616746
5742.8391490701
5799.6977664435
5855.3033140952
5907.9900416361
5956.1508155166
5998.7328391022
6034.2299433937
6062.8596395894
6084.7260131395
6100.1841708953
6109.8871262922
6114.5342624215
6115.2322304661
6112.8605954425
6107.8127821027
6097.1809981646
6089.0613380716
6080.6480817243
6071.9487904929
6063.203167034
6054.5815003927
6046.240305706
6038.1655481142
6030.6066117907
6023.805364405
6015.9808964309
6008.9093165027
6002.072395067
5995.6577955735
5989.6749557823
5984.1100966
5978.9022675464
5974.0723909776
5969.5537488959
5965.4415320997
5961.7949134423
5958.9953272858
5956.7639421261
5954.8822231409
5953.4952119082
5952.9359902432
5953.3886979804
5954.616985605
5956.7367800602
5959.8558423879
5963.6593455853
5968.4189419865
5973.8298768715
5979.9972749268
5987.4526791011
6009.2733394197
7689.8561528456
8436.4046672082
12978.669524864
18446.624617294
23492.664006254
27795.927541825
31259.609334128
33858.296600922
35665.47636715
36542.349750428
36485.869026682
35784.407177506
34542.598037731
32788.571625437
30666.959411955
28322.137276688
25900.194725803
23502.719599692
21210.39023905
19074.899001714
17124.225955262
15366.34943503
13797.059574813
12404.559756386
11172.969088315
10087.043451095
9129.5346040206
8284.7419880357
7538.935330285
6877.7503116823
6291.1184371394
5770.1867003124
5306.0001123164
4891.8202633261
4519.7622230605
4185.5788499151
3884.9557068956
3613.7118748824
3367.9693455754
3144.7596576997
2942.0237638029
2757.2530298363
2588.4293341354
2433.6928902357
2291.8944755252
2161.5439377034
2041.5154933537
1930.6821915932
1828.2323176475
1733.4323200367
1645.5166294256
1563.839287193
1487.8207315858
1417.0324765228
1351.0173027613
1289.3578399388
1231.6761203594
1177.635146543
1126.9594277963
1079.3664852666
1034.6084006552
992.47187792426
952.75899996021
915.30018616246
879.92445907532
846.4824685225
814.83895538556
784.8829144416
865.72901972321
4198.6691874403
5507.4091538913
5561.309078519
5542.595377314
5521.324756986
5502.0082121033
5485.5582388769
5472.4474573901
5462.8497919981
5456.9850329982
5455.2086285071
5457.7115609932
5465.377068752
5479.067252588
5499.4787379671
5522.1746469093
5555.684507934
5596.4287069221
5643.6921807389
5695.8699721422
5751.2339166634
5807.9850523251
5863.3761048588
5915.7308420624
5963.4029659533
6005.312920302
6040.1162822689
6067.8337281501
6088.7238303169
6103.1832531896
6111.878571327
6115.6436730021
6115.6307003198
6112.6370104969
6106.9520314931
6095.2892289045
6086.7247275231
6078.0011678786
6069.1437261114
6060.341841551
6051.7332495513
6043.4698537462
6035.5164130117
6028.1916431355
6021.2890937562
6013.8886708741
6007.180682881
6000.69954282
5994.6186266628
5988.8766402273
5983.5111053726
5978.4039122846
5973.3332997638
5968.4854012569
5964.0728930924
5960.3390650863
5957.4194654989
5954.6853110594
5952.8072510981
5951.692639801
5951.2058363731
5952.2184302509
5954.0381440201
5956.7189916519
5960.1584376571
5963.9558142183
5968.2274922161
5972.9147455463
5979.042011519
5985.9708521775
6004.2142677204
7008.9962486849
6995.3726422479
8441.6666740156
11608.33903212
15087.040832898
18365.151849233
21274.483365379
23722.77069674
25664.474480833
27035.403912761
27761.695321612
27896.809259264
27443.847655724
26618.820625859
25418.143358302
23935.029325994
22281.723360761
20556.470893714
18827.72881925
17156.286219144
15581.66259436
14125.509051826
12796.127782152
11594.322589439
10514.656014204
9548.6531170056
8687.0949302009
7919.1475414746
7234.5633491375
6623.9415416219
6078.8068066433
5591.2806657081
5153.8903751759
4761.0594287571
4408.0239957074
4089.9536716501
3802.7441923461
3541.9454872116
3305.2552927358
3090.2105103709
2894.2194769743
2715.2184811388
2551.0370753693
2400.682226573
2262.5235037149
2135.39476046
2018.0370210612
1909.5704857682
1809.2978360406
1716.3482899211
1630.0712583992
1549.7824404923
1475.0357480395
1405.3941238117
1340.3915705455
1279.6348117239
1222.7379473391
1169.4175266758
1119.3946789597
1072.3971334167
1028.1846189679
986.52926281838
947.25508518673
910.20147733472
875.20447009678
842.11162186873
810.78663065307
780.78391540966
976.08031595483
4572.4646757104
5533.2853477287
5564.709245593
5545.7499187739
5525.4686015008
5507.0814463116
5491.4572685833
5479.0658771384
5470.1017891695
5464.7735362841
5463.4392644924
5466.2940856941
5474.2539489493
5488.1593320759
5508.7187193119
5531.4104815558
5564.9365514306
5605.71842737
5652.974941427
5705.1192991577
5760.378826737
5816.9515882504
5872.0544014375
5923.9873947125
5971.0534703082
6012.1256449191
6046.071371
6072.6796801919
6092.3843747813
6105.6380761481
6113.1258721504
6115.961043212
6115.2379670871
6111.470495872
6105.1075401324
6092.3829637062
6083.4173686086
6074.4002290414
6065.3951174663
6056.55672727
6047.9920966085
6039.8401359645
6032.0695192341
6025.0000971377
6018.1367541195
6011.1828868106
6004.8522488225
5998.7387595972
5992.9769488295
5987.4524175403
5982.0155751089
5976.8560980511
5971.9116874085
5967.1144032057
5962.7937392665
5959.2785128696
5956.4143527617
5954.3696641537
5952.3692435645
5951.8553681591
5952.4521614164
5953.9233807814
5955.8643384347
5958.3451020502
5961.1939986539
5964.4996998021
5968.1986953422
5972.0906707496
5977.6050792248
5983.7093439177
5999.2867754666
6365.0255299841
6365.1822147952
6596.927533446
8176.7848392309
10492.543264894
12893.300400016
15180.959932773
17249.308343047
18992.390673357
20376.914593261
21392.182414084
21884.053745363
21986.237045389
21684.336027948
21071.469738538
20175.901747509
19092.459641861
17877.244195736
16603.892599188
15322.281233185
14075.252200609
12891.080789678
11784.296697336
10763.325502312
9830.5052311252
8983.4326665681
8217.7840140411
7528.0240352917
6907.2264578949
6348.5705995421
5845.817929422
5393.1696188178
4985.3162321397
4617.3098170405
4284.4285101561
3982.7405562768
3709.3346466415
3460.9220601518
3234.7812824172
3028.6454947249
2839.8113673385
2666.9285953396
2508.5114943462
2362.9303274255
2229.0008135766
2105.2607298295
1990.9628214949
1885.3375880726
1787.4721852954
1696.6808084533
1612.1730070979
1533.550646342
1460.3168449263
1391.9867772494
1328.1557422594
1268.3909756294
1212.4217814426
1159.9436865558
1110.6649001856
1064.3399179291
1020.7176318336
979.62507652243
940.87669730997
904.29044346961
869.72072180979
837.01487109863
806.05943903344
776.21887703405
1195.8776931385
4899.3853123202
5555.3110500282
5568.5476402827
5549.3697980107
5530.0249466379
5512.5755628952
5497.8154528569
5486.1853219693
5477.8895964202
5473.1212259317
5472.2266553385
5475.4434611164
5483.6892607857
5497.7885332729
5518.4622424308
5541.1734964437
5574.6693907709
5615.4246912052
5662.5959780513
5714.6224992457
5769.6873814436
5825.9449746303
5880.6748752669
5932.0757951662
5978.4104296351
6018.4665724638
6051.4114580563
6076.7351433629
6095.0452368996
6106.8446993481
6113.1386537074
6115.1251066523
6113.5270478854
6108.9617708235
6101.9379660356
6088.1825475799
6078.8992559545
6069.6634203707
6060.5661550087
6051.7449786455
6043.2904874169
6035.3070442947
6027.7870086622
6020.9909261011
6014.2870888949
6007.7789386133
6001.8347704408
5996.1443873839
5990.5083503538
5985.0500730062
5979.8640510441
5975.0059999481
5970.4046834035
5966.0416717714
5962.1570576929
5959.0028664547
5956.5037461481
5954.4499688693
5953.9848240915
5953.970222773
5954.4545858292
5955.5931603127
5957.3376524975
5959.4019743191
5961.573010886
5963.9015290401
5966.3584996235
5969.5532989463
5974.3071482382
5981.0982600999
5994.8005853654
5843.426556587
5822.9798945252
5783.9195877136
6370.9648036918
7807.1750126203
9542.7917979868
11300.104589877
12971.581863893
14454.863490198
15714.9008305
16720.46122514
17405.219070839
17753.87927926
17752.050285956
17495.972199314
17007.394998654
16334.084393144
15506.087012008
14586.140021985
13621.01942417
12649.202592518
11699.655556136
10791.726693784
9936.7495900985
9141.0190377952
8407.2261621272
7734.6581391032
7121.3619176639
6563.8833147003
6057.7319506383
5598.5673536297
5182.1384673686
4804.3815689499
4461.4770383808
4149.8269393447
3866.2928373297
3608.1115334592
3372.4429221629
3156.9059322944
2959.8450592047
2779.3079227545
2613.665770412
2461.3841479875
2320.7795185027
2191.1144130033
2071.4215700287
1960.7086789276
1858.2091886684
1762.9634217687
1674.3764770179
1592.0395761933
1515.3111670963
1443.7600497929
1376.8958091977
1314.2840041173
1255.7091752772
1200.7923691067
1149.2579345698
1100.8200252884
1055.2144078236
1012.2884718797
971.82714137058
933.64381218667
897.5770289478
863.46296964298
831.17710927095
800.59886331987
772.75937504698
1684.3320599738
5164.9586189618
5574.1433972588
5571.9007281035
5553.0450276791
5534.6669299405
5518.1712443714