/*--------------------------------*- C++ -*----------------------------------*\
| =========                 |                                                 |
| \\      /  F ield         | OpenFOAM: The Open Source CFD Toolbox           |
|  \\    /   O peration     | Version:  2312                                  |
|   \\  /    A nd           | Website:  www.openfoam.com                      |
|    \\/     M anipulation  |                                                 |
\*---------------------------------------------------------------------------*/
FoamFile
{
    version     2.0;
    format      ascii;
    arch        "LSB;label=32;scalar=64";
    class       volScalarField;
    location    "0.00015";
    object      rho;
}
// * * * * * * * * * * * * * * * * * * * * * * * * * * * * * * * * * * * * * //

dimensions      [1 -3 0 0 0 0 0];

internalField   nonuniform List<scalar> 
109340
(
662.48311233091
662.47805901412
662.46845071674
662.45683022643
662.44400047531
662.4306328687
662.41698717098
662.40319455418
662.38940225601
662.37527896606
662.36018543949
662.34351127972
662.32452547838
662.30233987829
662.27589506762
662.24393742546
662.2049725324
662.15720865002
662.09847228406
662.02609684091
661.93676077368
661.82629496336
661.68941141622
661.51933613123
661.30728471829
661.04172932263
660.70731301194
660.28320367238
659.74048567126
659.03783231463
658.11394018727
656.87344843543
655.15897867224
652.69239299914
648.94478931478
642.83258833699
662.48386779398
662.47738254149
662.46660278079
662.45420042208
662.44100121496
662.42758813538
662.41412953823
662.40061439181
662.38684327707
662.3724859722
662.35703383222
662.33985591637
662.32017943369
662.29707199136
662.26942555993
662.23592441548
662.19501024319
662.14480622328
662.0830280201
662.00686233368
661.9127996426
661.79642275422
661.6521152685
661.4726626185
661.24868305834
660.96782170605
660.61355382994
660.1633485101
659.585726846
658.83531899466
657.84406904215
656.5044840734
654.63509648833
651.90456709118
647.64430681409
640.40718347537
662.48668694108
662.47918150486
662.46731551788
662.45461867493
662.44152921061
662.42830483223
662.41491501017
662.40135830721
662.38753879885
662.37314133534
662.35767179927
662.34049591891
662.32083641448
662.29775861861
662.2701546794
662.23671395412
662.19587738585
662.1457704874
662.08410985986
662.00808430221
661.91418356651
661.79799049761
661.6538887489
661.47466175453
661.25092555061
660.97032044111
660.61631538116
660.16637298738
659.58901067707
658.83884957996
657.8477937815
656.50808442448
654.63626609531
651.8901330228
647.54729158601
639.86127323802
662.4906118592
662.48156655875
662.46910161429
662.45604681788
662.44270404338
662.4292033108
662.41558828476
662.40187563849
662.38795166771
662.37349654171
662.35801719815
662.34087403217
662.32128221826
662.29830094783
662.2708152107
662.23750688769
662.19681083316
662.14684546231
662.08531524403
662.00939774651
661.91555501904
661.79933872325
661.65508636001
661.47551266509
661.2511410354
660.96947485505
660.61378973492
660.16127186441
659.58003972075
658.82411839093
657.82446627123
656.47167234236
654.57749942839
651.78170356422
647.27450393945
638.75113181673
662.4968036474
662.48504567958
662.47075977017
662.45681362216
662.44310795173
662.42947474879
662.41581732655
662.40212006051
662.38823961907
662.37384442928
662.35844804538
662.34140758231
662.32192518089
662.29903974838
662.27160609487
662.23826251381
662.19738453217
662.14700998382
662.08468766141
662.00746435935
661.91154595955
661.79216407136
661.64321080266
661.45677074344
661.22250744415
660.92671109993
660.55096047781
660.07004429069
659.44864944607
658.63578136926
657.5547074379
656.08433255219
654.0140624977
650.93301953017
645.85698458643
635.32825918301
662.50835320949
662.48685358092
662.47107889409
662.45680738888
662.44305285785
662.42941867173
662.41576826317
662.40202612326
662.38796661299
662.37312288286
662.35682099463
662.33816937329
662.31605340556
662.28911437076
662.25571189987
662.21387011786
662.16119938602
662.09481772677
662.01128270316
661.90567426872
661.77206407724
661.60279684456
661.38793370291
661.11448591685
660.76534784788
660.31776304801
659.74109571212
658.99343863651
658.01622054847
656.72512914817
654.99343441515
652.62400396388
649.27164614585
644.26318212058
635.94124221437
617.34025382845
632.31712642171
614.69403331243
587.64613531659
550.86362404142
506.21230770658
455.24037508029
400.08973158786
343.30574047329
287.5353271283
235.27051590662
187.78126864219
148.20495833631
115.62215737102
89.708749017707
69.708640094489
54.389190539386
42.756501224248
33.918460520262
27.173307397258
22.014312893822
18.042434088824
14.939337938886
12.49413475455
10.550662903791
8.9832044654365
7.7166574687753
6.694859802524
5.8172405355287
5.1147799528737
4.5109921256316
3.9992537898657
3.5764023861171
3.1964522268658
2.8878090079678
2.6021364877751
2.3698187492909
2.1514762710471
1.9724748150689
1.8030932847988
1.6623545943501
1.5296631979634
1.4165200746072
1.3121245162299
1.2189768895157
1.1359962753726
1.0582419809253
0.99097257827934
0.92641627313199
0.87061376818004
0.81781395441444
0.76985595112578
0.72576597576555
0.68521808523433
0.64786551110979
0.61335770506744
0.58141069028589
0.55177782258711
0.52425365724297
0.49865429532016
0.47480897054817
0.45255873292855
0.43176390556792
0.41230382475691
0.39407065875842
0.37696580927245
0.36090037709444
0.34579369325958
0.33157998040451
0.31908806473857
0.72939014809843
2.0224208975617
2.1303729136846
2.0987430566363
2.0640334447074
2.0321422317843
2.0031119245194
1.9767779509413
1.9529603051307
1.9315565961522
1.9125813639611
1.8961874124801
1.8825533245558
1.8720295510716
1.8647845821472
1.8605823354448
1.8597117565447
1.8611643411254
1.8641682196363
1.8673436657431
1.8691825438427
1.868115075973
1.8627376596656
1.8531152445807
1.8405624299361
1.8275422710746
1.8162976125966
1.8084155736581
1.8041231271536
1.8025706444942
1.8025450091773
1.8029501159232
1.8030042226236
1.8025102712566
1.801456572014
1.7990397308823
1.7972254923929
1.7953150846316
1.793310550637
1.7912474786686
1.7891714187462
1.7871297973962
1.7851307370819
1.783283055991
1.7819505141657
1.779865118934
1.7778938414563
1.7759410171388
1.7740771548919
1.7723130037291
1.7706345854126
1.7691059305934
1.7677313003792
1.7664500266882
1.7652689770757
1.7642301011228
1.7633282962601
1.7625311104931
1.761803380684
1.7611096022747
1.7605104503944
1.7599413706376
1.7595229700846
1.7592918915031
1.7591940720402
1.7592961222105
1.7595498712337
1.7602178829944
1.7622056524456
1.7655869854835
1.7803681202817
627.20368639793
604.64616847685
571.20109432024
528.43760998133
478.46314267402
424.06695445975
367.5896251322
311.75321182818
258.94117265291
210.91168230993
168.80808693346
133.02960026577
104.52122170107
81.764656310121
63.941649368105
50.233075914927
39.717993250866
31.676406842471
25.516624711876
20.768800135582
17.082841425914
14.19709395219
11.914232194578
10.089527389863
8.6184346920902
7.4208989815353
6.437155183934
5.6229288950615
4.9416828234106
4.3698498560762
3.8837788780436
3.4705671020141
3.1149128568191
2.808318368401
2.5418225686524
2.3093982652181
2.105432141623
1.9259838122716
1.7670973208962
1.6262452300907
1.5004746987949
1.3883278621558
1.2873420381608
1.19680565891
1.1147313660899
1.0407431186019
0.97330098226503
0.91211753244246
0.85613658161644
0.80502092229119
0.75809190011879
0.71496536716411
0.67526835312422
0.63863909100686
0.60480321822764
0.57345980636387
0.54438943335406
0.51737762383146
0.49224340350127
0.46881738184919
0.44695249616248
0.42651456053624
0.40738412964044
0.38945221326005
0.37262188128566
0.3568066377122
0.34192979377723
0.327920281729
0.31946935894104
1.1878921455541
2.0942012094159
2.123342978452
2.0895984226897
2.0555204093954
2.0243256468831
1.9959651885625
1.970242589423
1.9470239876837
1.9262184791447
1.9078985620371
1.8921932326638
1.8793556442114
1.8696829667052
1.8632858047479
1.8602639972406
1.8592957585837
1.8607373249017
1.8636970217379
1.866809151273
1.8685716291526
1.8674108487328
1.8619464736789
1.8522429652113
1.8396288127523
1.8265824648837
1.8153541107655
1.8075350742345
1.8033222766491
1.8018974667834
1.8019959173653
1.8025162501743
1.8026845500878
1.8022815984918
1.8012928340366
1.7989230941042
1.7971322332911
1.7952421539988
1.7932555249676
1.7912109463186
1.7891587773851
1.7871305600943
1.7851242028783
1.7832550394326
1.7819279369837
1.7798472945992
1.7779079201539
1.775958738447
1.7741319495507
1.7723898322241
1.7707255041071
1.7691910439566
1.7677917746319
1.7664853137235
1.7652721928225
1.7641888304747
1.7632345161501
1.7623799776892
1.7615982031686
1.7608346889027
1.7601637709334
1.7595286279324
1.7590378697412
1.7587194183643
1.7585239726122
1.7585200730355
1.7586415335611
1.7591564032782
1.7609186982202
1.7639236736601
1.7783273865069
624.41133379231
595.9691336332
555.21601336927
505.12910134041
449.2970711274
391.76389146342
335.52879551707
282.51078214619
234.17077464234
190.80567032178
154.3287141351
123.32154108752
97.806576236086
77.29700165634
61.042354167562
48.317706179367
38.452342545234
30.845674258078
24.964111149505
20.388170078658
16.815683336195
14.007781387105
11.776483216485
9.9879603803561
8.5432172269239
7.3641980457021
6.393073128911
5.5884509077026
4.915624840645
4.3482323334421
3.8673482677461
3.4562381821267
3.1038830042779
2.7987710059143
2.5342920406741
2.3027645742711
2.1001956442874
1.9212935135037
1.7634051665453
1.6228411264121
1.4978796436072
1.3858157043584
1.2854518275381
1.1949386759159
1.1132987806297
1.0393254825228
0.97213802771411
0.9110299896596
0.85517006991149
0.80415586701001
0.75730415576948
0.71431141062042
0.67466680269572
0.63809744549364
0.60429160755471
0.5729911695901
0.54396280104316
0.51698995819857
0.49188877230539
0.46849203036997
0.44665422158243
0.42624079025138
0.40713184259125
0.38921934482062
0.37240818344359
0.35661215659165
0.34175050613533
0.3277514895312
0.31990244656967
1.2083292350563
2.0969087477217
2.1233449695822
2.0894925783408
2.0554493942785
2.0243082742542
1.9960008269996
1.9703325802588
1.9471528059685
1.9263920833846
1.908115780326
1.892450085775
1.8796498105574
1.870006677616
1.8636219060726
1.8605135128579
1.8596016044445
1.8610493133313
1.8640268829913
1.8671639532529
1.8689674993968
1.8678294711189
1.8624236006634
1.8527540603927
1.8401431758799
1.8270647992026
1.8157708471299
1.8078830923372
1.8035709042266
1.8020624643691
1.8021183795973
1.8025902961708
1.8027343349357
1.8023178741085
1.8012988292653
1.7988981462808
1.7970917385275
1.7951960291184
1.7932093927153
1.7911685465568
1.7891176948496
1.7870976635975
1.785156740351
1.7832130411431
1.7818832972842
1.7798148612377
1.7778881408261
1.7759382076398
1.7741099157411
1.7723499651818
1.7706548909899
1.7690654278606
1.7675915730621
1.7662088762888
1.764911201739
1.7637306590416
1.7626625577513
1.7616819755522
1.7608002197887
1.7599046841755
1.7590933663076
1.7583256827995
1.757679171809
1.7571725127221
1.7567541335856
1.7565085294451
1.7563453866317
1.7565144397687
1.7576313571585
1.7605587644725
1.7745908811551
618.17300091503
576.30835262267
520.59130870212
457.87274716102
396.84866025291
339.07903765863
287.32629296331
241.46208232521
201.07703477762
165.66956236697
136.37088163471
110.89515461357
89.373852832633
71.659406642929
57.267692627595
45.827547289545
36.811590317626
29.736516262064
24.203929012459
19.873516191886
16.459378537677
13.746227456681
11.587104913249
9.8504621400129
8.4388596157989
7.2840479445501
6.3323984257231
5.5406426576752
4.8776630954642
4.3181950203231
3.8430811032925
3.4366423823277
3.087470425091
2.7855375422423
2.522938141768
2.2936201727799
2.0922803395311
1.9148158009863
1.757754176009
1.618217397793
1.4937929558416
1.3823866018712
1.282461798791
1.1923498512244
1.1110584181294
1.0373132965105
0.9704393036292
0.90945217131215
0.8538262013398
0.80289774045658
0.75620736616066
0.71331216259032
0.67378686360493
0.63731151961684
0.60356916474823
0.57233307309527
0.54335796472827
0.51643786271012
0.4913852286375
0.46803413240521
0.44623559167528
0.42585566332491
0.40677637484799
0.38889239994053
0.37210893394991
0.35633838544022
0.34150071613323
0.32751856303844
0.32079462502417
1.2383321178953
2.100313050145
2.1233405769864
2.089310721913
2.0553417309557
2.0242822292787
1.9960507953953
1.9704574601493
1.947338038565
1.9266407982812
1.9084270566904
1.8928171655406
1.8800700332758
1.8704713123661
1.8641192372177
1.8610072355593
1.8601431217272
1.8616198642013
1.8646324566088
1.8678124629268
1.8696694545303
1.8685940302176
1.8632626374009
1.8536425308955
1.8410399227264
1.8279174816312
1.8165276842969
1.8085193363364
1.8040714354265
1.8024331469618
1.8023861506467
1.8027671299609
1.8028516522985
1.8023935335072
1.8013335386975
1.7988807496917
1.7970474810669
1.7951267486009
1.7931234537849
1.79107678378
1.789033657844
1.7870347579205
1.7851242161982
1.7832103178586
1.7818525915309
1.7797824558439
1.7778662707027
1.7759472037388
1.7741079626346
1.7723239144896
1.7705907907574
1.7689361519774
1.7673674679225
1.7658656636175
1.764429216083
1.7630882972128
1.7618392344181
1.7606758897241
1.7596009617915
1.7584949147287
1.7574445841065
1.756427985272
1.7554960422462
1.7546643280407
1.7538731893082
1.753206904956
1.7525415208946
1.7521464918278
1.7526831092805
1.7552975637666
1.7682003451183
597.29901485375
520.44468842414
438.81549029619
368.43501547724
312.73435744864
266.31864353294
227.75329285112
194.49862771534
165.54017340654
140.11452221601
117.34135780354
97.270213044626
79.907202978808
65.185729636623
52.941494436732
42.912191376936
34.838697277252
28.403191859242
23.290228887209
19.230426025751
16.003163339076
13.428319601417
11.351138242349
9.6729235162024
8.3064397928591
7.1843353322043
6.2542730098468
5.479621399776
4.8294747403304
4.2797493495155
3.8118650436105
3.4115835186807
3.0666410277037
2.7682865180187
2.5085912976206
2.2816900625819
2.0821542870749
1.906355391268
1.7505305735291
1.6121088713145
1.4884954965464
1.3779252188205
1.2785169069864
1.1889891911869
1.1080636226289
1.0347396402146
0.96813031533349
0.90741436594254
0.85201503039771
0.80127062591514
0.75476503619332
0.71199015491726
0.67260919578178
0.63625090830201
0.60262106559212
0.57146722156848
0.54256272659921
0.51571118670788
0.49072299404474
0.46743031892919
0.44568206434327
0.42534700467502
0.40630887008425
0.38846243091634
0.37171279604609
0.3559740333071
0.3411662357103
0.32721541807494
0.32211985789441
1.2778783060909
2.1042397341283
2.1232187963174
2.0890551241121
2.0551969753158
2.0242458957018
1.996113189161
1.9706139830121
1.9475767882132
1.9269604423681
1.908827045478
1.8932888753552
1.880610016357
1.8710702376085
1.8647679484744
1.8616632999818
1.8608454174654
1.862365626495
1.8654274878278
1.8686672074103
1.8705957122445
1.869616360083
1.8643873271188
1.8548408949287
1.8422455078634
1.8290532864207
1.8175232816142
1.8093376863574
1.8047077531818
1.8028947312889
1.8027168271463
1.8029930979218
1.8030062703068
1.8024960010861
1.8013831224434
1.7988597008408
1.7969925532968
1.7950409783432
1.7930166661987
1.790964507582
1.7889333257187
1.7869592500327
1.7850727690789
1.783191528096
1.7818014394055
1.7797409621564
1.7778438180463
1.7759357411442
1.7740762584361
1.7722519790632
1.7704531358085
1.7686968946553
1.7669881547115
1.7653061703348
1.763658183697
1.7620840415308
1.7605773526794
1.7591521565449
1.7577843026179
1.7563758329902
1.7549663804582
1.7535756617132
1.7522138090804
1.7508851144533
1.7495357453696
1.7482299400235
1.7468139474165
1.7455948115708
1.7452972977172
1.7472181292258
1.7587581267936
449.01330866595
325.10461762612
272.79645908908
240.76773991556
214.60217368819
191.47389484783
170.3522887432
151.02935600477
132.43440518474
115.06642013746
98.706990183668
83.753718453311
70.289232423334
58.434558351277
48.265498184815
39.716838107417
32.651704264363
26.891684719667
22.238017379964
18.491124311885
15.474798624672
13.04100317506
11.073356828176
9.465223591386
8.1481640906659
7.06253285092
6.1617355048976
5.4064004240305
4.770917551188
4.2330689241413
3.7744671496312
3.3807330519298
3.0414677157277
2.7474732006476
2.4912400736206
2.2670336421999
2.0700070957281
1.8960104194473
1.7417520506264
1.604585351008
1.4821091000641
1.3723823267939
1.2737104163359
1.1848222396625
1.1044151711256
1.0315503807635
0.96527553867382
0.90491938418434
0.84977319865671
0.79928321168092
0.75296371101907
0.71036933344153
0.67114856067985
0.63493005563393
0.60143450333225
0.57038733366917
0.54158230737648
0.51481674468705
0.48990353140271
0.46667737035846
0.44499172241627
0.42471592875315
0.40573011478067
0.38792824167605
0.37121749808624
0.35551560708405
0.34074593366616
0.3268158632843
0.3240279756542
1.3258520177832
2.1083423282116
2.1229223146392
2.0887146571581
2.055012351929
2.0241986965667
1.9961876085078
1.9708014503376
1.9478670103321
1.9273489283297
1.9093126658707
1.893861234921
1.8812649190227
1.8717973193808
1.8655580857802
1.8624726508556
1.8617039526354
1.8632781222156
1.86640039982
1.8697166228628
1.8717396793832
1.8708865675995
1.8657821159211
1.8563197222808
1.8437308630256
1.8304534437221
1.8187546834651
1.8103521064827
1.8054977383951
1.8034740086021
1.8031278557894
1.8032726416796
1.8031984180917
1.8026158113284
1.8014181958769
1.7988212026673
1.7969078463191
1.7949166186716
1.7928662335361
1.790806413078
1.7887895426601
1.7868453997152
1.7849843237222
1.7831524613015
1.7817388353187
1.7796981691116
1.7778236869804
1.7759187038863
1.7740244017913
1.7721376129771
1.7702347545478
1.7683328582114
1.7664306802992
1.764506746541
1.7625737110948
1.7606823584132
1.7588245362913
1.7570380395611
1.75525112875
1.753345804427
1.7513957055972
1.7494498482441
1.7474734475447
1.7454293896906
1.74326408495
1.7410154836831
1.7385381839785
1.736215458197
1.7347309783694
1.7356236691196
1.7457869367608
15.291483628379
103.80255895747
127.58814177696
136.56596449268
138.05936449056
134.0208171453
126.31255641541
116.82312381672
106.36945490822
95.463772871395
84.50013792996
73.736634660527
63.493346057074
54.017013675676
45.508641538418
38.085186682423
31.747504701055
26.440678561298
22.055775625737
18.461722438522
15.528044788709
13.136308427624
11.181186604603
9.5818929222056
8.2617897175677
7.166218238101
6.2555328028185
5.4928702814288
4.8489982831526
4.3018207819524
3.8358158808448
3.436208605965
3.0909934361813
2.7914685982138
2.5308259865323
2.3027028732564
2.1019822484144
1.9248400337248
1.7679183081195
1.6282769666146
1.5035698799814
1.39190380656
1.2915620294604
1.2011044349308
1.1192941815954
1.0451833870597
0.97781140246687
0.91644512686303
0.86036644935484
0.80905702689964
0.76199206159531
0.71873246371169
0.67888435265501
0.64209953013948
0.60810593708328
0.57661457948204
0.5473961350992
0.52023782587233
0.49496737718777
0.47141969655384
0.44944051565385
0.42889278984056
0.40965583421709
0.39162492527279
0.37470383726159
0.35880550435713
0.34384975865517
0.32975740901975
0.31855203176619
0.93362450619566
2.0641557574419
2.1300871323482
2.0970582917925
2.0628952380392
2.0315357594638
2.0029867261167
1.9770991341686
1.9536817255983
1.9326766206976
1.9141142463391
1.8981130388464
1.8848680894245
1.8746889845432
1.8677187329238
1.8634194522619
1.8627082836594
1.8643450203694
1.8675376611277
1.8709471933598
1.8730849051724
1.8723791697117
1.8674187235634
1.8580585624076
1.8454835476166
1.8321045720121
1.8202074905774
1.8115438620363
1.8064178606842
1.8041443263091
1.8035947394211
1.8035874199248
1.8034146253529
1.8027708835163
1.8015195996918
1.7988485861079
1.7968308792024
1.7947623290329
1.7926554499112
1.7905665018596
1.7885475526991
1.7866242624871
1.7847731091627
1.7829914736989
1.781500983694
1.7794845324297
1.7776397225097
1.7757153808563
1.7737565927404
1.771734686568
1.7696246238003
1.7674176550645
1.7651079574844
1.7626721887484
1.7601364616001
1.7575580263391
1.7549624264797
1.7523491843331
1.7495824727704
1.7466777550674
1.7436135692767
1.7404642040812
1.7371745625237
1.7335984199895
1.7296140929932
1.7251468231662
1.7202839627128
1.7154563643464
1.7115539980346
1.7107755501921
1.7188085210241
6.8300485669011
18.243172022383
32.559755507089
44.469117501106
53.510493945212
59.550078574379
62.701951747894
63.502207801129
61.768358537512
58.751386747892
54.764866253303
50.042710687421
44.939134955717
39.723165789969
34.64339390402
29.905018266888
25.628642460007
21.867828332189
18.630176228084
15.883026321586
13.572531113166
11.639286762702
10.024545910953
8.6747572103689
7.5451230049567
6.5978183553049
5.7983530333803
5.119126607849
4.5421578400809
4.0490489754941
3.6256004429962
3.2590143475557
2.9412655812976
2.6645035724982
2.4223065178784
2.2090467657424
2.0209912355586
1.854503710039
1.7064987121376
1.5743227345601
1.4559960303204
1.3498070513394
1.2541776276004
1.1677492756065
1.0894593843296
1.0183863973862
0.95369042500265
0.89462637853468
0.84059171334969
0.79107534002002
0.74560442237197
0.70375422123078
0.66514990791207
0.62949051446863
0.59649710563417
0.56592304250173
0.53753308401487
0.51112470531795
0.48652586048204
0.46358038277035
0.44214813377358
0.42209980063828
0.40332024826707
0.38570723714008
0.36916844016354
0.35362160446731
0.33899517063437
0.32520289730735
0.33512266567925
1.5060304915882
2.1204450160293
2.1211967628928
2.0872128830693
2.0542148000887
2.0239794583042
1.9964629160634
1.9715232469951
1.949005243292
1.9288782383607
1.911221704679
1.8961115437794
1.8838371602026
1.8746517170617
1.868658333577
1.8656782176736
1.8650998785761
1.8668861994589
1.8702493827861
1.8738847305201
1.876304693245
1.8759540810689
1.871350425585
1.8622532862372
1.8497278451085
1.8361007255367
1.8237333063453
1.8144282186967
1.8086294443881
1.8057409695967
1.8046781152079
1.8042876496677
1.8038568178468
1.8030169758137
1.8015867817073
1.7986910348433
1.796526859076
1.7943436407185
1.7921541080498
1.790031236264
1.7880196653624
1.7861389989832
1.784330357341
1.7826295138248
1.7810800531589
1.7791619759754
1.7773305644858
1.7753397034533
1.7731899275345
1.7708344038825
1.7682252809436
1.7653115855064
1.7620795307986
1.7585043459335
1.7546215650531
1.7504595357801
1.7461322430011
1.741557160552
1.736651514237
1.7313900950708
1.7257438351629
1.7196065120786
1.7127193420826
1.7049488467302
1.6962158630752
1.6864750339402
1.6761344657871
1.6657948858777
1.6570564581575
1.6531706527898
1.6582188241901
5.4399332145332
8.0344529994765
12.985962936688
18.987199908182
24.619400753945
29.433956586603
33.171015651718
35.738738550486
37.186929224356
37.393446218869
36.498175640707
34.853589095607
32.631585819868
29.961420976449
27.054387210433
24.091451093078
21.230637067648
18.567338654215
16.160029264643
14.031192249481
12.178995020529
10.584407509934
9.2203621057602
8.0572759644472
7.0661856077291
6.2218900982586
5.501027640639
4.8838332711181
4.3539236968256
3.8964062512937
3.5003150968718
3.1564821633061
2.8566050680371
2.5943170926427
2.3632371854241
2.1593628177658
1.9790035568905
1.8188322370743
1.6759158513117
1.5479704635732
1.433308710967
1.3301475174648
1.2370437996153
1.1527178843971
1.0762916356775
1.0067841214966
0.94343052395024
0.88550635988217
0.83246456299898
0.78381999914689
0.73909691241696
0.6978920909872
0.65985007262747
0.62469539479362
0.59215229027349
0.5619728092776
0.53393484309381
0.50784234518276
0.48353186878668
0.46084317792958
0.43963562922147
0.41978771287538
0.40118828211255
0.38374130729259
0.36735321184084
0.35194190771821
0.33743353079603
0.32376701049569
0.35354725993972
1.6497898938715
2.1282100932503
2.1196984849792
2.0859296753984
2.0535067168583
2.0237535508486
1.9966511409466
1.9720847295287
1.9499188683001
1.9301223394293
1.9127803819258
1.8979557913324
1.8859471656205
1.8769930915191
1.8711984032032
1.8683311367332
1.8679042509865
1.8698650435684
1.8734309252339
1.8773344761625
1.8800984902565
1.8801776008113
1.8760215616389
1.8672727958469
1.8548397108539
1.8409380516029
1.8280095835216
1.8179143498603
1.8112700028915
1.8075946502706
1.8058640217213
1.8049862182683
1.8042309364069
1.8031593645573
1.8015204848567
1.7983137805408
1.7960039533658
1.7937038620572
1.7914427453163
1.7892844921249
1.7872701157773
1.785418547883
1.7836535528865
1.782023412379
1.7804510549304
1.778628540589
1.7767648927044
1.7746161552182
1.7721305048737
1.7691895611111
1.7657117462102
1.7615855315281
1.7566921772067
1.7510576209041
1.7447429738874
1.7378336561804
1.7303935706529
1.7222381748838
1.7135011360949
1.7039832148769
1.6933419349104
1.6814529747644
1.6677923042203
1.6521917256746
1.634662249294
1.6155802295731
1.5959646276377
1.5774012579636
1.5629022555976
1.5563205102435
1.5587082406587
4.3485803551525
5.6982370792058
7.2117621543425
10.195767778936
13.521180546555
16.696458388704
19.528439037349
21.848567802125
23.58083954644
24.666374268202
25.003912133074
24.713210557546
23.841726999994
22.593562102428
21.018229189817
19.244583585332
17.397313760695
15.574818562374
13.8404868782
12.240412817307
10.797061951141
9.5155206299633
8.3898286635734
7.4083674224655
6.5562044737748
5.8177963189458
5.1786332803312
4.6247230947404
4.1438256820135
3.7254023781154
3.360441168052
3.0411146223003
2.7605363570232
2.5134110956998
2.2953200273191
2.1021830887533
1.9306002908726
1.7772578844657
1.6401258888981
1.517245530031
1.4067307630411
1.3070645584905
1.2167725505733
1.1350164929633
1.060715113714
0.99305788871822
0.93123481389942
0.87464816640163
0.82281244584184
0.77518889934678
0.73135986385458
0.6909116131122
0.65355194636298
0.61900565469425
0.58699613824591
0.55728844973093
0.52965975167642
0.50393852749177
0.47996172513777
0.45757454742608
0.43664074106382
0.41703367135643
0.39865217749427
0.38140479223726
0.365201335446
0.34995893109274
0.33560363001764
0.3219375696276
0.3965430031556
1.7925328659515
2.1348913951012
2.1180443829945
2.0844560512276
2.0526267980059
2.0234025894755
1.996767864286
1.9726250135646
1.9508587263222
1.9314392682412
1.9144508805188
1.8999520779466
1.8882426192468
1.8795466087712
1.8739709178805
1.8712485870145
1.8709859653625
1.8731371241691
1.876927421085
1.8811308531615
1.8842887841635
1.8848635096175
1.8812438696294
1.8729358351881
1.8606577020963
1.846473414369
1.8329036091745
1.8218739905503
1.8142093742021
1.8095736341601
1.8070176795692
1.8055683025319
1.8044458358853
1.8030799675168
1.8012176468201
1.7976937403583
1.7952475015276
1.792836938687
1.7904967758818
1.7882915482943
1.786259987163
1.7844227710324
1.7827014239037
1.7811434659289
1.7795877037563
1.7778087959453
1.7758514310394
1.7734193103064
1.7703564879675
1.7664352596566
1.7614214992214
1.755203675899
1.7476335758625
1.7386069662623
1.7281820222083
1.7164689779678
1.7034723344593
1.6892645065866
1.6735042158856
1.6561757711075
1.6365522955039
1.6139447308084
1.5879487164996
1.5587750543736
1.5273045261097
1.4953806739042
1.4653552131237
1.4398191015473
1.4223616944539
1.4153401892548
1.4158154421147
3.5388527785488
4.6564439388172
5.0538634581595
6.4299571934111
8.4114787770837
10.490925508858
12.491131929259
14.293920406075
15.779894984211
16.90492271144
17.652466645403
17.876427738178
17.72598947075
17.212010594985
16.414123295341
15.384682863209
14.226733090592
13.002390487181
11.778619617807
10.59874945622
9.4949913082033
8.4845363359352
7.572317953862
6.7580796413544
6.0368823871293
5.4009618086066
4.8419039048927
4.351248609054
3.9204563725574
3.5417771349147
3.2084500151526
2.9145400450449
2.6548743229039
2.4248959522706
2.2205296021383
2.0384141643619
1.8759457866403
1.7305315802656
1.6000329203745
1.4826738669286
1.3765863723793
1.2806553451074
1.1937708205414
1.1148233247229
1.0429685298762
0.9772801651732
0.91720317849617
0.86220250665701
0.81170528435671
0.76526562316161
0.72241102950354
0.68286189446609
0.64630810020795
0.61245742444868
0.58106377027651
0.55187825634918
0.52473042388219
0.49944179775676
0.47584544528071
0.45379960116203
0.43316474746643
0.41383848110292
0.39571651944026
0.37869911986485
0.36270444215644
0.34765022898098
0.33347256791655
0.31989235372871
0.4824289823569
1.9159769062252
2.1395387494371
2.116076745655
2.0827200480221
2.0514955927749
2.0228307475528
1.9967051102388
1.9730302767238
1.9517076771503
1.93270709336
1.9161059238117
1.9019698591152
1.8905881306876
1.8821714035912
1.8768286085657
1.8742805990907
1.8741894152039
1.876533429104
1.8805511639313
1.8850659385004
1.8886447098933
1.8897520518046
1.8867524729202
1.8789797517017
1.866939590927
1.8524928748172
1.8382373541508
1.8261543173315
1.8173016070467
1.8115151524033
1.8080372274744
1.8059538891383
1.8043605249983
1.8026667974392
1.8005797427705
1.7967536544371
1.7941966410079
1.7916963453965
1.7892942138207
1.7870425351731
1.7849880536693
1.7831490787674
1.7814670529914
1.7799885919305
1.7784399894013
1.7766707586631
1.7745564767851
1.7716974792384
1.7676967418475
1.7622317870381
1.7549583722064
1.7455585902064
1.7336962982307
1.7191029636554
1.7017452492081
1.6817597841963
1.6592910952056
1.6344533240207
1.6073645657989
1.5770067773094
1.5423783110424
1.5029171487232
1.4593487079762
1.4137015834445
1.369076781555
1.3287736358846
1.2953970004639
1.2712151823247
1.2576640904111
1.2533659916119
1.2525137818309
2.9160422412011
3.9321409924737
4.0831904464619
4.6127144900291
5.7549414739052
7.1356286320351
8.5433602223107
9.8901005480128
11.076879619039
12.060464287045
12.813772790564
13.275094965362
13.420523317756
13.267407095585
12.90727888994
12.350778241645
11.649456836478
10.845081653211
9.9947913661181
9.1385988841954
8.3068762607157
7.520822077177
6.7924575384994
6.126687723566
5.5244504826461
4.9838660193752
4.5009316436158
4.0710992779942
3.6892694392315
3.3501243135794
3.0488142088207
2.7809034690927
2.5423940898472
2.3297160893787
2.1396753993829
1.9695411615815
1.8169646447514
1.6797196309831
1.5559467503948
1.4442566605753
1.3432099855593
1.2516043966131
1.1683500451925
1.0923486456052
1.0229961130183
0.95961573321168
0.90155545598616
0.84829620423959
0.79925647259709
0.75404212801669
0.7123597865176
0.67382677830449
0.63816800822041
0.60509355037143
0.57434823172248
0.5457811152789