/*--------------------------------*- C++ -*----------------------------------*\
| =========                 |                                                 |
| \\      /  F ield         | OpenFOAM: The Open Source CFD Toolbox           |
|  \\    /   O peration     | Version:  2312                                  |
|   \\  /    A nd           | Website:  www.openfoam.com                      |
|    \\/     M anipulation  |                                                 |
\*---------------------------------------------------------------------------*/
FoamFile
{
    version     2.0;
    format      ascii;
    arch        "LSB;label=32;scalar=64";
    class       volScalarField;
    location    "0.00015";
    object      rhoHat;
}
// * * * * * * * * * * * * * * * * * * * * * * * * * * * * * * * * * * * * * //

dimensions      [1 -3 0 0 0 0 0];

internalField   nonuniform List<scalar> 
109340
(
661.22300088837
661.21817946255
661.20895647062
661.19770449546
661.1851575638
661.17194600605
661.1583119226
661.14434759082
661.1300510977
661.11478886554
661.09746387362
661.07686426776
661.05151200649
661.01961804937
660.97905287413
660.92729887981
660.86136373881
660.77766653093
660.67187122353
660.53866279227
660.3714293749
660.16187045011
659.89945931681
659.5707170884
659.15818155565
658.63895968411
657.9825928443
657.14782472693
656.07749374071
654.69008186019
652.86498557006
650.41520673451
647.03337994354
642.17917570458
634.83310432829
622.9333963839
661.22371992418
661.21753247382
661.2071742492
661.19514325916
661.18220563056
661.16891701005
661.15543726583
661.14170749565
661.12734041027
661.11166200919
661.09367106653
661.07209898941
661.04538778457
661.01166290032
660.96869990517
660.91386343163
660.84403126079
660.75545418285
660.64357731665
660.50279627127
660.32612461782
660.10476772787
659.82754556751
659.48010493108
659.04379979616
658.49410174038
657.79824687823
656.91163307974
655.77206341574
654.29010041787
652.33195935873
649.68705557936
646.0014196253
640.63241784689
632.29430733477
618.24432847037
661.22639921478
661.21925210737
661.20786192181
661.19555095503
661.18272580389
661.16963071219
661.1562292534
661.14247702399
661.12809664105
661.11242954795
661.09448784755
661.07299747833
661.04639354082
661.01279697002
660.96998183852
660.91531789075
660.84568247624
660.75733070603
660.64571116357
660.50522490782
660.32888667336
660.10790248637
659.83109281437
659.48410101367
659.04827690999
658.4990830695
657.8037430966
656.91764189204
655.77857514147
654.29708878002
652.3393230007
649.69418539475
646.0038717091
640.60468989361
632.10693056131
617.19651619137
661.23011896546
661.2215280423
661.20958346293
661.1969420233
661.18388243345
661.17052482
661.15690756359
661.14301559461
661.12856476489
661.11289396057
661.09501560111
661.07364869796
661.04721890575
661.01383896345
660.97127304029
660.91687970353
660.84752568924
660.75945320509
660.64808962005
660.50781266134
660.33158650378
660.11055282998
659.83343855545
659.48574967979
659.04864913723
658.49732678994
657.79862110429
656.9073680472
655.7605742985
654.26761387972
652.29277813276
649.62176897869
645.88757018708
640.39169180257
631.57628765227
615.06449788126
661.23596236622
661.22483989558
661.21117936278
661.19768818737
661.18427978344
661.17079479652
661.15713827957
661.14327230275
661.12889682207
661.11334511213
661.09563579809
661.07447791576
661.0482703269
661.01508459038
660.9726234858
660.91815655275
660.84842817479
660.75951490937
660.64655524681
660.50364223277
660.32324524121
660.09586057966
659.80932321248
659.44788287835
658.99098444559
658.41140387283
657.67260881054
656.72468603741
655.49786922605
653.89167137117
651.75537149031
648.85200108559
644.77165214892
638.71937875724
628.80686975524
608.4894569494
661.24678175861
661.22655875095
661.21148853788
661.19768441379
661.18422728273
661.1707395313
661.15708723599
661.14314407334
661.12843596499
661.11202120297
661.09253876844
661.06819771841
661.03676130139
660.99550392797
660.94113594035
660.86969569217
660.77639296317
660.6554353118
660.49988064797
660.30011314251
660.04424624665
659.71700602621
659.29859202925
658.7631573118
658.07670993349
657.19410947697
656.0547177266
654.57581245483
652.64217284572
650.08864852311
646.66833500003
641.99960153926
635.41984118251
625.64981758224
609.58211074386
574.43405069216
602.70761551828
569.5324588716
520.41589047071
457.16232296165
385.88171973448
311.90392804977
240.73597550735
177.09552115974
124.10024613259
82.984512488245
52.798910953632
32.831100642336
19.9492045678
11.988073480902
7.2254181045224
4.3906487148606
2.7084680288958
1.7015159631235
1.0902348321074
0.7144055829377
0.47913780207944
0.32802239343142
0.22911988398846
0.16318084194883
0.11815065612163
0.087056342485664
0.06547307101819
0.049400857861963
0.038112268071428
0.029650106649499
0.023262563426509
0.018601168897636
0.014840457539427
0.012107676350577
0.0098211421532595
0.0081416343954781
0.0067046823269035
0.0056329686179617
0.0047027906264558
0.0039962448394175
0.0033800842135046
0.0028984921614175
0.0024838420515951
0.002144282720034
0.0018602601565116
0.0016145149036677
0.0014146535242211
0.0012360534594227
0.001091033915862
0.00096217819667055
0.00085237293133289
0.00075720334350049
0.00067470473516973
0.00060291834628534
0.0005402043527829
0.00048522083656866
0.00043686857485581
0.00039423662999472
0.00035655710958077
0.00032316682718941
0.00029349536278672
0.00026706032228818
0.00024345564301953
0.00022233332394572
0.0002033922439636
0.00018637260819049
0.00017104931432327
0.00015723394135164
0.00014557198282433
0.00076030845953279
0.0058321159897976
0.006464250467848
0.0062676820968059
0.0060565341459586
0.0058656791782949
0.0056944819519165
0.0055412084733035
0.0054041776941072
0.0052822590556614
0.0051750540188233
0.0050829756551765
0.0050065814010822
0.0049473837593226
0.0049059507633604
0.0048803952359739
0.0048728098204689
0.0048773459378295
0.0048898417973839
0.0049028884584772
0.0049083372928518
0.0048977035891391
0.0048636087998892
0.0048067529818188
0.0047347163618627
0.0046610479563443
0.0045977813552329
0.0045531179696259
0.0045280493135291
0.0045180851762174
0.0045167600214435
0.0045182445041845
0.0045183356095411
0.0045158319287395
0.0045106023045336
0.0044986096115769
0.0044896424814633
0.0044802201483798
0.0044703479456047
0.0044601986887212
0.0044499969234411
0.0044399749766475
0.0044301684102699
0.0044211095582427
0.00441458680837
0.0044043516516246
0.0043946565464752
0.0043850683461841
0.0043758916006011
0.0043671963348026
0.0043589075218484
0.0043513435310596
0.0043445224955967
0.0043381404611942
0.0043322279225555
0.0043269908743149
0.0043224090599323
0.0043183246505099
0.0043145599393857
0.0043109388255289
0.0043077553595814
0.0043046907347994
0.0043023331482064
0.0043008569000798
0.0042999920517957
0.004300062910048
0.0043008459578597
0.0043036423149536
0.0043129345674544
0.0043291989460255
0.0044019401854951
592.99695599992
551.04280274871
491.64332070317
420.61837924522
344.64155863367
270.55257930195
203.12365792835
145.96184832916
100.58535339766
66.64681905835
42.6325192231
26.435003387012
16.291807873337
9.9524926455487
6.0757379303376
3.7431386746265
2.3359672995495
1.4832766388398
0.96090389804096
0.63558302200072
0.42935654275798
0.29612689961847
0.208269430586
0.14916991069861
0.10871157499642
0.080508065199846
0.06051104682907
0.046125438962529
0.035590906644248
0.027804682428913
0.021944538726122
0.017507948667995
0.014093003191111
0.011445924066334
0.0093703535570544
0.007729256815622
0.0064203001486725
0.005368816839612
0.0045169873232596
0.0038231716823987
0.0032529712144302
0.0027832600190341
0.0023918766963449
0.0020661750109126
0.0017916296201408
0.0015609387859969
0.0013645423090326
0.0011978637174938
0.0010548633427441
0.00093228610784946
0.00082640971643611
0.00073477307611935
0.00065518758553784
0.00058581564070326
0.00052519305283039
0.00047199978911339
0.00042521094097603
0.00038393106966028
0.00034741962003926
0.00031503716844922
0.0002862465075617
0.00026058613073887
0.00023766262484848
0.00021713659136591
0.00019871754679524
0.0001821558080497
0.00016723664311835
0.00015377195094612
0.00014591461148716
0.0020150714624616
0.0062515108062016
0.0064200368546543
0.0062116929292002
0.0060053005112133
0.00581936057791
0.0056527179674621
0.0055034917948027
0.0053702908464504
0.0052520707570876
0.0051487605744922
0.0050606539075722
0.0049887086149683
0.0049341578364694
0.0048972778325937
0.0048787217131772
0.0048706275644934
0.0048751072601869
0.0048873717822542
0.004900087038566
0.0049051393163821
0.004894027663245
0.0048595006605465
0.0048022573592075
0.0047299464071613
0.0046561859440459
0.0045930358374557
0.0045487108308946
0.0045240503815183
0.0045147259335219
0.0045140190807649
0.0045160784585301
0.0045167386363478
0.00451469021718
0.0045097862370442
0.0044980292705403
0.0044891788681545
0.004479857698348
0.0044700745707107
0.0044600175949889
0.0044499350136058
0.004439979719971
0.0044301358334822
0.0044209701298183
0.004414477392136
0.0044042637309358
0.004394725465884
0.0043851510457924
0.0043761554305
0.0043675639914491
0.004359338689881
0.0043517392970236
0.004344789391469
0.0043382750281418
0.0043321959692382
0.00432673109322
0.0043218806921055
0.0043175020117914
0.0043134578057253
0.004309479731069
0.0043059280895754
0.0043025207648353
0.0042997881695959
0.0042978611325342
0.0042964929935063
0.0042960159654841
0.0042961192823556
0.0042981308438246
0.0043062798785871
0.004320660656256
0.0043914553979116
587.73788824008
535.33330539599
464.46792852911
384.26328896614
303.82495859708
230.81954148621
169.16250788535
119.80404247148
82.218043311355
54.51631910583
35.614161150658
22.706276839604
14.259297251656
8.8911178432989
5.5353330795516
3.4620970167729
2.1889199386991
1.4062006862877
0.91957697424649
0.61240784230796
0.4159793559402
0.28825084552352
0.20346303541414
0.14617033939366
0.10681433531158
0.07927732657172
0.059683114709279
0.045558390755813
0.03521567786217
0.027529286108772
0.021758230658106
0.01736364751487
0.013992639118352
0.011368352048336
0.0093144455558303
0.0076850377438045
0.0063881177703617
0.0053427832319217
0.0044979532263993
0.0038072161642426
0.0032416276457157
0.0027731867864496
0.0023848182369475
0.0020597096637305
0.0017870337023091
0.0015566689395239
0.0013613115190918
0.0011949900732334
0.0010524983233963
0.00093027065331241
0.00082469700015098
0.00073342461776915
0.00065401925662656
0.00058482175219854
0.00052430346462706
0.00047122800849742
0.00042454392257507
0.00038335537202883
0.00034691866219033
0.00031459963018515
0.00028586419767695
0.00026025139296526
0.00023736807672209
0.00021687676191395
0.00019848946934542
0.00018195709505692
0.00016706115597459
0.00015361351745008
0.00014631200413789
0.0020849457193908
0.0062676299943183
0.0064199806332077
0.0062110001742881
0.0060048274396225
0.0058192076367631
0.0056528713287025
0.0055039504575753
0.0053709620747717
0.0052529831108634
0.0051499040332199
0.0050620041709024
0.0049902522086664
0.004935853527513
0.0048990367392228
0.0048800273542571
0.0048722322671071
0.0048767482827887
0.0048891149330719
0.0049019711996066
0.0049072510853498
0.0048962689457277
0.0048620519779032
0.0048049809662307
0.0047326719099037
0.0046587251079098
0.0045952179211741
0.0045505223184394
0.0045253553398565
0.0045155864527626
0.0045146569804411
0.0045164703302105
0.0045169963529652
0.0045148820782519
0.0045098249857629
0.0044979116197326
0.0044889823934433
0.0044796316835023
0.0044698474805571
0.0044598089322818
0.0044497326869273
0.0044398179029956
0.0044302958139921
0.004420763321034
0.0044142606196056
0.0044041037775633
0.0043946261901977
0.0043850386028477
0.0043760328342952
0.0043673440294529
0.0043589553938848
0.0043510709742887
0.0043437380617788
0.004336831113132
0.0043303168870712
0.0043243530661523
0.0043189199621854
0.0043138946460204
0.0043093283636142
0.004304670380072
0.0043003942050597
0.0042962965885061
0.0042927554155896
0.0042898558194762
0.0042873387169904
0.0042856131163931
0.0042842514101091
0.0042844915617313
0.0042893989281885
0.0043033132477834
0.0043721216786254
576.06652027396
500.56331979005
408.25472603054
315.59654829279
236.90894743593
172.79895242433
123.95614972604
87.448191124556
60.571778086648
41.06574226465
27.787199559433
18.348195493184
11.899237604183
7.6374114246268
4.8696865449193
3.1132404717866
2.0054430086991
1.3065203753765
0.8642225415802
0.58176421398983
0.39846946568688
0.27754607512082
0.19694689308142
0.14215817254664
0.10421087746036
0.077554240481938
0.058551405096495
0.044779736506363
0.034671194770978
0.027149263620953
0.021484740826633
0.017166762858122
0.013844436056654
0.011260747593699
0.0092308558921528
0.0076239232641599
0.0063398757103603
0.0053067117205601
0.0044690517689412
0.0037855086264151
0.003223877303661
0.0027594697438966
0.0023736724686971
0.0020507950640523
0.0017798031027896
0.0015506438560631
0.0013565302449249
0.0011908465858133
0.0010491813966561
0.00092735355511442
0.00082230541837613
0.00073136697870124
0.00065231231286111
0.00058337768530337
0.00052304817582138
0.00047014386734601
0.00042359841211681
0.00038253543539979
0.00034620735804286
0.00031398379925707
0.00028532759772287
0.00025978048152048
0.00023695305688409
0.00021651195426292
0.00019817007143769
0.00018167735038976
0.00016681659065132
0.0001533949263165
0.00014712988823612
0.0021896680517781
0.0062878866098495
0.0064198518173013
0.0062098268220416
0.0060041144347811
0.0058189813141696
0.005653084423151
0.0055045846871362
0.0053719272030375
0.0052542900313899
0.0051515425211734
0.0050639340339254
0.0049924573981865
0.0049382878335664
0.0049016402417845
0.0048826126293973
0.0048750723332238
0.0048797483132792
0.0048923116700286
0.0049054095942256
0.004910987804903
0.0049003488513213
0.0048665260746159
0.0048097016104798
0.0047374077536149
0.0046631962730048
0.0045991609543434
0.0045538198151429
0.0045279444814581
0.0045174981855742
0.0045160377542635
0.0045173848902746
0.0045176028593219
0.0045152766324856
0.0045100118990249
0.0044978360902888
0.0044887703750303
0.0044792925009427
0.0044694235326004
0.0044593550618093
0.0044493168062028
0.0044395073478212
0.0044301365310566
0.0044207522465394
0.0044141123827668
0.004403941589272
0.0043945119241897
0.0043850691681955
0.0043759991191223
0.0043671770632681
0.0043585824477159
0.0043503551119934
0.0043425299226028
0.0043350087123359
0.0043277805847044
0.0043209940221325
0.0043146328036678
0.0043086661906724
0.004303104150533
0.0042973602724448
0.0042918556941387
0.004286474958292
0.0042814642887934
0.0042768928633612
0.0042724602486757
0.00426857390456
0.0042646439188467
0.0042620052020159
0.0042639496700041
0.0042762100519302
0.0043392353808767
537.82325450554
408.10202956161
289.89045696443
204.17535074373
146.96785255194
106.47723994151
77.793410106728
56.674100786397
41.008035051189
29.343217246841
20.553613780317
14.104393331189
9.5047408932834
6.3156358789957
4.1593742910906
2.7284203972743
1.7955042567589
1.1915712171772
0.79997055131349
0.54458491805105
0.37660494265707
0.26480862483833
0.188977313643
0.13706116682197
0.10095409172368
0.075437579195755
0.057110085636916
0.04379537752745
0.033987009728778
0.02666615180137
0.021136037591178
0.01691627326711
0.013657723194469
0.011121094824533
0.0091258936614933
0.0075444667588975
0.0062785044449689
0.005259706887986
0.0044323065400562
0.0037568538776269
0.003200994413497
0.0027416109102267
0.0023590491162908
0.0020392104933307
0.0017701864600217
0.0015429397086759
0.0013500542879422
0.001185506237355
0.0010447140291779
0.00092359144976473
0.00081915940681876
0.00072865174850512
0.00065002724983587
0.00058143164247804
0.00052140219117092
0.00046871829916628
0.00042235628576881
0.00038145686367963
0.00034527249433558
0.00031317216578408
0.00028461846960509
0.00025915882213534
0.00023640748038645
0.00021603239954465
0.00019774743648954
0.00018130519866283
0.0001664892891079
0.00015311047345973
0.00014834747861103
0.0023316114326615
0.0063112551192712
0.0064189787642315
0.0062081866768304
0.0060031591901963
0.0058186726107867
0.0056533467341171
0.0055053765805972
0.0053731705381241
0.00525596905638
0.0051536476461727
0.0050664139641712
0.0049952913274074
0.004941426346025
0.0049050372393922
0.0048860491392535
0.0048787568226882
0.0048836714247922
0.0048965104353045
0.0049099436954572
0.0049159207426281
0.0049058054328799
0.0048725253006423
0.0048160710922542
0.0047437786828635
0.0046691577432403
0.0046043549345107
0.0045580702708516
0.0045312412717349
0.00451988671398
0.0045177480464689
0.0045185551593259
0.0045184045431672
0.0045158115037784
0.0045102789994578
0.0044977472194772
0.0044885092789455
0.0044788743512922
0.0044688980717227
0.004458800752793
0.0044488214460694
0.0044391358238023
0.0044298851964275
0.0044206624787424
0.0044138616181844
0.0044037323585164
0.0043943915807487
0.0043849932089488
0.0043758082019829
0.0043667674349448
0.0043578239358029
0.0043490654628315
0.0043405145307418
0.0043320658974306
0.004323752450798
0.0043157698781044
0.0043080878025452
0.0043007732150175
0.0042937072061731
0.0042864062584551
0.0042790632267558
0.00427176179933
0.004264546451568
0.0042574299728195
0.0042501397567778
0.0042429853076222
0.0042352369493415
0.0042284154991177
0.0042261282537726
0.0042348530339422
0.0042908972981162
303.77165117376
159.00229891181
111.83267846029
87.034390703151
69.084359068573
54.946785454259
43.45371476243
34.122436105131
26.210770895427
19.765361807504
14.527747177716
10.44647973841
7.3479051877198
5.0712849875667
3.4547887725261
2.3358885769214
1.5763925751946
1.0676868453208
0.72906555809109
0.50336694147101
0.35205812979509
0.24969878910846
0.17980699686002
0.13121668313403
0.097129510519505
0.07289218641688
0.055426372751623
0.042628482452002
0.033165027202273
0.026085456016158
0.02072195876944
0.016610600115721
0.013433659556531
0.010953905705899
0.0089996632895359
0.0074475195070183
0.006205213390448
0.0052025738692947
0.0043878218824545
0.0037217405385583
0.0031735035197085
0.002719511451714
0.0023412967159389
0.0020248838665857
0.0017585166781033
0.0015334050500877
0.0013420802479539
0.0011789728809238
0.0010392043704708
0.00091900202235307
0.0008152392332258
0.00072532906931844
0.00064719696090509
0.00057901334522703
0.00051934445180379
0.00046694321568996
0.00042082689169265
0.00038013092236877
0.00034411706726967
0.00031216120679811
0.00028373502104706
0.00025838829975833
0.00023573269978655
0.00021543714217565
0.00019721948961521
0.00018083737293584
0.00016607827408277
0.00015273576444425
0.00015010963004408
0.0025097394846536
0.0063356802660905
0.0064170181735941
0.006206014430636
0.0060019460803753
0.0058182786785341
0.0056536563945564
0.0055063226094849
0.0053746812464874
0.0052580092717538
0.0051562033066155
0.0050694232242365
0.0049987289654603
0.0049452374334724
0.0049091762419429
0.0048902900934045
0.004883262967283
0.0048884740195845
0.0049016515334679
0.0049155132291132
0.0049220150828271
0.0049125889991917
0.0048799720343646
0.0048239401913037
0.0047516373645078
0.0046765155705075
0.0046107861885674
0.0045633445515938
0.0045353369810115
0.004522886327315
0.0045198759625542
0.0045200038275146
0.0045194023625175
0.0045164398146258
0.004510478972382
0.0044975762703172
0.0044881036839444
0.0044782669040593
0.0044681574901708
0.0044580202391657
0.0044481118761308
0.004438575417542
0.0044294514119021
0.0044204722470071
0.0044135523585924
0.0044035145866155
0.0043942795834366
0.0043848828139643
0.0043755055670511
0.0043661298912823
0.0043566398747314
0.0043471226682077
0.0043375707074476
0.0043278760368812
0.0043180993793137
0.0043084905137496
0.0042990091808228
0.0042898380261365
0.0042806274465066
0.0042707965941489
0.0042607031198942
0.0042505694798747
0.0042402169506701
0.0042294559974694
0.0042180164601799
0.004206080954964
0.0041929721229188
0.004180588316532
0.0041723502203548
0.0041759216299984
0.004224897499445
0.34859562003021
16.146283151557
24.388933400147
27.930737196365
28.530374712539
26.869385097876
23.851065100574
20.386416722998
16.886989816022
13.589293594499
10.63649382493
8.0905014389329
5.9917450740892
4.3312304491076
3.0701675469969
2.1472836648829
1.4900043713333
1.0320538080477
0.71712531367435
0.50176455552908
0.3544962819557
0.25337664659638
0.18334051171603
0.134484348288
0.099868270020432
0.075056793108368
0.057133575702147
0.044008395329546
0.034263746009512
0.026943067955786
0.021403669012346
0.017162358355319
0.013876380401734
0.011308911817067
0.0092890219039714
0.0076846222214746
0.006399104997111
0.0053625950469045
0.0045211285813676
0.0038328653113615
0.003266406352189
0.0027977145085718
0.0024076225448024
0.0020811194789376
0.0018063905178123
0.0015743465993372
0.0013772911254548
0.001209300588927
0.0010653677187391
0.00094169251976328
0.0008349749353086
0.00074256740594114
0.00066225387038299
0.00059220900386359
0.00053096969847799
0.00047722996110589
0.0004299414801987
0.00038820616685997
0.00035129211093343
0.00031855941681785
0.00028945601353919
0.00026351284089599
0.00024033206691992
0.0002195766132948
0.00020095391589264
0.00018421114898076
0.00016912789675055
0.00015550689993443
0.00014508124420726
0.001245177820682
0.0060744581502221
0.0064617836971332
0.0062569645803987
0.0060492573537196
0.0058616322704839
0.0056932703196497
0.0055425544291428
0.0054077614375696
0.0052880266024788
0.0051830447768446
0.0050930513095353
0.0050187027406436
0.004961305037871
0.0049213064522451
0.0048952532425788
0.0048885369681284
0.0048940924550784
0.0049076646442887
0.0049220486857633
0.0049291879253197
0.004920568684704
0.004888720372521
0.0048332048848005
0.0047609230947039
0.0046852050056605
0.0046183851095019
0.0045695509208896
0.0045401164431795
0.0045263647018345
0.0045222994476017
0.004521639948305
0.0045205294629
0.0045172520683294
0.0045110166958053
0.0044977543304374
0.0044877533431449
0.0044775233039234
0.004467126114025
0.0044568391107653
0.0044469189085099
0.0044374860372922
0.0044284113981528
0.004419678536479
0.0044123714578521
0.0044024430788299
0.0043933435823953
0.0043838224759052
0.004374087374208
0.004363992761703
0.0043534152160345
0.0043423137388952
0.0043306590574177
0.0043183358124121
0.0043054734457417
0.0042923549505649
0.0042791062080154
0.0042657262651673
0.0042515527317988
0.0042366541126972
0.0042209223278507
0.0042046970323779
0.004187695880896
0.0041692023151068
0.0041486277421219
0.0041256275997179
0.0041006768553988
0.0040759324793336
0.0040558195470308
0.0040511572109692
0.0040892819850231
0.068821454722604
0.49474659317715
1.5774362524095
2.9438510266478
4.2635337074671
5.2802540681207
5.852831546605
6.0008984928073
5.674784466871
5.1307461888791
4.4547624348973
3.716503838608
2.99428997447
2.3371365049572
1.7756409192744
1.3215789875316
0.96945701174763
0.7049378181746
0.51101407801399
0.37096187267554
0.27055638386656
0.19873545916555
0.14724990623858
0.11014397843913
0.083237115052926
0.063583204676437
0.049059995402589
0.038203565997783
0.030050236835847
0.023859292280831
0.019114150826399
0.015432136706154
0.012560136759393
0.010300167173158
0.0085068375309287
0.0070701659112435
0.0059138481018728
0.004976550225589
0.0042114002796165
0.0035822274634734
0.0030622859172773
0.0026304936911452
0.0022697987031615
0.0019667633599689
0.0017110566723491
0.0014943919756394
0.0013099554502455
0.001152216281284
0.0010167992875161
0.00090016142064697
0.00079933169972957
0.00071183858557389
0.00063564332360966
0.00056910376603903
0.00051082608023101
0.00045964049863934
0.00041453831316096
0.00037468187700784
0.00033937400948986
0.00030801947451004
0.00028010964353153
0.00025520564319942
0.00023293270133184
0.00021297038033807
0.00019504226951361
0.00017891048862656
0.00016437150435211
0.00015122891508113
0.00016055959980715
0.0032373023964034
0.00640783475674
0.0064059178372964
0.0061964890188544
0.0059967412596671
0.0058165197007316
0.0056547603489925
0.0055099431207155
0.005380594595924
0.0052660338860802
0.0051662473817979
0.0050812552045123
0.0050122362686318
0.0049602087350831
0.004925429883516
0.004907102525082
0.0049011057272814
0.0049074882254079
0.004922018502596
0.0049376704489423
0.0049463835573205
0.004939715973755
0.0049097809942229
0.0048556070009875
0.004783465883279
0.004706292203996
0.004636875606441
0.0045846125609785
0.0045516378715187
0.0045346769165293
0.0045279475027302
0.0045253031734414
0.0045228614477706
0.0045185782937629
0.004511435259428
0.0044970438162253
0.0044863029065447
0.0044754893130992
0.0044646688460213
0.0044542048296361
0.004444317046296
0.004435093866803
0.0044262273201825
0.0044178868310574
0.0044102749770822
0.0044008197933048
0.004391755456034
0.0043818501354578
0.0043710934095449
0.0043592469210558
0.004346073127889
0.0043313214319238
0.0043149259501867
0.0042967698897798
0.0042770378431396
0.0042558778021724
0.0042338588582314
0.0042105828653924
0.0041856568672807
0.0041589518599245
0.0041303168045344
0.0040992239829003
0.0040644294890226
0.0040253197189433
0.0039815738841755
0.0039330853644142
0.0038819451978021
0.0038311804736511
0.0037885227671881
0.0037694304623186
0.0037927261122208
0.043422400292695
0.095454863079473
0.24965760081625
0.53411685412687
0.89842650014608
1.2845733759116
1.6316906214083
1.8940059402739
2.0501925706928
2.0722991112574
1.973260751719
1.7984620017237
1.5753107714856
1.3269776557262
1.0810008204401
0.85635891927446
0.6643683794122
0.5075960939141
0.38408571045127
0.28923728410675
0.21767626900597
0.16422953224037
0.12449556612506
0.094970007796825
0.072970336577706
0.056519987968485
0.044140888596959
0.034760509532847
0.027602765889463
0.022088229823417
0.017811559729087
0.014473143549232
0.01184507968017
0.0097628704516981
0.0080956409822295
0.0067546722934746
0.0056698688372294
0.0047863178520813
0.004061312026076
0.0034629162051782
0.0029672870067563
0.0025541757032741
0.0022080060352725
0.0019162920651881
0.001669814533551
0.0014604260964868
0.0012818334366607
0.001128770501642
0.00099717130049992
0.00088367451849469
0.0007853955355438
0.00069999253052555
0.00062552248339376
0.00056044005993916
0.00050338894916158
0.00045322668239856
0.00040899055166899
0.00036987053413096
0.00033519758571404
0.00030438196487398
0.00027692581832145
0.0002524092800365
0.00023046946038124
0.00021079868218532
0.00019312345176636
0.00017721009196281
0.00016285633292451
0.0001498915758476
0.00017870184627988
0.0038840076302984
0.0064541930103426
0.0063962915659825
0.0061883469389317
0.0059921303984649
0.0058147850259456
0.0056554274372638
0.0055127196454756
0.0053853162144615
0.0052725462514485
0.0051744389925714
0.0050909500021761
0.005023320228829
0.0049724988216575
0.0049387614549345
0.0049210347385265
0.0049158617063081
0.0049232146931062
0.0049388887674475
0.0049560538227171
0.0049666944230158
0.0049624015200942
0.0049348841308803
0.004882511419849
0.0048107226453267
0.0047319213139665
0.0046593930494816
0.004602893504313
0.004565460363855
0.0045443890120571
0.0045341885785966
0.004529014260656
0.0045248921467929
0.0045194215586519
0.004511217913477
0.0044952660974131
0.0044837893587204
0.0044723811005427
0.0044611908207814
0.0044505395771011
0.0044406291660377
0.0044315433709761
0.0044228854421047
0.0044148824579326
0.0044071443978868
0.0043981389451526
0.004388866860215
0.0043781027585272
0.0043655722778635
0.004350679478295
0.0043330170728257
0.004312038108651
0.0042871693745155
0.0042585609845318
0.0042265487213757
0.0041915826056864
0.0041540110958305
0.0041129857077844
0.0040691732561779
0.0040216376103042
0.0039687593885873
0.0039100039556865
0.0038430165860612
0.0037672276999658
0.0036830081813044
0.0035924957887739
0.0035007167277148
0.0034150616699331
0.0033489576211305
0.0033193078656431
0.0033301976267648
0.027626859726168
0.047828416060654
0.07670786282434
0.15343779169291
0.27000648406826
0.41188409080334
0.56362689389849
0.70560893210999
0.82192717878197
0.89922403063926
0.92376838300703
0.90201777174784
0.83914524891219
0.75311221388515
0.65128488413123
0.54557122960579
0.44547893170336
0.35670746477217
0.28142054288716
0.21989954924976
0.17092962832084
0.13263111299991
0.10300656752949
0.080239671518004
0.062783375223296
0.049392756098924
0.039101627143109
0.031157795479983
0.024994338618829
0.020185554659346
0.016411735924017
0.013430973028342
0.01105911856769
0.0091614310970618
0.0076354747619458
0.006400507601823
0.0053950021869158
0.0045693030840694
0.0038891447148863
0.0033263712584166
0.0028579075248518
0.0024660107589451
0.0021360020894325
0.001857702431447
0.0016216776329028
0.001420749423941
0.0012488031803262
0.0011011721069906
0.00097411055941854
0.00086426016818542
0.00076898787023216
0.00068601666232249
0.00061360236426322
0.00055024670901038
0.00049463415671513
0.00044567985508381
0.0004024478310205
0.00036418921769465
0.0003302514597367
0.00030006685019751
0.00027315473125694
0.00024909861184413
0.00022755645477746
0.00020823212173748
0.0001908610734625
0.0001752131192333
0.00016108982332569
0.00014819830914953
0.00022479470508774
0.0045840487363078
0.0064939932128665
0.0063856270092142
0.006178986139282
0.0059864316941551
0.0058122523046102
0.0056556166077517
0.0055153117186604
0.0053901257271924
0.0052794093556532
0.0051832004051602
0.0051014353444725
0.0050353779690016
0.004985909362565
0.0049533262917609
0.0049363746657218
0.0049321011332168
0.0049405190520955
0.0049574667203709
0.0049763328118828
0.0049891918650511
0.0049876552593009
0.0049630585315839
0.0049129975342437
0.0048418905866616
0.0047613953907069
0.0046852985546628
0.0046237751228355
0.0045809504043015
0.0045548548027459
0.0045403590506112
0.0045322018651355
0.0045261735219801
0.0045191936819715
0.0045098524679035
0.0044923105212069
0.0044801438089259
0.0044681745960071
0.0044565784729462
0.0044456798999892
0.0044356701765413
0.004426642063148
0.0044181870889504
0.0044105263410248
0.004402855387047
0.0043940280744688
0.0043842281730506
0.004371958103266
0.0043564183998499
0.0043364658760643
0.004310939656146
0.0042793040420326
0.0042408723642515
0.0041952100428653
0.004142705233499
0.0040840201935721
0.0040193213248405
0.0039491007779848