/*--------------------------------*- C++ -*----------------------------------*\
| =========                 |                                                 |
| \\      /  F ield         | OpenFOAM: The Open Source CFD Toolbox           |
|  \\    /   O peration     | Version:  2312                                  |
|   \\  /    A nd           | Website:  www.openfoam.com                      |
|    \\/     M anipulation  |                                                 |
\*---------------------------------------------------------------------------*/
FoamFile
{
    version     2.0;
    format      ascii;
    arch        "LSB;label=32;scalar=64";
    class       volScalarField;
    location    "0.00015";
    object      T;
}
// * * * * * * * * * * * * * * * * * * * * * * * * * * * * * * * * * * * * * //

dimensions      [0 0 0 1 0 0 0];

internalField   nonuniform List<scalar> 
109340
(
372.9999099486
372.99864691103
372.99643102634
372.9936077678
372.99058660702
372.98756269064
372.98460819733
372.98175932138
372.97897726673
372.97618341508
372.97338430385
372.97058296476
372.96777629942
372.96495667138
372.96211362293
372.95923379104
372.95630010927
372.95329121575
372.95018007885
372.94693297064
372.94350791919
372.93985370991
372.93590689156
372.93158696419
372.92679088362
372.92138481892
372.91519268283
372.90797924339
372.89942368235
372.88907720657
372.87629109149
372.86008794564
372.83891942866
372.81019212869
372.769257814
372.70736524105
372.99970805533
372.998031492
372.99547514043
372.99259536706
372.98964024647
372.9867063133
372.98381427899
372.98095392416
372.97811983882
372.97530029633
372.97248755277
372.96967692522
372.96686190744
372.96403364104
372.96118053781
372.95828835367
372.95533955053
372.95231139196
372.94917514738
372.94589528778
372.94242791867
372.93871920257
372.93470221104
372.930291649
372.92537789167
372.91981797678
372.91342317081
372.90594011504
372.89702125746
372.88617676751
372.87269158882
372.85547295564
372.83275253326
372.80147982659
372.7559017981
372.68457193761
372.9997476343
372.99776503765
372.9951113352
372.99228057271
372.9893811631
372.98646654584
372.98354907912
372.98064602879
372.9777707857
372.97492049081
372.97208649125
372.96926143609
372.96643727455
372.96360443262
372.96075128731
372.95786376163
372.95492439335
372.95191057753
372.94879373176
372.94553877445
372.94210181905
372.93842953499
372.93445552709
372.93009464561
372.92523721022
372.91974003733
372.91341433566
372.90600667537
372.89716940924
372.88641236521
372.87301964999
372.8558941846
372.83324052028
372.80189223464
372.75562561067
372.68078006703
372.99970861808
372.99740738927
372.99462170305
372.99169820009
372.98873432449
372.98575705214
372.98278277086
372.97982675571
372.97690094194
372.97400948875
372.97114864412
372.96831191467
372.96549083726
372.96267603803
372.95985767209
372.95702229644
372.95415347938
372.95122885184
372.94822051765
372.9450950732
372.94180905152
372.93830921294
372.93452818002
372.93037953182
372.92575157517
372.92049877849
372.9144294223
372.90728645534
372.89871752965
372.88822570075
372.87508460032
372.8581796758
372.83565709165
372.80415961794
372.75668439795
372.6754214871
372.99949497825
372.99643850893
372.99302067682
372.98967635399
372.986410099
372.98321931517
372.98011555362
372.97712683401
372.97427296793
372.97154867115
372.9689572248
372.96649821063
372.96416400978
372.96194622609
372.95983447331
372.95781737258
372.95587993151
372.9539997222
372.95214703168
372.95029260219
372.94835799945
372.94626634515
372.94393241526
372.94125322691
372.93810189266
372.9343138099
372.92967427473
372.92389700682
372.91658926983
372.90719779638
372.89491151799
372.87849950758
372.85587364796
372.82318259084
372.77184707724
372.67544209506
373.00336049477
373.01757930034
373.03289055222
373.04808626584
373.06273466287
373.07659856049
373.08955066969
373.10153669384
373.11254652994
373.12259004599
373.13168843603
373.13986702412
373.14715993011
373.15357538599
373.15915618262
373.16389318086
373.16779443193
373.17087576053
373.17318475731
373.17483575978
373.17582018854
373.17608463742
373.17555254966
373.17410003161
373.17160335477
373.16784350071
373.16253257057
373.1552750694
373.1455156792
373.13245734755
373.11491149511
373.09107088686
373.05780627874
373.00927045202
372.93191466337
372.77563594853
372.60914772388
372.45436779951
372.21745663869
371.87853504599
371.42752330426
370.85341674839
370.14159939043
369.27918899033
368.25525581974
367.06437789047
365.70457234304
364.19285552129
362.57325880742
360.86971795248
359.12538457396
357.37298678851
355.64246528526
353.95581968865
352.32705988022
350.76569675338
349.27715029469
347.86186778359
346.51887507657
345.24581817487
344.03842165063
342.89330909204
341.80960014753
340.77569121229
339.79428828435
338.8617519875
337.96779111871
337.12142754873
336.30473195573
335.53092690571
334.78168758197
334.07035005404
333.37971406817
332.72273961371
332.08326615656
331.47383494247
330.8795945336
330.31159711419
329.75819426266
329.22603131664
328.70937926236
328.20853587608
327.7244597992
327.25203029402
326.79616875932
326.35087869027
325.91901988752
325.4985178485
325.08936314287
324.69073389586
324.30224575953
323.92332669372
323.55359580495
323.19262928378
322.84008104231
322.49557966643
322.15878383377
321.82936675945
321.50703738727
321.19151407155
320.88252403668
320.57982153495
320.28317877722
319.9923964251
319.70621869954
321.60742786043
321.15546836154
320.26155569551
319.39300122606
318.56313022526
317.77196006507
317.01671203767
316.29358314512
315.59886745103
314.92959219424
314.28376075589
313.66007030398
313.05743669668
312.47411572471
311.90652480588
311.27840124778
310.71807070314
310.13952606289
309.52073681415
308.83468246679
308.05385467516
307.15868940087
306.1472745342
305.03947435315
303.87007706456
302.68042034006
301.52018076979
300.45560616247
299.56146197856
298.88891310488
298.44353608488
298.18326935666
298.04492640266
297.97122680999
297.92550621977
297.88283927769
297.85416811156
297.82859161199
297.80547258714
297.78408483777
297.76367605232
297.74305947234
297.72104079476
297.69667092467
297.66927753184
297.6373474445
297.60142899465
297.56093219834
297.51619286024
297.46636974809
297.41170958013
297.35240459748
297.2885546151
297.22024165489
297.14751814099
297.07034682403
296.98855578367
296.90184653617
296.80988467922
296.71227951561
296.60856106604
296.49804979713
296.38012446852
296.2539325434
296.11817343866
295.96962016735
295.79881844392
295.58220000087
295.26543541689
294.74180784292
293.83660309964
372.56585911842
372.37289618117
372.07898221406
371.67130309432
371.14421560087
370.48847550538
369.69458018537
368.75579571101
367.66751483756
366.42946630557
365.04587888115
363.53273102788
361.92212089057
360.24401549952
358.52921666409
356.80874953325
355.11002287669
353.45371117141
351.85442357422
350.32103751151
348.85811561565
347.46695746777
346.14645725474
344.89402259925
343.70669804547
342.58016683972
341.51063848995
340.49438721641
339.52716047944
338.60623419285
337.72752191987
336.88868390193
336.08640646002
335.31833563286
334.58207144733
333.87536347312
333.19638317442
332.54322040348
331.91429114478
331.30804319329
330.7230406316
330.15815744495
329.6119086114
329.08361586836
328.57180955233
328.07609310426
327.59504931941
327.12843110225
326.67497518417
326.23445250249
325.80581438869
325.38874376426
324.98260432413
324.58688591425
324.20113631378
323.82484899259
323.45763472677
323.0990773095
322.74881729189
322.40649381044
322.07178179318
321.74436423112
321.42394729947
321.11025025999
320.80301934356
320.5020287172
320.20702222092
319.91779371816
319.70936221604
321.70287076296
320.92646924704
320.03518570327
319.17629025499
318.35662797543
317.57516943248
316.82873286658
316.11344209044
315.42573605533
314.76289267571
314.12314445098
313.50527956135
312.90816990162
312.32971705985
311.76570421124
311.27825208414
310.71833882036
310.14025426943
309.52201723931
308.83663855568
308.05661504157
307.16233529249
306.15181087229
305.0448149471
303.87609567386
302.68697069536
301.52704334525
300.46241358248
299.56774897369
298.89430294765
298.44786713677
298.18666136472
298.04767384791
297.97361681951
297.92769064903
297.88478750964
297.85587286098
297.82999886033
297.80653996204
297.78478462351
297.76397943529
297.74292452794
297.7204185631
297.69542602262
297.66737903258
297.63470129016
297.59787944918
297.55638912783
297.51042490233
297.45922352105
297.40303122934
297.3420140996
297.2762759839
297.20591053521
297.13096203225
297.05138096573
296.966982715
296.87745758411
296.78245552117
296.68152224531
296.57414096356
296.45956277338
296.33705667989
296.20570770269
296.0642678368
295.909755706
295.73343269626
295.51320918102
295.19745903215
294.68346076166
293.80267187908
372.54634190493
372.31182129072
371.95329498946
371.46579433443
370.85182687531
370.11153139055
369.24714383161
368.25612233044
367.13810416094
365.89201844536
364.52680428358
363.05444297181
361.49081337058
359.86291027568
358.1987446046
356.52549557951
354.86900283559
353.24978716207
351.682141158
350.1748950221
348.73336048904
347.35986281143
346.05376560178
344.81315178361
343.63530812837
342.51684335895
341.45424276741
340.44383155773
339.4820266927
338.56512156485
337.69045717694
336.85460412004
336.05537608631
335.28970370088
334.55576197817
333.85095984366
333.17385224611
332.5222099449
331.89483208688
331.28977459461
330.70615068331
330.142151774
329.59714139986
329.06953338273
328.55880093695
328.06363765802
327.58346851746
327.11737103194
326.66459919218
326.22458801025
325.79654138415
325.38001987261
324.97430779376
324.57901341437
324.19361445098
323.81769640629
323.45082515831
323.09259680532
322.74263927065
322.4006021231
322.06616096581
321.73899912556
321.41881977651
321.10534564991
320.79832310359
320.49753742077
320.20273986013
319.91366804567
319.7148083555
321.69877156479
320.91687882055
320.02604991078
319.16764403711
318.34857408668
317.56775693619
316.82196318151
316.10730624165
315.42023800116
314.75804863595
314.11898236764
313.50183189483
312.90546813202
312.32779351796
311.76459892032
311.27793636636
310.71890381265
310.14182032631
309.52479043876
308.8408887675
308.06262610745
307.17028853612
306.16172380473
305.05650309799
303.8892904867
302.70135764668
301.54214697101
300.47743032242
299.58163560103
298.90624386568
298.45747184154
298.19418300745
298.05376805057
297.97890420018
297.93252327366
297.88909691829
297.85965215317
297.83312923483
297.80892671462
297.78637559677
297.76468961656
297.74265711806
297.71909961213
297.69272658788
297.66324277513
297.62891155716
297.59012623837
297.54647990451
297.49777151462
297.44355495357
297.38398392037
297.31919492314
297.24929563611
297.17438976083
297.09451156834
297.009591669
296.91940681946
296.82362040238
296.72184839784
296.61348916337
296.49791742671
296.37420982304
296.24139375618
296.09842958935
295.94418404409
295.77623661455
295.58745180607
295.35899270647
295.04519514776
294.55251126683
293.72632047313
372.50711608095
372.17744812554
371.68020072669
371.04055902921
370.28833916528
369.43217655742
368.4869742905
367.45331123499
366.32658078015
365.10356207857
363.79164901157
362.3886293668
360.9027266717
359.35214786315
357.75993688404
356.15203337694
354.5519134776
352.98055589945
351.45323422268
349.98013467132
348.56716037096
347.21647856117
345.92962210792
344.70514348883
343.54046928685
342.43287640777
341.37937429043
340.37672831176
339.42158387153
338.51063175422
337.64089015412
336.80955980537
336.01399191749
335.25188480242
334.52074522326
333.81881925819
333.14393021331
332.49459402909
331.8689986346
331.26587288577
330.68366835978
330.12125077253
329.57744062237
329.05110643512
328.54140573166
328.04724014238
327.56803374036
327.10269887634
326.65079519327
326.21140320995
325.78409874391
325.36816331493
324.96309069487
324.56833908113
324.18343510957
323.80798601441
323.44154922539
323.08374029149
322.73417980976
322.39252187487
322.05843278868
321.73159996884
321.4117293051
321.0985533096
320.79181257742
320.49128986067
320.19676410693
319.907908299
319.72663109769
321.69316103101
320.90301633039
320.01278225304
319.15514160956
318.33695722903
317.55707251053
316.81220338412
316.09845541853
315.41230205991
314.75105217567
314.11296658182
313.49684320369
312.90155265688
312.32499706228
311.76298075309
311.27746663527
310.71972999991
310.14415576908
309.52895508859
308.84729327623
308.07169581596
307.1823108342
306.17671658481
305.07419797407
303.90928600748
302.7231815504
301.5650897023
300.50027900246
299.60284811268
298.92449410118
298.47216850197
298.20570659213
298.0630815662
297.98696963022
297.93989894083
297.89571365855
297.86547521618
297.83798433713
297.81266963948
297.78891493491
297.76588844952
297.74236844219
297.71713275975
297.68881696455
297.6570972705
297.6202587662
297.57854999688
297.53155711731
297.47872951468
297.41994046618
297.35522584226
297.28468406248
297.20841616774
297.12653129586
297.03905987568
296.94589892191
296.84676801524
296.74128203069
296.62896812348
296.50905377768
296.38065027961
296.24256924871
296.09345143184
295.93208954953
295.75755255109
295.56834206481
295.35983639368
295.1181693405
294.8067681133
294.34684434765
293.60700840854
372.40221860172
371.79699698576
370.9961491798
370.11865604966
369.21874113898
368.28966282573
367.32613956775
366.31455432314
365.23877942755
364.09363613607
362.86700369753
361.55785641646
360.1696661014
358.71499217273
357.21342257576
355.68685160626
354.15753123748
352.64625911609
351.16918050259
349.73768304905
348.35923903316
347.03830482938
345.77510085786
344.57024753483
343.42236731597
342.32898512313
341.2871187913
340.29424404354
339.34755417736
338.44388313263
337.58033181963
336.75446513538
335.96358064309
335.20555544904
334.47813812387
333.77943968259
333.10746725184
332.46073735728
331.8375113139
331.23650133894
330.65620279112
330.09558786199
329.55329553018
329.02848288271
328.52001985165
328.0271583963
327.54897295742
327.08471662384
326.6337202033
326.19522284622
325.76872930544
325.35351913086
324.94917477091
324.55508096781
324.17081708695
323.79592391974
323.4300141814
323.07270883771
322.72363065692
322.38242597279
322.04875897499
321.72232597874
321.40283884148
321.0900243378
320.78362310081
320.48341529757
320.18921185041
319.90059383927
319.74539331284
321.68549176185
320.88495529917
319.99539028581
319.13881841313
318.32182925211
317.54316718521
316.79949644058
316.08692311004
315.40195194916
314.74191870596
314.10510495454
313.49031494941
312.89641836074
312.32131627548
311.76083070049
311.27680727057
310.7207838247
310.14721357806
309.53444855514
308.85577389701
308.08373251944
307.19829990565
306.19668326058
305.09779062984
303.9359694295
302.75233161212
301.59577362847
300.53089185337
299.63134427989
298.94906541851
298.49200010357
298.22127698699
298.07565271436
297.99782787328
297.94982832448
297.90469140834
297.87341698482
297.84466073997
297.81789144385
297.79252653001
297.76770859853
297.74220029992
297.71470667344
297.68383464384
297.64914520717
297.60896777605
297.56341191747
297.51183223508
297.45358714027
297.38868941194
297.31706377228
297.23877012321
297.15389022211
297.0625261836
296.96469978187
296.86026002485
296.74884096302
296.6299907524
296.503083422
296.36710596536
296.22074207136
296.06239673345
295.89020829348
295.70276964023
295.49949693041
295.28031938608
295.04411252981
294.78375364832
294.47509738643
294.06017467721
293.43939145084
371.79370614057
370.24973224121
369.19568068984
368.32088526099
367.48327738189
366.64671400933
365.78840777799
364.89183030304
363.93368439577
362.90284380333
361.79044213118
360.59553135845
359.32036498582
357.97432876152
356.57383682937
355.13918415531
353.69099643492
352.24922604616
350.83097147931
349.44873973208
348.11138362497
346.82415972425
345.59012611773
344.40910295404
343.28091264413
342.20421762857
341.1768519735
340.19591159741
339.25934430548
338.36449540586
337.50865648915
336.68920082756
335.90409998183
335.15106874495
334.42806458587
333.73318264498
333.06478233093
332.42107743205
331.80064992303
331.20208603015
330.62411567724
330.06547004038
329.52506034754
329.00191715158
328.49501413492
328.00355621095
327.5266270922
327.06360765687
326.61366541748
326.17622262942
325.75061765145
325.33630444576
324.93276305708
324.53943888867
324.15589846881
323.78166601908
323.41638833752
323.05966556469
322.71113332223
322.37044254519
322.03727083827
321.7113099465
321.39226533902
321.07986609043
320.77386162161
320.47403857543
320.18019275131
319.89172724534
319.77387467371
321.67469205499
320.86262509392
319.97390157679
319.11873230236
318.30325437663
317.52609935748
316.78388982692
316.07274517079
315.38921235142
314.73066337304
314.09540413088
313.48224633149
312.89005710773
312.31673561338
311.75812480125
311.27592357028
310.7220239563
310.15094196301
309.54120447369
308.86625000865
308.09864525183
307.2181524174
306.22151613048
305.12717734208
303.96924784691
302.78872633049
301.63413664469
300.56924172538
299.66713709546
298.98002418218
298.51706187112
298.24099057331
298.09156162437
298.0115286246
297.9623289219
297.91612096554
297.88359208267
297.85331087755
297.8247788982
297.79739999968
297.77034597994
297.74235674904
297.71204694532
297.67801013809
297.63964103792
297.59531613897
297.54500880327
297.48759665447
297.4226790372
297.35014256585
297.2698332292
297.1817575683
297.08595913433
296.98251614069
296.87142403698
296.75245027484
296.62512212592
296.488890554
296.3428996024
296.18575463989
296.01554123752
295.83007308536
295.62688839161
295.40440271777
295.16269665804
294.90388208465
294.63137746106
294.34693424399
294.04249541524
293.68631595373
293.21793018652
362.9798220378
366.58896073302
366.33215448874
365.91395022172
365.42823848096
364.85661624646
364.20426525705
363.47868435885
362.68203301802
361.8107011438
360.85455532073
359.8093037803
358.67794339708
357.46661367795
356.18801714
354.86039094653
353.50371863401
352.13746200158
350.77959332659
349.44483684552
348.14391574992
346.88444360747
345.67067343632
344.50524540013
343.38829593871
342.31886611728
341.29644785302
340.31894250183
339.38424047612
338.48968570547
337.63354596186
336.81335653377
336.02685651849
335.27197222171
334.54704796465
333.85009215969
333.17936008999
332.53333959885
331.91061934133
331.30969177173
330.72933270072
330.1683723759
329.62573643825
329.10033547323
328.59125115584
328.09766233595
327.61870684257
327.15366738374
326.70176353234
326.26244115631
325.83501762517
325.41895820683
325.01368425655
324.61870918286
324.2335975698
323.85786420309
323.49111409986
323.13294404235
322.78302566654
322.44100603535
322.10655123847
321.77934461407
321.45909707466
321.14553624561
320.83840481972
320.5374575903
320.24246876601
319.9531678582
319.68097950132
321.69057239101
321.05958791954
320.16767941155
319.30461190437
318.48102817858
317.69635699345
316.94750210163
316.2306114752
315.5421392955
314.87925857701
314.24010431404
313.62341501486
313.02811763653
312.45244451801
311.89287916072
311.27477967892
310.72340513829
310.15528086942
309.54914634226
308.87862753256
308.11632275598
307.24174485778
306.25109445906
305.1622477708
304.00901897622
302.83227464641
301.68010663741
300.61529746457
299.71024543655
299.01744974882
298.54747284504
298.264971996
298.11091112058
298.0281555404
297.97736419497
297.93764109726
297.90286750038
297.86995148864
297.83823290894
297.8071915113
297.77604511265
297.74350866464
297.70804501703
297.66822719475
297.62315739952
297.57129736701
297.51216133181
297.44411597575
297.36700825108
297.28042060554
297.18405092579
297.07777746448
296.96154013699
296.8353330802
296.69906808692
296.55230599971
296.39441275257
296.22463853491
296.04154087864
295.84281511265
295.62533620258
295.38582059364
295.12095513099
294.82935997192
294.51347393212
294.18027778624
293.84198993218
293.5171002873
293.22502663733
292.97105257476
292.7884550277
353.86031038333
359.0540463717
359.88543064588
360.27917980078
360.44368965187
360.42176927831
360.21682584631
359.85759991409
359.36702668016
358.76136279362
358.04918533109
357.24017833807
356.33779127683
355.34550152746
354.27415721735
353.1401853388
351.96190815835
350.75777174461
349.54475726331
348.33808722906
347.15007203425
345.98946169146
344.86213997891
343.771774708
342.7204332024
341.70894693678
340.73718272762
339.80370314504
338.90801097304
338.0484256999
337.22323658284
336.43036841169
335.66841091441
334.93580744871
334.23082711517
333.55173749432
332.89728752868
332.26615875095
331.6569551535
331.06837197547
330.49932086911
329.94882855487
329.41580896227
328.89930352422
328.39846250987
327.91253269827
327.44072026152
326.98228763442
326.53659529524
326.10305051315
325.68108474011
325.27011577332
324.86963878178
324.47919982492
324.09836203467
323.72671240011
323.36382391508
323.00932887989
322.6628774708
322.32414661738
321.9928217501
321.6686037559
321.35121493073
321.04039149943
320.73587778689
320.43742912731
320.14485681192
319.85756748599
319.96240304262
321.61435905189
320.76999956474
319.88578075383
319.03679878826
318.22762440343
317.45655037639
316.72015300803
316.01468365522
315.33688532866
314.68429545419
314.05530787301
313.44875985961
312.86349170977
312.29738889205
311.74637411885
311.27154535197
310.7263737706
310.16550989788
309.56823098931
308.90863983253
308.15944615343
307.29957692266
306.32391699788
305.24890087533
304.10752964871
302.94039659947
301.79451972453
300.73037054132
299.81851291291
299.1121026126
298.62493611212
298.32636058948
298.16046519527
298.07066974283
298.01605614266
297.97589542367
297.93806560625
297.90117098262
297.86442453758
297.82740225335
297.78940760763
297.74916920024
297.70500842303
297.65544263073
297.59915023946
297.53464450933
297.46007090753
297.37426754757
297.27643425277
297.1658072737
297.04187160061
296.90414935139
296.75216798713
296.58558815702
296.40379984338
296.20577796006
295.99067419467
295.75647089192
295.50025499881
295.21777822495
294.90382564687
294.55348471045
294.16346937629
293.73555227331
293.27718183258
292.80312210269
292.34489649361
291.95082907781
291.68907981867
291.64282070595
291.99606987226
349.47400572587
354.04323312528
355.07799959428
355.72710085388
356.15332547621
356.42015567681
356.51972816406
356.47177379127
356.27010289671
355.92972586053
355.46795285455
354.89612390135
354.21430769817
353.43544541817
352.57106946545
351.63139370669
350.63245795497
349.59100601612
348.52334654151
347.44396308972
346.36602537024
345.30064119905
344.25547896248
343.23590327217
342.24543989023
341.2864531614
340.36003608844
339.46621599575
338.6048216046
337.77485727848
336.9751900902
336.20512457761
335.46323606854
334.74838713588
334.05890188069
333.39367896765
332.75169399648
332.13162588843
331.5322687926
330.95246587483
330.39146156907
329.84815659428
329.32164184945
328.81096790441
328.3155271797
327.83449030285
327.36714492402
326.91277933776
326.47081647258
326.04072838041
325.62191599218
325.21386043609
324.81606697591
324.42813745703
324.04964319417
323.6801613244
323.31930699512
322.96671304587
322.62205742441
322.28500364807
321.95523918287
321.63248584613
321.31647601923
321.00696417452
320.70367628775
320.40640941913
320.11490114976
319.82815800169
320.22587558327
321.54927817085
320.68870788987
319.80865895115
318.96509076676
318.16133551098
317.39541673622
316.66392850469
315.96327858961
315.29039095166
314.64294987399
314.01941119608
313.41862268533
312.8393846576
312.27956324196
311.73514629152
311.26672747597
310.72919155401
310.17725652208
309.59087918157
308.94478463074
308.21188644209
307.37045687329
306.41379497112
305.35646042573
304.23033254641
303.07562198726
301.93814800273
300.87566134376
299.95628715956
299.23389707622
298.72570850098
298.40688613178
298.22557515886
298.12634363423
298.06675568242
298.02589900153
297.98508082081
297.94409778288
297.90194859787
297.85817854495
297.81216659574
297.7627061563
297.70810264713
297.64689021007
297.57735640415
297.49712479866
297.40413298535
297.29693083868
297.17428364349
297.03498623815
296.8777659278
296.70115885112
296.50355137231
296.28370056778
296.0396061066
295.76921692835
295.46955928891
295.1371345342
294.76760916993
294.35408139969
293.88832888062
293.36440857723
292.78321126838
292.1572001823
291.51331541107
290.8922882998
290.3550254938
289.97572149944
289.8564054412
290.13232019976
291.1679542069
346.78042572555
350.43017684845
351.45597110473
352.15077969148
352.66537649039
353.04933143818
353.30219386031
353.41870694824
353.41211393708
353.26783255927
352.99626653332
352.61080482467
352.12235915442
351.53067950932
350.84309034632
350.07544774257
349.23942689302
348.34963353259
347.42106609948
346.4676661188
345.50203442857
344.53491975876
343.57554034364
342.63084994716
341.70572221353
340.80353244281
339.9264740681
339.07586983511
338.25223859375
337.45548757387
336.6853656604
335.94128483498
335.2221848405
334.52721443725
333.85582985585
333.20682250961
332.57932363531
331.97200493875
331.38407957662
330.81487692727
330.26332494823
329.72860807235
329.20971246725
328.7061678081
328.21716092709
327.74199923585
327.27996951417
326.83047295802
326.39306403644
325.96711263595
325.55211453857
325.1475406311
324.75299954824
324.36810174561
323.99240701118
323.62553121141
323.26708463123
322.91675535153
322.57422257466
322.23915866726
321.91126359916
321.59025044976
321.27587778577
320.96790104348
320.66608172114
320.37020770776
320.08005428751
319.79317492666
320.67627389784
321.46757663534
320.59231616137
319.7174063021
318.88018027078
318.08265930102
317.32264739082
316.59680920653
315.90175813109
315.23461927802
314.5932381136
313.97612475835
313.38212345386
312.80997404324
312.25751308594
311.72080217003
311.2598768865
310.73126440523
310.18974942736
309.61610209626
308.985825141
308.27216053429
307.45272307922
306.51900792954
305.48326966333
304.37589422989
303.2365084956
302.10977135956
301.0504135415
300.12352790948
299.38357257144
298.85122969454
298.50826888729
298.30781469322
298.19633368521
298.13025642893
298.0885137757
298.04504911484
298.00049447289
297.95332827744
297.90285352837
297.84843408762
297.78890542946
297.72265010339
297.64832679944
297.56381817294
297.46554798753
297.35139328978
297.21964847487
297.06913481122
296.89741547526
296.70126933617
296.47649565902
296.21773463376
295.92039585464
295.58201826417
295.19956884385
294.77104002331
294.29255718041
293.75555449436
293.1520506767
292.47740468594
291.73404660301
290.94204270947
290.15218715068
289.42657805221
288.83336470492
288.43493206892
288.29513413964
288.48904511653
289.15290118321
290.82077667154
345.22244991394
347.55910428593
348.5983814223
349.26267771596
349.79502784302
350.21955018124
350.5385838708
350.75853638109
350.84795885405
350.83750890746
350.71276367832
350.46343222131
350.11521946392
349.68114571664
349.14865549613
348.52474972537
347.83140175616
347.07893662195
346.27806073457
345.44220312787
344.58400864053
343.71400068411
342.84081624548
341.97222824775
341.11419310508
340.27106808445
339.44593460951
338.64102142851
337.85764830398
337.09654999195
336.35799246884
335.64185062142
334.94781490703
334.27546231747
333.62407083391
332.99278114592
332.38118053503
331.78849136803
331.21376874421
330.65647135127
330.11552388037
329.59032040928
329.08040562128
328.58494087902
328.10335520645
327.63485787447
327.17895474501
326.73524163123
326.30307237852
325.88196382097
325.47135090017
325.0708969921
324.68021037132
324.2988442245
323.92642882574
323.56255979375
323.20694961949
322.85927949799
322.51921216048
322.18645366152
321.86070791461
321.54174218688
321.22930778539
320.92315746028
320.62312536848
320.32892434211
320.04039799232
319.75447068498
321.21170258716
321.36217328289
320.48001714965
319.61176088653
318.78188297904
317.99141095376
317.23805540747
316.51862833873
315.82999126077
315.16947704957
314.53508759787
313.92537221112
313.33915133639
312.77508567533
312.23097313784
311.70295904024
311.25048847151
310.73191972029
310.2021024106
309.64275226936
309.03031051892
308.33850292625
307.54435437235
306.63741987469
305.62723634938
304.54223902751
303.42121541899
302.30777214148
301.25349466404
300.31988156699
299.56155299542
299.00297506268
298.63239772378
298.40897828507
298.28204879103
298.20748416997
298.16430996013
298.11856791231
298.07149322141
298.02048016741
297.96437810607
297.90233930567
297.83306580387
297.75500830941
297.66686158893
297.56549981255
297.44769388876
297.30987997057
297.15217416755
296.9717401955
296.76304858143
296.51730526846
296.22517714866
295.87964355977
295.47766013089
295.01512891299
294.48443124363
293.88724503744
293.22036604083
292.47825859627
291.65683856067
290.7725300278
289.88003708711
289.06833490627
288.43045791281
288.02819648633
287.87020329164
287.92532085692
288.17618746082
288.65998309527
289.52511394962
291.2791988198
344.4700111924
345.14902545004
346.24586374305
346.86740488094
347.3800515279
347.81020997303
348.15597812505
348.42311939134
348.581784804
348.6424778285
348.61679454846
348.48073694061
348.24672423064
347.91426523296
347.50543922343
347.0144315345
346.44267933689
345.80685254835
345.12005011106
344.39259844747
343.63414590382
342.85555773872
342.06601327367
341.27264171591
340.48174751805
339.69849725384
338.926583626
338.16890525943
337.42748815607
336.70367436457
335.99832848928
335.31187966704
334.64442412022
333.99580601019
333.36573285973
332.75388283645
332.15983296786
331.58286215971
331.02228524411
330.47784525365
329.94880763149
329.43451544261
328.93454119382
328.44794153773
327.9743659035
327.51344907641
327.0645785469
326.62729071972
326.20097522393
325.78518370277
325.37966687697
324.98393408982
324.59759329489
324.22024685864
323.8514913136
323.49112229223
323.13877590337
322.79413026101
322.45688080237
322.12672725895
321.80347468856
321.48685859721
321.17662418892
320.87256033498
320.5744202832
320.28198457452
319.99512482002
319.70065422919
321.56885365655
321.2362207974
320.35196032513
319.49142298126
318.66979302408
317.88718666503