/*--------------------------------*- C++ -*----------------------------------*\
| =========                 |                                                 |
| \\      /  F ield         | OpenFOAM: The Open Source CFD Toolbox           |
|  \\    /   O peration     | Version:  2312                                  |
|   \\  /    A nd           | Website:  www.openfoam.com                      |
|    \\/     M anipulation  |                                                 |
\*---------------------------------------------------------------------------*/
FoamFile
{
    version     2.0;
    format      ascii;
    arch        "LSB;label=32;scalar=64";
    class       volScalarField;
    location    "0.00015";
    object      TpSat;
}
// * * * * * * * * * * * * * * * * * * * * * * * * * * * * * * * * * * * * * //

dimensions      [0 0 0 1 0 0 0];

internalField   nonuniform List<scalar> 
109340
(
372.9999099486
372.99864691103
372.99643102634
372.9936077678
372.99058660702
372.98756269064
372.98460819733
372.98175932138
372.97897726673
372.97618341508
372.97338430385
372.97058296476
372.96777629942
372.96495667138
372.96211362293
372.95923379104
372.95630010927
372.95329121575
372.95018007885
372.94693297064
372.94350791919
372.93985370991
372.93590689156
372.93158696419
372.92679088362
372.92138481892
372.91519268283
372.90797924339
372.89942368235
372.88907720657
372.87629109149
372.86008794564
372.83891942866
372.81019212869
372.769257814
372.70736524105
372.99970805533
372.998031492
372.99547514043
372.99259536706
372.98964024647
372.9867063133
372.98381427899
372.98095392416
372.97811983882
372.97530029633
372.97248755277
372.96967692522
372.96686190744
372.96403364104
372.96118053781
372.95828835367
372.95533955053
372.95231139196
372.94917514738
372.94589528778
372.94242791867
372.93871920257
372.93470221104
372.930291649
372.92537789167
372.91981797678
372.91342317081
372.90594011504
372.89702125746
372.88617676751
372.87269158882
372.85547295564
372.83275253326
372.80147982659
372.7559017981
372.68457193761
372.9997476343
372.99776503765
372.9951113352
372.99228057271
372.9893811631
372.98646654584
372.98354907912
372.98064602879
372.9777707857
372.97492049081
372.97208649125
372.96926143609
372.96643727455
372.96360443262
372.96075128731
372.95786376163
372.95492439335
372.95191057753
372.94879373176
372.94553877445
372.94210181905
372.93842953499
372.93445552709
372.93009464561
372.92523721022
372.91974003733
372.91341433566
372.90600667537
372.89716940924
372.88641236521
372.87301964999
372.8558941846
372.83324052028
372.80189223464
372.75562561067
372.68078006703
372.99970861808
372.99740738927
372.99462170305
372.99169820009
372.98873432449
372.98575705214
372.98278277086
372.97982675571
372.97690094194
372.97400948875
372.97114864412
372.96831191467
372.96549083726
372.96267603803
372.95985767209
372.95702229644
372.95415347938
372.95122885184
372.94822051765
372.9450950732
372.94180905152
372.93830921294
372.93452818002
372.93037953182
372.92575157517
372.92049877849
372.9144294223
372.90728645534
372.89871752965
372.88822570075
372.87508460032
372.8581796758
372.83565709165
372.80415961794
372.75668439795
372.6754214871
372.99949497825
372.99643850893
372.99302067682
372.98967635399
372.986410099
372.98321931517
372.98011555362
372.97712683401
372.97427296793
372.97154867115
372.9689572248
372.96649821063
372.96416400978
372.96194622609
372.95983447331
372.95781737258
372.95587993151
372.9539997222
372.95214703168
372.95029260219
372.94835799945
372.94626634515
372.94393241526
372.94125322691
372.93810189266
372.9343138099
372.92967427473
372.92389700682
372.91658926983
372.90719779638
372.89491151799
372.87849950758
372.85587364796
372.82318259084
372.77184707724
372.67544209506
373.00336049477
373.01757930034
373.03289055222
373.04808626584
373.06273466287
373.07659856049
373.08955066969
373.10153669384
373.11254652994
373.12259004599
373.13168843603
373.13986702412
373.14715993011
373.15357538599
373.15915618262
373.16389318086
373.16779443193
373.17087576053
373.17318475731
373.17483575978
373.17582018854
373.17608463742
373.17555254966
373.17410003161
373.17160335477
373.16784350071
373.16253257057
373.1552750694
373.1455156792
373.13245734755
373.11491149511
373.09107088686
373.05780627874
373.00927045202
372.93191466337
372.77563594853
372.60914772388
372.45436779951
372.217456625
371.87853511523
371.42752353595
370.85341664071
370.14159947186
369.27918875431
368.25525603039
367.0643755274
365.70451884274
364.1928675239
362.57326041643
360.86971613437
359.12538596054
357.37298445652
355.64246842235
353.95582012874
352.32705796599
350.76569779684
349.27715131839
347.86186775615
346.51886417361
345.24577026742
344.03838138891
342.89353044947
341.80953155058
340.77531513137
339.79494959153
338.86128022941
337.96829020319
337.12107317748
336.30497654088
335.53068702031
334.78182512874
334.07014788606
333.37985434519
332.72251387724
332.08350620398
331.47353410131
330.88007913767
330.31121995548
329.75899156031
329.2255926031
328.70990562054
328.20808865995
327.72450313385
327.25178285816
326.79605506089
326.35102402888
325.91896086356
325.49853673117
325.08935583872
324.69073913132
324.30224293937
323.92332884929
323.55359411322
323.19262847583
322.8400783761
322.49557727934
322.15878126401
321.82936520622
321.50703690404
321.19151529148
320.8825268248
320.57982531756
320.28318247538
319.99239908085
319.70620221214
321.60717531034
321.15546634426
320.26155483334
319.3930000368
318.56312895927
317.77195893859
317.01671123734
316.29358295409
315.59886777141
314.92959313156
314.28376226991
313.66007228344
313.05743904075
312.4741183365
311.90652759713
311.27840487348
310.71807478694
310.13953049717
309.52074140064
308.83468697914
308.05385887487
307.15869320889
306.14727773151
305.03947686621
303.8700788707
302.68042146751
301.52018131754
300.45560628228
299.56146199186
298.88891311343
298.44353625338
298.18326972306
298.04492696711
297.97122753805
297.92550707208
297.88284023091
297.85416909113
297.82859256526
297.80547347576
297.78408564277
297.7636767548
297.74306006234
297.72104125585
297.69667130275
297.66927787258
297.63734761703
297.60142909945
297.5609321419
297.51619274002
297.4663695724
297.41170935648
297.35240433957
297.28855434054
297.22024138008
297.1475178828
297.07034660271
296.98855561147
296.90184639693
296.8098845615
296.7122794136
296.60856098357
296.49804972001
296.38012440184
296.25393249029
296.11817339455
295.96962012349
295.79881840868
295.58219998484
295.26543542935
294.74180791958
293.83660347273
372.56585911842
372.37289618117
372.07898207043
371.67130213826
371.14421657526
370.48847677985
369.69457991927
368.75579549402
367.66751491348
366.42946768282
365.04588388771
363.53273147748
361.92211846644
360.24401738704
358.5292159597
356.80874944578
355.11002405171
353.45371083389
351.85442434201
350.32103714828
348.85811491311
347.46695805406
346.14645853136
344.89402458198
343.70669557324
342.58016064196
341.51065245203
340.49437598044
339.52716076428
338.60624330791
337.72750129317
336.88871293281
336.08637803841
335.31836744351
334.58204189801
333.87539801913
333.19635380994
332.54325420699
331.91425922572
331.30807078245
330.72300924215
330.15817284018
329.61188746758
329.0836232096
328.57181002093
328.07609570021
327.59507249274
327.12842345243
326.67499688961
326.23443986636
325.80582520296
325.3887361859
324.98260621632
324.58688584572
324.20113606042
323.82484899259
323.45763347852
323.09907553642
322.74881461625
322.4064911056
322.07177934529
321.74436277884
321.42394706362
321.11025149577
320.80302180148
320.50203183705
320.20702535273
319.91779608262
319.70923632606
321.70280220997
320.92646748312
320.03518455236
319.17628884717
318.35662653232
317.57516815073
316.82873192847
316.11344171533
315.42573623336
314.76289345975
314.12314583692
313.50528140988
312.90817217371
312.32971968612
311.76570711395
311.27825586752
310.71834314758
310.14025900536
309.52202216152
308.83664341425
308.05661957741
307.16233940248
306.15181433191
305.04481767427
303.87609764206
302.68697193502
301.5270439595
300.46241373811
299.56774899081
298.89430294765
298.44786729055
298.186661709
298.0476743826
297.97361754519
297.92769149571
297.88478846106
297.85587384331
297.82999982245
297.80654086655
297.78478545097
297.76398016333
297.74292514952
297.72041905606
297.69542643614
297.66737941804
297.63470151196
297.59787959846
297.55638911769
297.51042483368
297.45922339656
297.40303105531
297.34201388616
297.27627574824
297.20591029585
297.13096180514
297.05138076697
296.96698255746
296.87745745656
296.78245541058
296.68152214496
296.57414087747
296.4595626928
296.33705660731
296.20570763952
296.06426778399
295.90975565856
295.73343266038
295.51320916341
295.19745904486
294.68346084451
293.80267224804
372.54634190493
372.31182129072
371.95329497133
371.46579317078
370.85182531093
370.1115332665
369.24714341795
368.25612266576
367.13810397331
365.89201829904
364.52680444119
363.05444200171
361.49081420035
359.86290920939
358.19874401492
356.52549735977
354.86900299253
353.24978641501
351.6821424867
350.17489491843
348.73335972396
347.35986375602
346.05376529204
344.81315298824
343.63530996809
342.51684031074
341.45424213012
340.44384174222
339.48201000757
338.56513222496
337.69045052299
336.85460615859
336.05537654648
335.28969906996
334.55576746217
333.85095464778
333.1738584191
332.52220625985
331.89483505306
331.28977631951
330.70614783739
330.14216191479
329.59713175178
329.06955079174
328.55878517444
328.0636548722
327.58345110099
327.11738357717
326.66458948115
326.22459416854
325.79653871533
325.38001884303
324.97430969613
324.57901048824
324.19361545718
323.81769508403
323.45082407944
323.09259449936
322.74263656683
322.40059913628
322.06615838514
321.73899743904
321.41881935233
321.10534666822
320.79832540399
320.49754044992
320.20274272162
319.91367057657
319.71465549417
321.6987052444
320.91687679045
320.02604878639
319.16764268531
318.34857268637
317.56775568547
316.82196226906
316.10730586875
315.42023819664
314.7580494332
314.11898376289
313.50183374922
312.90547040784
312.3277961475
311.76460182725
311.27794018518
310.71890818157
310.14182512134
309.5247954173
308.84089368568
308.06263070407
307.17029269975
306.1617273232
305.05650587783
303.88929250182
302.70135892569
301.54214761247
300.4774305082
299.58163559071
298.90624387694
298.45747199197
298.19418336367
298.05376858
297.97890492531
297.93252412077
297.889097867
297.85965313181
297.83313019506
297.80892762054
297.78637642655
297.76469034639
297.742657746
297.71910014824
297.69272702877
297.66324315682
297.62891177979
297.59012638743
297.54647990451
297.49777145513
297.44355483688
297.38398375551
297.31919471804
297.24929540723
297.17438952896
297.09451134843
297.00959147527
296.91940665718
296.82362026665
296.72184828062
296.61348905212
296.49791732942
296.37420973603
296.24139367267
296.09842951664
295.94418398135
295.77623656098
295.58745176592
295.35899267989
295.04519514776
294.55251133862
293.72632082296
372.50711608095
372.17744812554
371.68020075131
371.04057197322
370.28833315419
369.43217855996
368.48697448697
367.45331092351
366.32658081727
365.10356258416
363.79164875694
362.38862896342
360.90272630822
359.35214711109
357.75993777454
356.152033349
354.55191315295
352.9805569422
351.45323439602
349.98013326399
348.56715967925
347.21647981329
345.92962189764
344.70514371964
343.54047085839
342.43287686769
341.3793710041
340.37673017176
339.42158539584
338.51062565402
337.64089845292
336.80954892404
336.0140011437
335.25187471499
334.52075612644
333.81880964725
333.14394153672
332.49458386118
331.86901039587
331.26586203186
330.68367947726
330.12124133097
329.57744989136
329.05110229853
328.54141027719
328.04724297043
327.56803146603
327.102707517
326.65078780112
326.21141243295
325.78409168673
325.36816772047
324.96308650252
324.56833904571
324.18343461536
323.80798440228
323.44154796235
323.08373761389
322.73417706243
322.39251871049
322.05843013339
321.7315980408
321.41172865712
321.0985540926
320.79181473905
320.49129290818
320.19676723445
319.90791045044
319.72645806635
321.69309906824
320.90301430583
320.01278121879
319.15514033704
318.33695588926
317.55707130872
316.81220251544
316.0984550721
315.41230228947
314.75105300104
314.1129679986
313.49684507188
312.90155494226
312.32499969755
311.76298366364
311.27747047544
310.71973439107
310.14416058917
309.52896009037
308.84729821848
308.07170043948
307.18231502242
306.17672013564
305.07420078565
303.90928805816
302.72318286294
301.56509037253
300.50027920926
299.60284809475
298.92449411668
298.47216865412
298.20570693975
298.0630820935
297.98697034732
297.93989978342
297.8957146031
297.86547619064
297.83798529463
297.81267054575
297.78891576484
297.76588918486
297.74236908063
297.71713330241
297.68881742447
297.65709764614
297.62025898528
297.57855014274
297.53155713103
297.47872946194
297.4199403525
297.35522568518
297.28468386544
297.20841594475
297.12653106642
297.03905965554
296.94589872387
296.84676784246
296.74128187916
296.62896799404
296.50905365714
296.38065016537
296.24256915711
296.0934513425
295.93208946598
295.75755247693
295.56834200229
295.3598363445
295.11816930128
294.80676809408
294.34684440325
293.60700871045
372.40221860172
371.79699700306
370.99614920009
370.11865546595
369.21874203931
368.28966134562
367.32613866448
366.31455451699
365.23877958948
364.09363646951
362.8670038802
361.55785618668
360.16966548954
358.71499200739
357.21342276934
355.68685121976
354.15753186321
352.64625984312
351.16917998249
349.73768316316
348.35924012868
347.03830529953
345.77510006458
344.57024797322
343.42236779942
342.32898537353
341.28711848299
340.29424176918
339.34755690655
338.44387937305
337.58033269144
336.7544636272
335.96357982541
335.20555772725
334.47813669157
333.7794423531
333.10746622602
332.46073976645
331.83751136731
331.23650108288
330.65620510534
330.09558513838
329.55330137251
329.02847828526
328.52002783429
328.02715334739
327.54898011672
327.08471432712
326.63372385503
326.19522406759
325.76872747637
325.35352105078
324.94917066619
324.55508246102
324.17081429262
323.7959233102
323.43001209715
323.07270626996
322.72362779197
322.38242284707
322.04875630714
321.72232392584
321.40283801908
321.09002490879
320.78362518369
320.4834184064
320.18921489603
319.90059604399
319.74520797412
321.6854368556
320.88495353625
319.9953893861
319.13881723414
318.32182798453
317.5431660462
316.79949563084
316.08692280974
315.40195222612
314.74191957054
314.1051064016
313.49031683684
312.89642065869
312.32131891718
311.76083361319
311.27681112706
310.72078823443
310.14721841834
309.53445357711
308.85577885921
308.08373716085
307.19830412291
306.1966868463
305.09779348116
303.93597152145
302.75233296473
301.595774335
300.53089208706
299.63134428954
298.94906543868
298.4920002563
298.2212773242
298.0756532334
297.99782857809
297.9498291615
297.90469234539
297.87341795352
297.84466169284
297.81789234735
297.79252735946
297.76770934209
297.74220095029
297.71470722566
297.68383510875
297.6491455827
297.60896800106
297.56341206543
297.5118322611
297.45358709404
297.38868931104
297.31706362368
297.23876993419
297.15389000619
297.06252595584
296.9646995594
296.86025982071
296.7488407775
296.62999058194
296.5030832694
296.36710582751
296.22074194031
296.06239663187
295.89020819364
295.70276954502
295.49949684857
295.28031931678
295.04411247009
294.78375359552
294.47509734602
294.06017469531
293.43939167525
371.79370614997
370.24973238313
369.19568077065
368.32088459413
367.48327574841
366.64671514381
365.78840689078
364.89183030304
363.93368476452
362.90284421765
361.79044247056
360.59553121268
359.32036446067
357.97432858214
356.57383656646
355.1391841802
353.6909970262
352.24922601915
350.83097128448
349.44874040433
348.11138345201
346.82415844369
345.59012623834
344.40910369818
343.28091309826
342.20421743169
341.17685290635
340.19591104604
339.25934344238
338.36449597177
337.50865245914
336.68920319423
335.90409649664
335.15107273669
334.42806082729
333.73318664646
333.06477939919
332.4210824992
331.80064597682
331.20208996515
330.62411157752
330.06547372042
329.52505798701
329.00191964957
328.49501513133
328.00355661533
327.52663137935
327.06360643981
326.61367137141
326.17622045371
325.75062108722
325.33630247844
324.93276277916
324.53943826576
324.15589636178
323.78166556562
323.41638558316
323.05966341356
322.71113030118
322.37043970123
322.03726823778
321.71130800916
321.39226445486
321.0798664571
320.77386346695
320.47404162273
320.18019644392
319.89173109141
319.77367086285
321.6746466092
320.86262370152
319.9739008103
319.11873121442
318.30325318567
317.52609829113
316.78388908848
316.07274493191
315.38921268594
314.7306642848
314.09540562819
313.4822482408
312.89005941915
312.31673826072
311.75812771385
311.27592745592
310.72202838224
310.15094682269
309.54120951443
308.86625499026
308.0986499282
307.21815667376
306.22151975536
305.12718023674
303.9692499873
302.78872773064
301.63413739514
300.56924199367
299.66713712825
298.98002421095
298.51706202383
298.24099089582
298.0915621392
298.01152931373
297.96232974467
297.91612188948
297.8835930433
297.85331182717
297.82477980244
297.79740083333
297.77034673469
297.74235741427
297.71204751247
297.6780106157
297.63964142392
297.59531638081
297.54500896464
297.48759669857
297.42267900705
297.35014247849
297.26983309412
297.18175739093
297.08595892775
296.98251591941
296.87142381567
296.75245006551
296.62512192884
296.48889037454
296.34289943285
296.18575448822
296.0155410915
295.83007296941
295.62688827956
295.40440260901
295.16269656948
294.9038820061
294.631377388
294.34693417015
294.04249534329
293.68631593216
293.21793030609
362.97982209654
366.58896158418
366.3321561077
365.9139488989
365.42823877073
364.85661634753
364.20426536299
363.47868461149
362.68203352455
361.81070169302
360.85455564938
359.80930386974
358.67794309713
357.46661334201
356.18801679825
354.86039094653
353.50371904007
352.13746172057
350.77959355414
349.44483756987
348.14391550801
346.88444323079
345.67067453221
344.50524606365
343.38829405951
342.31886557067
341.29644787798
340.31894185437
339.38423889782
338.48968535375
337.63354398999
336.81335693719
336.02685507008
335.2719729045
334.5470465021
333.85009366578
333.17936004158
332.53334193908
331.91061778523
331.30969358165
330.7293298884
330.16837440691
329.62573350517
329.10033811755
328.5912496293
328.09766461352
327.61870812714
327.15366894536
326.70176756459
326.26244118997
325.83502126657
325.41895659723
325.01368541432
324.61870796971
324.23359659191
323.8578633041
323.49111154923
323.1329422753
322.78302275256
322.44100354676
322.10654873785
321.77934267727
321.45909590852
321.14553603397
320.83840571782
320.53745920811
320.24247115297
319.9531699916
319.68093671417
321.69043550524
321.05958571534
320.16767882741
319.30461096034
318.48102706739
317.69635595491
316.94750134618
316.23061117375
315.54213955324
314.87925940297
314.24010568813
313.62341684029
313.02811986941
312.45244709325
311.89288201268
311.27478358688
310.72340958103
310.15528574868
309.5491513998
308.87863253791
308.11632746873
307.24174915086
306.25109812511
305.16225071445
304.00902117279
302.8322761022
301.68010744048
300.61529777543
299.71024549549
299.01744978982
298.54747299676
298.26497230034
298.11091163099
298.02815621307
297.97736500115
297.93764200124
297.90286844736
297.869952435
297.83823381813
297.80719235677
297.77604588712
297.74350935843
297.70804561557
297.66822770237
297.62315781711
297.57129764855
297.51216152716
297.4441160639
297.36700826528
297.28042056193
297.18405083039
297.0777773215
296.96153995595
296.8353328744
296.69906787148
296.55230578118
296.39441254116
296.22463833523
296.04154069162
295.84281493911
295.62533602904
295.38582044635
295.12095500168
294.82935986041
294.51347384573
294.18027770742
293.84198986022
293.51710022587
293.22502657471
292.97105251367
292.78845494008
353.86031047936
359.05404726378
359.88543377002
360.2791830628
360.44369003935
360.42176915153
360.21682496087
359.85760041073
359.36702779285
358.76136292634
358.0491860791
357.24017891316
356.33779090742
355.34550089922
354.27415649459
353.14018509139
351.96190839126
350.75777208385
349.54475751379
348.33808717053
347.15007190196
345.98946204686
344.86214012937
343.77177463253
342.72043417672
341.70894821468
340.7371825938
339.80370271601
338.90801050975
338.04842448608
337.22323505589
336.43036698002
335.66841012009
334.93580679144
334.23082697278
333.55173841577
332.89728801735
332.26615945125
331.65695623164
331.06837263135
330.49932159344
329.9488271663
329.41580902505
328.89930164033
328.39846313653
327.91253213877
327.44072192382
326.98228935409
326.53659722975
326.10305337422
325.68108571252
325.27011826416
324.86963906351
324.47920044655
324.0983613035
323.72671066532
323.36382242956
323.00932631504
322.6628756306
322.32414449033
321.99282012211
321.66860251182
321.35121420843
321.04039159646
320.73587858454
320.43743062601
320.14485825237
319.85754692887
319.96213221068
321.61433272916
320.76999863491
319.88578011798
319.03679789012
318.22762343828
317.45654956785
316.72015254107
316.0146836648
315.33688587687
314.68429653254
314.05530948663
313.44876183652
312.8634940494
312.29739153684
311.74637700851
311.27154929807
310.72637825748
310.16551481335
309.56823608681
308.90864488723
308.15945094039
307.29958129318
306.3239207596
305.2489039361
304.10753197606
302.94039819207
301.79452065759
300.73037095948
299.8185130385
299.11210269202
298.62493627082
298.32636089111
298.16046565124
298.07067037949
298.01605690719
297.97589628481
297.93806650957
297.90117189685
297.86442542363
297.82740309332
297.78940838575
297.74916990189
297.7050090335
297.65544315067
297.59915066918
297.53464481523
297.46007112284
297.37426766774
297.27643429727
297.16580725797
297.04187152818
296.90414922584
296.7521678123
296.58558794924
296.40379961607
296.20577772773
295.99067396627
295.75647067805
295.50025480083
295.21777804869
294.9038254816
294.55348457405
294.16346928135
293.73555222951
293.2771818192
292.80312210269
292.3448965286
291.95082910164
291.6890797797
291.64282059842
291.99606934956
349.47400586619
354.04323246241
355.07800218705
355.72710093406
356.15332510239
356.42015808453
356.51972756717
356.47177360984
356.27010488783
355.92972434375
355.46797007926
354.89610811453
354.21430937088
353.435447277
352.571069421
351.63139278818
350.63245772324
349.5910055482
348.52334686326
347.44396337919
346.36602564802
345.3006410313
344.25547881092
343.23590344858
342.24543985438
341.28645279341
340.36003601016
339.46621686324
338.6048224703
337.77485695073
336.97518930563
336.20512382739
335.46323531735
334.74838586717
334.05890089346
333.39367780323
332.75169258367
332.13162538856
331.53226933234
330.95246701118
330.39146191667
329.84815714712
329.32164121953
328.81096794591
328.31552645051
327.834490516
327.36714533027
326.91278017514
326.47081805122
326.04072976564
325.62191869089
325.21386254687
324.81606913791
324.42813835627
324.04964264095
323.68016031819
323.31930495263
322.9667114178
322.62205556388
322.28500218653
321.95523816141
321.63248496765
321.31647568288
321.00696416343
320.70367682254
320.40641043868
320.11490247949
319.82816151086
320.22547170673
321.54925885882
320.68870691104
319.80865829606
318.96508996232
318.16133470688
317.39541612895
316.66392825207
315.96327879282
315.29039165415
314.64295106045
314.01941286714
313.41862468494
312.83938698655
312.27956585351
311.73514913477
311.26673145641
310.72919608565
310.17726147045
309.59088431675
308.94478973434
308.21189130165
307.3704613274
306.4137988436
305.35646362658
304.23033503232
303.07562374917
301.93814910461
300.87566191197
299.95628740144
299.23389722774
298.72570868224
298.40688638616
298.22557556591
298.12634423626
298.06675639181
298.02589980492
297.9850816636
297.94409864298
297.90194944714
297.8581793596
297.81216735825
297.76270684909
297.70810325658
297.64689073528
297.57735684125
297.49712512612
297.40413322391
297.29693098783
297.17428371684
297.03498624589
296.87776587387
296.70115873313
296.50355119779
296.28370036498
296.03960588518
295.76921669979
295.46955906678
295.13713431728
294.76760898373
294.35408126087
293.88832879101
293.36440854789
292.78321132278
292.15720032401
291.5133156107
290.89228855408
290.35502576725
289.97572169607
289.85640547594
290.13232008358
291.16795309749
346.78042588922
350.43017795699
351.45597103547
352.15077940272
352.66537443843
353.04933276368
353.30219466085
353.41870697135
353.41211637935
353.26783509384
352.99625059535
352.61081116226
352.12233766116
351.53066574815
350.84308727044
350.07544725322
349.23942470239
348.34963286137
347.42106789084
346.46766608905
345.50203399535
344.5349192569
343.57553984829
342.63085043375
341.70572233555
340.80353212905
339.92647376864
339.07586935034
338.25223757318
337.45548683579
336.68536606781
335.9412852953
335.22218481723
334.52721419734
333.85582953815
333.20682098865
332.57932059463
331.97200222145
331.38407831127
330.81487615916
330.26332455407
329.72860832234
329.20971292354
328.70616776069
328.21716102604
327.74199961141
327.27996995428
326.83047334148
326.39306429182
325.96711407894
325.55211659845
325.1475432532
324.75300159065
324.36810267591
323.99240704533
323.62553000258
323.26708332713
322.91675371604
322.57422109103
322.23915763967
321.91126285291
321.59025028518
321.27587778577
320.96790131027
320.66608229507
320.37020835935
320.08005470973
319.79317322561
320.67580593123
321.46756566393
320.59231544752
319.71740573029
318.88017960784
318.08265869134
317.32264700258
316.59680917111
315.90175852445
315.23462011871
314.5932393815
313.97612644222
313.38212543388
312.80997632013
312.25751562369
311.72080492943
311.25988087379
310.73126895455
310.18975438908
309.61610725712
308.98583028701
308.27216546147
307.45272762408
306.51901192579
305.48327302464
304.37589690295
303.23651046511
302.10977267042
301.05041429712
300.12352829706
299.38357281922
298.85122990745
298.50826912699
298.30781508679
298.19633422819
298.13025707001
298.08851450669
298.04504988333
298.00049526275
297.95332906699
297.90285429659
297.8484348134
297.78890609523
297.722650697
297.64832731783
297.56381861219
297.46554833134
297.35139354538
297.21964864734
297.06913490642
296.89741549911
296.70126929367
296.47649555309
296.21773447486
295.92039566941
295.58201806381
295.19956864759
294.77103985571
294.29255703323
293.7555543721
293.15205065119
292.47740478037
291.73404685268
290.94204311993
290.15218770455
289.42657869146
288.83336532913
288.43493258044
288.29513445203
288.48904506125
289.1529006549
290.82077521614
345.22244995267
347.55910334601
348.59838137073
349.26267792328
349.79502903383
350.21954876921
350.5385850174
350.75853524767
350.84795474624
350.83751530443
350.71272160843
350.46337846406
350.11518514227
349.68113277457
349.14868224044
348.52475414891
347.83140674662
347.07893653313
346.27805986386
345.44220481233
344.58400779631
343.71399960933
342.84081716764
341.97222926572
341.11419380666
340.27106874193
339.44593475042
338.64102095089
337.85764788964
337.09655023369
336.35799277925
335.64185011872
334.94781419473
334.27546220067
333.6240706871
332.99278076291
332.38117919791
331.78848996116
331.21376711413
330.65646916138
330.11552155225
329.59031952878
329.08040511255
328.58494102071
328.10335555156
327.63485877563
327.17895522694
326.73524143852
326.30307217037
325.88196424759
325.47135228443
325.07089857637
324.68021163303
324.29884485168
323.92642877611
323.56255922067
323.20694860039
322.85927836149
322.51921108761
322.18645284288
321.86070758791
321.54174217294
321.22930816015
320.92315828621
320.62312644123
320.32892527199
320.04039891365
319.75447005602
321.21127590491
321.36216679084
320.48001657215
319.61176042198
318.78188248915
317.99141056334
317.2380552438
316.51862850393
315.82999181113
315.1694779873
314.53508889854
313.92537384662
313.33915324128
312.77508784332
312.23097554709
311.70296166357
311.25049242112
310.73192424475
310.20210734842
309.64275742633
309.03031567791
308.33850788802
307.54435894898
306.63742397602
305.62723986256
304.54224188993
303.42121760559
302.30777368354
301.25349564615
300.31988216082
299.56155331924
299.00297530007
298.63239801489
298.40897865956
298.28204927081
298.20748473652
298.16431060664
298.11856859178
298.07149392829
298.02048088242
297.96437880768
297.90233997487
297.83306642391
297.7550088704
297.66686208715
297.56550023798
297.44769423374
297.30988023624
297.15217435691
296.97174031115
296.76304862334
296.51730524028
296.22517706433
295.87964344003
295.47765998887
295.01512876325
294.48443109853
293.88724491874
293.22036598158
292.47825864304
291.65683879944
290.77253054306
289.88003786307
289.06833582398
288.43045883303
288.02819719276
287.87020365021
287.92532091185
288.17618730522
288.65998267023
289.52511323964
291.27919739085
344.47001123646
345.14902600145
346.24586500975
346.86740389721
347.38005216825
347.81020845394
348.15597773022
348.42311984764
348.58178958876
348.64252000522
348.61687976104
348.4807517879
348.24685616332
347.91421230947
347.50537763518
347.01443970111
346.44266977856
345.80684131841
345.12005264539
344.39260047908
343.63414527901
342.85555760727
342.06601264626
341.2726425244
340.48174990702
339.69849953628
338.92658493946
338.16890563412
337.42748838227
336.7036741911
335.99832747452
335.31187821509
334.6444230679
333.99580538647
333.36573253495
332.75388261631
332.15983298794
331.5828619482
331.02228376646
330.47784298391
329.9488056965
329.43451407739
328.93454060208
328.44794104082
327.97436669388
327.51344969111
327.06457816986
326.6272893827
326.20097424468
325.78518317791
325.37966692316
324.98393410991
324.59759325792
324.22024742169
323.85149161056
323.49112206393
323.13877546384
322.79412947555
322.45688027293
322.12672686025
321.80347436965
321.48685863189
321.17662462578
320.87256083549
320.5744207768
320.28198475001
319.99512464346
319.700644466
321.56858117498
321.23621720238
320.35195980425
319.49142259273
318.6697926997
317.88718648686