/*--------------------------------*- C++ -*----------------------------------*\
| =========                 |                                                 |
| \\      /  F ield         | OpenFOAM: The Open Source CFD Toolbox           |
|  \\    /   O peration     | Version:  2312                                  |
|   \\  /    A nd           | Website:  www.openfoam.com                      |
|    \\/     M anipulation  |                                                 |
\*---------------------------------------------------------------------------*/
FoamFile
{
    version     2.0;
    format      ascii;
    arch        "LSB;label=32;scalar=64";
    class       volScalarField;
    location    "0.00015";
    object      Y.Liq;
}
// * * * * * * * * * * * * * * * * * * * * * * * * * * * * * * * * * * * * * //

dimensions      [0 0 0 0 0 0 0];

internalField   nonuniform List<scalar> 
109340
(
0.99999
0.99999
0.99999
0.99999
0.99998999999996
0.99998999999894
0.99998999996964
0.99998999940469
0.99998999594484
0.9999899849677
0.99998995982239
0.99998991195668
0.99998983101016
0.99998970481051
0.99998951925548
0.99998925806734
0.99998890236196
0.99998842999977
0.99998781465232
0.99998702451521
0.99998602056551
0.99998475432281
0.99998316493626
0.99998117532263
0.99997868683056
0.99997557178783
0.99997166277082
0.99996673664063
0.99996048985821
0.99995249855354
0.99994215061648
0.99992852317293
0.99991014669033
0.99988452300112
0.99984708468609
0.99978881660467
0.99999
0.99999
0.99999
0.99999
0.99998999999994
0.99998999999828
0.99998999995092
0.99998999912241
0.99998999464023
0.99998998136193
0.99998995212899
0.99998989791248
0.99998980788266
0.99998966938101
0.99998946777575
0.99998918616765
0.99998880492835
0.99998830098606
0.99998764680062
0.99998680896922
0.99998574637426
0.99998440778451
0.99998272874293
0.99998062740433
0.9999779987535
0.99997470647227
0.99997057115396
0.99996535261287
0.99995872223395
0.99995021770971
0.99993916484186
0.99992453354673
0.99990465152016
0.99987659412237
0.99983475672455
0.99976742945935
0.99999
0.99999
0.99999
0.99999
0.99998999999997
0.99998999999925
0.99998999997493
0.9999899993275
0.99998999529616
0.99998998273763
0.99998995445809
0.99998990138662
0.99998981265228
0.99998967556005
0.99998947544968
0.99998919541045
0.99998881581462
0.99998831360936
0.99998766128318
0.99998682546986
0.99998576507411
0.99998442886004
0.99998275235972
0.99998065369031
0.99997802778683
0.99997473825369
0.99997060557198
0.99996538943159
0.99995876112248
0.99995025825496
0.9999392064718
0.99992457457333
0.99990467975864
0.9998765328904
0.9998341921395
0.99976414096738
0.99999
0.99999
0.99999
0.99999
0.99998999999999
0.99998999999985
0.99998999999287
0.99998999952848
0.99998999599368
0.99998998425569
0.99998995708501
0.99998990536727
0.99998981818931
0.99998968281422
0.99998948453396
0.99998920637978
0.99998882865376
0.99998832821683
0.99998767743646
0.99998684277587
0.99998578285991
0.99998444601745
0.9999827671706
0.99998066357602
0.99997802898028
0.99997472532367
0.99997057075619
0.99996532170025
0.99995864484984
0.99995007123716
0.99993891658562
0.99992413391822
0.99990400427099
0.99987541604802
0.9998318795599
0.99975661470938
0.99999
0.99999
0.99999
0.99999
0.99999
0.99998999999999
0.99998999999923
0.99998999965938
0.99998999656857
0.9999899856835
0.99998995975394
0.99998990954942
0.99998982394101
0.99998968987965
0.99998949220691
0.99998921331442
0.99998883263188
0.99998832585969
0.99998766367753
0.99998681048448
0.99998572193282
0.99998434223794
0.99998260076264
0.99998040708834
0.99997764450284
0.99997416052885
0.99996975342388
0.99996415199088
0.99995698417595
0.99994772568993
0.99993561058054
0.99991946866546
0.9998973711303
0.99986577487967
0.99981694135083
0.99972733619599
0.99999
0.99999
0.99999
0.99999
0.99999
0.99999
0.99998999999182
0.99998999919437
0.99998999379857
0.99998997668882
0.99998993783873
0.99998986448046
0.99998974110587
0.99998954930167
0.99998926736808
0.99998886972532
0.99998832600949
0.99998759991255
0.99998664821337
0.9999854145074
0.99998382672777
0.9999817938591
0.99997919921226
0.9999758920237
0.99997167615737
0.99996629419156
0.99995940464029
0.99995054798163
0.99993909384683
0.99992415430409
0.99990443126283
0.99987794988668
0.99984143381607
0.99978882367196
0.99970649829313
0.99954754878279
0.9996928534712
0.99953430081135
0.99928348407057
0.99891852737806
0.99842937235531
0.9978059894708
0.99703326679558
0.99609822763995
0.99499037873483
0.99370562746545
0.99224561040843
0.99062408316212
0.98889699866178
0.98708897835445
0.98524743130602
0.98340813211838
0.98160291056542
0.97985448747882
0.97817684580727
0.97657828885079
0.97506297862188
0.97363085224525
0.97227945013314
0.97100512220655
0.96980328123204
0.96866913192851
0.9675984802269
0.96658589692128
0.96562702874129
0.96471878402291
0.96385535410941
0.96303545737433
0.9622538816731
0.96150938724849
0.96079795676002
0.9601182178163
0.95946709967463
0.95884335793578
0.95824441148127
0.95766933777112
0.95711582980714
0.95658327528017
0.95606961277357
0.95557440753546
0.95509590378595
0.95463365783769
0.95418633385721
0.95375333688534
0.95333379249502
0.95292694843162
0.95253224052703
0.95214895206565
0.95177654245719
0.95141446155669
0.95106221302735
0.95071932621777
0.95038536890277
0.95005992906759
0.94974262470305
0.94943309737115
0.94913101296457
0.9488360580621
0.94854793640411
0.94826636648611
0.94799108279756
0.94772183707151
0.94745839750952
0.94720054958006
0.94694397492703
0.94567909051669
0.94431272238334
0.94333702674106
0.94242498337033
0.94155941755681
0.94073453582416
0.93994343320199
0.93917947683271
0.93843790411604
0.93771675316937
0.93701693098959
0.93634145314968
0.93569390933291
0.9350764698881
0.93448802804798
0.93385290521861
0.93329911666856
0.93273618465544
0.9321382501305
0.93146971671006
0.93068722166446
0.92974726102883
0.92862349202523
0.9273302037176
0.9259371943089
0.92456292342986
0.92333425605955
0.92234134452019
0.92162183714833
0.92115904847251
0.92089806233741
0.92076908660757
0.9207131637957
0.92069160819215
0.92068469103637
0.9206845414178
0.92068939766585
0.92069793281723
0.92070975489537
0.92072425056881
0.92074065425139
0.92075789501424
0.9207745882491
0.92078992701935
0.92080314317087
0.92081351103498
0.92082049913408
0.92082394562783
0.92082442385565
0.92082091283905
0.92081245287829
0.92079919601347
0.92078127559593
0.92075883768471
0.92073202595835
0.92070094313136
0.92066561694942
0.92062599632798
0.92058196389602
0.92053333026539
0.92047977153956
0.92042076220426
0.92035554945833
0.92028320692117
0.92020286127218
0.92011410586649
0.92001825245814
0.91991984489666
0.91982902325702
0.91976430441187
0.91974506227225
0.99965075137583
0.99945064837769
0.99913649689377
0.99869480822856
0.99812299499206
0.99741115348878
0.99655023112849
0.99553388007614
0.99435874014667
0.99302651932724
0.99154321663093
0.98992855461347
0.98821626506317
0.98644162170399
0.98463826497441
0.98283885762521
0.98107303813164
0.97936163750419
0.9777188544121
0.97615296687175
0.97466747386367
0.97326254973553
0.9719360804143
0.97068452280983
0.96950383878109
0.96838901240893
0.96733541999264
0.96633861352499
0.96539428952787
0.9644984896863
0.96364750876093
0.96283791959706
0.96206669107878
0.96133089898976
0.96062805055436
0.95995572038203
0.95931183450118
0.95869438620794
0.95810164373613
0.95753193336278
0.95698380309089
0.95645585333474
0.95594686923725
0.95545567818738
0.95498123644655
0.95452255985554
0.95407875198955
0.95364899288547
0.95323251332672
0.95282861584906
0.95243663521373
0.9520559684213
0.95168603839796
0.95132632241
0.95097632477872
0.95063558859613
0.95030368474502
0.94998020982688
0.9496647871127
0.94935706449582
0.9490567120273
0.94876341983947
0.94847689548073
0.9481968619512
0.94792305810466
0.94765523746826
0.94739316369082
0.94713660764216
0.94685430616267
0.94521816120572
0.9440532540603
0.94309870179744
0.94219889031913
0.94134430932961
0.94052883153803
0.93974541149807
0.9389877546904
0.93825175426482
0.93753620414785
0.93684263892116
0.93617437479862
0.93553481005052
0.93492544190392
0.93434410024326
0.93385272081927
0.93329927870839
0.93273674889443
0.93213932927614
0.93147148897208
0.93068991690489
0.92975110796311
0.9286286030473
0.92733643895996
0.92594411708481
0.92456987377808
0.92334064626234
0.92234675353407
0.92162607455985
0.92116213991585
0.92090022821317
0.92077063014866
0.92071435314013
0.92069261346046
0.92068558572467
0.92068532930728
0.92069007907998
0.92069851103187
0.92071024819888
0.92072468822263
0.92074106837809
0.92075830294713
0.92077497286832
0.92079024260242
0.9208033164135
0.92081344903189
0.92082010533457
0.9208231413082
0.9208231405688
0.92081869973268
0.92080912915372
0.92079452951956
0.92077502079848
0.92075074788934
0.92072185855507
0.92068845713124
0.92065056665094
0.92060812582938
0.92056100322064
0.92050898723462
0.92045170974384
0.92038858341692
0.92031875694034
0.92024120298282
0.92015497299821
0.92005959443294
0.91995644218857
0.91985034649315
0.91975218431303
0.91968209685145
0.91966185775241
0.99963321835327
0.99938928839877
0.99900187900847
0.99847288225864
0.99780684411083
0.99700414747939
0.99606689355523
0.99499482163071
0.99378860744061
0.99244923979938
0.99098645947862
0.98941607439884
0.98775638830907
0.98603734147274
0.98428936593928
0.98254187453697
0.98082225713182
0.97915090749622
0.9775421508953
0.97600450902029
0.97454212413953
0.97315616837109
0.97184531492325
0.97060656094203
0.96943617327973
0.96833006481338
0.96728411367044
0.9662937566251
0.96535499449894
0.96446394026598
0.96361710345293
0.96281113463145
0.96204302120027
0.96130999611459
0.96060952619482
0.95993933424753
0.9592972971137
0.95868151681671
0.95809021724413
0.95752180611875
0.95697480146673
0.95644785612757
0.95593974299677
0.95544931812649
0.95497554981642
0.95451746255861
0.95407418652596
0.95364488621372
0.95322882404465
0.95282528140533
0.95243362003903
0.95205322440302
0.95168353661296
0.95132403216181
0.95097422242775
0.95063365235621
0.95030189456304
0.94997854927979
0.94966324135315
0.94935562008684
0.94905535624284
0.94876214043295
0.94847568131485
0.94819570415036
0.94792194951437
0.94765417290038
0.94739214123629
0.94713562448893
0.94685004056791
0.9452012565899
0.94404371326117
0.94308969885558
0.94219014722823
0.94133596006674
0.94052095443516
0.93973804558793
0.93898094696512
0.93824557269512
0.93753073383937
0.93683796210713
0.93617054851981
0.93553185498955
0.93492334955102
0.93434285850362
0.93385229106421
0.93329962935911
0.93273798682177
0.9321416973567
0.9314753749509
0.9306958232857
0.92975953597747
0.92863980202301
0.92735011586485
0.9259593341764
0.92458519389948
0.92335477276888
0.92235874401782
0.92163548854692
0.9211690198965
0.92090504882962
0.92077406165793
0.92071699210661
0.92069484088928
0.92068756715686
0.92068707830428
0.92069159325963
0.92069979586888
0.92071134192499
0.92072565391018
0.92074197638541
0.92075919185368
0.92077580544214
0.92079091693125
0.92080366981037
0.92081327357173
0.92081918589951
0.920821425552
0.92082016525807
0.92081368359611
0.92080161572293
0.92078398410728
0.92076088097591
0.92073244831748
0.92069884266518
0.92066017158849
0.92061644698543
0.92056758401751
0.92051342004414
0.92045368685237
0.92038790796882
0.92031534148619
0.92023490409566
0.92014533612078
0.92004551484853
0.91993482696643
0.91981482118932
0.91969100274208
0.91957598814891
0.9194939949917
0.91947185210123
0.99959466991069
0.99924788313339
0.9987085385134
0.99801558724358
0.99719668827891
0.99626948997602
0.99524607448932
0.99412981534585
0.99291685881308
0.99160467031504
0.99020076418191
0.9887064397143
0.98713170150935
0.98549692636477
0.98382774165153
0.98215073927436
0.98049169853767
0.97887203705573
0.97730661229927
0.97580511889698
0.97437283979608
0.97301160885894
0.97172107440775
0.97049920465416
0.96934284529567
0.96824834272062
0.96721187381452
0.96622977834506
0.9652980863658
0.96441314219582
0.96357155611724
0.96277019157487
0.96200608917163
0.96127660888033
0.96057927595499
0.95991187953372
0.95927234272413
0.95865880849046
0.958069531606
0.95750295332054
0.95695760172082
0.95643216209239
0.95592539747493
0.95543620237455
0.95496353369947
0.95450645732421
0.9540640914108
0.9536356306325
0.95322032721053
0.95281747732678
0.9524264421826
0.95204661288823
0.9516774377547
0.951318396103
0.95096900819431
0.9506288204225
0.95029741066311
0.949974382276
0.94965936334074
0.94935200544374
0.94905198088814
0.94875898157316
0.94847271770003
0.94819291649998
0.94791932115396
0.94765168991826
0.94738979349635
0.94713340812057
0.94684203682753
0.94517768899083
0.94402952293541
0.94307642821667
0.94217740998167
0.94132386929938
0.94050957305012
0.93972740809007
0.93897111320655
0.9382366406333
0.93752282569052
0.93683119647737
0.93616500826273
0.93552757016221
0.93492030631123
0.93434103033778
0.93385159320005
0.93330011675272
0.93273983053441
0.93214526042856
0.93148123910719
0.93070474855709
0.92977227875342
0.92865674327557
0.92737083348947
0.92598243190653
0.92460850300761
0.92337631776468
0.92237707938715
0.92164991779123
0.92117958579169
0.9209124537819
0.92077932810264
0.92072103591365
0.92069825255924
0.9206906041419
0.92068977347417
0.92069393164567
0.9207017812394
0.92071302653519
0.9207271299177
0.92074334964008
0.92076052063831
0.92077703153841
0.92079188562527
0.92080413177646
0.92081291522206
0.92081771233791
0.92081881155687
0.92081530287436
0.92080566765088
0.92078964947656
0.92076719074271
0.92073834184923
0.92070323818569
0.9206620495499
0.92061488790188
0.92056174592978
0.92050250091913
0.92043693921695
0.92036468886887
0.92028506772984
0.9201970469978
0.92009914860174
0.91998972981318
0.91986737826669
0.91973127596945
0.91958334719373
0.91943029545998
0.91928778442751
0.91918727339945
0.91916308787597
0.99946716909248
0.99882231675449
0.99796091941101
0.99701819056779
0.99604373036489
0.99503944547168
0.99399775475577
0.99290676682835
0.99175011560933
0.99052268523331
0.98921395081883
0.98782353992925
0.98635605228636
0.98482564553274
0.98325410059972
0.98166522205709
0.98008199264896
0.97852620968369
0.97701425117217
0.97555716027359
0.97416165564726
0.97283096555208
0.9715656757618
0.97036465916357
0.96922568203304
0.96814574777911
0.96712152312615
0.9661495969026
0.9652266720057
0.96434923195761
0.96351409466014
0.96271829711015
0.9619590594721
0.96123382598839
0.96054025181361
0.95987616945286
0.95923959931522
0.95862870431448
0.95804181499576
0.95747738188055
0.95693398656861
0.956410318265
0.95590517335536
0.9554174521059
0.95494613413726
0.95449029711944
0.95404907226129
0.95362167030574
0.95320734143253
0.95280539701221
0.95241519238208
0.952036132602
0.95166766529094
0.95130927782117
0.95096049389439
0.95062086403719
0.9502899708399
0.94996742015923
0.94965284353409
0.94934589488465
0.94904624851479
0.94875359781241
0.94846765465308
0.94818814833936
0.94791482425392
0.94764744352434
0.94738578155848
0.94712962427917
0.94682998083992
0.94514760981033
0.94401060958436
0.94305879063668
0.94216066068777
0.9413080607963
0.94049472298483
0.9397135337296
0.93895828248311
0.93822497996759
0.93751249452957
0.93682234968641
0.93615775474893
0.93552194977916
0.93491629990649
0.93433859848988
0.93385060902431
0.93330070728206
0.93274223123287
0.93214995568054
0.93148900125536
0.93071659043964
0.92978921363058
0.92867929450932
0.92739846765388
0.92601331823363
0.92463975303569
0.9234052752209
0.92240178508127
0.92166940853184
0.92119388980438
0.92092248950081
0.92078646266827
0.9207265064439
0.92070286656933
0.92069471769931
0.92069345356593
0.92069713333699
0.92070450393037
0.92071532869812
0.92072912677
0.92074517914048
0.92076226043184
0.92077860254564
0.92079307885729
0.92080461541777
0.92081229460847
0.92081568220832
0.92081507541151
0.9208082452526
0.92079419789212
0.92077257577418
0.92074321755366
0.9207061109738
0.92066137602907
0.92060919829345
0.92054969356279
0.920482823971
0.92040841400779
0.92032617663485
0.92023555053379
0.92013548605783
0.92002447709035
0.91990042485709
0.91976110805405
0.91960468748572
0.91943010146851
0.91924002090637
0.9190431558413
0.91886018820075
0.91873412575643
0.91870900949617
0.99859887024283
0.99703619106999
0.99595974738844
0.99504508681199
0.99415770337129
0.99326525824084
0.99234495358823
0.99138183984107
0.99035448670347
0.9892526835566
0.98806949651145
0.98680417508159
0.98546002588929
0.98404764152063
0.98258521817843
0.98109488935865
0.97959844124751
0.97811696382812
0.97666727661756
0.97526206571858
0.97390972528498
0.97261484154607
0.97137936023001
0.97020320600885
0.96908500650356
0.96802252341092
0.96701299421814
0.96605348830497
0.96514111610047
0.96427268446341
0.96344527613034
0.96265614198848
0.96190270383712
0.96118253591551
0.96049341033248
0.95983325494651
0.95920017100199
0.95859238267682
0.95800827107847
0.95744632460159
0.95690517105122
0.95638352792438
0.95588022714779
0.95539418218897
0.95492440304577
0.95446997376704
0.95403005121986
0.95360385015703
0.95319063500154
0.95278972358261
0.95240047662292
0.95202230821899
0.95165466880394
0.95129705429889
0.95094899020078
0.95061003313567
0.95027976837502
0.94995780546089
0.94964377902023
0.94933734515545
0.94903817997348
0.94874597830779
0.94846045394978
0.94818133826513
0.94790837854847
0.94764133793785
0.94737999604796
0.94712414840831
0.94681340057002
0.94511110877245
0.94398686935247
0.94303677319197
0.94213992407166
0.94128857631244
0.94047644826002
0.93969646151318
0.93894248602613
0.9382106131915
0.93749975462011
0.93681142800323
0.93614878655723
0.93551498527933
0.93491131527374
0.93433554303023
0.93384931594251
0.93330136796781
0.93274514061517
0.93215571748645
0.93149857532996
0.93073123976608
0.92981021305715
0.92870732646003
0.92743291119676
0.92605192935511
0.92467893292056
0.92344168108142
0.92243293012124
0.92169404797124
0.92121202277869
0.92093523514556
0.9207955232637
0.92073344323106
0.92070871400039
0.92069994135922
0.92069816826112
0.92070125641275
0.92070802001208
0.92071829196069
0.92073166702648
0.92074746171808
0.92076438193075
0.92078046369958
0.92079441597215
0.92080501236795
0.92081129726697
0.92081320059726
0.92080981737936
0.92079859591954
0.92077866545588
0.9207494879426
0.92071074955459
0.92066233823078
0.92060433876553
0.92053694994832
0.92046028746103
0.92037426590828
0.92027864882933
0.92017303540294
0.92005650953626
0.91992740868098
0.91978346359371
0.9196216216852
0.91943882226998
0.91923263861427
0.91900181478189
0.91875045809962
0.91849058499803
0.91825082917934
0.91809190310291
0.91806930022568
0.98757093334986
0.99286050713892
0.99274130620612
0.99237583696085
0.99190020709669
0.99131185415035
0.9906299315957
0.98986598314261
0.98902089234134
0.98809429672633
0.98707927178367
0.98597392895145
0.98478325009995
0.98351465537517
0.98218187008328
0.98080440885702
0.97940371400366
0.97800011601078
0.97661280583997
0.97525619750882
0.9739408793305
0.97267379290401
0.97145879228313
0.97029749687456
0.96918984286196
0.96813458720278
0.96712981225324
0.9661731336035
0.96526211469009
0.96439396629204
0.96356600859454
0.962775691624
0.96202060938618
0.96129848168574
0.96060717165157
0.95994467855116
0.95930917128299
0.95869892675093
0.95811234855745
0.9575479516413
0.95700437486696
0.95648035326892
0.95597472855738
0.95548642408656
0.95501445386426
0.95455789896662
0.95411592094192
0.95368773417734
0.95327260683552
0.9528698524521
0.9524788306804
0.95209895223351
0.95172966636793
0.95137046573547
0.95102087315315
0.95068044337385
0.95034875890193
0.9500254280094
0.94971008244004
0.94940237551758
0.94910198102807
0.94880859100875
0.94852191608196
0.94824168445515
0.94796764096006
0.94769954591692
0.94743716995127
0.94718028920286
0.94691728446571
0.94546307930032
0.94420788710624
0.94324191947341
0.94233459920521
0.94147398517281
0.94065418955923
0.93986822429512
0.93910968228635
0.93837412604499
0.93765981658158
0.93696769334878
0.93630057604421
0.93566170096579
0.93505289676082
0.93447289486529
0.93384768583643
0.93330206058334
0.93274850558321
0.93216247303546
0.93150986430787
0.93074857285101
0.92983513191528
0.92874069026058
0.92747403967979
0.92609819384155
0.92472604036408
0.92348559054567
0.92247060944163
0.92172395193862
0.92123410426327
0.92095079402831
0.92080658608872
0.92074189866713
0.92071583614364
0.92070629797388
0.92070709339485
0.92070911935559
0.92071475525418
0.92072395614047
0.92073646358502
0.92075167516244
0.92076818784261
0.92078368092776
0.92079656331422
0.92080536894667
0.9208092263628
0.92080829142662
0.92079895394473
0.92077906915152
0.92074741425231
0.92070301681972
0.92064520287161
0.92057360681698
0.92048819654147
0.92038916809755
0.92027661976093
0.92015037060958
0.92001008576139
0.91985501867395
0.91968332299943
0.91949182167836
0.91927637475782
0.91903168485975
0.91875287587414
0.91843636238507
0.91808107534612
0.91769526113238
0.91729917854997
0.91694058645685
0.91672051900156
0.91671313119115
0.97725408098873
0.98477101673688
0.98575866271409
0.98627894274121
0.98651712369
0.98653783489217
0.98635693392276
0.98599460031979
0.98549322909337
0.98486700859063
0.98412472017507
0.98327836528481
0.98233561062884
0.98130333919736
0.98019417735396
0.97902544544617
0.97781679262951
0.97658730465831
0.97535401720736
0.97413331562647
0.97293736173925
0.97177445798022
0.97065016287727
0.9695676983483
0.96852852568145
0.96753298521217
0.9665803800874
0.96566952190757
0.96479874720444
0.96396613606986
0.9631696840201
0.96240740045008
0.96167735892223
0.96097767469021
0.96030653079645
0.95966221122015
0.95904312258553
0.95844775218814
0.95787469669485
0.95732263125557
0.95679033509002
0.95627666394067
0.95578056203374
0.95530105511027
0.95483722940348
0.9543882321002
0.95395327093299
0.95353161317886
0.95312257431275
0.95272551132524
0.95233982273292
0.95196494962832
0.95160037451787
0.95124561220366
0.95090020916191
0.95056373843373
0.95023580003995
0.94991601851314
0.94960404002862
0.94929953185896
0.9490021790724
0.94871168466907
0.9484277689034
0.94815016935225
0.94787864038604
0.9476129520223
0.94735288975746
0.9470982579319
0.94672817080748
0.94496743763606
0.94388781829235
0.94294541784177
0.94205457555037
0.94120869856792
0.94040158456772
0.9396264538101
0.93887759645173
0.93815147656761
0.93744719748246
0.93676624780388
0.93611154836248
0.93548590409535
0.93489029634759
0.93432237290858
0.93384327207441
0.93330335600505
0.93275635405993
0.93217862896151
0.93153713718357
0.93079071113039
0.9298960362909
0.92882268891367
0.92757573286289
0.92621326723993
0.92484402726171
0.92359618692815
0.92256604264153
0.92180013345638
0.92129072764887
0.92099088418054
0.92083511363913
0.92076363531863
0.92073412171467
0.92072270060637
0.92072313957411
0.92072366368
0.9207273934774
0.92073460468293
0.92074530534114
0.92075908610147
0.92077443885426
0.92078848239785
0.92079916256024
0.92080484289446
0.9208053812222
0.92079716961314
0.92077574960862
0.92073837408481
0.92068254612883
0.92060608754954
0.92050725883298
0.92038484589022
0.92023828328188
0.92006750188784
0.91987244397946
0.91965275907175
0.91940752657396
0.9191347365247
0.9188295967784
0.91848422076139
0.91808890041525
0.9176325145091
0.91710598104138
0.91650406863326
0.91583082375087
0.91510970316526
0.9143885359467
0.91376966634724
0.9134449003214
0.91349952066744
0.97196884334103
0.97952776043551
0.98071524014584
0.98145793377389
0.98196636382311
0.98229883512844
0.98244324041049
0.98241825517279
0.98223113896079
0.98188306851954
0.98141641356531
0.98083353085282
0.98013118304299
0.97932780476979
0.97843808155756
0.97747488511552
0.97645541717808
0.97539740807499
0.97431739940918
0.97323001498937
0.9721488447538
0.97108476611833
0.97004528273302
0.96903560681935
0.96805894418818
0.96711704799205
0.96621071885766
0.96533978332337
0.96450348076514
0.96370076652748
0.96293033060536
0.96219077344327
0.96148063938389
0.96079847396264
0.96014283283694
0.95951227549155
0.95890541250739
0.95832094433115
0.95775764229693
0.95721432708578
0.95668988625381
0.95618329020054
0.95569357734787
0.95521984924712
0.95476126060018
0.95431702874501
0.95388641175862
0.95346871530759
0.95306329494164
0.95266954848534
0.9522869125064
0.95191485815304
0.95155289039118
0.9512005459273
0.95085739018732
0.95052301269496
0.95019702592865
0.94987906451925
0.94956878517962
0.94926586567646
0.94897000251215
0.9486809083916
0.94839831147683
0.9481219560445
0.94785160202217
0.94758702104013
0.94732799908027
0.94707432039375
0.9466168511218
0.9448491500443
0.94380043246664
0.94286467938382
0.94197924190793
0.94113816660178
0.9403353643438
0.93956438564373
0.93881992860226
0.93809879676282
0.93740025943535
0.93672576740516
0.93607802682723
0.93545953037643
0.93487098231019
0.93430991871943
0.9338370272963
0.93330415185585
0.93276519860302
0.93219765058972
0.93156978907397
0.93084167042559
0.9299703129699
0.92892356563899
0.92770202361025
0.92635758324204
0.92499359133559
0.92373763723326
0.92268917648975
0.92189931714026
0.92136529790131
0.92104406548032
0.92087302297725
0.92079237290892
0.9207582091123
0.92074451217221
0.92074442099986
0.92074348241215
0.92074497343626
0.92074961177377
0.920757673728
0.92076903046063
0.92078221465122
0.92079384663963
0.92080150095079
0.92080397724834
0.9207990190923
0.92077968198722
0.92074077367866
0.92067724558388
0.92058412985682
0.92045669583157
0.92029073773158
0.92008286504857
0.91983077438724
0.91953314734085
0.91918920898755
0.91879835791892
0.91835844740136
0.9178640908776
0.91730350582013
0.91665724618203
0.91590214853734
0.91501718441562
0.91399008901944
0.91282301890912
0.91154606603993
0.91022621466191
0.90897685280585
0.90799823343451
0.90758908883829
0.90777914976231
0.96773752697975
0.9757327606175
0.9769811702083
0.97775423288593
0.97833908395661
0.97877251618311
0.97908116806188
0.97923143753819
0.97923676367048
0.9791163327001
0.97883960804795
0.97845257274079
0.97796782666149
0.97736783014154
0.97666677646961
0.9758851413787
0.97503748960087
0.97413819025458
0.97320334965344
0.97224745826606
0.97128303581727
0.97032069873982
0.96936982036149
0.96843697914886
0.96752695733389
0.96664291027633
0.96578674904282
0.96495940333098
0.96416114517204
0.96339176831065
0.96265062674586
0.96193686476632
0.9612495040242
0.96058746794122
0.95994965736177
0.95933497209452
0.95874226562949
0.95817044662036
0.95761847141851
0.95708535308317
0.95657012874942
0.95607187409154
0.95558973154099
0.95512288635832
0.95467056851738
0.95423205079097
0.95380665129121
0.95339372769465
0.95299267411631
0.95260293139957
0.95222397734763
0.9518553171906
0.95149648229117
0.95114703381644
0.95080656180046
0.95047467744195
0.95015101102823
0.94983521170986
0.94952694823228
0.9492259099705
0.94893180514856
0.94864435879195
0.94836330996773
0.94808841058971
0.94781942571378
0.94755613192686
0.94729831122945
0.94704566455759
0.94642073836256
0.94471627720242
0.94369636823974
0.94276845611371
0.94188941685728
0.9410539241279
0.94025610841808
0.93948996771631
0.93875069437823
0.93803547840158
0.93734376559686
0.93667694179246
0.93603744402365
0.9354273910722
0.93484715876903
0.9342941469462
0.9338285403369
0.93330390257259
0.93277433249792
0.93221860499561
0.93160658110297
0.93089983607935
0.93005597579218
0.92904113045706
0.92785088625549
0.92652979438588
0.92517432661922
0.92391049005539
0.92284128107298
0.92202320460011
0.92145962111085
0.92111202957713
0.92092161797928
0.92082897363083
0.92078862909115
0.92077212809441
0.92077157812797
0.92076909852832
0.92076855163574
0.92077026871755
0.9207749336208
0.92078271483623
0.92079240121536
0.92080048413833
0.92080450677856
0.92080322523902
0.920789532682
0.92075538496723
0.92069232758587
0.92059108466893
0.9204419421471
0.92023484531855
0.91996012008769
0.91960899096098
0.91917440373277
0.91865147973673
0.91803720820246
0.91732997521042
0.91652600627348
0.91561213995642
0.91455871506429
0.91332338330028
0.91186037330764
0.91014066234573
0.90816728386649
0.90599057315727
0.90372834310569
0.90155445515659
0.89969058410161
0.89843128174125
0.89805664569036
0.89841180275869
0.9637916856199
0.97271278933517
0.97403640032231
0.97480554585085
0.97539665732112
0.97586449164098
0.9762258838353
0.97647256579723
0.97659309656275
0.97659695366048
0.97649043439354
0.976242382823
0.97589881494068
0.97546980171923
0.97493518134996
0.97430893070914
0.97361098572795
0.97285517769126
0.97205334841146
0.97121915116866
0.97036569827104
0.96950360742873
0.96864128012214
0.96778673628245
0.96694547343834
0.96612157266041
0.96531799124961
0.96453674599391
0.96377900092522
0.9630452763647
0.96233562174828
0.96164977337447
0.96098720159555
0.96034723457485
0.95972912784182
0.9591320774932
0.95855519245281
0.95799760712956
0.95745844110775
0.95693684502477
0.95643203279167
0.95594321813538
0.95546964151803
0.95501059390823
0.95456539142266
0.95413338766474
0.95371396036243
0.95330651987585
0.95291051446585
0.95252542030952
0.95215075336531
0.95178605743191
0.95143089336945
0.95108484410819
0.95074751993931
0.95041855851167
0.95009761085137
0.94978434272259
0.9494784397658
0.94917960557182
0.94888756123933
0.94860204303739
0.94832280212511
0.94804960225783
0.94778221863162
0.94752043641232
0.94726405439109
0.94701211438462
0.94614301191278
0.94456959402442
0.9435753578407
0.94265643626476
0.94178476481842
0.94095559716369
0.94016345586295
0.93940290389143
0.93866968892905
0.93796140402311
0.93727765739178
0.93661972983943
0.93598973122209
0.93538935018004
0.93481859297004
0.93427470865778
0.93381734067217
0.93330198956774
0.93278294171767
0.93224042100282
0.93164608933565
0.93096333785962
0.93015068066805
0.92917271302248
0.92801972717559
0.92672795968866
0.92538540806646
0.92411511595017
0.92302368186189
0.92217372913606
0.92157569718237
0.92119689164398
0.92098258002932
0.92087456876715
0.92082600473592
0.92080588702008
0.92080499687889
0.92080111746648
0.92079876016576
0.92079790341432
0.92079878318448
0.92080207676569
0.92080688337343
0.92081029024333
0.92081058302901
0.92080303803373
0.92077869300939
0.9207260769156
0.92063124428077
0.92047785510571
0.9202474375562
0.91991929681868