/*--------------------------------*- C++ -*----------------------------------*\
| =========                 |                                                 |
| \\      /  F ield         | OpenFOAM: The Open Source CFD Toolbox           |
|  \\    /   O peration     | Version:  2312                                  |
|   \\  /    A nd           | Website:  www.openfoam.com                      |
|    \\/     M anipulation  |                                                 |
\*---------------------------------------------------------------------------*/
FoamFile
{
    version     2.0;
    format      ascii;
    arch        "LSB;label=32;scalar=64";
    class       volScalarField;
    location    "0.00015";
    object      Ybar.Liq;
}
// * * * * * * * * * * * * * * * * * * * * * * * * * * * * * * * * * * * * * //

dimensions      [0 0 0 0 0 0 0];

internalField   nonuniform List<scalar> 
109340
(
0.99909187533304
0.99908823428155
0.99908126897666
0.99907277143635
0.99906329570476
0.99905331774976
0.99904302037075
0.99903247298045
0.9990216729927
0.9990101394835
0.99899704023375
0.99898145526525
0.99896226250529
0.99893810387264
0.99890736285741
0.99886812830685
0.9988181285425
0.99875464469433
0.99867438393926
0.99857330895452
0.99844639570897
0.99828733442183
0.99808811896733
0.99783849152681
0.99752515279389
0.99713065111715
0.99663174113859
0.99599689322313
0.99518234815032
0.99412557129623
0.99273380786056
0.99086278127242
0.98827437729587
0.98454767691729
0.97888193910962
0.96963596745029
0.99909241879288
0.99908774621048
0.99907992363775
0.99907083760388
0.99906106660049
0.99905103029482
0.99904084941719
0.99903047910513
0.99901962531082
0.99900777622174
0.99899417174854
0.99897784880045
0.99895762464188
0.99893207630063
0.99889951522725
0.99885794087184
0.99880498287365
0.99873779447741
0.99865291648237
0.99854609147269
0.9984120103212
0.99824398689287
0.99803351699005
0.99776967556211
0.99743825874504
0.99702056344121
0.99649157713609
0.99581720010253
0.99494979600941
0.99382071546161
0.99232699314285
0.99030601163435
0.98748325194286
0.98335737856458
0.97691661985825
0.9659693495804
0.9990944429147
0.99908904569027
0.99908044359951
0.9990711459894
0.99906145990154
0.99905156979218
0.99904144810812
0.99903106097418
0.99902019741287
0.99900835726998
0.9989947905114
0.99897852989857
0.99895838746145
0.99893293680346
0.99890048823497
0.99885904506893
0.99880623662739
0.99873921944178
0.99865453696109
0.99854793593078
0.99841410814889
0.9982463680202
0.9980362117861
0.99777271186731
0.99744166135674
0.99702435046427
0.99649575736838
0.9958217727487
0.9949547550275
0.99382604273611
0.99233261418456
0.99031146536781
0.9874851394559
0.98333606683292
0.97677158186448
0.96514884781045
0.99909725317578
0.99909076555498
0.99908174479214
0.99907219763
0.99906233450725
0.9990522461406
0.99904196149818
0.9990314689453
0.99902055247037
0.99900870998588
0.9989951916754
0.99897902504657
0.9989590149752
0.9989337288555
0.99890146949519
0.99886023173997
0.99880763686574
0.99874083162181
0.9986563433765
0.99854990116586
0.99841615843486
0.99824838071071
0.99803799313106
0.99777396364664
0.99744194302351
0.9970230135483
0.99649185921385
0.99581395043077
0.9949410397347
0.99380356239695
0.99229706549298
0.99025605176661
0.98739590954863
0.98317202418266
0.97636037393998
0.96347679996431
0.99910166801146
0.99909326875773
0.99908295236741
0.99907276373404
0.99906263743963
0.99905245309403
0.9990421389466
0.99903166613415
0.99902080672795
0.99900905445793
0.99899566417957
0.99897965580081
0.99895981384799
0.99893467444618
0.99890249379343
0.99886119913602
0.99880831883434
0.99874087382314
0.99865517219038
0.99854672652573
0.99840981434747
0.99823721037194
0.99801966092699
0.99774517708525
0.99739809931488
0.9969576662439
0.99639598225356
0.99567487405038
0.99474088055855
0.99351681394476
0.99188655487458
0.98966684462247
0.98653926929631
0.98188270590909
0.97421009095963
0.95829914593946
0.99910983727632
0.99909454249548
0.99908313911467
0.99907269227525
0.99906250812821
0.99905230166635
0.99904197185146
0.99903142291144
0.99902029476232
0.99900787231052
0.99899312214107
0.99897468455199
0.99895086148105
0.99891958384099
0.99887835423229
0.99882416490897
0.9987533784574
0.99866159527478
0.9985435405202
0.99839190706426
0.99819765580829
0.99794916460154
0.99763135483417
0.99722452312997
0.99670272337814
0.99603144339348
0.9951642260837
0.9940375297133
0.99256255976414
0.99061152422737
0.98799241006209
0.98440645063805
0.97933109467001
0.97174746820905
0.95914887472144
0.93101259072375
0.95371904588899
0.92702616689152
0.88604066070349
0.83029886933337
0.76264109937013
0.68543803602418
0.60194999617908
0.51604837440544
0.43174949548908
0.35282885940368
0.28122860838752
0.22158246577526
0.1725748169577
0.13365735875516
0.10366809750719
0.080737109126078
0.063353803665117
0.050169835583311
0.040124858575471
0.032454255344061
0.0265578621007
0.021958177809171
0.018338977708601
0.015466579569739
0.013152537558738
0.011283355869233
0.0097797994418596
0.0084906141859241
0.0074539991817295
0.0065715271943915
0.0058181924708721
0.0052005006064763
0.0046432587689173
0.0041923936993628
0.0037744389179921
0.00343537359107
0.0031164517433292
0.0028556118721384
0.0026083932137671
0.0024037612013743
0.0022100590639686
0.0020460003166794
0.00189350015923
0.0017588638658935
0.0016378330165248
0.0015254536573067
0.001427583687867
0.0013341262007514
0.0012531474455961
0.0011765717336188
0.001107173814296
0.0010433262370149
0.00098465949432971
0.00093062794086034
0.0008807359603306
0.00083456153543224
0.00079174988063778
0.00075199848468805
0.00071504065183108
0.00068062676615642
0.00064852599338721
0.00061853486420893
0.0005904779644519
0.00056419833706515
0.00053955271324045
0.00051641191637888
0.0004946587761719
0.00047419754140902
0.00045621169779455
0.0010419115835314
0.0028836023406917
0.00303429302335
0.0029863621258361
0.0029342838538444
0.0028864193361924
0.0028427929555263
0.0028031369440984
0.0027671700519627
0.0027347298578709
0.0027058291620107
0.0026806850970343
0.0026595468061159
0.0026429070135977
0.002630991209195
0.0026232406131915
0.0026204263812447
0.0026208575946133
0.0026233742927936
0.0026259326068451
0.0026262910744645
0.0026221235898381
0.0026114058339545
0.0025942938547459
0.0025728514217678
0.0025508674971003
0.0025318175889959
0.0025181401977967
0.0025102228254177
0.0025068328326821
0.0025061121304053
0.0025063495957233
0.0025062993894767
0.0025055759129299
0.0025041154877794
0.0025007843212723
0.0024982973777972
0.0024956861203339
0.0024929510826197
0.0024901392385707
0.0024873120241141
0.0024845329327751
0.0024818102219095
0.0024792922704412
0.0024774805697909
0.0024746209788621
0.002471905384978
0.0024692121338983
0.0024666279332789
0.0024641715448744
0.0024618209108162
0.0024596665543934
0.0024577143229078
0.0024558788751486
0.0024541693194368
0.0024526444504073
0.0024512989079447
0.0024500881442894
0.002448961769848
0.0024478696564884
0.0024468949455903
0.0024459465031506
0.0024451905254596
0.0024446754736754
0.0024443235752725
0.0024442265089523
0.0024443224984968
0.0024449872231869
0.0024475059855021
0.0024520326487723
0.002472525303399
0.94598494524194
0.91181616566605
0.86113566694313
0.79633320014742
0.72062683142517
0.63826034595661
0.55279636311535
0.46836400845675
0.38857540279732
0.31608739288607
0.25261788515107
0.19876055190719
0.15590142737491
0.12174243782969
0.095034037695881
0.07452489685939
0.058820304470154
0.046830282598225
0.037661016898718
0.03060490506232
0.025135300591143
0.020859387669631
0.017481553213907
0.014785254764784
0.012614281455063
0.010849136108567
0.0094006322604997
0.0082032647811814
0.0072023511194171
0.0063630116137557
0.0056503564513186
0.005044850088828
0.0045243782725127
0.0040758379518509
0.0036864734889762
0.0033469591589386
0.0030493968287792
0.0027876367568148
0.0025561564392988
0.0023509647985338
0.0021679555620893
0.0020047844954138
0.001857996826046
0.0017264256016861
0.0016072406759274
0.001499842791565
0.001401992332472
0.0013132829786975
0.0012321346139124
0.0011580916500711
0.0010901266781789
0.0010277070868645
0.00097026741407973
0.00091729129427468
0.00086837364251898
0.00082307703701671
0.00078108126306013
0.00074207354661548
0.00070579019108398
0.00067198442157478
0.00064044217531505
0.00061096816602396
0.00058338869702886
0.00055754531213004
0.00053329715644181
0.0005105185404718
0.0004890979832015
0.0004689322506103
0.00045672664035022
0.0016958024218693
0.002985075159007
0.0030235174622884
0.0029726380195326
0.0029215137922349
0.0028746869498456
0.0028320515864298
0.0027932964382279
0.0027582078346258
0.0027266423385182
0.0026986962070136
0.0026745545799336
0.0026545704094955
0.0026391594683927
0.0026284627805294
0.0026227905522573
0.0026198397713738
0.0026202568345354
0.0026227131465001
0.0026251847835484
0.0026254391577381
0.0026211448059453
0.0026103098769506
0.0025930890788349
0.0025715646808817
0.0025495462781595
0.0025305193918612
0.0025169285492696
0.0025091198724249
0.0025059049116304
0.0025053545394887
0.0025057508365436
0.0025058580394013
0.0025052605144687
0.00250389015917
0.0025006240708008
0.0024981693004136
0.0024955859448842
0.0024928755187323
0.0024900892741326
0.002487295279868
0.0024845348109086
0.0024818016182151
0.0024792536059995
0.0024774501089691
0.0024745962080412
0.002471924255425
0.002469234359995
0.0024667005982089
0.0024642723382597
0.0024619382614631
0.0024597722227402
0.0024577815218661
0.0024559062412363
0.0024541467937183
0.0024525542801934
0.0024511291442737
0.0024498310963133
0.0024486212101249
0.0024474231433
0.002446338792963
0.0024452873609036
0.0024444185462852
0.0024437683525079
0.0024432655241905
0.0024430039663771
0.0024428971941887
0.0024433291477219
0.0024455152149807
0.0024495042318465
0.0024694673996586
0.94177257289786
0.89869733034002
0.83694164221659
0.7610566659394
0.67650294080781
0.58941322828207
0.50434981840497
0.4242112900145
0.35121029599065
0.28579507268641
0.23082522628396
0.18416253550561
0.14581885096012
0.11504438855956
0.090693209089464
0.071661777335057
0.056931607840643
0.045592430023698
0.036838925903376
0.030039473874578
0.024739053169523
0.02057899905891
0.017277853482321
0.01463525966248
0.012503289330809
0.010765563843133
0.0093358526310585
0.0081524963329549
0.0071641385990367
0.0063313083891657
0.0056262312356764
0.005023947519469
0.0045081839307612
0.0040619589693407
0.0036754241086269
0.0033373430866611
0.003041721581964
0.0027808512838815
0.002550749933253
0.0023460416014301
0.0021641621541141
0.002001145009997
0.0018552464401773
0.0017237166727957
0.0016051731445292
0.0014977860547623
0.0014003282934904
0.0013117039646514
0.0012307502446613
0.0011568371610047
0.0010889947521106
0.0010267621619945
0.00096940067711149
0.00091651173867314
0.00086763694289057
0.00082240301473253
0.00078046766390177
0.00074151633447798
0.00070528058722226
0.00067151711322128
0.00064001389471901
0.00061057522166248
0.00058302670395081
0.0005572112921728
0.00053299071580911
0.00051023972029564
0.00048884104176048
0.00046869037430107
0.00045734712173617
0.001724938122431
0.0029889060523923
0.0030234898362196
0.0029724585039602
0.0029213858001276
0.0028746371708327
0.0028320789356892
0.0027934027347428
0.0027583711406072
0.0027268712214997
0.0026989891411516
0.0026749059120601
0.0026549768818461
0.0026396099759211
0.0026289330155558
0.0026231408815508
0.0026202717986614
0.0026206995352937
0.0026231841384615
0.0026256949054643
0.002626012556599
0.0026217567772367
0.0026110107134026
0.0025938433859121
0.0025723265478057
0.0025502624202227
0.0025311397201125
0.0025174459673627
0.002509494476072
0.0025061530205776
0.0025055380692317
0.0025058641840953
0.0025059330912929
0.0025053167531453
0.0025039035880842
0.0025005937226028
0.0024981166688162
0.0024955247180999
0.0024928136656476
0.0024900323223238
0.0024872399570436
0.0024844907360227
0.0024818475571626
0.0024791965369163
0.0024773897750598
0.0024745510623327
0.002471895136529
0.0024692004468507
0.002466662118785
0.0024642036433975
0.0024618200687617
0.0024595693541248
0.0024574653968397
0.00245547324785
0.0024535839933969
0.0024518427360691
0.0024502442317433
0.0024487537629815
0.0024473858702725
0.0024459839418198
0.0024446819119382
0.0024434211641639
0.0024423078419975
0.0024413646901635
0.0024405166546554
0.0024398794519432
0.0024393335392146
0.0024392387581553
0.0024404841075917
0.0024443325152556
0.0024637711985011
0.93235683367158
0.8689607756973
0.78454758671644
0.68955579545671
0.59719499978979
0.50979365988664
0.43155408407324
0.36227091043422
0.30132051155528
0.24794015162203
0.20380857968953
0.16548916350637
0.13316408986195
0.10659616659647
0.085045584897056
0.06794195522939
0.054484209749501
0.043940549142509
0.035708656750972
0.029275289510111
0.024210685299216
0.020191766852779
0.016997846618058
0.0144322075431
0.012349380939768
0.010647478729426
0.0092465715869904
0.0080822606979902
0.0071083301854337
0.006287291799956
0.0055906282614656
0.004995277408789
0.0044841603536096
0.0040426195247014
0.0036588375285041
0.0033239992806961
0.0030301752351764
0.0027714152915796
0.0025425144949821
0.0023393209018668
0.0021582094928501
0.0019961734178182
0.0018508921579965
0.0017199706737327
0.0016019124344509
0.001494876075384
0.0013978596122865
0.0013094215754392
0.0012288039216566
0.0011550172528983
0.0010874105126751
0.0010253173069615
0.00096813173187089
0.00091537679790995
0.00086659530900904
0.00082145435489268
0.00077959625379392
0.00074072130252573
0.00070455575154509
0.0006708582729849
0.00063941179348809
0.00061002156100935
0.00058251588874997
0.00055674164094012
0.00053256098124099
0.00050984667992215
0.00048848249633207
0.00046835624007624
0.00045862167844638
0.0017677053426121
0.0029937097071832
0.0030234382949242
0.002972157688956
0.0029211936486552
0.002874563926515
0.0028321163308139
0.00279354908661
0.0027586058654875
0.0027271989469237
0.0026994087403727
0.0026754078661752
0.0026555573694153
0.0026402565235544
0.0026296289062627
0.0026238346373578
0.0026210360576107
0.0026215080800702
0.0026240465763666
0.0026266238550913
0.0026270247351839
0.0026228667820873
0.0026122355319134
0.0025951461387584
0.0025736452588128
0.0025515179835149
0.0025322548767789
0.0025183828514714
0.0025102318187881
0.0025066977629631
0.0025059311972381
0.0025061249968426
0.0025061067844595
0.0025054308249407
0.0025039595714125
0.0025005763568981
0.0024980608195171
0.0024954329081536
0.0024926977091261
0.002489907599107
0.002487125572397
0.0024844056362568
0.0024818046030691
0.0024791947535667
0.002477348827219
0.0024745050552809
0.0024718610751161
0.0024692056158073
0.0024666461908228
0.0024641459209657
0.0024616988869323
0.0024593447447227
0.0024570937334421
0.0024549185562783
0.0024528165867434
0.0024508303015062
0.00244895538843
0.0024471832272094
0.0024455166039846
0.0024437885203688
0.0024421178117277
0.0024404703898953
0.002438914512275
0.0024374679087711
0.002436043264495
0.0024347557882055
0.0024334399473182
0.0024324856461421
0.0024328533308791
0.0024362174015626
0.0024540760957081
0.90081992350017
0.78444542560166
0.6608583443887
0.55435542453141
0.47009534480794
0.39993056795426
0.3416651407655
0.29146314925547
0.2477840116706
0.20947121874946
0.17519760039745
0.14502956401425
0.11896724535838
0.096901259982708
0.078575820566282
0.063588743049209
0.0515428206059
0.041955688242841
0.034350488136719
0.028320796088872
0.023534534846063
0.019721167781749
0.016649053050765
0.014170136583043
0.012154145952509
0.010500619732823
0.0091316288611347
0.0079926032489231
0.0070375848979766
0.0062308947308397
0.0055449090931971
0.0049585658299201
0.0044537113725925
0.0040173844454845
0.0036379024267574
0.0033065712428761
0.003015421914947
0.0027590707364076
0.0025320039413925
0.0023304192158279
0.0021505099847621
0.0019896808351928
0.0018451625536213
0.0017150891213989
0.0015975643389492
0.0014911453371918
0.0013945080546999
0.001306472700571
0.001226176714708
0.0011526647456438
0.0010853220041572
0.001023406660906
0.00096642961070742
0.00091384439574828
0.00086522683024665
0.00082020458725189
0.00077844936837581
0.0007396736232514
0.00070360144897025
0.00066998849768485
0.00063861481135339
0.00060928950772334
0.00058184334581889
0.00055612334178521
0.0005319915299528
0.00050932308712589
0.00048800202149019
0.0004679208535643
0.00046051251112367
0.0018240717458431
0.0029992375501776
0.0030232045185077
0.002971738821458
0.0029209368049654
0.0028744650476799
0.0028321611881993
0.0027937309852286
0.0027589079898989
0.0027276196669735
0.0026999475137654
0.0026760525536105
0.0026563030092263
0.0026410897507995
0.0026305365442352
0.0026247564563205
0.0026220271606526
0.0026225650205831
0.0026251789493525
0.0026278483880671
0.002628360453571
0.002624350495306
0.0026138768026248
0.0025969025278044
0.0025754180426436
0.002553191416438
0.0025337239401919
0.0025195914875485
0.0025111719225666
0.0025073797103889
0.0025064192350085
0.0025064592315567
0.002506336526418
0.0025055854430119
0.0025040392654798
0.0025005566089536
0.0024979924734853
0.0024953200877925
0.0024925542663531
0.0024897555266856
0.0024869895801976
0.002484304027099
0.0024817363302974
0.0024791712113287
0.0024772791444084
0.0024744454906009
0.0024718245733223
0.0024691793103899
0.0024665830445362
0.0024640151495962
0.0024614620290851
0.0024589483828935
0.0024564807438617
0.0024540296555887
0.0024516047937991
0.0024492619700377
0.0024469927801803
0.0024448162728935
0.0024426985200013
0.0024405013235314
0.0024382781069432
0.0024360507430074
0.0024338292136983
0.0024316143350333
0.0024293258789082
0.0024270508998495
0.0024245842097086
0.0024223726108528
0.002421477697342
0.0024238115780266
0.0024397668091864
0.67671125031627
0.48920647957063
0.41005380083551
0.36157872482349
0.32199860440297
0.28703885618024
0.25514212314708
0.22598434223001
0.19795824801583
0.17180861029506
0.14720833709143
0.12475002666597
0.10455436100712
0.086797794181476
0.071587675377582
0.058819966139202
0.048283667905678
0.039706552825152
0.032787044358544
0.02722384546096
0.022751696252206
0.01914814302526
0.016238520554688
0.013863577527624
0.011920834267911
0.010321290076077
0.0089955096421423
0.0078850147944501
0.0069516540950756
0.0061624338319155
0.0054901294066657
0.0049134033742655
0.0044168983047026
0.0039869663328308
0.0036125670579311
0.0032851844266607
0.002997708820981
0.0027439929369346
0.0025192217578521
0.0023194655474871
0.0021412233924564
0.0019816177781796
0.0018381828937816
0.0017090330142516
0.0015922716807122
0.0014865151281766
0.0013903698405173
0.0013028555927952
0.0012229284287319
0.0011497878967769
0.001082713593966
0.0010210632221742
0.00096431678581016
0.00091193614272389
0.00086351260938765
0.00081864536983089
0.00077703451423545
0.0007383832325213
0.00070241985057407
0.00066890322069879
0.00063762022001031
0.00060838064144915
0.0005810101755639
0.0005553546545756
0.0005312791007176
0.00050866392295684
0.00048739779847451
0.00046734658441299
0.00046323546773408
0.0018924297687708
0.003004997931241
0.0030227076025263
0.0029711862678316
0.002920611520412
0.0028743398969812
0.0028322130971844
0.00279394757122
0.0027592747383528
0.0027281305213645
0.0027006011752283
0.0026768343872253
0.0026572069910048
0.0026421010049561
0.0026316418779991
0.0026258935027961
0.0026232386898424
0.002623858292351
0.0026265648303197
0.0026293518644514
0.0026300097878664
0.0026261938615092
0.0026159128143844
0.0025990713630163
0.0025776040004552
0.002555256299519
0.0025355426518403
0.0025210912000993
0.00251233998556
0.0025082361248433
0.0025070266761663
0.0025068732330418
0.002506622622862
0.0025057676390494
0.0025041018217702
0.0025005154378778
0.0024978851540749
0.0024951555927465
0.0024923517049907
0.0024895410130222
0.0024867943099845
0.0024841500712532
0.0024816173388703
0.0024791196950733
0.0024771929343701
0.0024743830295086
0.0024717898274461
0.0024691412895804
0.002466484964983
0.0024638146661777
0.0024610969647022
0.0024583560106567
0.0024555895200952
0.0024527670148807
0.002449905885144
0.0024470771741448
0.0024442695087019
0.0024415346986234
0.002438772929347
0.0024358173565427
0.0024327673584263
0.002429683322022
0.0024265101091738
0.0024231892545803
0.0024196397497014
0.0024159117539211
0.0024118153964321
0.0024079118290307
0.0024052255949868
0.0024060481599088
0.0024200886513022
0.022797330386993
0.15556695598546
0.19118399815944
0.20455806224275
0.20669277570738
0.20052655253732
0.18886341334485
0.17454091996823
0.15878807911716
0.14237611892795
0.12589697511565
0.10973901074373
0.094381791927648
0.080193277437313
0.067471382331047
0.056387036993451
0.046937372229078
0.03903601991071
0.032516547108039
0.027180397970926
0.022830707054615
0.019289228695378
0.016397970214998
0.014035817226441
0.012088383757449
0.010474024004447
0.0091335456640096
0.0080121147270398
0.0070663076376954
0.0062633085677624
0.0055800542812835
0.0049946507838117
0.0044893644954314
0.0040513017739949
0.0036704002197237
0.0033372621560739
0.0030443550753868
0.0027860276642354
0.002557342237117
0.0023539630236686
0.0021724512286413
0.0020100092566192
0.0018641295628274
0.0017326857311798
0.0016138759904968
0.0015062983638369
0.001408553846165
0.0013195642677629
0.0012382802320789
0.0011639444748647
0.0010957855787834
0.0010331668399211
0.00097550792560909
0.00092230454284961
0.00087315664881239
0.0008276441642474
0.00078543265739571
0.00074621134665473
0.00070972970043915
0.00067574660330634
0.00064403793313201
0.00061440414845531
0.00058666976860393
0.00056068242374992
0.00053630220733687
0.00051340263244697
0.00049186717078153
0.00047158106811522
0.00045543567941946
0.001333220490668
0.0029427408824188
0.0030335615429877
0.0029836650833831
0.002932387929497
0.0028853005825553
0.0028423771027059
0.0028033734809589
0.0027679936089199
0.002736139593564
0.0027078464285496
0.0026832822468978
0.0026627186502909
0.0026465895309987
0.0026350842342133
0.002627223384921
0.0026246558448532
0.0026253704059111
0.0026281848961949
0.0026311151083171
0.0026319498711143
0.0026283610158727
0.0026183034360766
0.0026016235336265
0.0025801856373208
0.0025576941082471
0.0025376912952147
0.0025228563350936
0.0025137040029015
0.0025092303332554
0.0025077197431048
0.0025073418539969
0.0025069465902358
0.0025060025680822
0.0025042596578328
0.0025005769562432
0.0024977982368396
0.0024949574773788
0.002492071639652
0.0024892176347536
0.0024864664759802
0.0024838503323909
0.0024813303391318
0.0024789000532192
0.0024768620653251
0.0024740792929106
0.0024715201240992
0.0024688283668128
0.002466059318442
0.0024631701162764
0.0024601242858331
0.0024569088909091
0.0024535146507478
0.002449908240946
0.0024461259649462
0.0024422478589474
0.0024383092848224
0.0024343094212873
0.0024300578841508
0.0024255708456043
0.0024208121820691
0.0024158728829719
0.0024106641036032
0.0024049717005458
0.0023986183758714
0.0023914989294473
0.0023837568685898
0.0023760424743792
0.0023697108573209
0.0023680653487171
0.0023791732342696
0.010076497362783
0.027120647624043
0.048450891611372
0.066206120893895
0.079685155100885
0.088679768879115
0.093355615212004
0.094511789769391
0.091884521163806
0.087341418820265
0.081354001841178
0.07427583796269
0.066637608268827
0.058841910303976
0.051259848940927
0.044196500871268
0.037830147251083
0.032238634843462
0.027431147465591
0.0233572088489
0.019935133091972
0.017075322459623
0.014689534828412
0.012697530543937
0.011032277296206
0.0096372951902139
0.0084612474729892
0.0074630859721857
0.0066159939369784
0.0058926817170853
0.0052720890538842
0.0047352927696729
0.0042703816150446
0.0038657525920997
0.003511920917545
0.0032005907791508
0.0029262452335438
0.0026835234313911
0.0024678853419917
0.0022754300568101
0.0021032426310112
0.0019488072535761
0.0018098042070347
0.0016842453097781
0.0015705666164305
0.0014674206112313
0.0013735736140837
0.0012879380737367
0.0012096304787087
0.0011379026559995
0.0010720641884276
0.0010114928467051
0.00095564345593225
0.00090407439485478
0.00085637970412392
0.00081219886903881
0.00077118911979714
0.00073305582999724
0.00069754769106251
0.00066443773879439
0.00063352160831761
0.00060461132981489
0.00057753937700636
0.0005521570461803
0.00052833015767686
0.00050593912268823
0.00048487995210303
0.00046502918254372
0.00047906670238779
0.0021491370590961
0.0030219027296809
0.0030199462274236
0.0029687711143175
0.0029192213710689
0.0028737913179628
0.0028323843797445
0.0027947696456033
0.0027607054583632
0.0027301352016317
0.0027031652201691
0.0026799032653344
0.0026607534131303
0.0026460676954421
0.0026359762632978
0.0026303949447651
0.0026280295733552
0.0026289719562595
0.0026320482491893
0.0026353256035146
0.0026365961815997
0.0026335558703202
0.0026240527025268
0.0026077884399399
0.0025864471886769
0.0025636065254918
0.00254291799492
0.0025271408772285
0.0025169950019189
0.0025116100005942
0.0025093395019575
0.0025083958873097
0.0025076225008044
0.0025063951033045
0.0025043979659079
0.0025004010513209
0.0024974141248751
0.0024944077006698
0.0024914004149657
0.0024884937369729
0.0024857489044669
0.0024831891452629
0.0024807248534872
0.0024784010948413
0.002476272973534
0.0024736181277409
0.0024710586901434
0.0024682421430716
0.0024651611287667
0.002461744204735
0.0024579201513159
0.0024536141137439
0.0024488036898276
0.0024434524868217
0.0024376101028294
0.0024313158925545
0.0024247295819187
0.002417733959794
0.0024102105516835
0.0024021119682692
0.0023933796860339
0.0023838424443666
0.0023731154604974
0.0023609945266837
0.002347361586802
0.0023321695025685
0.0023160474781893
0.0022999489553735
0.002286335941844
0.0022801625516118
0.0022872644026756
0.0079823272826484
0.011880951558369
0.019225918409471
0.028131757016324
0.036494903108741
0.043645930403362
0.049194332304053
0.053000666920212
0.05513745847948
0.055424127315814
0.054070690339252
0.051604981221444
0.048280187601509
0.04429350153721
0.039959895584077
0.035548879331411
0.031295108385312
0.027339861576485
0.023769021515228
0.020614961004146
0.017873935816056
0.015516833528211
0.013502757659536
0.011787270350964
0.010327015165845
0.009084308458789
0.0080243220517043
0.007117633277139
0.0063398819588334
0.0056689815722697
0.0050886478223458
0.0045852867237172
0.0041466196502596
0.0037632260313508
0.0034257003265902
0.0031281218418295
0.0028650423999235
0.0026315602574834
0.0024233628133499
0.0022370897590566
0.0020702536384869
0.0019202355319633
0.0017849183244138
0.0016624237752223
0.0015514617058357
0.0014505943922528
0.0013587022783284
0.0012747250659942
0.0011978612823903
0.0011274008689963
0.0010626480750606
0.001003014860136
0.00094798138139733
0.00089714526976404
0.00085010374296906
0.00080649503796328
0.00076599575505964
0.00072831986743001
0.00069322947943728
0.00066049112677336
0.00062990026209728
0.00060128003527475
0.00057446865927005
0.0005493264650673
0.00052571741782142
0.00050352225107883
0.00048263365657881
0.00046296262740806
0.00050537836991537
0.0023538857362394
0.0030326741888915
0.0030175474916537
0.0029667017313496
0.0029179898414644
0.002873261873833
0.0028324581464963
0.0027953880976566
0.002761839155515
0.0027317546176729
0.0027052491514191
0.0026824107178631
0.0026636563161598
0.0026493165081458
0.0026395236848677
0.0026341176121155
0.0026319838729953
0.0026331934016703
0.0026365818739097
0.0026402729264222
0.0026420759215358
0.0026397013138366
0.0026308948303322
0.0026151807217733
0.0025940071672663
0.0025707846055367
0.0025492794678754
0.0025323426090434
0.0025209489131451
0.0025143993619696
0.0025111403086235
0.0025094754952686
0.0025082242208213
0.0025066614971649
0.0025043670677367
0.0024999354485074
0.0024967410664428
0.0024935649791126
0.0024904499353913
0.0024874862328195
0.0024847306704511
0.0024822054117597
0.0024797953906774
0.0024775614212613
0.0024753928777491
0.0024728562143738
0.0024702227081412
0.0024671399860114
0.0024635224478097
0.0024591930696411
0.0024540270596555
0.0024478591770344
0.0024405154466549
0.0024320267618971
0.002422477648415
0.0024119863011888
0.0024006427661103
0.0023881884349777
0.0023747968297604
0.0023601657960587
0.0023437742265653
0.0023254042955204
0.0023042869938933
0.0022801741225192
0.0022531053804786
0.0022236930366237
0.0021935169675502
0.0021650296640584
0.0021428195127608
0.0021328309396983
0.002136546088428
0.0063532007249548
0.0083937172025178
0.010636734933666
0.015049633432432
0.019969923628369
0.024670206114373
0.028863530040521
0.032297498347104
0.034858179777907
0.03645821162575
0.036947216948898
0.036502454927697
0.035198630777891
0.033335281068094
0.030988771401516
0.028351182564644
0.025607714758542
0.022904113395179
0.020334211771557
0.017965892097774
0.015831802310162
0.01393893890436
0.012277986187745
0.010831304338831
0.0095764585655362
0.0084901679741872
0.0075507517448871
0.0067373725406457
0.0060318263134883
0.0054184553035406
0.0048838889077866
0.0044165348103108
0.0040062072279695
0.0036450681039864
0.0033265818073845
0.0030447295198623
0.0027944961926271
0.0025710086192115
0.0023712691576519
0.0021923940119485
0.0020316119774986
0.0018866935933463
0.001755478575253
0.00163672980466
0.0015288632545912
0.0014306904242392
0.0013410266348561
0.0012589957879997
0.0011838855749207
0.0011149087206535
0.0010514549885527
0.00099292045686629
0.00093887770744011
0.00088892421550102
0.00084265649385827
0.00079973197705623
0.00075982580763077
0.00072268799503993
0.00068808076877744
0.00065577888712699
0.00062558412340541
0.00059731227727395
0.00057081613563545
0.00054596246128594
0.00052262020268297
0.00050066899630411
0.00048000145090788
0.00046033330760934
0.00056676088013779
0.0025570514710355
0.0030418431642646
0.0030148774471385
0.0029643161517953
0.002916471795056
0.0028725153357349
0.0028323936522093
0.0027959423957031
0.0027629791538207
0.0027334498112889
0.0027074680905145
0.0026851136053047
0.0026668055759855
0.0026528529250056
0.0026433906644172
0.0026382080161961
0.0026363272738754
0.0026378298408138
0.0026415656319284
0.0026457211536426
0.0026481354732655
0.0026465310360781
0.0026385608056005
0.002623542417124
0.002602637903729
0.0025790297809126
0.0025565948233745