/*--------------------------------*- C++ -*----------------------------------*\
| =========                 |                                                 |
| \\      /  F ield         | OpenFOAM: The Open Source CFD Toolbox           |
|  \\    /   O peration     | Version:  2312                                  |
|   \\  /    A nd           | Website:  www.openfoam.com                      |
|    \\/     M anipulation  |                                                 |
\*---------------------------------------------------------------------------*/
FoamFile
{
    version     2.0;
    format      ascii;
    arch        "LSB;label=32;scalar=64";
    class       volScalarField;
    location    "0.00015";
    object      yPlus;
}
// * * * * * * * * * * * * * * * * * * * * * * * * * * * * * * * * * * * * * //

dimensions      [0 0 0 0 0 0 0];

internalField   uniform 0;

boundaryField
{
    inlet
    {
        type            calculated;
        value           uniform 0;
    }
    outlet
    {
        type            calculated;
        value           uniform 0;
    }
    nozzleWalls
    {
        type            calculated;
        value           nonuniform List<scalar> 
144
(
35.085795236878
34.671978924987
34.241583740221
33.817054898295
33.404771203607
33.006857170917
32.624063514826
32.256319840806
31.9036333306
31.565988445396
31.243478292852
30.936297617334
30.644737688163
30.369193872215
30.110167302291
29.868237234416
29.644014961674
29.437508417221
29.245774484861
29.066656105319
28.89987604714
28.745448750933
28.603451122799
28.473996154246
28.357339373
28.253928583647
28.164511935409
28.090298798662
28.03322878247
27.996482775601
27.985793354364
28.010114253811
28.08888389259
28.2697218305
28.720751196408
30.876888954774
35.324734505475
34.987143094886
34.564563430602
34.134520473065
33.712719660769
33.303897883607
32.909727641244
32.53072388702
32.166737913737
31.817810234918
31.483936002216
31.165236206557
30.861929427145
30.574331969405
30.302867324825
30.048057872674
29.810499069944
29.590777039587
29.388321431408
29.199834773813
29.023805183888
28.860108966841
28.708780127311
28.569904506781
28.443618672981
28.330221321419
28.230224739444
28.144472557499
28.074326425049
28.021973458807
27.991047142845
27.988080215807
28.023571394002
28.121422943635
28.344008850999
28.943302625311
35.177512945513
34.778690507522
34.34907462614
33.92217147362
33.506547518566
33.104925267258
32.718331889453
32.346846691041
31.990395768896
31.64898625847
31.322677860534
31.011641300475
30.716143225881
30.436552008549
30.173344969439
29.927082933355
29.698381200923
29.487591442659
29.292494059609
29.110277528636
28.94041486352
28.782894089587
28.63777974493
28.505172508103
28.385283581884
28.278504528158
28.185497898481
28.107336538595
28.045743298545
28.003518136417
27.985582323936
27.999952773983
28.062312439902
28.209852061277
28.559206260646
29.829399348743
35.25991366959
34.884103768437
34.456841994583
34.028017267021
33.60920627862
33.203944781959
32.813546539982
32.438316553125
32.078097207823
31.732927468257
31.402831583128
31.08795588848
30.788542899377
30.504934691017
30.237581376238
29.987026461413
29.753877825266
29.538646579392
29.340002301654
29.154669991472
28.981724692263
28.821114629186
28.672889894551
28.537143447232
28.414045806573
28.303939506133
28.207408860619
28.125405054778
28.05945982175
28.012044965514
27.987313800211
27.992713256424
28.040781996597
28.161178882058
28.437807256515
29.279062981471
)
;
    }
    tipWalls
    {
        type            calculated;
        value           nonuniform List<scalar> 
304
(
9.2157533406558
3.0191109562288
4.5534327903541
4.872277396389
4.7607512530723
4.4750426685306
4.0591188592458
3.3901598718108
2.3778605524321
1.3144021032902
0.3836689386144
0.57219274634857
0.58024645546445
0.52080803410739
0.45627815936823
0.40297103526013
0.36161900265684
0.32986139308605
0.30435273947501
0.2828856591801
0.26426215289115
0.24776088101287
0.23304915631617
0.21979948581206
0.20788442508288
0.19716475351875
0.18750349117991
0.17878052939365
0.17088934950488
0.16373476788738
0.15723497536557
0.15132152987459
0.14593683617142
0.14102860336678
0.13654658714731
0.13244341092055
0.1286771894161
0.12521471906876
0.12203105488449
0.1191040817443
0.1164114073308
0.1139260887219
0.11161477093009
0.10943993607652
0.10736655321118
0.10536892644195
0.10343406361384
0.10155954853936
0.099749086992197
0.098009788927698
0.096353960484102
0.094802350622212
0.09338515743691
0.092137113150463
0.091087217867635
0.090244119123025
0.089585634779108
0.089053130403909
0.088566053779123
0.088034295325449
0.08737578332779
0.086532738811065
0.085501818345148
0.08445815754209
0.084952989088099
0.1632160164009
0.16172124208046
0.15939826520319
0.15723874216481
0.15529970440495
0.15359114085327
0.15209408690358
0.15077813666559
0.14969483817765
0.14907338047052
0.15005844606441
0.15571891327125
0.28729512034001
0.28758848086862
0.28551709880145
0.2832131743064
0.28107831189853
0.27920294071034
0.27760076277878
0.27624663190596
0.2751292740765
0.27428192741504
0.2737150731262
0.2734513711498
0.27373428161314
0.27471108736714
0.27664911476752
0.27979242235927
0.28434078450407
0.29001742251378
0.29383410586541
0.28402255018519
1.583919947944
4.0315661187155
4.7978758205482
4.8467105054389
4.6314630053943
4.2876806282465
3.7663516523154
2.9260802776186
1.8132424819644
0.86230553304204
0.45202931668314
0.59397872956011
0.55525407571604
0.48733771168674
0.42801866662046
0.38080454368047
0.34475355704756
0.31654382160508
0.29321166739556
0.27326559430361
0.25576662810545
0.24020297774366
0.22625330174118
0.21368396495081
0.2023836459903
0.19220986538364
0.18303162198376
0.17473723843995
0.16722540275496
0.16040760754516
0.15420874858135
0.14856642344345
0.14342634310725
0.13873737244507
0.1344504297829
0.13052048792137
0.12690967874504
0.123589443555
0.12053682817984
0.11772999500849
0.11514476659958
0.1127509669363
0.11051264483389
0.10839244730002
0.10635938774458
0.10439396678884
0.10248914176631
0.10064593037592
0.098869937446602
0.09717037545803
0.095563438854808
0.094074781696361
0.092737920327142
0.091586211083228
0.090640331806359
0.089894753555552
0.08930828597369
0.088809436276811
0.088311409760854
0.087725116434828
0.086979559591639
0.086036963343192
0.084952747507516
0.084192649232981
0.085122969977329
0.16293926768548
0.16055940331932
0.158292897866
0.15624007232615
0.1544175781442
0.15281928753881
0.15141233564117
0.15019859566614
0.14927866996934
0.14928808227004
0.15178257661599
0.15691695438186
22.549827406325
2.1415017876533
4.3317914241667
4.850805731965
4.8101163502545
4.5562848159414
4.1800841014992
3.5904876820132
2.6589731086751
1.551191165359
0.62765175236709
0.52775776382472
0.59013477486598
0.53893217227113
0.47089684109773
0.41535982326113
0.37091377362305
0.33707912260117
0.31030991019291
0.28796035185241
0.26869746370559
0.25170450647396
0.23657707507858
0.22298291028028
0.2107455894509
0.19974000892842
0.18982649761317
0.18087931136706
0.17278961530773
0.16545905871871
0.15880250203866
0.15274820235825
0.14723634370848
0.14221377188275
0.13762979540675
0.13343610530219
0.12958914063012
0.12605330964404
0.12280206145844
0.11981294037283
0.11706397687332
0.1145297003543
0.11217830321081
0.10997288570423
0.10787699887969
0.10586216320564
0.10391214288247
0.10202239395804
0.10019536100563
0.098437390446674
0.096759127747281
0.095178971057868
0.093724944207207
0.092431479317336
0.09133019291811
0.090436067862711
0.089735665671231
0.089178582033095
0.088688381982566
0.088176293059053
0.087555912195066
0.086762520418775
0.085773285466108
0.084690686011283
0.084318165928022
3.2915167716891
3.6251111017053
4.7018344387476
4.8683368948717
4.7000443562038
4.3856636860596
3.9222770573819
3.1702678589438
2.0879756077877
1.0912166996384
0.34021954013952
0.59033102159888
0.56794373511282
0.50455783629712
0.44173611134117
0.39139037100335
0.35291876569813
0.3230434574265
0.29866195180555
0.27799073045865
0.25995098695691
0.2439291084489
0.22960924367466
0.21670123577367
0.20509792270423
0.19465538526831
0.18523911419314
0.17673369433315
0.16903506038861
0.1620513316424
0.15570403940003
0.14992788051986
0.14466710124081
0.13987005600946
0.13548703182766
0.13147173132227
0.12778417794568
0.12439354695348
0.1212760879751
0.11840989376276
0.11577183130325
0.11333336776542
0.11105975194105
0.10891328217438
0.10686077693216
0.10487955386588
0.10295971879998
0.10110069382671
0.099307228662301
0.097587362777693
0.095955256238386
0.094434104495505
0.093055976632432
0.091855246450026
0.090857296708047
0.090063931026506
0.089443560536497
0.088930536866505
0.088440880713733
0.087884261599936
0.087183872750527
0.086290596187037
0.085226415322666
0.084271574156529
0.086815444380486
)
;
    }
    wedge1
    {
        type            wedge;
    }
    wedge2
    {
        type            wedge;
    }
    defaultFaces
    {
        type            empty;
    }
}


// ************************************************************************* //
