/*--------------------------------*- C++ -*----------------------------------*\
| =========                 |                                                 |
| \\      /  F ield         | OpenFOAM: The Open Source CFD Toolbox           |
|  \\    /   O peration     | Version:  2312                                  |
|   \\  /    A nd           | Website:  www.openfoam.com                      |
|    \\/     M anipulation  |                                                 |
\*---------------------------------------------------------------------------*/
FoamFile
{
    version     2.0;
    format      ascii;
    arch        "LSB;label=32;scalar=64";
    class       volScalarField;
    location    "0.004";
    object      alphat;
}
// * * * * * * * * * * * * * * * * * * * * * * * * * * * * * * * * * * * * * //

dimensions      [1 -1 -1 0 0 0 0];

internalField   nonuniform List<scalar> 
48128
(
6.28109e-09
9.19009e-09
3.30738e-08
3.22755e-07
1.43112e-06
3.48775e-06
5.63611e-06
7.42749e-06
8.84596e-06
9.96878e-06
1.09223e-05
1.17852e-05
1.25759e-05
1.33772e-05
1.4206e-05
1.50764e-05
1.60117e-05
1.70327e-05
1.81611e-05
1.94325e-05
2.0953e-05
2.27185e-05
2.47539e-05
2.70749e-05
2.98488e-05
3.30514e-05
3.67739e-05
4.0999e-05
4.58944e-05
5.15248e-05
5.79135e-05
6.5066e-05
7.31226e-05
8.15741e-05
9.05567e-05
9.96516e-05
0.000109185
0.000117737
0.000126395
0.000134489
0.000141528
0.000148328
0.000157434
0.000167225
0.000176611
0.000184886
0.000192308
0.000199004
0.000204863
0.000210475
0.000215526
0.000220417
0.000224455
0.00022221
0.000212114
0.000203099
0.000194553
0.000186918
0.000179446
0.000172344
0.000165993
0.000159658
0.000154032
0.000148847
0.000143829
0.000139406
0.000134933
0.000130892
0.000126828
0.000123192
0.000119791
0.000116548
0.00011364
0.000110881
0.00010834
0.000106009
0.000103776
0.000101877
9.99034e-05
9.8091e-05
9.69858e-05
9.56397e-05
9.39919e-05
9.25052e-05
9.16592e-05
9.05155e-05
8.93e-05
8.80065e-05
8.67836e-05
8.66255e-05
8.5914e-05
8.49538e-05
8.39166e-05
8.29603e-05
8.28948e-05
8.23637e-05
8.15503e-05
8.08258e-05
8.03861e-05
7.98442e-05
7.91849e-05
7.8586e-05
7.84941e-05
7.81354e-05
7.76194e-05
7.71608e-05
7.68495e-05
7.64588e-05
7.60693e-05
7.56557e-05
7.52156e-05
7.4716e-05
7.42354e-05
7.38218e-05
7.34219e-05
7.32989e-05
7.31346e-05
7.29603e-05
7.27921e-05
7.26015e-05
7.23487e-05
7.20179e-05
7.16617e-05
7.13894e-05
7.11623e-05
7.09816e-05
7.10601e-05
7.10329e-05
7.10573e-05
7.10665e-05
7.10598e-05
7.10303e-05
7.09588e-05
7.08524e-05
7.06963e-05
7.04999e-05
7.02517e-05
6.9997e-05
6.97832e-05
6.96067e-05
6.94499e-05
6.93441e-05
6.92251e-05
6.91507e-05
6.90492e-05
6.89411e-05
6.88209e-05
6.87093e-05
6.8596e-05
6.84605e-05
6.83369e-05
6.8197e-05
6.80757e-05
6.79466e-05
6.78213e-05
6.77058e-05
6.75956e-05
6.74999e-05
6.74036e-05
6.73205e-05
6.72373e-05
6.71675e-05
6.70957e-05
6.70326e-05
6.69695e-05
6.69103e-05
6.68466e-05
6.67802e-05
6.67142e-05
6.66481e-05
6.65584e-05
6.64831e-05
6.63906e-05
6.63086e-05
6.62279e-05
6.61481e-05
6.60688e-05
6.59905e-05
6.59179e-05
6.58488e-05
6.57799e-05
6.57218e-05
6.56649e-05
6.56146e-05
6.55658e-05
6.55231e-05
6.54825e-05
6.54453e-05
6.5412e-05
6.53832e-05
6.53546e-05
6.53237e-05
6.52878e-05
6.52415e-05
6.51622e-05
6.50933e-05
6.50238e-05
6.49495e-05
6.48813e-05
6.48202e-05
6.47625e-05
6.47172e-05
6.46802e-05
6.46516e-05
6.4627e-05
6.46051e-05
6.45856e-05
6.45682e-05
6.45527e-05
6.45304e-05
6.44987e-05
6.44678e-05
6.44426e-05
6.43688e-05
6.43287e-05
6.42875e-05
6.42416e-05
6.42007e-05
6.41587e-05
6.41192e-05
6.40795e-05
6.40412e-05
6.40044e-05
6.3969e-05
6.39343e-05
6.39004e-05
6.38672e-05
6.3834e-05
6.38004e-05
6.37672e-05
6.37341e-05
6.37014e-05
6.3669e-05
6.36376e-05
6.36067e-05
6.35774e-05
6.35481e-05
6.35218e-05
6.34902e-05
6.3414e-05
4.80184e-08
1.61697e-07
5.2039e-07
1.73951e-06
4.4821e-06
8.92631e-06
1.48583e-05
2.1247e-05
2.80745e-05
3.51581e-05
4.23829e-05
4.95142e-05
5.65822e-05
6.39712e-05
7.17782e-05
8.01713e-05
8.94955e-05
9.99525e-05
0.000111866
0.000125411
0.000141394
0.000159371
0.000181695
0.000206284
0.000234731
0.000266805
0.000303074
0.000343492
0.000381718
0.000424493
0.000471377
0.000521255
0.000574453
0.00062971
0.000688972
0.000747874
0.000811361
0.000869042
0.000924603
0.000978669
0.00102506
0.00106962
0.00111118
0.00115067
0.00118617
0.00121695
0.00124281
0.0012642
0.00128186
0.00129855
0.00131189
0.00132436
0.00133174
0.00133777
0.00133992
0.0013435
0.00134286
0.00134204
0.00133754
0.00132931
0.00132256
0.00131016
0.00129794
0.00128603
0.00127128
0.00125891
0.00124322
0.00122862
0.00121152
0.00119498
0.00117843
0.00116119
0.00114486
0.00112834
0.00111255
0.00109714
0.0010819
0.00106803
0.00105346
0.00104033
0.00103
0.00101883
0.00100533
0.000993456
0.000984424
0.000973699
0.000962565
0.000950999
0.000940807
0.000935029
0.000926507
0.000916467
0.000906203
0.000897447
0.000892532
0.000885424
0.000876646
0.000868414
0.000861674
0.000854728
0.000847097
0.000840225
0.000835672
0.000829903
0.000823276
0.000816909
0.00081163
0.000805907
0.000800183
0.000794435
0.000788276
0.000781858
0.000774958
0.000768956
0.00076255
0.000757887
0.000753461
0.000749209
0.00074542
0.00074172
0.000737552
0.000732867
0.00072795
0.000723158
0.000718811
0.000714582
0.00071249
0.000710175
0.000708462
0.00070693
0.000703857
0.000701085
0.000698597
0.00069587
0.000692906
0.000689777
0.000686211
0.000682497
0.000678482
0.000674552
0.000670598
0.000666669
0.000662887
0.000659189
0.000655624
0.000652235
0.000648833
0.000645561
0.000642513
0.000639331
0.00063631
0.000633206
0.000630276
0.000627357
0.000624471
0.00062165
0.000618892
0.000616183
0.00061354
0.000611021
0.000608532
0.000606262
0.000604011
0.000601942
0.000599928
0.000598059
0.000596265
0.00059458
0.000592926
0.000591369
0.00058992
0.000588435
0.000586956
0.00058548
0.000584009
0.000582547
0.000581088
0.000579619
0.000578158
0.000576709
0.00057527
0.000573846
0.000572449
0.00057116
0.000569864
0.000568675
0.000567545
0.000566462
0.000565469
0.0005645
0.000563625
0.00056288
0.000562134
0.000561418
0.000560771
0.000560003
0.000559237
0.000558413
0.000557527
0.000556572
0.000555636
0.000554549
0.000553598
0.000552747
0.0005519
0.000551095
0.000550382
0.000549725
0.000549157
0.000548675
0.000548284
0.000547867
0.000547551
0.000547118
0.000546651
0.000546194
0.000545709
0.000545178
0.000544628
0.000544036
0.000543429
0.000542817
0.00054219
0.000541579
0.000540963
0.000540373
0.000539798
0.000539248
0.000538709
0.000538201
0.000537711
0.000537243
0.000536798
0.000536365
0.00053595
0.000535545
0.00053516
0.000534785
0.00053446
0.000533876
1.33295e-07
1.19915e-06
2.86007e-06
7.06161e-06
1.52941e-05
2.96283e-05
5.0422e-05
7.42034e-05
9.95394e-05
0.00012453
0.000148053
0.00017012
0.000190889
0.000211437
0.000231464
0.000252045
0.000273893
0.000297468
0.000323344
0.000352151
0.00038484
0.000421053
0.000461906
0.000506034
0.000554726
0.000607869
0.000664111
0.000724369
0.000786894
0.000854659
0.000927481
0.00100303
0.00108231
0.00116136
0.00124684
0.0013283
0.00141494
0.00149355
0.00157137
0.00164332
0.00170514
0.00176739
0.00182272
0.00187563
0.00192278
0.00196435
0.00200127
0.00203308
0.00206112
0.00208698
0.00210858
0.00212835
0.00214193
0.00215345
0.00215787
0.00216295
0.0021617
0.00216005
0.00215398
0.00214481
0.00213502
0.00212032
0.00210605
0.00209126
0.00207333
0.00205742
0.00203691
0.00201775
0.00199519
0.00197338
0.001951
0.00192796
0.00190584
0.00188346
0.00186172
0.0018404
0.00181925
0.0018002
0.00177919
0.00176061
0.00174674
0.00173104
0.00171147
0.00169342
0.00168043
0.00166509
0.00164799
0.00163068
0.00161396
0.00160588
0.0015934
0.00157769
0.00156215
0.00154695
0.00153927
0.00152832
0.00151438
0.0015005
0.00148939
0.0014779
0.00146543
0.00145331
0.0014455
0.00143569
0.00142441
0.00141314
0.00140373
0.00139365
0.00138348
0.00137309
0.00136198
0.0013503
0.0013381
0.00132682
0.00131566
0.00130698
0.00129846
0.00129026
0.00128269
0.00127529
0.0012671
0.0012579
0.0012484
0.00123934
0.00123115
0.00122323
0.00121825
0.001213
0.00120876
0.00120501
0.00120169
0.00119853
0.00119511
0.0011914
0.0011871
0.00118216
0.00117632
0.00117015
0.001164
0.00115815
0.00115237
0.00114716
0.00114196
0.00113737
0.00113269
0.00112826
0.00112367
0.0011194
0.00111513
0.00111055
0.00110627
0.0011017
0.00109734
0.00109294
0.00108855
0.00108425
0.00108005
0.00107603
0.00107212
0.00106845
0.00106486
0.00106156
0.00105842
0.00105549
0.00105276
0.00105018
0.00104778
0.00104536
0.0010431
0.00104089
0.00103842
0.00103612
0.00103357
0.00103107
0.00102855
0.00102599
0.00102341
0.0010208
0.00101823
0.00101568
0.00101318
0.00101073
0.00100844
0.00100623
0.00100419
0.00100223
0.00100047
0.000998751
0.000997277
0.000995883
0.000994744
0.000993627
0.000992581
0.000991468
0.000990083
0.000988601
0.000986968
0.000985192
0.00098332
0.00098141
0.000979501
0.000977628
0.000975899
0.000974373
0.000972998
0.000971792
0.000970763
0.000969896
0.000969248
0.000968663
0.000968019
0.000967419
0.000966844
0.000965875
0.000964994
0.000964065
0.000963027
0.000961955
0.000960834
0.000959678
0.000958496
0.00095735
0.000956191
0.000955115
0.000954034
0.000953036
0.000952056
0.00095115
0.000950247
0.000949419
0.000948598
0.000947842
0.000947079
0.00094638
0.000945665
0.000945028
0.000944355
0.000943773
0.000943155
0.000942069
4.00787e-07
3.85583e-06
8.87956e-06
2.0057e-05
4.08881e-05
7.64109e-05
0.000121006
0.000168803
0.000214087
0.000254558
0.000290289
0.00032267
0.000351748
0.000379678
0.000406848
0.000434408
0.000463102
0.000493678
0.000526821
0.000563086
0.000603088
0.000646976
0.000695137
0.000747146
0.000803253
0.000863079
0.000925869
0.000992526
0.00106259
0.00113644
0.00121483
0.00129371
0.00137762
0.00145478
0.00154148
0.00162338
0.00170892
0.00178411
0.00185961
0.00190766
0.00195957
0.00202645
0.00207232
0.00213711
0.00217991
0.00223652
0.00226934
0.00231369
0.00234064
0.0023764
0.00240836
0.00243373
0.00245341
0.00247119
0.00248251
0.00249364
0.00249905
0.00250301
0.00250223
0.00250054
0.00249488
0.00248674
0.00247977
0.00247101
0.00246052
0.00244985
0.0024348
0.0024202
0.00240227
0.00238516
0.00236667
0.00234798
0.00232992
0.0023117
0.00229378
0.00227595
0.00225828
0.00224273
0.00222492
0.00220835
0.00219822
0.00218582
0.00216902
0.00215203
0.0021414
0.00212859
0.00211319
0.0020972
0.0020796
0.00207388
0.00206382
0.00204998
0.00203533
0.00201925
0.00201302
0.00200374
0.00199091
0.0019769
0.00196606
0.00195503
0.00194282
0.00192957
0.00192253
0.00191327
0.00190221
0.00189035
0.00188068
0.00187038
0.00185975
0.00184847
0.00183621
0.00182306
0.00180926
0.00179645
0.00178393
0.00177465
0.00176548
0.00175669
0.00174832
0.00174011
0.00173074
0.00171999
0.00170866
0.00169801
0.00168862
0.00167935
0.00167384
0.00166807
0.00166364
0.00165973
0.00165613
0.00165261
0.0016486
0.00164419
0.00163894
0.00163284
0.00162548
0.00161757
0.00160972
0.00160238
0.00159508
0.00158853
0.00158206
0.0015764
0.00157049
0.00156495
0.00155913
0.00155369
0.00154829
0.00154243
0.00153686
0.00153096
0.00152529
0.00151949
0.00151366
0.00150798
0.00150238
0.00149709
0.00149185
0.001487
0.00148218
0.00147781
0.00147358
0.00146968
0.001466
0.00146249
0.00145918
0.00145583
0.00145269
0.00144957
0.00144606
0.0014428
0.00143917
0.00143562
0.00143203
0.00142841
0.00142475
0.00142106
0.00141742
0.00141385
0.0014103
0.00140689
0.00140365
0.00140056
0.00139766
0.00139491
0.00139238
0.00138997
0.00138785
0.00138588
0.00138418
0.00138253
0.00138095
0.0013793
0.00137721
0.00137499
0.00137258
0.00137
0.00136731
0.00136458
0.00136187
0.00135926
0.00135681
0.0013547
0.00135277
0.0013511
0.00134964
0.0013484
0.00134744
0.00134656
0.00134558
0.00134468
0.00134381
0.00134237
0.00134104
0.00133968
0.00133819
0.00133666
0.00133509
0.00133348
0.00133184
0.00133027
0.00132868
0.00132722
0.00132575
0.0013244
0.00132307
0.00132184
0.0013206
0.00131948
0.00131835
0.00131733
0.00131628
0.00131534
0.00131436
0.00131351
0.00131259
0.00131181
0.00131098
0.00130951
9.31918e-07
8.76724e-06
2.03355e-05
4.3452e-05
8.47862e-05
0.00014512
0.000210368
0.000272828
0.000328315
0.00037658
0.000419565
0.00045672
0.000490324
0.000522426
0.000553263
0.000584177
0.000615729
0.000649011
0.000684515
0.000722861
0.000764564
0.000809858
0.000858799
0.000911088
0.000966656
0.00102588
0.00108728
0.00115169
0.00121875
0.00128591
0.00135789
0.001423
0.00146641
0.00150019
0.00153291
0.00157267
0.00161468
0.00164962
0.0017016
0.00173753
0.00175977
0.00182814
0.00184884
0.00190368
0.00192217
0.00197179
0.00198886
0.00202678
0.00204866
0.00208431
0.0021121
0.00214127
0.00216971
0.00220962
0.00225368
0.00228751
0.00232056
0.00234955
0.00237573
0.00241303
0.00242968
0.00245403
0.00249459
0.00251638
0.00253289
0.00253242
0.00252776
0.00252242
0.00251387
0.0025061
0.00249613
0.00248609
0.00247626
0.00246614
0.00245602
0.00244555
0.00243517
0.00242666
0.00241637
0.00240502
0.00240115
0.00239522
0.00238542
0.00237331
0.00236753
0.00236036
0.0023509
0.00233957
0.00232573
0.00232338
0.00231872
0.00231115
0.00230068
0.00228782
0.00228443
0.00227967
0.00227179
0.00226137
0.0022534
0.002246
0.00223698
0.00222607
0.00222155
0.00221597
0.00220839
0.00219914
0.00219178
0.00218415
0.00217591
0.00216662
0.00215626
0.00214478
0.00213261
0.00212154
0.00211027
0.00210295
0.00209587
0.00208908
0.00208232
0.00207565
0.00206761
0.00205813
0.00204786
0.00203824
0.00203004
0.00202179
0.00201765
0.00201372
0.00201118
0.00200894
0.00200688
0.00200481
0.00200212
0.0019988
0.0019946
0.00198928
0.00198246
0.0019748
0.00196727
0.00196029
0.00195331
0.00194714
0.00194108
0.00193593
0.00193046
0.00192538
0.00191991
0.00191483
0.00190975
0.00190415
0.00189876
0.00189293
0.00188736
0.00188164
0.00187585
0.00187017
0.00186455
0.00185927
0.00185403
0.00184919
0.00184443
0.00184012
0.00183603
0.00183222
0.00182869
0.0018253
0.0018221
0.00181883
0.00181574
0.00181259
0.001809
0.00180563
0.00180181
0.00179808
0.00179429
0.00179043
0.00178651
0.00178254
0.0017786
0.00177475
0.00177089
0.00176724
0.00176374
0.00176046
0.00175735
0.00175446
0.0017518
0.00174932
0.00174716
0.00174518
0.00174348
0.00174184
0.00174022
0.00173855
0.00173628
0.00173384
0.00173114
0.00172824
0.00172519
0.00172211
0.00171905
0.00171611
0.00171341
0.00171112
0.00170905
0.00170731
0.00170579
0.0017046
0.00170365
0.00170286
0.00170188
0.00170104
0.0017002
0.00169863
0.00169718
0.0016957
0.00169406
0.00169238
0.00169064
0.00168888
0.00168707
0.00168536
0.00168363
0.00168206
0.00168047
0.00167906
0.00167764
0.00167637
0.00167506
0.00167392
0.00167273
0.0016717
0.0016706
0.00166967
0.00166866
0.00166784
0.0016669
0.00166618
0.00166536
0.00166383
1.77093e-06
1.62486e-05
3.81796e-05
7.72717e-05
0.000142955
0.000218571
0.000295451
0.000365466
0.00042645
0.000479954
0.000526126
0.000565789
0.000602062
0.000636123
0.000668303
0.000700127
0.000731784
0.000764657
0.000799165
0.000835867
0.000875286
0.000917749
0.000962796
0.00101095
0.00106157
0.00111425
0.00116741
0.00122173
0.00125583
0.0012743
0.00129437
0.00131174
0.00132105
0.00133363
0.00134648
0.00136173
0.00139436
0.00140775
0.00144633
0.001467
0.00146302
0.0015119
0.00151091
0.00153864
0.00153595
0.00156443
0.00157144
0.0015978
0.00162132
0.00164457
0.00166805
0.00169547
0.00171835
0.00176175
0.00179663
0.00183785
0.00186321
0.00190205
0.00192604
0.00197089
0.00199813
0.00202823
0.00208086
0.00210519
0.00215308
0.00218878
0.00220862
0.00225263
0.00227554
0.00231481
0.00233408
0.00236671
0.00239262
0.00239575
0.00239795
0.00239901
0.00239963
0.00240153
0.00240176
0.00239963
0.00240346
0.00240576
0.00240558
0.00240191
0.00240258
0.00240282
0.00240179
0.00239758
0.00239071
0.00239238
0.00239405
0.00239428
0.00239044
0.00238364
0.00238373
0.00238429
0.0023829
0.00237817
0.00237468
0.00237223
0.00236804
0.00236185
0.0023606
0.00235973
0.00235721
0.00235253
0.00234894
0.0023454
0.00234117
0.00233539
0.00232871
0.00232081
0.00231234
0.00230467
0.00229658
0.00229253
0.00228909
0.0022858
0.00228202
0.00227809
0.00227291
0.00226649
0.00225926
0.00225238
0.0022469
0.00224131
0.00223981
0.00223912
0.00223955
0.00224001
0.00224061
0.00224113
0.0022409
0.00223991
0.00223799
0.00223486
0.00223014
0.00222436
0.00221872
0.00221361
0.00220847
0.00220413
0.00219982
0.00219648
0.00219285
0.00218949
0.00218574
0.00218221
0.00217873
0.00217469
0.00217078
0.00216628
0.00216208
0.00215768
0.00215317
0.00214879
0.00214443
0.00214036
0.00213635
0.00213268
0.00212913
0.00212596
0.00212302
0.00212034
0.00211793
0.00211564
0.00211351
0.00211131
0.00210921
0.00210705
0.00210442
0.00210191
0.00209888
0.00209592
0.00209286
0.00208971
0.00208645
0.00208312
0.00207977
0.00207652
0.00207322
0.00207018
0.00206724
0.00206457
0.00206204
0.00205979
0.00205774
0.00205593
0.0020544
0.00205312
0.00205207
0.00205109
0.00205008
0.00204906
0.00204725
0.00204522
0.00204292
0.00204035
0.00203759
0.00203479
0.002032
0.00202935
0.00202699
0.0020251
0.00202343
0.00202213
0.00202107
0.00202042
0.00201997
0.00201973
0.00201923
0.00201892
0.00201859
0.00201737
0.00201627
0.00201513
0.0020138
0.00201243
0.00201094
0.00200948
0.00200792
0.0020065
0.00200503
0.00200377
0.00200246
0.00200137
0.00200025
0.00199932
0.00199832
0.00199751
0.00199663
0.00199594
0.00199516
0.00199458
0.00199389
0.00199343
0.00199281
0.00199246
0.00199198
0.00199087
2.86755e-06
2.61591e-05
6.17851e-05
0.000119747
0.000200935
0.000286354
0.00036923
0.000442821
0.000506783
0.000563708
0.000610605
0.000652125
0.000689723
0.000724353
0.000756374
0.000787217
0.000817139
0.000847379
0.000878487
0.000910933
0.000945363
0.0009817
0.00102004
0.00106027
0.00110173
0.00112547
0.00112677
0.001135
0.00113829
0.00114312
0.00113942
0.00114076
0.00113084
0.00112752
0.00114326
0.00113616
0.00116525
0.00115033
0.00116572
0.00116105
0.00113719
0.00114681
0.00112898
0.00113443
0.00113305
0.00114104
0.00115195
0.00116415
0.00119189
0.00120044
0.00122757
0.00125222
0.00127215
0.00131626
0.0013356
0.00137896
0.00139426
0.00143921
0.00145806
0.00150403
0.0015329
0.00156881
0.00161432
0.00163864
0.00168082
0.00171844
0.00174334
0.00178807
0.0018196
0.00186033
0.00189094
0.00193061
0.00196388
0.00199447
0.00202894
0.00205923
0.00209323
0.00211733
0.00215068
0.00217997
0.00218601
0.00220538
0.00224226
0.00226795
0.00227621
0.00228698
0.00229585
0.00230128
0.00230423
0.00231123
0.0023204
0.00232919
0.00233326
0.0023348
0.00233945
0.00234623
0.00235186
0.00235434
0.00235671
0.00236019
0.00236188
0.00236231
0.00236517
0.00236976
0.00237294
0.0023741
0.00237532
0.00237667
0.00237727
0.002376
0.00237415
0.00237108
0.00236765
0.00236445
0.00236103
0.00236092
0.00236189
0.00236273
0.00236264
0.00236218
0.00236087
0.00235872
0.00235555
0.00235273
0.00235071
0.00234913
0.00235096
0.00235386
0.00235772
0.00236138
0.00236514
0.00236881
0.0023716
0.00237363
0.00237455
0.00237452
0.00237282
0.00237006
0.00236736
0.00236509
0.00236277
0.00236118
0.00235955
0.00235883
0.00235791
0.00235713
0.00235596
0.00235484
0.00235382
0.00235227
0.00235073
0.00234851
0.00234658
0.00234445
0.00234215
0.00233999
0.00233779
0.00233585
0.00233394
0.0023323
0.00233079
0.00232959
0.00232861
0.00232783
0.00232731
0.00232686
0.00232656
0.00232617
0.0023258
0.0023254
0.00232453
0.00232369
0.00232227
0.00232088
0.00231935
0.00231772
0.00231591
0.00231404
0.00231207
0.00231022
0.00230823
0.00230655
0.00230493
0.00230361
0.00230238
0.00230145
0.00230069
0.00230022
0.00229998
0.00230002
0.00230023
0.00230053
0.00230074
0.00230097
0.00230025
0.00229926
0.002298
0.00229641
0.0022946
0.00229275
0.00229088
0.00228916
0.00228776
0.00228684
0.00228614
0.00228583
0.00228576
0.00228615
0.00228671
0.00228749
0.002288
0.00228866
0.00228932
0.00228898
0.00228872
0.00228842
0.0022879
0.00228734
0.00228661
0.00228593
0.00228511
0.00228445
0.00228371
0.00228321
0.00228262
0.0022823
0.00228191
0.00228174
0.00228146
0.00228141
0.00228123
0.00228129
0.00228121
0.00228138
0.00228138
0.00228166
0.00228174
0.00228213
0.00228237
0.00228222
4.11816e-06
3.79111e-05
8.89784e-05
0.00016329
0.000253407
0.000344541
0.000429982
0.000505244
0.000571224
0.000629039
0.000676733
0.000719373
0.00075745
0.000791687
0.000822455
0.000851029
0.000877744
0.000903616
0.000929448
0.000955634
0.000982449
0.00101044
0.00103914
0.00103787
0.0010298
0.00101644
0.00100822
0.00100838
0.000996616
0.000990828
0.000970137
0.000956619
0.000955535
0.000941245
0.000967128
0.000933808
0.000933921
0.000895882
0.000879696
0.000870828
0.000855133
0.000838797
0.000831271
0.000820864
0.000828599
0.000822444
0.000838483
0.00083695
0.000867289
0.000865511
0.00089808
0.000914249
0.000933262
0.000971873
0.000981206
0.00101588
0.00103132
0.00107441
0.00109437
0.00113814
0.00116114
0.00120256
0.00123643
0.00125777
0.00129184
0.00131912
0.00134289
0.00137533
0.0014047
0.00143623
0.00146523
0.00150092
0.00152793
0.00156056
0.00159256
0.00162482
0.00165861
0.00168807
0.00172216
0.00175259
0.00177386
0.00179939
0.00183358
0.00186692
0.00188903
0.00191455
0.00194551
0.00197959
0.00200822
0.00201815
0.00203519
0.00206006
0.00209459
0.00212317
0.00212961
0.00214291
0.00216606
0.00219502
0.002215
0.00222915
0.00223851
0.00224683
0.00225545
0.00226592
0.00227558
0.00228354
0.0022906
0.00229755
0.00230365
0.00230801
0.0023117
0.00231444
0.00231708
0.00231925
0.00232185
0.00232647
0.0023322
0.00233764
0.00234193
0.00234555
0.00234884
0.00235148
0.00235325
0.00235538
0.00235752
0.00236065
0.00236625
0.00237277
0.00238014
0.00238733
0.00239447
0.00240148
0.00240753
0.00241296
0.0024172
0.00242051
0.00242252
0.00242334
0.00242421
0.00242535
0.00242649
0.0024281
0.00242973
0.00243204
0.00243428
0.00243658
0.00243851
0.00244039
0.00244228
0.00244376
0.00244521
0.00244591
0.0024468
0.00244759
0.00244812
0.00244879
0.00244937
0.00245014
0.00245089
0.00245183
0.00245289
0.00245419
0.00245567
0.0024573
0.00245915
0.00246106
0.00246306
0.00246499
0.00246686
0.0024687
0.00247017
0.0024716
0.00247232
0.00247309
0.00247367
0.00247414
0.00247439
0.00247456
0.00247458
0.00247472
0.00247467
0.00247491
0.0024752
0.00247577
0.00247641
0.00247733
0.00247842
0.00247979
0.00248135
0.00248322
0.00248517
0.00248723
0.00248915
0.0024911
0.00249202
0.00249261
0.00249293
0.00249288
0.00249259
0.00249224
0.00249186
0.00249163
0.00249174
0.00249231
0.00249309
0.00249425
0.00249565
0.00249752
0.00249952
0.00250175
0.00250373
0.00250578
0.00250785
0.00250886
0.0025099
0.00251093
0.00251167
0.00251238
0.00251289
0.00251345
0.00251384
0.00251441
0.00251485
0.00251555
0.00251613
0.002517
0.00251776
0.00251878
0.00251962
0.00252073
0.00252166
0.00252286
0.00252386
0.00252515
0.00252625
0.00252764
0.00252879
0.00253028
0.0025316
0.00253299
5.41749e-06
5.0719e-05
0.000116768
0.000202147
0.000297972
0.000392161
0.000478345
0.000554111
0.000621122
0.000679026
0.000727578
0.00077086
0.000808908
0.00084209
0.000870741
0.00089597
0.000918102
0.000938184
0.000956979
0.00097451
0.000991938
0.000981196
0.000956478
0.00092926
0.000914753
0.000899687
0.000884044
0.000878272
0.000852275
0.000837288
0.000820063
0.000805742
0.000827418
0.000790988
0.000791899
0.000743202
0.00072648
0.000687962
0.000663774
0.000641008
0.000641334
0.000608503
0.000616964
0.000597889
0.000620467
0.000610139
0.000636953
0.000633198
0.000665752
0.000663786
0.000698173
0.000698179
0.000729952
0.000751873
0.000760317
0.000770634
0.000781661
0.0007943
0.000806177
0.000822497
0.000837791
0.000855065
0.000875856
0.000895131
0.000918161
0.000941285
0.00096419
0.00099086
0.00101746
0.00104753
0.00107711
0.00110951
0.00114257
0.00117731
0.00121191
0.00124843
0.00128396
0.00132073
0.00135135
0.00137762
0.0013974
0.00141742
0.00144387
0.00147329
0.00149724
0.00152182
0.00154908
0.00158053
0.00161292
0.00163196
0.00165159
0.00167567
0.00170874
0.0017422
0.00176326
0.00178073
0.00180586
0.00183704
0.00186574
0.00188889
0.00191595
0.00194187
0.00195837
0.00197445
0.00199549
0.00202032
0.00204058
0.00205744
0.00207167
0.00209019
0.00211338
0.00213873
0.00216455
0.00218105
0.00219103
0.00220156
0.00221278
0.00222342
0.00223296
0.00224161
0.00224991
0.00225813
0.00226549
0.00227312
0.00228009
0.00228849
0.00229822
0.00230863
0.00231963
0.00233071
0.00234138
0.00235196
0.00236143
0.0023705
0.0023782
0.00238527
0.00239118
0.00239606
0.00240089
0.00240585
0.00241079
0.00241602
0.00242119
0.00242687
0.00243255
0.00243824
0.00244356
0.00244879
0.00245389
0.00245874
0.00246351
0.00246758
0.00247169
0.0024758
0.00247958
0.00248344
0.00248713
0.00249096
0.00249472
0.00249859
0.0025025
0.00250662
0.00251086
0.00251522
0.00251973
0.00252428
0.00252889
0.00253344
0.00253787
0.00254229
0.0025464
0.00255045
0.00255371
0.00255699
0.00256005
0.00256301
0.00256571
0.00256832
0.00257073
0.00257325
0.00257555
0.00257812
0.00258072
0.00258355
0.00258645
0.0025896
0.00259291
0.00259646
0.00260022
0.00260423
0.0026083
0.00261243
0.00261642
0.00262041
0.00262338
0.00262594
0.00262826
0.0026302
0.00263188
0.00263348
0.00263504
0.00263672
0.00263877
0.00264123
0.00264389
0.00264691
0.00265014
0.00265383
0.00265763
0.00266163
0.00266544
0.00266922
0.00267303
0.0026758
0.00267854
0.00268127
0.00268367
0.00268605
0.00268819
0.0026904
0.00269241
0.00269458
0.0026966
0.00269889
0.00270104
0.00270347
0.00270577
0.00270833
0.00271067
0.00271329
0.00271569
0.00271837
0.00272082
0.00272358
0.0027261
0.00272894
0.00273152
0.00273445
0.00273716
0.00274064
6.68379e-06
6.30301e-05
0.000142362
0.000235046
0.000334313
0.000429317
0.000515149
0.000590689
0.000658481
0.000716987
0.000766469
0.000810044
0.000847549
0.000879015
0.000904576
0.00092517
0.00094117
0.000953677
0.000963195
0.000949201
0.000917
0.000876024
0.000844378
0.000820136
0.000803597
0.000784893
0.000764452
0.000754716
0.000729572
0.000714066
0.000725353
0.000698579
0.000706933
0.000661002
0.000636839
0.000590657
0.000557527
0.000519734
0.000492752
0.000461109
0.000468422
0.000447617
0.000466984
0.000462564
0.000500019
0.000510067
0.000523099
0.000525111
0.000526454
0.000527418
0.00052693
0.000528105
0.000531601
0.000536576
0.000537817
0.0005404
0.000543268
0.000547203
0.000552652
0.000558639
0.000566787
0.000574978
0.000587592
0.000596772
0.000609332
0.000621013
0.000633994
0.000649274
0.000665264
0.000683298
0.000701938
0.000722932
0.000744397
0.000767655
0.000792625
0.000818578
0.00084659
0.000874739
0.000905007
0.000935307
0.000965995
0.000997306
0.001031
0.00106529
0.00109949
0.001134
0.00116976
0.00120558
0.00124125
0.00127471
0.00130935
0.00134348
0.00136854
0.00139869
0.00142239
0.00143814
0.0014585
0.00148592
0.00151362
0.00153687
0.00156263
0.00158929
0.0016099
0.00162749
0.00164988
0.00167568
0.00170061
0.00172122
0.00173958
0.00176479
0.00179119
0.00182069
0.00185183
0.00188167
0.00191069
0.00192533
0.00194003
0.00195197
0.00196349
0.00197945
0.00199926
0.00202347
0.00205012
0.00207783
0.00210207
0.00212193
0.00213519
0.00214622
0.00215378
0.0021671
0.00217732
0.00218891
0.00219881
0.00221387
0.00222481
0.00224292
0.00226134
0.0022867
0.00230422
0.00231527
0.00232458
0.00233385
0.00234291
0.00235232
0.00236169
0.00237107
0.00238
0.0023889
0.00239748
0.00240601
0.00241435
0.00242215
0.00242981
0.00243741
0.00244464
0.0024519
0.00245895
0.00246607
0.00247307
0.00248016
0.0024872
0.00249437
0.00250156
0.00250886
0.00251623
0.00252362
0.00253099
0.00253838
0.00254555
0.00255276
0.00255967
0.00256654
0.00257255
0.00257859
0.00258436
0.00259003
0.00259543
0.00260072
0.00260579
0.00261095
0.00261586
0.00262101
0.00262616
0.00263151
0.0026369
0.00264252
0.00264829
0.00265427
0.00266044
0.00266682
0.00267323
0.00267965
0.00268595
0.00269218
0.00269746
0.0027023
0.0027069
0.00271112
0.0027151
0.00271895
0.00272278
0.00272669
0.00273097
0.00273562
0.00274043
0.00274557
0.0027509
0.00275665
0.00276248
0.00276851
0.00277439
0.00278015
0.00278596
0.00279079
0.00279553
0.00280025
0.00280462
0.00280898
0.00281307
0.00281723
0.00282117
0.00282526
0.0028292
0.00283337
0.0028374
0.0028417
0.00284585
0.00285024
0.0028544
0.00285881
0.00286298
0.00286743
0.00287163
0.00287612
0.00288038
0.00288494
0.00288926
0.0028939
0.00289828
0.0029043
7.83803e-06
7.39596e-05
0.000164213
0.000261676
0.000362171
0.000456596
0.000542768
0.000619013
0.000687256
0.000745922
0.00079577
0.000839073
0.000875386
0.000904261
0.000925535
0.000939839
0.000947705
0.000946098
0.000900758
0.000848887
0.000807049
0.000770014
0.00074051
0.00071648
0.000703325
0.000686831
0.000667448
0.000659145
0.000655654
0.000640206
0.000656048
0.00061589
0.000594395
0.000549874
0.000506707
0.000460633
0.000412876
0.00037703
0.000342053
0.00031989
0.000312819
0.000306848
0.000327049
0.00033607
0.000367545
0.000385004
0.000393816
0.000400102
0.000406591
0.000409858
0.000412797
0.000414481
0.00041533
0.000417386
0.000415779
0.000414792
0.000414593
0.000416243
0.000417838
0.000421966
0.000425813
0.000431407
0.000437819
0.000443158
0.000448875
0.000454526
0.000460585
0.000468552
0.0004753
0.000483499
0.000491397
0.000500746
0.000510019
0.000520548
0.000532183
0.000544588
0.000558254
0.000572693
0.000588379
0.000605033
0.00062273
0.000641537
0.000662133
0.000684201
0.000707732
0.000732153
0.000758143
0.000785565
0.0008136
0.000842388
0.000871733
0.000903123
0.000935727
0.000969078
0.00100253
0.00103507
0.00106964
0.00110438
0.00114044
0.00117389
0.00120888
0.00124263
0.0012759
0.00130826
0.00134248
0.00137538
0.00139643
0.00141886
0.00143617
0.00145912
0.00148394
0.00151121
0.00153828
0.00156718
0.0015963
0.00161215
0.00162692
0.00164061
0.00165694
0.00167656
0.00169962
0.0017255
0.00175426
0.00178471
0.00181564
0.00183765
0.00185553
0.00187043
0.0018825
0.00189726
0.00190896
0.00192318
0.00193483
0.0019511
0.0019637
0.00198575
0.00200867
0.0020368
0.00205834
0.0020808
0.00210151
0.00211968
0.00213687
0.00215233
0.00216808
0.0021839
0.0022005
0.00221691
0.00223069
0.0022472
0.00226255
0.00228006
0.00229451
0.00231011
0.00232607
0.00234208
0.00235723
0.00237254
0.00238696
0.00240167
0.00241305
0.00242363
0.00243404
0.00244451
0.00245487
0.00246529
0.00247558
0.00248597
0.00249606
0.00250618
0.00251594
0.00252575
0.00253469
0.00254364
0.00255229
0.00256086
0.00256911
0.00257728
0.00258519
0.00259316
0.00260087
0.00260877
0.00261665
0.00262469
0.00263273
0.002641
0.00264937
0.00265794
0.00266666