/*--------------------------------*- C++ -*----------------------------------*\
| =========                 |                                                 |
| \\      /  F ield         | OpenFOAM: The Open Source CFD Toolbox           |
|  \\    /   O peration     | Version:  2312                                  |
|   \\  /    A nd           | Website:  www.openfoam.com                      |
|    \\/     M anipulation  |                                                 |
\*---------------------------------------------------------------------------*/
FoamFile
{
    version     2.0;
    format      ascii;
    arch        "LSB;label=32;scalar=64";
    class       volScalarField;
    location    "0.004";
    object      cSound;
}
// * * * * * * * * * * * * * * * * * * * * * * * * * * * * * * * * * * * * * //

dimensions      [0 1 -1 0 0 0 0];

internalField   nonuniform List<scalar> 
48128
(
300.878
300.926
301.064
301.179
301.196
301.205
301.219
301.108
300.786
300.222
299.549
298.906
298.265
297.715
297.306
296.958
296.668
296.449
296.306
296.246
296.325
296.552
296.937
297.446
298.103
298.909
299.851
300.901
302.027
303.281
304.654
306.138
307.712
309.338
310.962
312.572
314.125
315.614
317.092
318.171
319.06
321.533
322.133
322.605
323.041
323.404
323.69
323.908
324.099
324.233
324.335
324.384
324.446
324.459
324.465
324.416
324.357
324.263
324.167
324.09
323.981
323.94
323.918
323.895
323.883
323.826
323.79
323.736
323.716
323.711
323.723
323.761
323.816
323.882
323.977
324.076
324.197
324.32
324.429
324.613
324.903
325.038
325.148
325.29
325.577
325.726
325.834
325.912
326.077
326.529
326.713
326.843
326.93
327.085
327.51
327.687
327.831
327.962
328.213
328.376
328.517
328.671
329.02
329.217
329.384
329.54
329.761
329.942
330.098
330.245
330.37
330.481
330.613
330.772
330.981
331.26
331.5
331.72
331.925
332.113
332.269
332.399
332.539
332.716
332.902
333.096
333.426
333.677
333.96
334.2
334.437
334.64
334.822
334.994
335.153
335.288
335.396
335.513
335.649
335.79
335.938
336.098
336.254
336.428
336.593
336.755
336.914
337.075
337.224
337.366
337.512
337.644
337.781
337.909
338.037
338.165
338.296
338.428
338.561
338.701
338.836
338.98
339.127
339.278
339.425
339.575
339.72
339.863
340.002
340.131
340.257
340.379
340.492
340.603
340.709
340.811
340.909
341.006
341.102
341.198
341.295
341.392
341.491
341.594
341.699
341.807
341.916
342.028
342.142
342.26
342.378
342.491
342.6
342.693
342.784
342.866
342.934
342.998
343.06
343.122
343.188
343.256
343.331
343.411
343.497
343.588
343.683
343.781
343.883
343.976
344.066
344.154
344.227
344.294
344.365
344.429
344.487
344.545
344.599
344.654
344.708
344.763
344.819
344.877
344.934
344.993
345.052
345.112
345.171
345.231
345.29
345.349
345.407
345.466
345.522
345.58
345.636
345.694
345.745
345.782
300.814
300.874
300.919
300.909
300.843
300.742
300.485
299.963
299.121
298.041
296.978
295.988
295.048
294.275
293.715
293.28
292.956
292.752
292.679
292.756
292.963
293.326
293.838
294.522
295.384
296.421
297.622
298.979
300.511
302.163
303.873
305.642
307.422
309.223
310.94
312.663
314.234
315.411
317.295
318.225
319.056
319.987
320.582
320.991
321.316
321.544
321.686
321.755
321.74
321.643
321.514
321.321
321.143
320.941
320.743
320.514
320.274
320.015
319.753
319.495
319.222
318.996
318.8
318.609
318.426
318.215
318.01
317.798
317.602
317.427
317.265
317.125
317.007
316.903
316.818
316.744
316.692
316.659
316.61
316.589
316.735
316.736
316.695
316.661
316.809
316.815
316.786
316.739
316.685
317.003
317.047
317.042
317.021
316.983
317.283
317.335
317.345
317.35
317.466
317.503
317.519
317.525
317.745
317.814
317.861
317.905
318.008
318.065
318.114
318.148
318.165
318.151
318.146
318.164
318.192
318.34
318.448
318.56
318.672
318.765
318.84
318.875
318.908
318.973
319.05
319.147
319.376
319.535
319.736
319.921
320.093
320.254
320.397
320.516
320.613
320.693
320.739
320.781
320.839
320.911
320.984
321.086
321.182
321.302
321.403
321.504
321.601
321.702
321.793
321.879
321.966
322.044
322.127
322.202
322.277
322.356
322.437
322.521
322.608
322.701
322.794
322.894
322.997
323.104
323.21
323.319
323.423
323.526
323.626
323.72
323.803
323.887
323.96
324.035
324.106
324.174
324.239
324.302
324.367
324.433
324.5
324.57
324.643
324.719
324.798
324.881
324.967
325.056
325.149
325.247
325.344
325.438
325.527
325.604
325.666
325.727
325.777
325.82
325.863
325.908
325.957
326.013
326.075
326.142
326.218
326.298
326.383
326.472
326.564
326.649
326.73
326.808
326.879
326.93
326.991
327.048
327.097
327.149
327.197
327.246
327.295
327.345
327.397
327.449
327.504
327.559
327.615
327.672
327.728
327.785
327.842
327.899
327.955
328.012
328.068
328.126
328.182
328.241
328.294
328.322
300.752
300.74
300.707
300.63
300.529
300.319
299.895
299.198
298.27
297.229
296.157
295.204
294.345
293.661
293.196
292.849
292.621
292.517
292.54
292.689
292.977
293.423
294.033
294.817
295.78
296.911
298.178
299.558
301.047
302.634
304.269
305.984
307.645
309.439
310.914
312.529
314.045
315.069
316.2
317.025
317.711
318.261
318.635
318.874
319.032
319.096
319.075
318.989
318.83
318.603
318.357
318.069
317.813
317.564
317.32
317.051
316.78
316.497
316.22
315.941
315.655
315.42
315.219
315.022
314.832
314.608
314.394
314.176
313.973
313.792
313.621
313.47
313.335
313.213
313.107
313.011
312.933
312.87
312.788
312.729
312.834
312.794
312.716
312.647
312.747
312.715
312.649
312.559
312.473
312.739
312.738
312.692
312.626
312.557
312.799
312.808
312.774
312.747
312.813
312.811
312.781
312.752
312.921
312.946
312.947
312.951
313.006
313.021
313.025
313.017
312.993
312.94
312.899
312.875
312.862
312.958
313.015
313.075
313.132
313.177
313.204
313.198
313.193
313.211
313.243
313.284
313.468
313.581
313.736
313.874
314.005
314.126
314.232
314.32
314.387
314.436
314.456
314.47
314.496
314.53
314.57
314.628
314.683
314.761
314.829
314.894
314.958
315.025
315.092
315.148
315.209
315.262
315.321
315.372
315.423
315.477
315.533
315.593
315.655
315.723
315.791
315.867
315.944
316.026
316.107
316.191
316.271
316.349
316.426
316.497
316.56
316.622
316.677
316.733
316.784
316.833
316.88
316.926
316.973
317.021
317.071
317.124
317.18
317.239
317.301
317.369
317.438
317.512
317.589
317.671
317.753
317.833
317.907
317.972
318.023
318.071
318.111
318.145
318.177
318.213
318.251
318.297
318.349
318.406
318.471
318.542
318.617
318.696
318.778
318.855
318.928
318.999
319.063
319.109
319.163
319.215
319.259
319.306
319.349
319.394
319.439
319.485
319.532
319.581
319.631
319.682
319.734
319.787
319.84
319.894
319.947
320.001
320.054
320.108
320.162
320.217
320.271
320.328
320.38
320.406
300.567
300.564
300.486
300.4
300.251
299.933
299.404
298.702
297.827
296.844
295.85
294.951
294.167
293.553
293.156
292.869
292.71
292.674
292.754
292.959
293.305
293.806
294.465
295.281
296.242
297.332
298.546
299.862
301.267
302.773
304.277
305.988
307.312
309.163
310.365
311.551
312.66
313.571
314.398
315.006
315.475
315.773
315.918
315.967
315.931
315.823
315.639
315.403
315.091
314.744
314.393
314.029
313.721
313.453
313.203
312.923
312.663
312.394
312.158
311.924
311.682
311.503
311.374
311.237
311.105
310.925
310.761
310.59
310.44
310.311
310.186
310.079
309.982
309.895
309.821
309.754
309.701
309.661
309.592
309.539
309.648
309.616
309.541
309.48
309.569
309.542
309.481
309.39
309.31
309.545
309.545
309.504
309.433
309.366
309.57
309.574
309.535
309.505
309.549
309.539
309.498
309.461
309.61
309.62
309.609
309.601
309.634
309.636
309.624
309.602
309.564
309.501
309.45
309.414
309.389
309.468
309.508
309.545
309.577
309.598
309.605
309.581
309.558
309.557
309.57
309.594
309.747
309.837
309.964
310.072
310.176
310.27
310.35
310.414
310.461
310.492
310.497
310.494
310.505
310.523
310.545
310.583
310.618
310.675
310.721
310.766
310.81
310.856
310.9
310.937
310.977
311.009
311.048
311.083
311.119
311.158
311.198
311.241
311.286
311.337
311.388
311.447
311.506
311.57
311.633
311.699
311.762
311.824
311.885
311.942
311.991
312.04
312.082
312.124
312.163
312.2
312.234
312.268
312.303
312.339
312.376
312.417
312.461
312.508
312.559
312.614
312.672
312.734
312.8
312.871
312.941
313.01
313.074
313.13
313.173
313.212
313.244
313.271
313.296
313.324
313.355
313.393
313.437
313.487
313.544
313.606
313.673
313.745
313.819
313.889
313.956
314.021
314.079
314.121
314.171
314.218
314.258
314.301
314.34
314.381
314.422
314.464
314.508
314.553
314.599
314.647
314.695
314.745
314.794
314.845
314.895
314.946
314.997
315.048
315.099
315.152
315.204
315.259
315.309
315.335
300.409
300.372
300.287
300.202
299.977
299.57
299.046
298.39
297.527
296.574
295.65
294.842
294.153
293.619
293.284
293.062
292.96
292.961
293.074
293.303
293.66
294.153
294.784
295.546
296.438
297.455
298.589
299.826
301.111
302.562
303.694
305.496
306.502
307.716
308.706
309.614
310.45
311.098
311.664
311.983
312.157
312.267
312.131
311.987
311.727
311.475
311.119
310.764
310.295
309.858
309.439
309.038
308.709
308.462
308.252
307.993
307.79
307.569
307.409
307.258
307.084
306.991
306.973
306.915
306.88
306.764
306.678
306.595
306.524
306.484
306.433
306.406
306.374
306.351
306.337
306.324
306.318
306.326
306.291
306.268
306.396
306.396
306.35
306.318
306.414
306.416
306.382
306.318
306.264
306.468
306.502
306.483
306.433
306.385
306.557
306.58
306.555
306.539
306.577
306.576
306.544
306.518
306.647
306.663
306.657
306.654
306.679
306.683
306.669
306.647
306.61
306.551
306.504
306.467
306.444
306.517
306.552
306.581
306.601
306.612
306.614
306.585
306.558
306.551
306.555
306.579
306.71
306.787
306.896
306.988
307.075
307.153
307.217
307.266
307.3
307.321
307.318
307.306
307.31
307.319
307.333
307.36
307.386
307.431
307.466
307.499
307.532
307.565
307.598
307.624
307.652
307.672
307.698
307.72
307.742
307.77
307.798
307.83
307.863
307.902
307.941
307.987
308.031
308.082
308.131
308.184
308.236
308.287
308.336
308.387
308.428
308.468
308.5
308.534
308.565
308.592
308.618
308.643
308.67
308.697
308.726
308.758
308.793
308.832
308.874
308.921
308.97
309.024
309.082
309.145
309.206
309.267
309.324
309.373
309.41
309.443
309.469
309.491
309.51
309.533
309.559
309.591
309.629
309.673
309.725
309.781
309.842
309.908
309.976
310.041
310.103
310.163
310.217
310.256
310.302
310.346
310.383
310.422
310.459
310.497
310.535
310.574
310.615
310.657
310.701
310.746
310.791
310.838
310.886
310.934
310.982
311.03
311.079
311.128
311.177
311.228
311.279
311.331
311.381
311.406
300.208
300.18
300.115
299.983
299.691
299.261
298.776
298.082
297.253
296.384
295.56
294.841
294.237
293.78
293.49
293.3
293.217
293.226
293.336
293.55
293.873
294.31
294.868
295.548
296.356
297.293
298.32
299.486
300.451
301.861
302.701
303.771
304.614
305.418
306.089
306.596
307.095
307.331
307.6
307.594
307.417
307.401
306.985
306.732
306.215
305.867
305.403
304.977
304.491
304.016
303.62
303.245
302.918
302.758
302.575
302.397
302.227
302.107
302.007
301.977
301.881
301.87
302.01
302
302.125
302.076
302.083
302.134
302.134
302.23
302.244
302.341
302.381
302.437
302.501
302.562
302.609
302.678
302.696
302.72
302.863
302.925
302.93
302.947
303.057
303.107
303.118
303.102
303.087
303.257
303.346
303.362
303.349
303.334
303.47
303.535
303.54
303.551
303.593
303.614
303.607
303.604
303.711
303.754
303.768
303.783
303.81
303.828
303.822
303.812
303.786
303.743
303.712
303.685
303.675
303.745
303.786
303.814
303.83
303.841
303.849
303.824
303.805
303.802
303.807
303.838
303.953
304.025
304.126
304.208
304.285
304.353
304.409
304.45
304.479
304.496
304.495
304.48
304.483
304.49
304.501
304.524
304.546
304.585
304.615
304.642
304.67
304.697
304.725
304.746
304.767
304.782
304.802
304.817
304.832
304.85
304.87
304.894
304.919
304.948
304.979
305.017
305.054
305.098
305.139
305.185
305.229
305.273
305.315
305.358
305.394
305.427
305.454
305.482
305.506
305.528
305.549
305.568
305.589
305.611
305.634
305.661
305.691
305.724
305.76
305.802
305.845
305.894
305.946
306.004
306.06
306.115
306.168
306.211
306.245
306.273
306.296
306.314
306.33
306.35
306.373
306.401
306.436
306.477
306.525
306.577
306.635
306.697
306.761
306.821
306.88
306.937
306.988
307.026
307.068
307.11
307.145
307.183
307.218
307.254
307.291
307.329
307.368
307.408
307.45
307.493
307.537
307.583
307.629
307.675
307.722
307.769
307.816
307.864
307.913
307.962
308.012
308.063
308.112
308.137
299.975
299.989
299.919
299.744
299.411
299.009
298.498
297.826
297.053
296.268
295.534
294.89
294.35
293.949
293.679
293.497
293.407
293.398
293.475
293.637
293.882
294.234
294.704
295.297
296.005
296.87
297.618
298.683
299.307
300.088
300.696
301.271
301.633
301.832
301.97
301.803
301.93
301.59
301.641
301.398
301.061
301.05
300.542
300.3
299.835
299.528
299.042
298.66
298.305
297.881
297.488
297.089
296.672
296.623
296.395
296.348
296.156
296.193
296.082
296.233
296.25
296.227
296.598
296.603
296.964
297.044
297.052
297.34
297.377
297.64
297.704
297.927
298.042
298.147
298.288
298.406
298.522
298.637
298.731
298.814
298.967
299.081
299.181
299.258
299.385
299.486
299.571
299.615
299.645
299.808
299.924
300.008
300.047
300.069
300.192
300.291
300.352
300.396
300.459
300.512
300.545
300.57
300.664
300.741
300.791
300.829
300.869
300.904
300.918
300.93
300.92
300.907
300.9
300.895
300.899
300.972
301.024
301.06
301.083
301.099
301.118
301.105
301.107
301.117
301.134
301.165
301.275
301.35
301.443
301.521
301.595
301.66
301.713
301.754
301.788
301.804
301.816
301.803
301.811
301.822
301.835
301.858
301.881
301.917
301.947
301.974
302.002
302.028
302.055
302.075
302.097
302.11
302.128
302.142
302.154
302.168
302.184
302.203
302.224
302.249
302.276
302.31
302.343
302.383
302.422
302.464
302.504
302.545
302.585
302.622
302.656
302.686
302.708
302.732
302.754
302.773
302.791
302.808
302.826
302.846
302.866
302.891
302.918
302.949
302.982
303.021
303.062
303.109
303.158
303.212
303.265
303.318
303.368
303.409
303.44
303.467
303.488
303.507
303.521
303.54
303.562
303.589
303.623
303.663
303.708
303.759
303.814
303.874
303.936
303.995
304.052
304.107
304.157
304.194
304.236
304.277
304.312
304.349
304.384
304.419
304.456
304.493
304.532
304.572
304.613
304.656
304.7
304.745
304.79
304.836
304.883
304.929
304.976
305.024
305.072
305.122
305.171
305.223
305.271
305.297
299.75
299.765
299.696
299.489
299.143
298.749
298.251
297.612
296.907
296.198
295.531
294.944
294.456
294.084
293.814
293.619
293.5
293.445
293.453
293.52
293.674
293.931
294.307
294.818
295.291
296.042
296.454
296.958
297.306
297.54
297.561
297.401
297.061
296.395
296.224
295.407
295.415
294.729
294.808
294.454
293.855
293.687
292.999
292.653
292.277
291.865
291.508
291.129
290.932
290.571
290.46
290.362
289.955
290.251
289.779
290.017
289.637
289.995
289.756
290.186
290.274
290.326
290.828
290.837
291.368
291.552
291.596
292.036
292.163
292.524
292.681
292.996
293.201
293.392
293.62
293.817
294.017
294.202
294.385
294.547
294.728
294.896
295.084
295.229
295.38
295.531
295.685
295.79
295.879
296.032
296.185
296.336
296.433
296.514
296.628
296.774
296.887
296.984
297.08
297.173
297.251
297.319
297.409
297.526
297.612
297.682
297.749
297.807
297.853
297.888
297.913
297.943
297.968
297.995
298.01
298.101
298.169
298.215
298.25
298.278
298.307
298.324
298.357
298.376
298.415
298.445
298.558
298.637
298.727
298.807
298.883
298.952
299.01
299.059
299.098
299.124
299.156
299.155
299.172
299.191
299.207
299.236
299.262
299.302
299.335
299.367
299.398
299.43
299.458
299.485
299.508
299.524
299.544
299.559
299.571
299.585
299.6
299.618
299.639
299.664
299.692
299.727
299.761
299.801
299.84
299.883
299.924
299.965
300.006
300.043
300.076
300.105
300.126
300.15
300.172
300.191
300.209
300.226
300.245
300.265
300.286
300.311
300.338
300.369
300.403
300.442
300.483
300.53
300.579
300.633
300.685
300.738
300.787
300.828
300.86
300.888
300.91
300.93
300.946
300.966
300.989
301.017
301.052
301.092
301.137
301.188
301.243
301.303
301.365
301.424
301.481
301.536
301.585
301.625
301.667
301.709
301.745
301.782
301.818
301.855
301.892
301.931
301.97
302.011
302.053
302.097
302.142
302.187
302.233
302.28
302.327
302.375
302.423
302.471
302.52
302.57
302.621
302.673
302.722
302.75
299.526
299.516
299.444
299.214
298.897
298.529
298.037
297.443
296.799
296.15
295.536
294.99
294.532
294.167
293.881
293.65
293.474
293.337
293.237
293.21
293.269
293.425
293.631
293.993
294.19
294.452
294.584
294.554
294.282
293.76
292.959
291.845
291.183
289.871
289.629
288.485
288.279
287.19
286.838
286.297
285.41
284.818
284.135
283.503
283.267
282.613
282.677
282.151
282.556
282.053
282.466
282.706
282.48
283.414
283.088
283.645
283.156
283.767
283.476
284.116
284.195
284.471
284.938
284.93
285.593
285.82
285.887
286.414
286.581
287.009
287.213
287.616
287.894
288.164
288.473
288.746
289.03
289.293
289.555
289.798
290.033
290.259
290.521
290.742
290.95
291.16
291.384
291.565
291.726
291.901
292.098
292.306
292.476
292.624
292.767
292.949
293.116
293.268
293.409
293.545
293.667
293.777
293.891
294.038
294.163
294.272
294.373
294.464
294.547
294.621
294.691
294.765
294.832
294.894
294.939
295.038
295.124
295.186
295.241
295.291
295.34
295.392
295.45
295.496
295.551
295.594
295.711
295.796
295.892
295.981
296.066
296.144
296.214
296.277
296.332
296.378
296.426
296.448
296.478
296.508
296.537
296.573
296.607
296.654
296.696
296.737
296.777
296.816
296.852
296.887
296.916
296.938
296.961
296.977
296.991
297.009
297.027
297.049
297.074
297.105
297.138
297.178
297.217
297.263
297.307
297.354
297.401
297.447
297.491
297.532
297.566
297.598
297.622
297.649
297.674
297.696
297.718
297.738
297.761
297.784
297.808
297.836
297.866
297.901
297.937
297.979
298.023
298.072
298.123
298.18
298.234
298.289
298.34
298.383
298.418
298.45
298.474
298.499
298.518
298.542
298.567
298.599
298.636
298.678
298.726
298.779
298.835
298.897
298.959
299.02
299.079
299.135
299.187
299.23
299.274
299.318
299.356
299.396
299.435
299.474
299.514
299.554
299.596
299.639
299.683
299.729
299.775
299.823
299.871
299.92
299.969
300.018
300.068
300.118
300.169
300.221
300.273
300.327
300.378
300.408
299.292
299.251
299.173
298.94
298.667
298.328
297.855
297.307
296.712
296.111
295.538
295.02
294.572
294.193
293.869
293.579
293.312
293.061
292.864
292.729
292.659
292.627
292.61
292.598
292.529
292.318
291.876
291.145
290.029
288.543
287.219
285.437
284.808
283.033
282.493
280.564
280.05
278.196
277.603
276.507
275.986
274.694
274.602
273.275
273.957
272.668
273.759
272.848
274.114
273.486
274.701
274.906
275.401
276.547
276.258
277.372
277.097
277.95
277.641
278.492
278.476
279.126
279.506
279.442
280.212
280.433
280.5
281.063
281.2
281.652
281.824
282.26
282.53
282.84
283.17
283.45
283.778
284.074
284.381
284.667
284.944
285.205
285.53
285.811
286.081
286.346
286.633
286.889
287.127
287.349
287.592
287.859
288.095
288.31
288.51
288.728
288.945
289.155
289.356
289.544
289.723
289.884
290.038
290.223
290.391
290.546
290.696
290.828
290.953
291.077
291.196
291.312
291.42
291.517
291.601
291.708
291.813
291.895
291.973
292.052
292.133
292.222
292.307
292.386
292.461
292.53
292.654
292.753
292.86
292.965
293.066
293.161
293.251
293.335
293.414
293.49
293.557
293.603
293.647
293.692
293.74
293.79
293.84
293.899
293.957
294.012
294.067
294.118
294.166
294.211
294.248
294.276
294.303
294.328
294.353
294.38
294.408
294.439
294.473
294.512
294.554
294.603
294.655
294.71
294.764
294.821
294.875
294.93
294.981
295.027
295.068
295.107
295.138
295.171
295.203
295.231
295.26
295.287
295.316
295.345
295.376
295.41
295.446
295.485
295.527
295.574
295.624
295.678
295.735
295.796
295.855
295.914
295.97
296.017
296.058
296.095
296.125
296.155
296.18
296.209
296.24
296.276
296.317
296.364
296.416
296.472
296.532
296.597
296.662
296.727
296.789
296.848
296.904
296.952
297
297.047
297.089
297.133
297.175
297.218
297.261
297.305
297.351
297.397
297.445
297.494
297.543
297.594
297.645
297.697
297.748
297.801
297.853
297.907
297.96
298.015
298.07
298.126
298.18
298.213
299.061
298.984
298.892
298.695
298.47
298.144
297.701
297.194
296.642
296.078
295.533
295.028
294.572
294.158
293.774
293.392
293.008
292.656
292.343
292.003
291.728
291.452
291.173
290.812
290.245
289.408
288.199
286.593
284.708
282.389
281.138
278.876
277.846
275.358
274.019
271.561
270.18
268.173
266.839
265.623
265.255
263.21
263.976
261.91
263.806
262.563
264.722
263.845
266.054
265.532
267.675
267.586
269.245
270.141
269.951
271.452
271.451
272.759
272.522
273.535
273.465
274.469
274.794
274.703
275.542
275.747
275.885
276.424
276.507
276.979
277.086
277.522
277.717
278.054
278.328
278.562
278.868
279.117
279.412
279.655
279.928
280.173
280.504
280.756
281.058
281.341
281.647
281.929
282.211
282.479
282.747
283.056
283.334
283.604
283.861
284.113
284.37
284.644
284.9
285.143
285.377
285.595
285.801
286.024
286.239
286.447
286.646
286.824
286.993
287.159
287.303
287.434
287.575
287.724
287.865
288.001
288.141
288.259
288.374
288.49
288.605
288.717
288.825
288.952
289.069
289.177
289.323
289.446
289.571
289.701
289.826
289.943
290.06
290.174
290.281
290.392
290.473
290.538
290.6
290.663
290.735
290.812
290.887
290.968
291.046
291.122
291.195
291.263
291.323
291.379
291.427
291.47
291.513
291.556
291.599
291.643
291.688
291.735
291.785
291.838
291.894
291.955
292.018
292.088
292.158
292.229
292.295
292.362
292.421
292.479
292.533
292.584
292.627
292.672
292.714
292.753
292.793
292.83
292.869
292.908
292.948
292.991
293.036
293.084
293.135
293.19
293.248
293.31
293.375
293.443
293.51
293.575
293.637
293.692
293.74
293.786
293.824
293.861
293.893
293.929
293.967
294.01
294.057
294.11
294.167
294.229
294.294
294.364
294.434
294.503
294.57
294.634
294.696
294.75
294.803
294.855
294.903
294.952
294.999
295.047
295.095
295.144
295.194
295.245
295.297
295.35
295.404
295.459
295.514
295.57
295.626
295.682
295.739
295.796
295.853
295.912
295.971
296.03
296.087
296.125
298.84
298.735
298.629
298.481
298.298
297.983
297.573
297.103
296.585
296.047
295.517
295.012
294.532
294.06
293.591
293.092
292.595
292.036
291.525
291.04
290.527
290.013
289.332
288.445
287.233
285.632
283.507
281.064
278.918
276.128
274.67
271.599
269.838
266.542
264.616
261.283
259.26
256.565
255.5
253.954
254.417
252.141
254.411
252.937
255.665
254.336
257.619
256.476
259.594
258.461
261.184
260.541
263.279
264.233
264.287
266.305
266.507
268.111
268.139
269.307
269.296
270.496
270.813
270.77
271.665
271.757
272.227
272.636
272.677
273.197
273.262
273.708
273.838
274.201
274.426
274.603
274.872
275.055
275.3
275.476
275.701
275.871
276.141
276.312
276.587
276.799
277.06
277.285
277.535
277.77
278.008
278.288
278.532
278.81
279.071
279.328
279.596
279.896
280.173
280.45
280.719
280.979
281.232
281.487
281.741
282
282.236
282.461
282.635
282.793
282.942
283.111
283.279
283.46
283.66
283.86
284.056
284.226
284.384
284.517
284.636
284.781
284.937
285.098
285.289
285.461
285.655
285.823
285.986
286.154
286.314
286.467
286.613
286.769
286.902
287.048
287.153
287.246
287.334
287.423
287.511
287.6
287.693
287.798
287.9
287.999
288.089
288.176
288.256
288.338
288.414
288.483
288.55
288.618
288.686
288.754
288.822
288.892
288.964
289.038
289.114
289.193
289.274
289.358
289.442
289.527
289.611
289.693
289.771
289.847
289.919
289.987
290.047
290.108
290.165
290.22
290.274
290.326
290.379
290.432
290.486
290.542
290.6
290.661
290.724
290.791
290.861
290.934
291.009
291.087
291.163
291.237
291.309
291.374
291.432
291.488
291.536
291.582
291.625
291.67
291.717
291.768
291.824
291.884
291.949
292.019
292.091
292.167
292.244
292.32
292.394
292.464
292.533
292.595
292.655
292.713
292.768
292.823
292.877
292.931
292.985
293.04
293.096
293.153
293.21
293.269
293.329
293.389
293.449
293.51
293.571
293.632
293.694
293.756
293.818
293.881
293.945
294.008
294.07
294.113
298.644
298.511
298.413
298.31
298.146
297.85
297.473
297.034
296.54
296.018
295.489
294.971
294.457
293.887
293.286
292.58
291.915
291.276
290.586
289.868
289.107
288.171
286.945
285.423
283.447
281.048
278.066
275.085
272.933
269.505
267.381
263.55
260.885
257.223
253.87
250.617
248.195
246.219
244.567
242.917
243.044
241.734
243.698
242.7
245.946
245.232
249.69
248.73
253.022
252.03
255.997
255.316
259.024
260.16
260.128
262.479
262.249
264.084
264.161
265.676
265.829
267.116
267.496
267.563
268.461
268.443
269.284
269.604
269.609
270.202
270.248
270.722
270.829
271.225
271.435
271.582
271.838
271.974
272.197
272.315
272.516
272.631
272.843
272.962
273.193
273.341
273.54
273.69
273.885
274.042
274.21
274.394
274.538
274.773
274.94
275.129
275.317
275.55
275.753
275.984
276.208
276.432
276.657
276.889
277.127
277.38
277.606
277.817
277.957
278.162
278.36
278.588
278.809
279.04
279.237
279.439
279.663
279.847
280.003
280.17
280.356
280.563
280.784
281.001
281.214
281.466
281.705
281.929
282.146
282.362
282.567
282.766
282.949
283.147
283.297
283.458
283.601
283.73
283.849
283.968
284.082
284.194
284.307
284.425
284.545
284.665
284.784
284.896
285.004
285.115
285.221
285.32
285.416
285.513
285.608
285.704
285.799
285.895
285.992
286.091
286.19
286.291
286.394
286.498
286.602
286.706
286.809
286.91
287.006
287.103
287.195
287.283
287.363
287.444
287.52
287.594
287.667
287.737
287.808
287.879
287.95
288.024
288.099
288.176
288.255
288.338
288.423
288.51
288.599
288.69
288.778
288.864
288.947
289.025
289.095
289.164
289.224
289.284
289.339
289.397
289.456
289.519
289.585
289.656
289.731
289.81
289.892
289.976
290.062
290.147
290.229
290.307
290.386
290.457
290.526
290.592
290.655
290.719
290.781
290.843
290.905
290.968
291.031
291.095
291.16
291.225
291.291
291.358
291.425
291.492
291.559
291.627
291.694
291.762
291.83
291.899
291.969
292.037
292.105
292.153
298.488
298.329
298.255
298.181
298.028
297.754
297.403
296.988
296.508
295.99
295.443
294.875
294.288
293.491
292.765
292.007
291.219
290.372
289.471
288.483
287.286
285.837
283.966
281.719
278.854
275.879
272.174
269.083
266.483
262.292
259.265
254.972
251.358
247.147
243.879
240.732
237.85
235.159
232.798
231.117
229.933
229.042
228.888
229.447
231.534
232.879
237.293
238.582
244.686
243.988
249.961
249.031
254.593
255.808
256.48
258.674
258.985
260.924
261.029
262.817
262.915
264.249
264.67
264.92
265.738
265.736
266.796
267.121
267.13
267.806
267.849
268.372
268.486
268.912
269.123
269.263
269.523
269.633
269.854
269.944
270.144
270.231
270.42
270.517
270.725
270.831
271.009
271.12
271.285
271.4
271.523
271.642
271.731
271.905
272.007
272.147
272.257
272.407
272.518
272.683
272.812
272.948
273.076
273.21
273.341
273.492
273.593
273.741
273.835
274.036
274.219
274.443
274.662
274.886
275.068
275.22
275.376
275.513
275.682
275.879
276.107
276.358
276.628
276.892
277.143
277.392
277.673
277.932
278.19
278.443
278.683
278.923
279.138
279.371
279.527
279.718
279.892
280.063
280.217
280.368
280.513
280.654
280.795
280.936
281.079
281.224
281.369
281.509
281.644
281.782
281.916
282.044
282.167
282.292
282.416
282.539
282.661
282.784
282.906
283.029
283.152
283.277
283.402
283.528
283.653
283.778
283.901
284.022
284.137
284.253
284.365
284.474
284.574
284.675
284.771
284.865
284.959
285.05
285.141
285.232
285.323
285.416
285.509
285.605
285.702
285.802
285.903
286.007
286.112
286.218
286.32
286.42
286.516
286.609
286.694
286.779
286.854
286.929
287
287.073
287.147
287.224
287.304
287.389
287.476
287.569
287.662
287.757
287.853
287.948
288.041
288.129
288.219
288.301
288.381
288.458
288.532
288.606
288.678
288.751
288.823
288.895
288.968
289.041
289.114
289.188
289.263
289.338
289.413
289.488
289.563
289.638
289.714
289.789
289.864
289.94
290.017
290.092
290.166
290.221
298.379
298.201
298.149
298.091
297.955
297.702
297.367
296.955
296.465
295.934
295.331
294.649
293.94
293.115
292.292
291.368
290.37
289.306
288.152
286.728
285.013
282.979
280.365
277.33
273.437
270.436
266.203
262.886
259.264
254.727
250.741
246.164
241.97
238.122
234.637
231.259
228.23
225.343
222.803
220.354
218.072
215.922
213.981
212.24
210.742
209.6
208.756
209.026
217.211
223.178
233.463
236.783
246.522
249.506
252.133
254.552
255.949
257.76
258.379
260.208
260.764
261.87
262.094
263.048
263.564
263.569
264.765
265.093
265.113
265.879
265.919
266.506
266.64
267.082
267.302
267.451
267.714
267.805
268.038
268.112
268.319
268.392
268.579
268.67
268.859
268.95
269.125
269.214
269.372
269.451
269.587
269.674
269.737
269.879
269.944
270.082
270.16
270.271
270.349
270.476
270.558
270.658
270.727
270.803
270.864
270.929
270.963
271.059
271.085
271.253
271.376
271.533
271.696
271.839
271.96
272.036
272.11
272.162
272.269
272.412
272.592
272.802
273.035
273.267
273.487
273.677
273.883
274.102
274.34
274.584
274.811
275.056
275.254
275.476
275.661
275.897
276.107
276.332
276.53
276.72
276.901
277.075
277.248
277.416
277.586
277.757
277.929
278.096
278.258
278.422
278.582
278.737
278.887
279.039
279.19
279.339
279.487
279.635
279.782
279.929
280.075
280.222
280.369
280.515
280.66
280.803
280.944
281.082
281.215
281.349
281.479
281.607
281.726
281.846
281.961
282.075
282.188
282.299
282.409
282.519
282.628
282.739
282.849
282.962
283.075
283.191
283.309
283.428
283.55
283.67
283.787
283.901
284.01
284.118
284.219
284.32
284.411
284.502
284.59
284.68
284.77
284.863
284.959
285.058
285.16
285.266
285.373
285.48
285.588
285.695
285.8
285.9
286.002
286.097
286.19
286.278
286.365
286.452
286.537
286.621
286.705
286.789
286.873
286.957
287.042
287.127
287.212
287.297
287.382
287.467
287.552
287.637
287.721
287.806
287.89
287.975
288.061
288.144
288.226
288.289
298.328
298.12
298.092
298.043
297.925
297.676
297.34
296.916
296.391
295.815
295.167
294.434
293.639
292.722
291.703
290.577
289.369
288.05
286.498
284.559
282.245
279.551
276.042
272.387
267.786
264.957
260.182
256.183
251.71
246.982
242.466
238.253
234.287
230.409
226.885
223.854
221.055
218.403
215.855
213.466
211.287
209.322
207.557
205.948
204.533
203.254
202.15
201.159
200.56
200.279
200.614
200.777
212.379
226.335
237.148
245.429
250.354
253.358
255.673
257.558
258.628
259.541
260.306
261.022
261.691
262.02
263.008
263.434
263.491
264.323
264.334
264.998
265.137
265.596
265.829
266.002
266.249
266.331
266.582
266.643
266.863
266.932
267.123
267.214
267.388
267.474
267.645
267.725
267.878
267.943
268.088