/*--------------------------------*- C++ -*----------------------------------*\
| =========                 |                                                 |
| \\      /  F ield         | OpenFOAM: The Open Source CFD Toolbox           |
|  \\    /   O peration     | Version:  2312                                  |
|   \\  /    A nd           | Website:  www.openfoam.com                      |
|    \\/     M anipulation  |                                                 |
\*---------------------------------------------------------------------------*/
FoamFile
{
    version     2.0;
    format      ascii;
    arch        "LSB;label=32;scalar=64";
    class       volScalarField;
    location    "0.004";
    object      k;
}
// * * * * * * * * * * * * * * * * * * * * * * * * * * * * * * * * * * * * * //

dimensions      [0 2 -2 0 0 0 0];

internalField   nonuniform List<scalar> 
48128
(
0.345657
0.508089
1.83509
18.1803
82.1002
207.089
351.636
489.239
614.205
724.03
820.003
905.44
982.762
1053.65
1120.76
1185.79
1249.28
1311.9
1374.35
1437.17
1503.14
1573.61
1649.9
1727.04
1813.79
1905.79
2006.57
2113.3
2228.27
2359.13
2499.06
2651.29
2817.44
2972.46
3118.72
3245.04
3354.92
3413.62
3453.97
3460.72
3426.03
3454.47
3502.72
3577.86
3637.56
3656.21
3648.72
3625.54
3588.06
3549.67
3506.19
3463.49
3412.65
3356.3
3290.39
3227.57
3161.28
3101.13
3038.53
2972.78
2914.99
2852.5
2790.32
2732.54
2673.21
2622.37
2570.19
2523.33
2475.75
2431.12
2389.31
2347.98
2309.93
2272.89
2238.27
2206.07
2174.46
2146.34
2118.05
2094.12
2070.58
2047.64
2023.51
2005.16
1986.89
1967.9
1950.67
1933.06
1921.83
1909.53
1895.61
1881.58
1867.21
1858.99
1849.92
1839.47
1827.72
1819.67
1811.42
1803.28
1794.37
1789.64
1784.15
1777.64
1770.43
1765.35
1760.23
1754.85
1750.21
1745.61
1741.59
1737.45
1734.57
1731.56
1730
1728.35
1726.28
1724.01
1721.7
1719.24
1716.61
1713.92
1711.59
1710.24
1708.64
1708.42
1707.6
1706.22
1704.36
1702.21
1699.68
1696.94
1694.12
1691.24
1688.37
1685.6
1683.24
1681.42
1680.42
1679.55
1679.17
1678.68
1678.17
1677.4
1676.35
1675.15
1673.87
1672.59
1671.25
1669.97
1668.72
1667.57
1666.6
1665.62
1664.86
1664.1
1663.48
1662.83
1662.17
1661.44
1660.67
1659.8
1658.84
1657.79
1656.66
1655.44
1654.17
1652.85
1651.61
1650.3
1649.13
1648.11
1647.18
1646.47
1645.89
1645.41
1645.04
1644.74
1644.54
1644.32
1644.14
1643.93
1643.67
1643.33
1642.91
1642.39
1641.77
1641.04
1640.21
1639.26
1638.21
1637.08
1635.91
1634.69
1633.63
1632.87
1632.4
1632.08
1632.09
1632.15
1632.27
1632.37
1632.33
1632.17
1631.82
1631.27
1630.53
1629.61
1628.53
1627.33
1626.08
1625
1623.78
1622.77
1622.19
1621.58
1621.2
1620.83
1620.56
1620.29
1620.02
1619.72
1619.39
1619.01
1618.56
1618.06
1617.5
1616.89
1616.24
1615.56
1614.86
1614.15
1613.45
1612.74
1612.05
1611.33
1610.62
1609.9
1608.89
1608.27
0.945388
2.27418
10.3939
42.4503
121.767
251.185
404.079
556.931
708.163
855.925
1001.66
1146.47
1291.64
1441.93
1600.76
1769.95
1953.54
2153.28
2373.04
2614.71
2883.66
3174.21
3504.82
3851.05
4231.59
4635.59
5065.22
5512.94
5957.39
6428.6
6916.22
7405.97
7892.13
8359.93
8815.34
9218.1
9588.73
9842.45
10049
10172.7
10205.9
10249.7
10267.7
10246.7
10166.1
10022.8
9835.45
9615.54
9377.21
9139.82
8896.99
8658.98
8411.99
8162.2
7906.15
7663.49
7416
7181.48
6945.93
6709.13
6488.08
6266.29
6052.19
5849.51
5650.18
5465.87
5286.89
5116.85
4952.6
4795.69
4646.96
4504.3
4369.66
4241.79
4121.38
4007.4
3899.52
3799.41
3701.61
3612.92
3532.86
3454.81
3375.98
3303.19
3239.56
3175.29
3113.43
3051.4
2997.17
2951.3
2903.58
2855.17
2806.28
2763.12
2727.81
2690.75
2652.52
2614.92
2582.1
2550.11
2517.76
2487.59
2463.02
2437.59
2411.7
2385.96
2363.4
2340.81
2318.82
2297.46
2275.97
2254.92
2233.53
2214.19
2195.27
2179.41
2164.97
2151.02
2138.26
2125.89
2113.17
2100.04
2086.61
2074.1
2062.22
2051.54
2044.06
2036.85
2030.54
2024.77
2019.03
2013.06
2006.75
2000.09
1993
1985.34
1977.14
1968.77
1960.34
1952.55
1944.72
1937.78
1930.9
1924.83
1918.87
1913.37
1907.81
1902.74
1897.78
1892.73
1887.93
1883.07
1878.48
1873.9
1869.47
1865.15
1861.07
1857.12
1853.54
1850.04
1846.94
1843.94
1841.32
1838.78
1836.6
1834.5
1832.66
1830.77
1829.12
1827.42
1825.63
1823.8
1821.86
1819.89
1817.89
1815.85
1813.8
1811.7
1809.69
1807.66
1805.77
1803.86
1802.24
1800.59
1799.23
1797.86
1796.74
1795.62
1794.73
1793.87
1793.3
1792.7
1792.13
1791.42
1790.46
1789.34
1788.02
1786.53
1784.93
1783.3
1781.62
1780.06
1778.73
1777.53
1776.52
1775.66
1775.06
1774.53
1774.28
1774.03
1773.7
1773.37
1772.85
1772.08
1771.25
1770.33
1769.29
1768.19
1767.04
1765.86
1764.65
1763.49
1762.33
1761.26
1760.2
1759.25
1758.32
1757.48
1756.65
1755.9
1755.16
1754.48
1753.79
1753.14
1752.49
1751.88
1751.24
1750.67
1749.89
1748.75
2.6198
11.3999
38.3745
111.225
253.369
473.1
744.242
1025.28
1304.45
1574.69
1835.74
2089.75
2339.13
2588.12
2842.45
3104.49
3381.72
3676.5
3994.32
4337.99
4713.39
5117.53
5553.67
6016.74
6512.37
7039.25
7590.78
8174.82
8790.77
9433.67
10101.2
10767.4
11426.6
12046.6
12646.1
13157
13615
13912.5
14114.6
14209
14193.5
14131.7
14002.7
13807.6
13560.5
13265.5
12939.2
12587.9
12229.2
11870.5
11511.6
11157.5
10801.6
10445.9
10083.2
9734.91
9384.49
9051.64
8724.64
8405.41
8099.09
7805.74
7522.59
7252.27
6992.13
6746.3
6510.71
6285.98
6070.88
5864.79
5669.06
5481.91
5304.63
5136.42
4977.16
4826.35
4683.36
4549.4
4419.86
4298.88
4190.93
4085.17
3980.45
3880.48
3792.63
3706.19
3620.93
3538.88
3459.69
3394.78
3328.65
3261.58
3196.6
3132.83
3081.32
3028.84
2975.7
2922.62
2875.6
2829.63
2784.21
2739.69
2702.15
2664.07
2626.11
2588.26
2554.21
2520.65
2487.86
2456.06
2424.26
2393.25
2361.94
2332.63
2303.73
2278
2253.52
2229.96
2207.85
2186.86
2165.96
2144.83
2123.91
2103.67
2084.83
2066.11
2051.05
2036.27
2022.92
2010.48
1998.96
1987.86
1977
1966.15
1955.12
1943.62
1931.6
1919.43
1907.09
1895.34
1883.43
1872.58
1861.74
1851.83
1842.01
1832.78
1823.49
1814.76
1806.29
1797.73
1789.51
1781.33
1773.42
1765.7
1758.02
1750.67
1743.42
1736.57
1729.9
1723.58
1717.58
1711.82
1706.52
1701.36
1696.67
1692.09
1687.88
1683.69
1679.81
1675.97
1672.06
1668.21
1664.29
1660.41
1656.55
1652.69
1648.86
1645.02
1641.26
1637.57
1633.96
1630.49
1627.2
1624.02
1621.09
1618.23
1615.7
1613.15
1610.95
1608.75
1606.93
1605.12
1603.45
1601.71
1599.73
1597.64
1595.43
1593.07
1590.6
1588.1
1585.57
1583.09
1580.86
1578.77
1576.87
1575.18
1573.71
1572.44
1571.37
1570.46
1569.51
1568.6
1567.63
1566.38
1565.09
1563.74
1562.29
1560.8
1559.25
1557.68
1556.08
1554.52
1552.95
1551.48
1550.02
1548.67
1547.35
1546.13
1544.95
1543.85
1542.78
1541.78
1540.8
1539.89
1538.98
1538.14
1537.3
1536.53
1535.63
1534.18
7.8357
33.703
97.0904
238.74
487.91
845.11
1246.01
1635.88
1998.28
2334.58
2652.65
2959.09
3258.4
3555.91
3857.3
4165.67
4489.53
4832.77
5202
5598.83
6029.84
6496.63
7003.89
7552.16
8141.43
8772.18
9436.29
10140.4
10885.6
11652.8
12446.3
13228.6
13990.5
14687.1
15333.2
15858.8
16277.3
16522
16624.9
16606
16492.2
16275.4
15985.7
15623.3
15219.6
14783.1
14341.1
13888
13451.4
13005.8
12576.3
12143.6
11731.9
11321.4
10911.3
10514.9
10127.1
9755.03
9396.66
9053.71
8718.28
8408.71
8107.82
7820.59
7548.02
7285.03
7036.95
6797.25
6569.82
6350.8
6142.32
5943.4
5754.38
5575.6
5405.54
5243.66
5090.54
4945.81
4806.88
4673.6
4556.4
4441.29
4328.12
4217.07
4119.72
4025.14
3930.76
3840.42
3748.86
3675.76
3602.32
3527.96
3455.41
3381.51
3322.28
3263
3203.16
3142.64
3088.44
3035.71
2983.84
2931.4
2887.36
2843.1
2799.24
2755.03
2714.83
2675.55
2636.97
2599.47
2562.06
2525.55
2488.76
2454.13
2419.87
2389.14
2359.49
2330.85
2303.62
2277.65
2252.01
2226.12
2200.7
2175.84
2152.86
2129.46
2110.02
2090.79
2073.33
2056.83
2041.38
2026.5
2011.99
1997.7
1983.49
1968.98
1954.03
1939.09
1924.03
1909.65
1895.1
1881.57
1868.09
1855.52
1843.03
1831.18
1819.31
1808.04
1797.12
1786.1
1775.49
1764.99
1754.75
1744.8
1734.87
1725.37
1715.94
1707.01
1698.2
1689.84
1681.76
1674
1666.68
1659.6
1652.96
1646.51
1640.44
1634.45
1628.81
1623.28
1617.68
1612.24
1606.76
1601.41
1596.1
1590.87
1585.66
1580.52
1575.43
1570.49
1565.59
1560.91
1556.36
1551.98
1547.82
1543.79
1540.07
1536.4
1533.1
1529.82
1526.93
1524.04
1521.41
1518.68
1515.82
1512.92
1509.94
1506.86
1503.72
1500.54
1497.35
1494.24
1491.22
1488.46
1485.85
1483.46
1481.26
1479.29
1477.5
1475.92
1474.31
1472.85
1471.35
1469.65
1467.94
1466.19
1464.36
1462.52
1460.62
1458.72
1456.79
1454.9
1453.01
1451.21
1449.42
1447.74
1446.09
1444.54
1443.02
1441.6
1440.22
1438.93
1437.66
1436.48
1435.32
1434.24
1433.16
1432.18
1431.11
1429.45
18.2124
73.9159
192.099
425.832
801.546
1271.65
1725.68
2142.35
2530.41
2896.44
3246.78
3586.05
3918.51
4248.56
4581.3
4922.49
5279.42
5657.21
6064.04
6503.96
6985.6
7513.86
8091.37
8719.93
9397.46
10126.9
10891.1
11692.5
12534.3
13386.9
14253.7
15089.4
15875
16556.4
17123
17542.9
17764.6
17821.2
17740
17546.9
17265.5
16856.2
16385.6
15856.1
15305.9
14742.6
14177.8
13626.9
13110.3
12586.5
12114.5
11632
11214.3
10794.3
10411.3
10025.2
9674.78
9328.68
9008.88
8708.57
8405.12
8140.06
7876.2
7628.48
7391.68
7154.85
6936.54
6717.4
6513.13
6311.99
6121.53
5938.89
5763.5
5598.18
5439.53
5288.08
5144.24
5008
4877.58
4748.16
4636.35
4527.16
4419.52
4310.88
4215.38
4123.57
4032.08
3942.5
3850.11
3776.11
3704.27
3631.6
3558.71
3483.32
3422.29
3363.13
3303.18
3241.92
3185.89
3131.97
3078.55
3023.59
2977.17
2932.02
2886.79
2840.86
2798.42
2757.21
2716.68
2677.03
2637.66
2599.17
2560.3
2523.75
2486.9
2454.15
2422.46
2391.77
2362.35
2334.15
2306.4
2278.41
2250.96
2223.79
2198.61
2172.72
2151
2129.63
2110.04
2091.3
2073.57
2056.4
2039.73
2023.3
2007.14
1990.76
1973.99
1957.3
1940.5
1924.53
1908.41
1893.29
1878.27
1864.18
1850.21
1836.83
1823.5
1810.73
1798.32
1785.86
1773.78
1761.81
1750.15
1738.81
1727.48
1716.65
1705.84
1695.61
1685.45
1675.81
1666.39
1657.36
1648.69
1640.34
1632.4
1624.68
1617.35
1610.14
1603.24
1596.52
1589.75
1583.21
1576.6
1570.21
1563.87
1557.65
1551.45
1545.39
1539.35
1533.52
1527.7
1522.14
1516.69
1511.47
1506.43
1501.55
1496.97
1492.48
1488.37
1484.28
1480.59
1476.87
1473.48
1470
1466.44
1462.87
1459.28
1455.63
1451.93
1448.24
1444.55
1440.91
1437.38
1434.11
1430.96
1428.06
1425.29
1422.79
1420.43
1418.32
1416.17
1414.23
1412.29
1410.21
1408.1
1406.01
1403.86
1401.71
1399.52
1397.35
1395.15
1393.01
1390.87
1388.82
1386.79
1384.85
1382.95
1381.15
1379.38
1377.71
1376.08
1374.55
1373.05
1371.65
1370.27
1368.99
1367.72
1366.55
1365.35
1363.48
34.7031
131.833
320.548
654.068
1137.08
1624.43
2081.57
2506.54
2906.95
3290.18
3660.56
4021.64
4377.05
4730.82
5087.05
5454.11
5836
6241.14
6679.55
7157.28
7683.85
8267.07
8906.04
9605.05
10357.3
11167.7
12008.1
12872.8
13767.4
14651.7
15513
16303.8
16997.9
17536.5
17902.9
18111.9
18039
17835.2
17393.3
16795
16120.7
15376.5
14585.3
13816.9
13030.7
12363.4
11683.1
11111
10554.8
10034.3
9603.28
9160.3
8826.78
8486.97
8219.81
7941.58
7716.18
7484.32
7288.3
7105.17
6914.75
6762.6
6606.97
6464.34
6327.15
6183.44
6049.04
5909.32
5778
5644.75
5516.07
5391.48
5268.08
5150.19
5032.7
4920.04
4809.26
4705.26
4602.88
4498.23
4407.28
4320.55
4232.32
4141.51
4060.02
3983.41
3906.43
3828.75
3747.88
3681.64
3620.03
3557.06
3492.6
3425.02
3368.76
3315.98
3262.07
3206.65
3154.63
3104.86
3055.11
3003.41
2959.25
2917.25
2874.8
2831.57
2790.83
2751.47
2712.72
2674.41
2636.63
2599.45
2561.9
2526.2
2489.8
2457.74
2426.68
2396.63
2367.47
2339.38
2311.8
2284.16
2256.89
2229.5
2204.01
2177.72
2155.67
2133.98
2113.9
2094.47
2076.01
2058.08
2040.6
2023.36
2006.38
1989.33
1971.89
1954.48
1936.98
1920.4
1903.65
1887.95
1872.3
1857.59
1843.14
1829.14
1815.27
1801.84
1788.76
1775.74
1763
1750.35
1738.02
1726.05
1714.06
1702.59
1691.11
1680.23
1669.38
1659.08
1648.92
1639.22
1629.79
1620.74
1612.04
1603.58
1595.5
1587.56
1579.87
1572.41
1564.97
1557.73
1550.41
1543.37
1536.35
1529.51
1522.68
1516.02
1509.37
1502.97
1496.55
1490.44
1484.4
1478.62
1473.02
1467.58
1462.47
1457.42
1452.76
1448.11
1443.87
1439.58
1435.64
1431.64
1427.59
1423.5
1419.49
1415.42
1411.31
1407.25
1403.19
1399.2
1395.34
1391.73
1388.21
1384.93
1381.77
1378.89
1376.12
1373.63
1371.1
1368.79
1366.52
1364.13
1361.72
1359.36
1356.96
1354.58
1352.18
1349.81
1347.41
1345.1
1342.78
1340.56
1338.35
1336.25
1334.18
1332.21
1330.27
1328.42
1326.62
1324.92
1323.26
1321.71
1320.18
1318.75
1317.34
1316.03
1314.74
1312.72
56.611
203.757
471.453
896.446
1404.82
1884.19
2333.69
2755.29
3158.19
3548.2
3928.38
4302.64
4673.96
5045.38
5419.3
5804.33
6204.36
6630.28
7093.36
7601.28
8163.37
8789.49
9478.12
10233.4
11038.8
11900.8
12782.5
13654.3
14538
15385.9
16143.5
16810.4
17277.7
17547.8
17410.1
17066.7
16415.8
15591.7
14557.3
13471.1
12316.1
11341.8
10311.5
9541.52
8748.76
8166.15
7568.73
7116.69
6681.81
6303.71
6007.85
5707.51
5510.7
5308.46
5173.1
5031.27
4934.32
4833.41
4760.76
4699.34
4634.84
4596.27
4555.65
4522.76
4491.94
4455.9
4427.27
4395.43
4365.45
4332.84
4298.56
4262.47
4223.58
4182.95
4139.7
4095.14
4048.34
4000.03
3949.11
3894.53
3841.89
3792.63
3741.46
3687.14
3634.73
3585.63
3535.09
3482.23
3426.1
3377.01
3333.81
3289
3241.63
3191.21
3146.51
3106.15
3064.84
3021.9
2979.92
2939.77
2899.35
2857.4
2820.09
2785.48
2750.42
2714.65
2679.85
2646.4
2613.23
2580.16
2547.79
2515.47
2482.85
2451.13
2418.76
2389.98
2362.29
2335.3
2308.78
2283.1
2258.2
2233.37
2208.31
2183.16
2159.39
2135.15
2114.36
2093.93
2075
2056.5
2038.84
2021.67
2004.78
1988.16
1971.57
1955.2
1938.34
1921.48
1904.53
1888.41
1872.14
1856.86
1841.58
1827.2
1813.18
1799.42
1785.91
1772.59
1759.72
1746.95
1734.36
1721.82
1709.61
1697.72
1685.8
1674.39
1662.94
1652.04
1641.15
1630.78
1620.51
1610.7
1601.12
1591.86
1582.97
1574.24
1565.92
1557.7
1549.75
1541.98
1534.32
1526.78
1519.16
1511.88
1504.56
1497.47
1490.37
1483.45
1476.54
1469.88
1463.21
1456.83
1450.56
1444.51
1438.66
1432.95
1427.57
1422.24
1417.29
1412.35
1407.79
1403.2
1398.94
1394.66
1390.34
1385.95
1381.68
1377.36
1373.01
1368.76
1364.49
1360.34
1356.31
1352.5
1348.77
1345.29
1341.9
1338.81
1335.8
1333.08
1330.32
1327.78
1325.31
1322.72
1320.12
1317.6
1315.04
1312.52
1309.98
1307.51
1305.01
1302.6
1300.19
1297.88
1295.6
1293.41
1291.26
1289.2
1287.17
1285.24
1283.35
1281.56
1279.81
1278.17
1276.56
1275.05
1273.57
1272.18
1270.83
1268.75
82.2207
283.132
628.623
1107.63
1601.71
2065.02
2499.5
2910.48
3306.88
3694.31
4076.54
4457.06
4837.88
5220.28
5604.86
6000.02
6411.07
6849.61
7329.2
7858.29
8443.19
9100.87
9822.66
10612.7
11441.1
12305.3
13189.8
14016.6
14824.1
15559
16089.5
16393.1
16252.5
15852.5
15037.4
13906.7
12589.3
11230.8
9924.11
8855.25
7736.45
6922.46
6083.55
5505.54
4915.91
4507.49
4101.12
3809.19
3544.58
3324.72
3155.53
2994.45
2895.68
2796.24
2735.86
2676.67
2645.1
2616.28
2602.46
2598.73
2601.69
2612.33
2626.24
2644.42
2664.99
2684.64
2708.92
2734.88
2763.98
2791.98
2820.3
2848.78
2871.53
2894.76
2912.3
2928.94
2940.5
2948.56
2954.52
2954.08
2952.13
2949.78
2945.77
2938.21
2928.43
2917.78
2905.55
2890.36
2871.5
2851.37
2833.58
2815.12
2794.18
2770.37
2745.91
2724.17
2702.39
2679.05
2654.94
2630.71
2605.71
2579.39
2554.16
2531.26
2508.09
2484.03
2459.64
2435.94
2412.17
2388.37
2364.61
2340.56
2316.11
2291.7
2266.91
2244
2222.24
2200.72
2179.58
2158.77
2138.98
2119
2098.74
2078.26
2058.39
2038.31
2020.5
2002.96
1986.87
1970.91
1955.59
1940.6
1925.87
1911.3
1896.72
1882.26
1867.45
1852.5
1837.43
1823
1808.45
1794.58
1780.79
1767.7
1754.99
1742.44
1730.12
1717.92
1706.07
1694.36
1682.78
1671.18
1659.86
1648.83
1637.75
1627.09
1616.4
1606.13
1595.9
1586.03
1576.32
1566.93
1557.82
1548.87
1540.32
1531.85
1523.79
1515.77
1508.06
1500.46
1493.03
1485.65
1478.2
1471.05
1463.88
1456.9
1449.93
1443.11
1436.33
1429.75
1423.19
1416.86
1410.69
1404.67
1398.89
1393.2
1387.83
1382.51
1377.55
1372.58
1367.97
1363.33
1358.99
1354.67
1350.31
1345.88
1341.54
1337.19
1332.81
1328.54
1324.27
1320.12
1316.08
1312.26
1308.5
1304.98
1301.54
1298.4
1295.32
1292.53
1289.7
1287.07
1284.53
1281.88
1279.21
1276.64
1274.04
1271.5
1268.95
1266.46
1263.96
1261.55
1259.15
1256.85
1254.57
1252.4
1250.26
1248.2
1246.18
1244.25
1242.35
1240.56
1238.81
1237.16
1235.54
1234.03
1232.54
1231.16
1229.8
1227.75
109.765
364.452
774.207
1264.41
1738.35
2180.34
2594.25
2987.99
3370.74
3748.64
4126.32
4506.38
4889.66
5275.62
5663.66
6061.72
6476.3
6919.5
7407.56
7950.14
8548.42
9222.07
9954.77
10749.8
11578.8
12409.1
13250.2
13969.5
14551.5
14957.9
14909
14600.1
13800.8
12611.1
11174.3
9644.57
8275.5
7012.05
5906.82
5066.24
4249.8
3687.56
3157.51
2802.12
2465.05
2236.91
2024.01
1874.26
1741.4
1637.23
1551.35
1477.9
1429.78
1381.27
1350.2
1318.61
1301.48
1284.9
1277.82
1277.19
1282.21
1292.28
1306.26
1325.57
1348.56
1374.75
1405.6
1439.02
1476.36
1515.38
1557.21
1600.2
1643.62
1688.51
1730.47
1773.52
1811.84
1850.36
1886.54
1921.04
1950.28
1979.77
2008.3
2034.64
2057.07
2078.41
2098.22
2115.82
2129.38
2138.95
2148.68
2157.43
2165.94
2170.45
2172.25
2174.15
2176.89
2176.87
2175.77
2173.45
2169.62
2163.63
2156.65
2149.49
2142.19
2133.79
2124.44
2114.5
2104.15
2093.43
2082.31
2070.8
2058.56
2045.49
2031.43
2017.51
2004.17
1990.72
1977.61
1964.36
1951.68
1938.71
1925.36
1911.51
1897.5
1883.21
1870.26
1857.22
1845.5
1833.66
1822.31
1810.97
1799.98
1788.89
1777.88
1766.76
1755.44
1743.73
1731.83
1720.26
1708.62
1697.3
1686.11
1675.35
1664.89
1654.56
1644.34
1634.23
1624.29
1614.5
1604.8
1595.02
1585.41
1576.01
1566.56
1557.35
1548.15
1539.19
1530.3
1521.59
1513.05
1504.69
1496.59
1488.56
1480.89
1473.24
1465.98
1458.69
1451.7
1444.79
1438.06
1431.34
1424.55
1417.95
1411.37
1404.92
1398.51
1392.19
1385.93
1379.8
1373.73
1367.81
1362.07
1356.42
1351.01
1345.66
1340.61
1335.58
1330.89
1326.18
1321.79
1317.37
1313.21
1309.09
1304.92
1300.71
1296.54
1292.4
1288.22
1284.15
1280.07
1276.13
1272.27
1268.63
1265.03
1261.67
1258.35
1255.33
1252.34
1249.64
1246.89
1244.34
1241.87
1239.31
1236.72
1234.24
1231.73
1229.29
1226.84
1224.46
1222.08
1219.77
1217.49
1215.3
1213.13
1211.06
1209.03
1207.08
1205.16
1203.32
1201.52
1199.81
1198.14
1196.56
1195.03
1193.59
1192.18
1190.87
1189.56
1187.65
137.842
437.559
891.156
1372.28
1823.85
2240.24
2628.27
3000.02
3366.35
3732.15
4099.88
4472.51
4850.36
5231.94
5616.22
6010.62
6422.37
6864.11
7354.82
7904.5
8503.57
9172.42
9901.05
10674.8
11474.4
12213.9
12909
13374.7
13538.4
13395.6
12802.1
11809.6
10420.4
8840.94
7388.95
5976.51
4880.92
3917.35
3177.45
2613.28
2168.29
1852.78
1594.64
1422.35
1271.61
1175.05
1081.04
1017.04
952.348
905.499
858.14
822.41
792.788
762.822
738.738
713.658
695.492
676.797
665.463
654.31
648.971
645.76
646.051
648.721
653.595
661.365
672.392
685.834
702.47
721.423
743.526
767.981
795.016
824.595
855.871
889.303
923.836
959.668
996.065
1033.49
1069.5
1106.11
1143.1
1181.14
1217.41
1253
1287.95
1321.69
1354.26
1383.05
1411.59
1439.64
1468.12
1493.73
1516.83
1537.43
1558.74
1578
1596.67
1611.96
1627.19
1639.24
1649.91
1659.08
1668.65
1676.32
1683.5
1689.34
1694.46
1699.5
1703.66
1707.86
1710.74
1711.67
1710.74
1709.05
1706.72
1703.76
1700.45
1696.9
1693.4
1689.71
1685.62
1680.69
1675.08
1668.77
1662.34
1655.56
1649.31
1642.89
1636.71
1630.39
1624.31
1618.07
1611.96
1605.77
1599.42
1592.63
1585.55
1578.24
1570.74
1563.16
1555.57
1548.21
1541.01
1533.84
1526.7
1519.51
1512.43
1505.43
1498.41
1491.28
1484.17
1477.13
1470.04
1463
1455.96
1448.99
1442.07
1435.19
1428.42
1421.72
1415.22
1408.73
1402.51
1396.27
1390.33
1384.35
1378.61
1372.9
1367.35
1361.77
1356.13
1350.58
1345.04
1339.58
1334.16
1328.76
1323.42
1318.14
1312.94
1307.82
1302.84
1297.93
1293.21
1288.53
1284.1
1279.68
1275.55
1271.39
1267.5
1263.58
1259.89
1256.22
1252.51
1248.77
1245.04
1241.35
1237.63
1233.99
1230.34
1226.82
1223.36
1220.1
1216.85
1213.83
1210.81
1208.08
1205.36
1202.92
1200.43
1198.1
1195.86
1193.54
1191.2
1188.95
1186.69
1184.48
1182.27
1180.13
1177.98
1175.91
1173.85
1171.88
1169.94
1168.09
1166.27
1164.53
1162.81
1161.16
1159.55
1158.02
1156.52
1155.11
1153.75
1152.46
1151.22
1150.06
1148.88
1147.23
164.777
497.533
974.474
1438.62
1865.32
2253.18
2618.66
2971.44
3318.24
3664.34
4014.55
4372.05
4736.73
5106.6
5481
5866.98
6273.33
6711.27
7193.93
7734.64
8324.24
8972.51
9681.15
10422.6
11157.7
11743.8
12171.8
12223.5
11926.6
11276.1
10119.7
8643.5
7099.23
5596.98
4408.69
3375.02
2627.04
2037.5
1626.7
1329
1130.74
985.205
885.72
814.953
759.827
725.757
689.115
660.813
630.784
606.191
580.016
556.824
533.978
510.3
489.452
468.007
451.603
435.883
423.531
413.005
404.061
397.482
391.21
387.094
382.903
380.521
379.419
379.581
380.769
382.901
386.435
391.206
397.428
405.134
414.197
424.88
437.006
450.767
465.999
482.947
501.226
521.16
542.734
566.405
591.382
617.744
645.326
674.226
703.924
733.505
763.461
794.079
825.725
857.188
888.605
918.019
948.05
977.143
1006.86
1033.32
1060.08
1084.83
1108.6
1130.59
1153.18
1174.13
1195.09
1214.07
1231.94
1250.01
1266.95
1283.84
1298.87
1312.93
1324.47
1334.09
1342.68
1349.92
1356.77
1363.41
1370.25
1376.77
1383.39
1388.46
1392.91
1395.09
1397.15
1397.72
1398.35
1398.34
1398.29
1398.02
1397.74
1397.3
1397.04
1396.76
1396.45
1395.75
1394.64
1393.09
1391.09
1388.73
1386.1
1383.32
1380.49
1377.54
1374.53
1371.36
1368.13
1364.83
1361.44
1357.84
1354.14
1350.35
1346.45
1342.46
1338.37
1334.21
1329.99
1325.72
1321.41
1317.05
1312.74
1308.39
1304.17
1299.91
1295.83
1291.69
1287.7
1283.68
1279.78
1275.82
1271.79
1267.75
1263.71
1259.68
1255.67
1251.61
1247.59
1243.57
1239.58
1235.63
1231.77
1227.93
1224.23
1220.55
1217.06
1213.56
1210.29
1207
1203.91
1200.78
1197.85
1194.92
1191.96
1188.96
1185.96
1182.97
1179.96
1177
1174.02
1171.14
1168.3
1165.62
1162.93
1160.43
1157.92
1155.65
1153.37
1151.35
1149.3
1147.36
1145.52
1143.62
1141.68
1139.83
1137.96
1136.14
1134.31
1132.54
1130.76
1129.05
1127.35
1125.72
1124.12
1122.6
1121.11
1119.68
1118.27
1116.92
1115.59
1114.34
1113.11
1111.96
1110.86
1109.82
1108.82
1107.9
1106.95
1105.65
189.789
544.035
1026.76
1469.83
1868.94
2237.98
2580.75
2907.73
3229.24
3551.16
3879.04
4216.14
4562.37
4915.82
5277.03
5654.15
6051.09
6475.98
6944.16
7469.5
8047.66
8691.37
9392.28
10088.6
10704
11051.1
11045.7
10759
9992.35
8796.39
7292.41
5703.03
4362.32
3231.07
2417.88
1783.59
1366.47
1063.61
879.842
746.438
668.313
604.945
569.618
540.637
523.151
508.289
493.205
479.766
464.597
450.045
433.611
416.526
398.62
380.218
366.661
352.722
342.083
331.624
322.744
314.528
306.993
300.922
295.086
290.232
285.451
281.043
277.48
273.857
271.042
268.175
265.932
264.068
262.571
261.762
261.159
261.33
261.868
262.968
264.632
267.014
270.059
273.932
278.703
284.59
291.482
299.495
308.606
319.004
330.582
343.243
357.028
372.069
388.767
406.788
426.145
446.479
468.006
490.707
514.684
539.254
564.417
589.793
615.38
640.661
666.412
692.372
718.887
744.616
770.256
796.082
821.158
845.85
869.222
891.989
912.975
931.702
949.421
965.836
982.407
998.249
1014.22
1029.05
1044.1
1057.1
1069.96
1079.83
1089.29
1096.79
1104.15
1110.32
1116.54
1122.07
1127.73
1133.3
1139.12
1145.08
1151.27
1157.26
1162.5
1167.26
1171.44
1174.97
1178.11
1180.59
1183.06
1185.01
1186.98
1188.46
1189.79
1190.88
1191.92
1192.61
1193.03
1193.34
1193.32
1193.15
1192.78
1192.2
1191.43
1190.48
1189.37
1188.1
1186.71
1185.2
1183.64
1181.99
1180.34
1178.62
1176.91
1175.17
1173.45
1171.66
1169.78
1167.82
1165.82
1163.75
1161.64
1159.46
1157.23
1154.95
1152.63
1150.29
1147.98
1145.63
1143.35
1141.05
1138.84
1136.61
1134.52
1132.4
1130.42
1128.39
1126.52
1124.62
1122.67
1120.69
1118.67
1116.64
1114.58
1112.52
1110.44
1108.41
1106.41
1104.5
1102.58
1100.78
1098.97
1097.35
1095.71
1094.29
1092.85
1091.5
1090.24
1088.91
1087.55
1086.25
1084.93
1083.64
1082.34
1081.07
1079.8
1078.58
1077.36
1076.21
1075.07
1074
1072.95
1071.95
1070.95
1070.01
1069.07
1068.2
1067.35
1066.55
1065.79
1065.09
1064.44
1063.83
1063.19
1062.39
211.547
574.285
1050.8
1469.75
1853.76
2200.61
2516.82
2815.47
3108.88
3403.87
3706.28
4019.55
4344.11
4678.96
5026.38
5387.54
5770.81
6181.97
6640.3
7171.81
7771.43
8436.48
9135.02
9735.06
10143.2
10099.6
9769.21
9009.86
7762.01
6209.37
4692.92
3383.76
2439.15
1736.86
1270.56
950.224
755.239
621.232
537.442
476.507
436.742
404.381
386.426
368.279
358.393
348.875
344.164
338.416
332.082
326.55
317.681
309.624
301.02
296.917
292.281
286.884
281.351
275.475
269.656
263.608
257.955
252.778
247.841
243.541
239.563
235.541
232.105
228.621
225.454
222.248
219.256
216.439
213.716
211.325
208.875
206.727
204.537
202.694
200.814
199.314
197.851
196.696
195.757
195.146
194.957
195.133
195.591
196.456
197.737
199.446
201.63
204.348
207.783
211.936
216.894
222.595
229.149
236.658
245.286
254.912
265.597
277.261
289.918
303.517
318.215
334.088
351.348
369.724
389.332
410.084
431.834
454.353
477.277
500.493
523.482
545.465
567.083
588.413
610.024
631.357
652.906
673.454
694.265
713.023
731.918
748.134
763.613
777.185
790.601
802.674
814.905
826.342
838.037
849.476
861.15
872.53
884.064
895.275
905.839
915.767
925.264
933.857
942.206
949.618
956.979
963.612
970.284
976.399
982.343
988.054
993.713
998.975
1003.83
1008.47
1012.75
1016.71
1020.37
1023.7
1026.76
1029.5
1032.02
1034.22
1036.28
1038.03
1039.72
1041.09
1042.49
1043.62
1044.76
1045.73
1046.72
1047.6
1048.33
1048.9
1049.43
1049.81
1050.09
1050.26
1050.25
1050.17
1050
1049.73
1049.4
1048.99
1048.54
1048.05
1047.55
1047
1046.48
1045.91
1045.38
1044.8
1044.27
1043.73
1043.13
1042.48
1041.78
1041.05
1040.26
1039.44
1038.57
1037.69
1036.8
1035.93
1035.03
1034.17
1033.28
1032.5
1031.71
1031.1
1030.46
1029.88
1029.37
1028.84
1028.26
1027.69
1027.11
1026.53
1025.94
1025.34
1024.73
1024.14
1023.54
1022.98
1022.43
1021.92
1021.42
1020.96
1020.49
1020.06
1019.63
1019.23
1018.85
1018.51
1018.19
1017.91
1017.69
1017.49
1017.25
1017.06
230.831
591.742
1049.82
1456.99
1821.45
2144.26
2433.27
2703.07
2967.08
3233.58
3508.91
3796.66
4098.12
4414.65
4741.58
5084.44
5458.09
5874.36
6355.09
6929.1
7582.85
8268.31
8918.53
9324.73
9365.15
9017.73
8220.85
6912.36
5364.49
3838.27
2709.04
1864.17
1315.57
944.714
718.924
571.754
477.387
411.917
368.461
331.739
302.652
277.775
257.093
236.839
220.846
206.708
197.91
192.728
193.857
197.612
204.699
213.912
226.371
240.828
241.624
239.864
237.664
234.757
231.456
227.745
223.951
220.096
216.362
212.904
209.597
206.387
203.524
200.55
197.749
194.925
192.214
189.598
187.034
184.679
182.27
179.988
177.667
175.496
173.287
171.25
169.182
167.292
165.385
163.68
162.027
160.558
159.152
157.831
156.692
155.559
154.655
153.728
153.115
152.605
152.458
152.531
152.797
153.338
154.238
155.492
157.142
159.186
161.67
164.623
168.126
172.28
177.21
182.934
189.623
197.307
206.036
215.788
226.501
238.108
250.442
263.38
277.005
291.48
306.914
323.307
340.593
358.575
377.105
395.831
414.885
432.79
450.677
467.313
483.88
499.562
515.495
531.073
546.998
562.901
579.142
594.854
610.745
626.132
641.125
655.372
669.409
682.438
695.328
707.232
719.057
730.094
741.072
751.452
761.58
771.187
780.55
789.572
798.173
806.487
814.476
822.073
829.374
836.24
842.864
849.03
855.04
860.552
866.048
871.069
876.05
880.553
885.091
889.232
893.358
897.215
901.077
904.766
908.314
911.638
914.876
917.954
920.878
923.65
926.237
928.648
930.922
933.016
935.027
936.834
938.602
940.19
941.791
943.21
944.662
945.922
947.216
948.361
949.507
950.657
951.67
952.693
953.599
954.505
955.283
956.038
956.669
957.269
957.777
958.261
958.635
959.01
959.311
959.629
959.954
960.339
960.733
961.151
961.602
962.082
962.463
962.857
963.218
963.565
963.88
964.173
964.419
964.654
964.86
965.073
965.281
965.498
965.715
965.94
966.152
966.368
966.573
966.786
967.004
967.236
967.484
967.757
968.065
968.408
968.662
969.213
246.932
593.487
1039.73
1430.97
1775.17
2074.25
2336.7
2578.23
2813
3050.55
3298.73
3561.21
3840.08
4135.04
4441.58
4775.47
5162.65
5620.02
6163.63
6807.66
7518.68
8163.22
8661.92
8674.57
8399.95
7565.63
6193.87
4598.93
3242.08
2192.79
1503.96
1044.8
761.773
584.922
473.602
399.63
347.234
305.978
272.37
243.019
218.397
196.935
178.067
161.995
148.473
136.922
127.792
120.781
119.001
120.055
122.824
128.559
136.873
147.49
159.941
173.251
191.198
198.565
198.556
197.557
195.815
193.481
190.897
188.356
185.737
183.34
181.024
178.527
176.138
173.715
171.335
169.036
166.786
164.699
162.562
160.537
158.479
156.514
154.52
152.643
150.744
148.961
147.155
145.484
143.806
142.261
140.727
139.245
137.815
136.4
135.054
133.671
132.4
131.131
130.038
128.96
127.966
126.993
126.158
125.404
124.762
124.221
123.73
123.414
123.129
123.158
123.36
123.795
124.526
125.585
127.016
128.833
131.053
133.67
136.672
140.047
143.894
148.342
153.481
159.376
166.067
173.556
181.817
190.789
200.389
210.434
220.922
231.79
243.05
254.699
266.923
279.704
293.237
307.366
322.293
337.727
353.73
370.021
386.501
402.69
419.008
434.666
450.389
465.412
480.432
494.836
509.176
523.015
536.62
549.641
562.31
574.722
586.743
598.44
609.829
620.781
631.44
641.59
651.485
660.826
669.978
678.541
686.989
694.766
702.486
709.62
716.785
723.489
730.187
736.564
742.959
749.147
755.26
761.128
766.945
772.632
778.14
783.43
788.55
793.41
798.138
802.577
806.949
811.002
815.023
818.751
822.507
825.992
829.527
832.771
836.044
839.129
842.143
845.157
848.002
850.868
853.572
856.292
858.835
861.365
863.715
866.01
868.145
870.22
872.116
873.971
875.69
877.381
879.014
880.683
882.312
883.948
885.586
887.265
888.823
890.383
891.886
893.358
894.777
896.154
897.468
898.736
899.954
901.14
902.301
903.434
904.555
905.644
906.712
907.742
908.749
909.728
910.698
911.654
912.613
913.577
914.56
915.574
916.455
917.94
260.003
588.785
1020.48
1394.41
1718.85
1995.58
2232.89
2447.36
2654.31
2864.37
3086.71
3325.72
3584.08
3857.76
4156.98
4507.55
4947.44
5487.1
6103.41
6800.26
7525.81
7992.64
8093.4
7754.92
6940.84
5554.59
4036.27
2749.68
1857.26
1257.2
884.674
654.023
512.318
421.399
359.509
314.022
277.518
246.359
218.982
194.901
174.095
156.181
141.243
128.636
118.162
109.332
102.078
96.0193
92.5706
90.8973
89.1516
89.118
91.005
95.4561
102.478
111.873
123.736
136.686
148.997
165.193
170.241
169.767
168.389
166.624
164.627
162.673
160.75
158.672
156.791
154.855
152.895
150.989
149.115
147.35
145.544
143.851
142.129
140.472
138.792
137.202
135.595
134.081
132.551
131.115
129.664
128.317
126.964
125.671
124.385
123.127
121.905
120.652
119.448
118.237
117.122
116.022
114.968
113.898