/*--------------------------------*- C++ -*----------------------------------*\
| =========                 |                                                 |
| \\      /  F ield         | OpenFOAM: The Open Source CFD Toolbox           |
|  \\    /   O peration     | Version:  2312                                  |
|   \\  /    A nd           | Website:  www.openfoam.com                      |
|    \\/     M anipulation  |                                                 |
\*---------------------------------------------------------------------------*/
FoamFile
{
    version     2.0;
    format      ascii;
    arch        "LSB;label=32;scalar=64";
    class       volScalarField;
    location    "0.004";
    object      nut;
}
// * * * * * * * * * * * * * * * * * * * * * * * * * * * * * * * * * * * * * //

dimensions      [0 2 -1 0 0 0 0];

internalField   nonuniform List<scalar> 
48128
(
1.71388e-07
2.51342e-07
9.06088e-07
8.9004e-06
3.96781e-05
9.76928e-05
0.000160651
0.000216219
0.000263121
0.000302116
0.000335459
0.000365094
0.000391868
0.000417351
0.000442332
0.000467338
0.000492786
0.000519047
0.000546493
0.000575604
0.00060815
0.0006441
0.000683763
0.000725976
0.000773985
0.000826027
0.000883128
0.000943792
0.00100915
0.00108044
0.00115524
0.00123333
0.00131486
0.00139071
0.00146193
0.0015243
0.00158009
0.00161749
0.00164808
0.00166706
0.00167214
0.00169089
0.00171693
0.00174891
0.00177508
0.00178883
0.00179447
0.00179494
0.00179063
0.00178547
0.00177825
0.00177079
0.0017604
0.00170247
0.00159159
0.00149335
0.00140484
0.00132698
0.00125452
0.00118902
0.00113045
0.00107571
0.0010272
0.000982839
0.000941844
0.000905257
0.000870538
0.000839131
0.000809195
0.000782344
0.000757587
0.00073448
0.00071363
0.000694188
0.000676306
0.000659998
0.000644517
0.000630991
0.000617537
0.000605178
0.000595947
0.000585954
0.000575195
0.000565516
0.000558533
0.000550541
0.000542711
0.000534584
0.000527204
0.000523966
0.000518691
0.000512745
0.000506409
0.00050083
0.000498629
0.000494688
0.000489861
0.000485551
0.000482406
0.000478927
0.000475033
0.000471616
0.000470121
0.000467623
0.00046463
0.000461946
0.000459851
0.000457514
0.000455275
0.000452982
0.000450756
0.000448384
0.000446292
0.000444451
0.000442781
0.000442149
0.000441255
0.000440265
0.000439245
0.000438115
0.000436834
0.000435367
0.000433916
0.000432872
0.000431951
0.000431249
0.000431435
0.000431099
0.000430868
0.000430467
0.000429961
0.000429325
0.00042854
0.000427658
0.000426679
0.000425609
0.000424493
0.000423457
0.000422668
0.000422041
0.000421499
0.000421153
0.000420726
0.000420445
0.00042005
0.000419599
0.000419112
0.000418662
0.000418173
0.000417661
0.00041718
0.000416681
0.000416265
0.000415824
0.000415427
0.00041507
0.000414745
0.00041447
0.000414184
0.000413947
0.000413691
0.000413475
0.000413236
0.000413017
0.000412776
0.000412537
0.000412275
0.000411991
0.000411723
0.00041142
0.000411096
0.000410807
0.000410505
0.000410256
0.000410028
0.000409817
0.000409623
0.000409443
0.000409298
0.000409165
0.00040904
0.000408948
0.000408849
0.000408765
0.000408671
0.000408589
0.000408495
0.000408397
0.000408295
0.000408189
0.000408066
0.000407911
0.00040775
0.000407508
0.000407226
0.000407005
0.000406815
0.000406636
0.000406521
0.000406443
0.000406388
0.000406374
0.000406375
0.000406374
0.000406366
0.00040634
0.000406293
0.000406227
0.00040614
0.000406008
0.000405833
0.000405685
0.000405515
0.000405247
0.000405127
0.000405006
0.000404893
0.000404806
0.000404726
0.000404661
0.000404598
0.00040454
0.000404483
0.000404425
0.000404364
0.000404299
0.000404227
0.000404149
0.000404066
0.00040398
0.000403891
0.000403801
0.000403711
0.000403623
0.000403535
0.00040345
0.000403364
0.000403284
0.000403161
0.000402955
1.30897e-06
4.42039e-06
1.42412e-05
4.78611e-05
0.000123935
0.000249469
0.000421972
0.000614699
0.000827261
0.00105031
0.00127601
0.00150029
0.00172159
0.0019462
0.00217768
0.00242031
0.0026822
0.00296668
0.00327931
0.0036219
0.00401364
0.00442822
0.0049258
0.00543714
0.00599456
0.0065816
0.00720254
0.00784332
0.00835147
0.00888644
0.00941537
0.00991835
0.0103891
0.0108149
0.0112181
0.0115513
0.0118613
0.0120371
0.0121878
0.0122513
0.0122239
0.0121921
0.0121163
0.0120227
0.0118957
0.0117354
0.0115452
0.0113369
0.0111208
0.0109146
0.0107056
0.0105051
0.0102943
0.0100867
0.00987903
0.00969287
0.00950073
0.00932322
0.00913919
0.00894972
0.00877962
0.00859258
0.00841274
0.00824309
0.00806987
0.00791574
0.00775696
0.00760889
0.00745771
0.00731228
0.00717234
0.00703345
0.00690155
0.00677315
0.00665061
0.00653358
0.00641945
0.00631259
0.0062081
0.00611172
0.00601965
0.00593128
0.00584085
0.00576016
0.0056836
0.00560587
0.00553218
0.00545918
0.00539519
0.0053328
0.00526931
0.0052062
0.00514406
0.00509134
0.00504047
0.00498848
0.00493564
0.00488637
0.00483937
0.00479411
0.00474838
0.00470783
0.00466894
0.00462947
0.00459005
0.00455233
0.00451749
0.00448218
0.00444833
0.00441518
0.00438209
0.00434919
0.00431482
0.00428409
0.00425084
0.00422228
0.00419538
0.00416962
0.00414633
0.00412367
0.0041008
0.00407752
0.00405422
0.00403043
0.00400787
0.0039857
0.00396904
0.00395262
0.00393776
0.00392405
0.00390151
0.00388112
0.00386345
0.00384521
0.00382717
0.00380966
0.0037921
0.00377443
0.00375498
0.00373567
0.00371582
0.00369545
0.00367583
0.00365578
0.0036366
0.00361839
0.00360041
0.00358302
0.00356667
0.0035506
0.00353499
0.00351971
0.00350509
0.00349078
0.0034768
0.00346307
0.00344967
0.00343628
0.00342321
0.00341056
0.00339801
0.00338629
0.00337461
0.00336365
0.0033529
0.00334276
0.0033331
0.00332402
0.00331523
0.00330678
0.00329975
0.00329221
0.00328541
0.00327859
0.00327191
0.00326539
0.00325899
0.00325262
0.0032463
0.00324
0.00323382
0.00322749
0.00322121
0.00321532
0.00320929
0.00320364
0.00319817
0.00319278
0.00318771
0.00318252
0.00317774
0.00317357
0.00316956
0.0031657
0.00316319
0.00316017
0.00315746
0.0031547
0.0031518
0.0031485
0.0031453
0.00314108
0.00313732
0.00313371
0.00312991
0.00312608
0.00312252
0.00311905
0.00311582
0.00311307
0.00311096
0.00310885
0.00310699
0.0031058
0.00310406
0.00310244
0.00310094
0.00309915
0.00309737
0.00309537
0.0030933
0.00309117
0.00308891
0.00308667
0.00308436
0.00308212
0.00307988
0.00307776
0.00307566
0.00307372
0.00307185
0.00307009
0.00306845
0.00306684
0.00306533
0.00306383
0.00306244
0.00306103
0.00305984
0.00305847
3.62939e-06
3.27417e-05
7.82333e-05
0.00019405
0.000423378
0.00082953
0.00143374
0.00214598
0.00292487
0.00370866
0.00445623
0.00515152
0.00580083
0.00642367
0.00701338
0.00760104
0.0082035
0.00882817
0.00948582
0.010182
0.0109327
0.0117158
0.0125512
0.0133795
0.0142249
0.0150712
0.0158763
0.0166503
0.0173377
0.0180203
0.0186615
0.0192288
0.0197174
0.0200982
0.0204357
0.020645
0.020812
0.0207955
0.0207287
0.0205745
0.0203144
0.0200703
0.0197686
0.0194606
0.0191239
0.018762
0.0183895
0.0180122
0.0176427
0.017286
0.0169388
0.0166045
0.0162725
0.015946
0.0156144
0.0153067
0.0149956
0.0147082
0.0144239
0.0141451
0.0138825
0.0136199
0.0133644
0.013122
0.0128802
0.0126584
0.0124352
0.012225
0.0120146
0.0118104
0.011613
0.0114188
0.0112321
0.0110512
0.0108761
0.010709
0.010545
0.0103914
0.0102372
0.0100971
0.00996294
0.00983196
0.00969765
0.00957404
0.00945874
0.00934271
0.00922733
0.00911666
0.00901362
0.00891852
0.00882004
0.00871915
0.00862372
0.00853375
0.00845266
0.00836882
0.00828318
0.00820038
0.00812333
0.00804722
0.00797173
0.00790095
0.00783467
0.00776653
0.00769839
0.00763181
0.00757039
0.00750787
0.00744754
0.00738774
0.00732798
0.00726811
0.00720725
0.00714911
0.00709116
0.0070376
0.00698572
0.00693577
0.00688933
0.00684427
0.00679882
0.00675226
0.00670629
0.00666044
0.00661714
0.00657467
0.00653786
0.00650208
0.0064688
0.00643844
0.0064103
0.00638357
0.00635768
0.00633168
0.006305
0.00627709
0.00624853
0.00621952
0.00619012
0.00616147
0.00613283
0.0061059
0.00607887
0.00605362
0.00602847
0.00600465
0.0059805
0.00595787
0.00593518
0.00591239
0.00589068
0.00586875
0.00584746
0.00582641
0.0058056
0.00578516
0.00576518
0.00574576
0.00572679
0.00570873
0.00569097
0.00567415
0.00565801
0.00564254
0.005628
0.00561389
0.00560088
0.00558773
0.00557567
0.00556353
0.00555153
0.00553988
0.00552814
0.00551656
0.00550507
0.00549359
0.00548218
0.00547076
0.0054596
0.00544845
0.00543766
0.00542685
0.00541666
0.00540659
0.00539723
0.00538795
0.00537953
0.00537102
0.00536351
0.00535604
0.00534972
0.00534336
0.00533767
0.00533164
0.00532575
0.00531969
0.00531329
0.0053066
0.00529976
0.00529269
0.00528563
0.00527847
0.00527158
0.00526509
0.00525906
0.0052535
0.0052485
0.005244
0.00524021
0.00523684
0.00523333
0.00523035
0.00522699
0.00522368
0.00522035
0.00521683
0.00521317
0.00520934
0.00520542
0.00520134
0.00519715
0.00519312
0.00518894
0.00518509
0.00518113
0.00517751
0.00517386
0.00517056
0.00516724
0.00516426
0.0051613
0.00515865
0.00515597
0.00515358
0.0051511
0.00514896
0.00514665
0.00514468
0.00514248
0.00513979
1.08742e-05
0.000105148
0.000242618
0.000551639
0.00113495
0.00214787
0.00345425
0.00489856
0.00631208
0.00759612
0.00873864
0.00977207
0.0106885
0.011535
0.0123304
0.0131053
0.0138806
0.0146697
0.0154844
0.0163268
0.0172022
0.0180933
0.0190003
0.0198863
0.0207482
0.0215604
0.0223061
0.0229922
0.0235951
0.024149
0.0246285
0.0249955
0.0252454
0.0253448
0.0253873
0.0252918
0.0251312
0.0248169
0.0244516
0.0237758
0.0232011
0.0228197
0.0222512
0.0219143
0.0213976
0.0210514
0.0205249
0.0201519
0.0196709
0.0193001
0.0189545
0.0185889
0.0182418
0.0178993
0.0175628
0.0172458
0.0169394
0.0166513
0.0163751
0.0161128
0.0158561
0.015619
0.0153849
0.0151646
0.0149502
0.0147451
0.0145459
0.0143518
0.0141627
0.0139767
0.0137969
0.0136219
0.013452
0.0132899
0.0131308
0.0129792
0.0128296
0.0126894
0.0125474
0.0124143
0.0122919
0.012171
0.012046
0.011925
0.0118165
0.0117076
0.0115961
0.0114894
0.0113807
0.0112924
0.0111987
0.0111013
0.0110074
0.010912
0.0108341
0.0107518
0.010667
0.0105815
0.0105035
0.0104259
0.0103487
0.0102716
0.0102044
0.0101342
0.0100636
0.00999217
0.00992742
0.00986087
0.00979638
0.00973124
0.00966596
0.00959981
0.00953252
0.00946751
0.00940368
0.00934484
0.00928712
0.00923158
0.00917881
0.0091279
0.00907563
0.00902175
0.00896771
0.00891446
0.00886455
0.00881469
0.0087715
0.00872928
0.00869049
0.00865443
0.00862054
0.00858768
0.00855534
0.00852297
0.00848973
0.00845476
0.0084188
0.00838215
0.00834504
0.00830923
0.00827325
0.0082394
0.00820566
0.00817408
0.00814215
0.00811201
0.00808115
0.0080522
0.00802311
0.00799381
0.00796547
0.00793706
0.00790931
0.00788167
0.00785424
0.00782734
0.00780081
0.00777527
0.00774986
0.00772594
0.007702
0.00767958
0.00765769
0.00763678
0.00761693
0.00759745
0.0075793
0.00756088
0.00754387
0.00752663
0.00750931
0.00749263
0.00747578
0.00745918
0.0074427
0.00742628
0.00740997
0.00739374
0.00737777
0.00736202
0.00734658
0.00733139
0.00731683
0.00730261
0.00728915
0.00727599
0.0072637
0.00725163
0.00724065
0.00722988
0.00722034
0.00721082
0.00720209
0.00719305
0.00718388
0.00717457
0.00716494
0.00715502
0.00714496
0.00713476
0.00712462
0.00711459
0.00710477
0.00709571
0.00708718
0.00707942
0.00707223
0.0070657
0.00706
0.00705488
0.00704946
0.00704491
0.00703978
0.00703461
0.00702947
0.00702421
0.00701885
0.00701339
0.00700784
0.00700221
0.00699646
0.006991
0.00698536
0.00698023
0.00697491
0.00697012
0.00696522
0.00696084
0.00695636
0.0069524
0.00694837
0.00694486
0.00694122
0.00693809
0.00693475
0.00693198
0.00692889
0.00692638
0.00692354
0.00692005
2.52342e-05
0.000238752
0.000556238
0.00119846
0.00236462
0.00410224
0.00603899
0.00795717
0.00971616
0.0112767
0.0126706
0.0138696
0.0149324
0.0159039
0.0168032
0.0176634
0.0185051
0.0193447
0.0201909
0.0210461
0.0219084
0.022764
0.0236011
0.0243848
0.0251097
0.0257699
0.0263427
0.02683
0.0272073
0.0274683
0.0276122
0.0276159
0.0269264
0.0261001
0.0251701
0.024379
0.0235694
0.0227452
0.0221332
0.0213939
0.0205451
0.0202436
0.0194975
0.01914
0.0184779
0.0181435
0.0175687
0.0172199
0.0167768
0.0164764
0.016169
0.0159026
0.0156844
0.0155551
0.0154898
0.0153664
0.0152814
0.0151873
0.0151144
0.0151157
0.0150224
0.0150029
0.0150651
0.0150425
0.0149938
0.014857
0.0147283
0.0145944
0.0144681
0.0143399
0.0142169
0.014096
0.0139773
0.0138655
0.0137538
0.0136473
0.0135411
0.0134421
0.0133411
0.01324
0.013154
0.0130685
0.0129789
0.0128855
0.0128059
0.012727
0.0126455
0.0125632
0.0124751
0.0124107
0.012344
0.0122737
0.0122005
0.0121223
0.0120641
0.0120038
0.0119399
0.0118727
0.0118112
0.011751
0.0116891
0.0116243
0.0115714
0.0115182
0.0114623
0.0114041
0.0113517
0.0112979
0.0112454
0.0111914
0.0111371
0.0110813
0.0110241
0.0109692
0.0109132
0.0108641
0.0108155
0.0107689
0.0107238
0.0106806
0.0106355
0.0105889
0.0105412
0.0104941
0.0104501
0.0104052
0.0103677
0.0103315
0.0102987
0.0102677
0.0102387
0.0102101
0.010182
0.0101531
0.010124
0.0100922
0.0100592
0.0100249
0.00999014
0.00995669
0.00992284
0.00989113
0.00985948
0.00983006
0.00980003
0.00977179
0.00974255
0.0097152
0.0096874
0.00965942
0.00963206
0.00960442
0.00957746
0.00955048
0.00952366
0.00949722
0.00947105
0.00944588
0.00942076
0.00939704
0.0093734
0.00935108
0.00932953
0.00930869
0.00928908
0.00926961
0.00925155
0.00923303
0.00921596
0.00919837
0.00918071
0.00916349
0.00914609
0.00912893
0.00911178
0.00909465
0.00907754
0.0090605
0.00904363
0.00902706
0.00901066
0.00899477
0.00897932
0.00896448
0.00895022
0.00893654
0.00892362
0.00891116
0.00889978
0.00888868
0.0088788
0.00886891
0.0088598
0.00885032
0.00884059
0.00883071
0.00882024
0.00880949
0.00879861
0.00878754
0.00877661
0.00876581
0.00875532
0.00874584
0.00873687
0.0087289
0.00872143
0.00871496
0.00870911
0.0087042
0.00869856
0.00869432
0.00868917
0.00868384
0.00867857
0.00867314
0.00866763
0.00866203
0.00865632
0.00865065
0.00864476
0.00863932
0.00863364
0.00862864
0.00862338
0.00861883
0.00861408
0.00861001
0.0086057
0.00860212
0.00859832
0.00859526
0.0085919
0.00858929
0.0085863
0.00858412
0.00858143
0.00857959
0.00857727
0.00857453
4.78814e-05
0.000442508
0.00104671
0.00214043
0.00400999
0.00621673
0.00853491
0.0107242
0.0126864
0.0144344
0.0159476
0.017238
0.0183861
0.0194171
0.0203538
0.0212294
0.0220615
0.0228687
0.0236598
0.0244349
0.0251891
0.0259116
0.0265768
0.0271765
0.027697
0.0281069
0.0283979
0.0285745
0.0280925
0.0272861
0.0263185
0.0253634
0.0241432
0.023033
0.0218982
0.020862
0.0200623
0.0191028
0.0184654
0.0177067
0.016725
0.0163399
0.0155447
0.0150706
0.0143732
0.0139861
0.0134748
0.0131626
0.0128611
0.0125928
0.0123634
0.0121945
0.0120266
0.0120067
0.0119462
0.0119422
0.0118703
0.0118985
0.0118637
0.011953
0.0119705
0.0120231
0.0121815
0.0122095
0.0123691
0.012468
0.0125083
0.0126728
0.0127444
0.0128918
0.0129489
0.0130762
0.0131658
0.0131379
0.0131031
0.0130682
0.0130287
0.0129942
0.0129528
0.0129064
0.0128734
0.0128402
0.0128005
0.012755
0.0127186
0.0126848
0.0126475
0.012604
0.0125538
0.0125229
0.0124932
0.0124594
0.0124203
0.0123743
0.0123437
0.0123139
0.0122804
0.0122432
0.0122076
0.0121744
0.0121376
0.0120967
0.0120666
0.0120383
0.0120063
0.0119719
0.0119406
0.0119088
0.0118773
0.0118435
0.01181
0.011774
0.0117368
0.0117003
0.0116619
0.0116308
0.0115999
0.0115705
0.0115412
0.0115134
0.0114842
0.0114538
0.0114216
0.0113891
0.0113591
0.0113275
0.011304
0.011281
0.0112612
0.0112419
0.0112246
0.0112071
0.0111902
0.0111717
0.0111537
0.0111325
0.01111
0.0110857
0.011061
0.0110373
0.0110131
0.0109908
0.0109682
0.0109478
0.0109267
0.0109069
0.0108862
0.0108666
0.0108468
0.0108265
0.0108066
0.010786
0.0107662
0.0107461
0.010726
0.0107062
0.0106865
0.0106676
0.0106487
0.0106308
0.0106131
0.0105963
0.0105803
0.0105648
0.0105504
0.010536
0.010523
0.0105093
0.0104969
0.0104839
0.010471
0.010458
0.0104447
0.0104317
0.0104185
0.0104052
0.0103918
0.0103784
0.010365
0.0103519
0.0103388
0.0103263
0.010314
0.0103025
0.0102913
0.0102809
0.0102711
0.0102619
0.0102535
0.0102456
0.0102387
0.0102318
0.0102255
0.010219
0.0102119
0.0102044
0.0101965
0.0101881
0.0101795
0.0101707
0.0101619
0.0101533
0.0101452
0.010138
0.0101313
0.0101256
0.0101205
0.0101165
0.010113
0.0101106
0.0101072
0.0101055
0.0101027
0.0100996
0.0100965
0.0100932
0.0100897
0.0100863
0.0100825
0.0100789
0.010075
0.0100716
0.0100679
0.010065
0.0100617
0.0100593
0.0100566
0.0100547
0.0100524
0.010051
0.0100492
0.0100483
0.0100469
0.0100465
0.0100456
0.0100456
0.010045
0.0100454
0.0100452
0.0100455
7.75305e-05
0.000713682
0.0016998
0.00333366
0.0056688
0.00819458
0.0107402
0.0130784
0.0151608
0.0170347
0.0185858
0.01994
0.0211286
0.022176
0.0231039
0.0239421
0.0247086
0.0254228
0.0260939
0.0267214
0.0272988
0.0278093
0.02825
0.0285924
0.0288344
0.0284694
0.0274437
0.0265779
0.0254312
0.0243781
0.0230391
0.0218653
0.0204372
0.0191971
0.0182801
0.0170746
0.0163899
0.0152464
0.0144806
0.0136291
0.0126584
0.0120478
0.0112942
0.0107961
0.0103017
0.00990416
0.00958457
0.00929846
0.00915828
0.0089128
0.00881753
0.00872929
0.00862418
0.00868388
0.00858753
0.00865819
0.00858371
0.00869735
0.0086795
0.00881333
0.00887782
0.00899188
0.00913666
0.00919601
0.0093465
0.00948036
0.00957193
0.00975635
0.00989214
0.0100598
0.0101927
0.0103667
0.0105071
0.0106386
0.0107878
0.0109172
0.011064
0.0111574
0.0112973
0.0114226
0.011418
0.0114833
0.0116397
0.0117504
0.0117658
0.0117939
0.0118104
0.0118198
0.0118217
0.0118319
0.0118462
0.0118563
0.0118597
0.0118561
0.0118593
0.0118664
0.0118698
0.0118697
0.0118673
0.0118674
0.0118629
0.0118553
0.0118531
0.0118546
0.0118521
0.0118476
0.011843
0.0118381
0.0118329
0.011825
0.011818
0.0118075
0.0117962
0.0117833
0.0117686
0.0117598
0.0117512
0.0117432
0.0117344
0.0117267
0.0117187
0.0117098
0.011698
0.0116859
0.0116744
0.0116617
0.0116557
0.0116494
0.0116461
0.0116423
0.0116403
0.0116376
0.0116356
0.0116317
0.0116283
0.0116223
0.0116151
0.0116058
0.0115958
0.0115867
0.0115766
0.0115684
0.0115592
0.0115521
0.0115445
0.0115373
0.0115295
0.0115219
0.0115146
0.0115066
0.0114985
0.0114895
0.0114812
0.0114724
0.0114635
0.0114547
0.0114457
0.0114373
0.0114287
0.0114208
0.0114131
0.0114059
0.0113994
0.0113931
0.0113878
0.0113822
0.0113779
0.0113729
0.0113689
0.0113643
0.0113599
0.0113549
0.0113496
0.0113445
0.011339
0.0113335
0.0113275
0.0113216
0.0113153
0.0113095
0.0113032
0.0112977
0.0112922
0.0112874
0.0112829
0.0112791
0.0112757
0.0112729
0.0112708
0.0112691
0.0112682
0.0112673
0.0112669
0.0112664
0.0112648
0.0112629
0.0112606
0.0112575
0.0112543
0.0112508
0.0112472
0.0112439
0.0112409
0.0112388
0.0112371
0.0112365
0.0112362
0.0112373
0.0112385
0.011241
0.0112424
0.0112455
0.0112475
0.0112489
0.0112504
0.0112516
0.0112525
0.0112536
0.0112541
0.0112549
0.0112552
0.0112561
0.0112565
0.0112579
0.0112587
0.0112606
0.0112619
0.0112642
0.0112659
0.0112686
0.0112707
0.0112739
0.0112764
0.01128
0.0112829
0.011287
0.0112902
0.0112946
0.0112983
0.0113042
0.000111498
0.00103773
0.00245864
0.0045694
0.0071895
0.00992597
0.0125954
0.0150163
0.0171829
0.0190988
0.0206825
0.022073
0.0232741
0.024308
0.0251926
0.0259534
0.02661
0.0271819
0.0276793
0.0281019
0.0284371
0.0286853
0.0288415
0.0280433
0.0269741
0.0257258
0.0245165
0.0235125
0.0221353
0.0209444
0.0193877
0.0180579
0.0169593
0.0156875
0.0150702
0.0137183
0.0128333
0.0116257
0.0107075
0.00998693
0.00928931
0.00859021
0.0080948
0.00758607
0.00730495
0.00691435
0.00675036
0.00646323
0.00643639
0.00620852
0.00623383
0.0061601
0.0061259
0.00619733
0.00610158
0.0061654
0.00613545
0.00626968
0.00629019
0.00643997
0.00649571
0.00665397
0.00675544
0.00681735
0.00693806
0.00703135
0.00712967
0.00725836
0.00738935
0.0075171
0.00764795
0.00780452
0.00792062
0.00806933
0.00821119
0.00835639
0.00850728
0.00863664
0.00878588
0.00892303
0.00900991
0.00911619
0.00926191
0.00941458
0.00950937
0.00961938
0.00975269
0.00990874
0.0100421
0.010076
0.0101391
0.0102354
0.0103911
0.0105238
0.0105431
0.0105913
0.0106849
0.0108165
0.0109045
0.0109619
0.0109978
0.0110308
0.0110622
0.0110978
0.0111292
0.0111585
0.0111856
0.0112115
0.0112367
0.0112596
0.0112821
0.0113013
0.0113199
0.0113354
0.0113491
0.0113658
0.0113825
0.0113992
0.0114144
0.0114303
0.0114465
0.0114616
0.011474
0.0114855
0.0114957
0.0115047
0.0115176
0.01153
0.011545
0.0115589
0.011574
0.0115883
0.0116031
0.0116164
0.0116298
0.0116411
0.0116516
0.0116601
0.0116674
0.0116753
0.011682
0.0116899
0.0116967
0.0117051
0.0117132
0.0117213
0.0117288
0.011736
0.0117434
0.0117503
0.0117568
0.0117622
0.011768
0.0117735
0.0117783
0.0117833
0.0117877
0.0117924
0.0117968
0.0118015
0.0118062
0.0118112
0.0118166
0.011822
0.0118282
0.011834
0.0118408
0.0118469
0.0118539
0.0118603
0.0118669
0.0118726
0.0118779
0.0118834
0.0118882
0.0118931
0.0118973
0.0119015
0.0119051
0.0119092
0.0119126
0.0119167
0.0119206
0.0119252
0.0119298
0.0119351
0.0119407
0.0119468
0.0119534
0.0119604
0.0119679
0.0119754
0.0119832
0.011991
0.0119976
0.0120036
0.0120093
0.0120142
0.0120188
0.0120232
0.0120274
0.0120318
0.0120364
0.0120419
0.0120475
0.0120541
0.012061
0.0120692
0.0120774
0.0120868
0.0120951
0.0121051
0.0121139
0.0121221
0.0121301
0.0121381
0.0121456
0.0121532
0.0121601
0.0121675
0.0121741
0.0121815
0.0121881
0.0121958
0.0122027
0.0122107
0.012218
0.0122265
0.012234
0.0122427
0.0122505
0.0122596
0.0122677
0.0122772
0.0122857
0.0122955
0.0123042
0.0123143
0.0123236
0.0123376
0.00014711
0.00139451
0.00324215
0.00568681
0.0085021
0.0113773
0.0141038
0.0165647
0.018779
0.0207069
0.0223194
0.0237276
0.0249244
0.0259232
0.0267361
0.0273848
0.0278907
0.0282737
0.0285431
0.0286992
0.0287522
0.0278859
0.0265587
0.0251106
0.0239203
0.0226725
0.021382
0.0203079
0.0187185
0.0174431
0.0161091
0.0148843
0.0143259
0.0129373
0.0121091
0.0107445
0.00983011
0.00877789
0.00795654
0.00719673
0.00679693
0.00607824
0.00582978
0.00535496
0.00527942
0.00494696
0.00493475
0.00471074
0.00475439
0.00458613
0.00467127
0.00453954
0.00462554
0.00462318
0.0045759
0.00452675
0.00450495
0.00448655
0.00448313
0.00450266
0.00453155
0.00456972
0.00462018
0.00468411
0.00475912
0.00484391
0.00494123
0.00504813
0.00516518
0.00529142
0.00542636
0.00556799
0.00571965
0.00588017
0.00603763
0.00620618
0.00636758
0.00653709
0.00667241
0.0067911
0.00687763
0.00696312
0.00707426
0.00720754
0.00731614
0.0074257
0.00754429
0.00768627
0.00783854
0.00792358
0.00800652
0.0081051
0.0082524
0.00840825
0.00850436
0.0085797
0.00868721
0.00882805
0.00895965
0.00906397
0.00918694
0.00930648
0.00937995
0.00944783
0.00953695
0.00964798
0.00974074
0.00981768
0.00988515
0.00997888
0.0100958
0.0102233
0.0103525
0.010437
0.0104861
0.0105329
0.0105783
0.0106232
0.0106663
0.0107095
0.0107517
0.0107934
0.0108318
0.0108694
0.0109029
0.0109361
0.01097
0.0110032
0.0110379
0.0110718
0.0111054
0.0111385
0.0111714
0.0112033
0.0112347
0.0112653
0.011294
0.0113217
0.0113478
0.0113741
0.0113991
0.0114246
0.0114491
0.0114744
0.0114994
0.0115242
0.0115483
0.011572
0.0115953
0.0116185
0.011641
0.0116625
0.0116838
0.011705
0.0117251
0.0117453
0.0117645
0.011784
0.0118027
0.0118216
0.0118402
0.0118589
0.0118777
0.0118963
0.0119154
0.0119341
0.0119536
0.0119723
0.0119917
0.0120105
0.0120295
0.0120477
0.0120652
0.0120828
0.0120996
0.0121164
0.0121325
0.0121485
0.0121638
0.0121794
0.0121943
0.0122097
0.0122248
0.0122404
0.0122559
0.012272
0.0122882
0.0123048
0.0123219
0.0123391
0.0123567
0.0123741
0.012392
0.0124095
0.0124262
0.0124418
0.0124574
0.0124721
0.0124865
0.0125006
0.0125145
0.0125284
0.0125426
0.0125573
0.0125721
0.0125877
0.0126034
0.0126203
0.0126371
0.012655
0.0126719
0.0126903
0.0127075
0.0127243
0.0127406
0.012757
0.0127727
0.0127887
0.0128038
0.0128194
0.0128341
0.0128496
0.0128642
0.0128798
0.0128946
0.0129105
0.0129255
0.0129416
0.0129566
0.0129728
0.012988
0.0130045
0.0130199
0.0130366
0.0130523
0.0130693
0.0130851
0.0131024
0.0131186
0.0131431
0.000182326
0.00174234
0.00397348
0.00664797
0.0095954
0.0125363
0.0152759
0.0177491
0.0199978
0.0219482
0.023588
0.0250013
0.026177
0.0271174
0.0278259
0.0283216
0.028628
0.0287671
0.0287464
0.0279683
0.026585
0.0248836
0.0234013
0.0220717
0.0209141
0.0196249
0.0183099
0.0172253
0.0157756
0.014581
0.0139415
0.0127072
0.0120263
0.0106876
0.00961424
0.00845545
0.00745044
0.00655595
0.00581118
0.00510784
0.00484201
0.00435731
0.00427969
0.00401189
0.00409096
0.00398192
0.0038927
0.00375839
0.00361626
0.00351311
0.00340539
0.00332384
0.00325838
0.00318975
0.00313738
0.00308069
0.00304447
0.00300607
0.00299018
0.00297329
0.00297643
0.00298143
0.00300332
0.00302577
0.00305887
0.00309603
0.00314354
0.00319887
0.00326321
0.0033344
0.00341445
0.00350148
0.00359647
0.0036993
0.00380935
0.00392575
0.00405005
0.00417747
0.00431284
0.00445086
0.00459128
0.00473437
0.00488382
0.00503969
0.00519652
0.00535464
0.00551556
0.00567781
0.00584242
0.00599739
0.00615555
0.00630629
0.00641546
0.00655244
0.00666214
0.00673344
0.00682203
0.00694358
0.00706953
0.00717584
0.00729263
0.00741506
0.00751027
0.00758878
0.0076869
0.00780203
0.00791724
0.00801374
0.00810352
0.00822778
0.00835783
0.00850165
0.00865215
0.00879614
0.00893406
0.00900152
0.00906578
0.00911986
0.00917518
0.00925434
0.00935102
0.00946732
0.00959411
0.00972483
0.00983848
0.00992552
0.00997792
0.0100168
0.0100386
0.0100855
0.0101197
0.0101602
0.0101975
0.0102595
0.0103077
0.010391
0.0104773
0.0105989
0.0106836
0.0107381
0.0107839
0.0108288
0.0108723
0.0109161
0.0109591
0.0110019
0.0110435
0.0110847
0.0111251
0.0111658
0.0112048
0.0112436
0.0112814
0.011319
0.0113554
0.0113916
0.0114267
0.0114618
0.0114959
0.01153
0.0115634
0.0115969
0.01163
0.0116629
0.0116958
0.0117283
0.0117612
0.0117935
0.011826
0.0118582
0.0118904
0.0119218
0.0119524
0.011983
0.0120127
0.0120425
0.0120713
0.0121001
0.012128
0.0121562
0.0121835
0.0122112
0.0122384
0.012266
0.0122934
0.0123212
0.0123491
0.0123772
0.0124057
0.0124341
0.0124629
0.0124912
0.0125202
0.0125484
0.0125762
0.0126027
0.0126293
0.012655
0.0126804
0.0127054
0.0127301
0.0127548
0.0127797
0.0128048
0.0128299
0.0128557
0.0128813
0.012908
0.0129344
0.012962
0.0129887
0.0130165
0.0130434
0.0130698
0.0130957
0.0131218
0.013147
0.0131725
0.0131972
0.0132222
0.0132463
0.0132711
0.0132951
0.0133199
0.0133438
0.0133688
0.0133928
0.0134178
0.0134417
0.0134667
0.0134904
0.0135155
0.0135394
0.0135646
0.0135886
0.0136141
0.0136383
0.0136638
0.0136883
0.0137251
0.000215032
0.00205654
0.00460845
0.00744023
0.0104579
0.0134082
0.0161741
0.0186812
0.0209494
0.022905
0.0245529
0.0259531
0.0270861
0.0279379
0.0285013
0.0287913
0.0288359
0.0285451
0.0268778
0.0249895
0.0233503
0.0217911
0.0204315
0.0191469
0.0181481
0.0169787
0.0157722
0.0147853
0.013906
0.0128691
0.0124001
0.011102
0.0100501
0.00883061
0.00765578
0.00655536
0.00554935
0.00473566
0.00407497
0.00353809
0.00325631
0.00301312
0.00298579
0.00292078
0.00300557
0.002986
0.00289024
0.00281404
0.00273056
0.00266422
0.0025927
0.00253228
0.00247274
0.0024084
0.00235659
0.00230213
0.00226656
0.0022336
0.00221225
0.00219688
0.00218719
0.00218522
0.00218409
0.00219076
0.00219561
0.00220832
0.00222183
0.00224359
0.00226403
0.00229017
0.00231851
0.00235125
0.00238713
0.00242851
0.00247446
0.00252561
0.00258151
0.00264272
0.00270899
0.0027811
0.00285811
0.00294113
0.00303041
0.00312697
0.00323008
0.00333871
0.00345356
0.0035747
0.00369955
0.00382935
0.00396205
0.00410188
0.00424544
0.00439357
0.00454525
0.00469401
0.00484896
0.00500288
0.00516482
0.00531617
0.00547393
0.00562665
0.00577921
0.00592643
0.00607947
0.00622607
0.00632318
0.00642798
0.00651342
0.00662441
0.00674292
0.00687094
0.00699777
0.00713337
0.00726935
0.00734384
0.00741128
0.00747659
0.00755589
0.00765127
0.00776137
0.00788221
0.00801455
0.00815495
0.008297
0.00839468
0.00847059
0.00853063
0.00857711
0.00863368
0.00867804
0.00873384
0.00878166
0.00885127
0.00890854
0.00901003
0.00911439
0.0092447
0.00934631
0.00945176
0.0095494
0.00963544
0.00971687
0.00978935
0.00986236
0.00993537
0.0100123
0.0100881
0.0101526
0.0102294
0.0103003
0.0103832
0.0104524
0.0105269
0.0106033
0.0106798
0.0107522
0.0108251
0.0108935
0.0109628
0.0110164
0.0110658
0.011114
0.0111621
0.0112093
0.0112565
0.0113032
0.0113497
0.0113959
0.0114419
0.0114876
0.0115328
0.0115772
0.0116214
0.0116646
0.0117079
0.0117501
0.0117923
0.0118335
0.0118747
0.0119151
0.0119556
0.0119956
0.0120358
0.0120757
0.0121158
0.012156
0.0121962
0.0122366
0.0122769
0.0123174
0.0123572
0.0123978
0.0124373
0.0124767
0.0125148
0.012553
0.0125902
0.0126274
0.0126639
0.0127002
0.0127363
0.0127725
0.0128088
0.0128448
0.0128813
0.0129175
0.0129546
0.0129914
0.0130293
0.0130663
0.0131043
0.0131415
0.0131783
0.0132146
0.0132511
0.0132867
0.0133225
0.0133575
0.0133928
0.0134272
0.0134622
0.0134963
0.0135312
0.0135652
0.0136001
0.013634
0.0136687
0.0137023
0.0137369
0.0137702
0.0138047
0.0138379
0.0138724
0.0139058
0.0139404
0.0139741
0.0140086
0.0140422
0.0140927
0.000244407
0.00232475
0.00512616
0.00805829
0.0110897
0.0140811
0.0168614
0.0193656
0.0216198
0.0235733
0.0252183
0.0265917
0.0276598
0.0283879
0.0287562
0.0287736
0.02747
0.0257877
0.0236897
0.0217819
0.0203619
0.0188876
0.0178166
0.0168047
0.0161516
0.0151755
0.0141346
0.013461
0.0129998
0.01188
0.011076
0.0098413
0.00857754
0.00734283
0.00598751
0.00500772
0.00404988
0.00342678
0.00289978
0.00250104
0.0022736
0.00210588
0.00206186
0.00207593
0.00218293
0.00229604
0.0022861
0.00223731
0.00218676
0.00214217
0.00209517
0.00204856
0.00200067
0.00195147
0.00192581
0.00189939
0.00188512
0.0018719
0.00186286
0.00185675
0.00185173
0.00185134
0.00185062
0.00185285
0.001854
0.00185644
0.0018604
0.00186435
0.00187017
0.00187553
0.00188291
0.00189089
0.00190042
0.00191144
0.0019238
0.0019384
0.0019546
0.00197208
0.00199131
0.00201381
0.0020367
0.00206345
0.00209384
0.00212841
0.00216678
0.00220935
0.0022562
0.00230806
0.00236457
0.00242562
0.00249153
0.0025631
0.00264175
0.00272645
0.0028164
0.0029136
0.00301561
0.00312535
0.00323964
0.00336147
0.00348608
0.00361671
0.00374959
0.00388672
0.00402623
0.00417212
0.00432208
0.00447327
0.00462822
0.00478717
0.00494558
0.00510626
0.00526362
0.00542213
0.00557535
0.00571979
0.00586207
0.00599955
0.00614042
0.0062534
0.00636348
0.00647355
0.0065945
0.00671444
0.0068475
0.0069524
0.0070206
0.00708101
0.00714446
0.00720072
0.00725951
0.00732189
0.0073822
0.00745562
0.00753569
0.00764298
0.00774697