/*--------------------------------*- C++ -*----------------------------------*\
| =========                 |                                                 |
| \\      /  F ield         | OpenFOAM: The Open Source CFD Toolbox           |
|  \\    /   O peration     | Version:  2312                                  |
|   \\  /    A nd           | Website:  www.openfoam.com                      |
|    \\/     M anipulation  |                                                 |
\*---------------------------------------------------------------------------*/
FoamFile
{
    version     2.0;
    format      ascii;
    arch        "LSB;label=32;scalar=64";
    class       volScalarField;
    location    "0.004";
    object      omega;
}
// * * * * * * * * * * * * * * * * * * * * * * * * * * * * * * * * * * * * * //

dimensions      [0 0 -1 0 0 0 0];

internalField   nonuniform List<scalar> 
48128
(
2.01681e+06
2.02151e+06
2.02529e+06
2.04264e+06
2.06916e+06
2.1198e+06
2.18881e+06
2.2627e+06
2.33431e+06
2.39652e+06
2.44442e+06
2.48002e+06
2.50789e+06
2.52461e+06
2.53376e+06
2.53732e+06
2.53514e+06
2.52752e+06
2.51486e+06
2.4968e+06
2.47167e+06
2.44311e+06
2.41297e+06
2.37893e+06
2.34344e+06
2.30717e+06
2.27212e+06
2.23916e+06
2.20807e+06
2.18348e+06
2.16323e+06
2.14971e+06
2.14276e+06
2.13736e+06
2.13329e+06
2.12886e+06
2.12324e+06
2.11044e+06
2.09575e+06
2.07594e+06
2.04889e+06
2.04299e+06
2.0401e+06
2.04576e+06
2.04923e+06
2.04391e+06
2.03331e+06
2.01987e+06
2.0038e+06
1.98809e+06
1.97171e+06
1.9559e+06
1.93856e+06
1.91993e+06
1.8992e+06
1.87929e+06
1.8587e+06
1.83981e+06
1.82039e+06
1.80025e+06
1.78222e+06
1.76303e+06
1.74381e+06
1.72574e+06
1.70727e+06
1.69113e+06
1.6747e+06
1.65975e+06
1.64466e+06
1.63037e+06
1.61689e+06
1.60355e+06
1.59113e+06
1.579e+06
1.56757e+06
1.55687e+06
1.54632e+06
1.5368e+06
1.52727e+06
1.51914e+06
1.51079e+06
1.50276e+06
1.49453e+06
1.48822e+06
1.48161e+06
1.47491e+06
1.46894e+06
1.46284e+06
1.459e+06
1.45417e+06
1.44911e+06
1.4442e+06
1.43918e+06
1.43637e+06
1.4327e+06
1.42883e+06
1.42472e+06
1.4219e+06
1.41884e+06
1.41589e+06
1.41275e+06
1.41113e+06
1.40889e+06
1.40647e+06
1.40393e+06
1.40213e+06
1.40023e+06
1.3983e+06
1.39667e+06
1.39507e+06
1.39375e+06
1.39246e+06
1.39167e+06
1.39079e+06
1.39047e+06
1.38991e+06
1.38919e+06
1.38839e+06
1.38756e+06
1.38667e+06
1.38581e+06
1.38501e+06
1.3844e+06
1.38411e+06
1.38368e+06
1.38374e+06
1.38334e+06
1.38278e+06
1.38198e+06
1.38105e+06
1.37997e+06
1.37882e+06
1.37768e+06
1.37655e+06
1.37549e+06
1.37452e+06
1.37379e+06
1.3733e+06
1.3731e+06
1.37294e+06
1.37295e+06
1.37287e+06
1.37278e+06
1.37256e+06
1.37226e+06
1.37189e+06
1.37151e+06
1.37112e+06
1.37071e+06
1.37035e+06
1.36999e+06
1.36969e+06
1.36945e+06
1.36922e+06
1.36907e+06
1.36892e+06
1.36882e+06
1.3687e+06
1.36857e+06
1.3684e+06
1.36821e+06
1.36797e+06
1.3677e+06
1.36737e+06
1.36701e+06
1.36661e+06
1.36619e+06
1.36576e+06
1.36535e+06
1.36491e+06
1.36457e+06
1.36425e+06
1.36401e+06
1.36385e+06
1.36374e+06
1.36367e+06
1.36364e+06
1.36365e+06
1.36369e+06
1.36372e+06
1.36377e+06
1.36379e+06
1.36379e+06
1.36376e+06
1.36368e+06
1.36356e+06
1.36339e+06
1.36318e+06
1.36291e+06
1.36259e+06
1.36222e+06
1.36182e+06
1.36142e+06
1.36099e+06
1.36068e+06
1.36048e+06
1.3604e+06
1.36039e+06
1.36052e+06
1.36066e+06
1.36082e+06
1.36096e+06
1.36104e+06
1.36105e+06
1.36098e+06
1.36082e+06
1.36058e+06
1.36026e+06
1.35986e+06
1.35942e+06
1.35897e+06
1.35859e+06
1.35813e+06
1.35784e+06
1.35768e+06
1.35751e+06
1.35743e+06
1.35737e+06
1.35734e+06
1.35731e+06
1.35729e+06
1.35725e+06
1.3572e+06
1.35712e+06
1.35702e+06
1.35689e+06
1.35674e+06
1.35657e+06
1.35638e+06
1.35618e+06
1.35597e+06
1.35575e+06
1.35554e+06
1.35532e+06
1.35511e+06
1.35489e+06
1.35466e+06
1.35443e+06
1.35409e+06
1.35397e+06
722240
514476
729848
886947
982506
1.00688e+06
957597
906021
856033
814923
784995
764169
750258
740895
735075
731292
728333
725824
723641
721917
718465
716813
711523
708286
705905
704325
703254
702883
713334
723417
734567
746694
759657
772999
785817
798017
808406
817674
824515
830335
834910
840681
847430
852280
854606
854071
851909
848161
843214
837396
831063
824268
817152
809208
800296
790632
780572
770279
760016
749646
738993
729267
719408
709626
700158
690506
681567
672482
664092
655841
647899
640411
633143
626266
619699
613355
607455
601878
596254
591147
586888
582473
577995
573455
569984
566423
562786
558948
555526
553424
551037
548417
545537
542709
541183
539392
537422
535145
533561
531926
530235
528395
527532
526537
525419
524118
523167
522249
521278
520356
519379
518470
517642
516840
516433
516170
516038
515879
515701
515533
515305
515029
514676
514610
514542
514725
515000
515317
515657
515851
516070
516159
516129
516075
515999
515870
515646
515418
515236
515240
515238
515352
515524
515782
515990
516213
516430
516662
516898
517140
517327
517543
517763
517992
518223
518480
518748
519047
519364
519691
520068
520395
520786
521122
521497
521837
522179
522503
522810
523161
523354
523567
523752
523942
524126
524314
524493
524672
524859
525053
525254
525477
525718
525952
526202
526446
526698
526941
527193
527428
527654
527877
528038
528257
528230
528252
528290
528299
528307
528341
528380
528483
528619
528761
528916
529079
529249
529434
529575
529727
529829
529888
529968
529880
529836
529805
529757
529723
529682
529661
529645
529631
529632
529636
529649
529668
529690
529711
529735
529749
529767
529772
529781
529777
529780
529770
529770
529760
529712
529542
721828
348176
490513
573179
598446
570323
519091
477768
445987
424598
411948
405658
403240
402904
405289
408429
412229
416451
421083
426044
431129
436804
442481
449697
457814
467067
478120
490972
507033
523502
541287
559964
579518
599385
618826
637298
654190
669016
680917
690613
698692
704106
708330
709517
709085
707040
703619
698851
693160
686715
679598
671957
663796
655084
645758
635991
625816
615413
604873
594226
583402
573114
562884
552678
542860
532949
523569
514191
505293
496579
488165
480077
472276
464784
457625
450683
444132
437804
431747
425753
420652
415499
410455
405312
400966
396693
392414
388177
383829
380644
377397
374071
370676
367111
364538
361920
359247
356400
353992
351628
349261
346755
344896
343019
341125
339142
337395
335734
334051
332451
330822
329281
327718
326282
324873
323689
322589
321516
320474
319517
318579
317646
316703
315846
315066
314252
313720
313173
312720
312262
311836
311403
310963
310526
310090
309638
309129
308615
308086
307612
307106
306685
306264
305904
305552
305227
304905
304598
304336
304061
303786
303528
303280
303051
302815
302613
302406
302235
302072
301921
301809
301687
301611
301524
301469
301411
301361
301319
301275
301243
301190
301127
301058
300987
300913
300840
300767
300693
300620
300558
300490
300448
300407
300377
300356
300342
300343
300344
300353
300362
300377
300395
300403
300415
300377
300326
300271
300205
300127
300055
299978
299914
299882
299857
299839
299834
299839
299855
299867
299887
299907
299904
299910
299861
299807
299750
299682
299616
299544
299477
299410
299343
299281
299219
299166
299115
299071
299027
298989
298948
298912
298873
298839
298800
298768
298729
298698
298663
298618
298491
720580
320528
400178
432783
429897
393465
360720
333950
316581
307339
303554
302811
304850
308272
312827
317861
323440
329439
335950
342923
350527
359062
368620
379767
392392
406866
423037
441034
461349
482537
505364
529237
554179
579493
603973
627034
647692
665756
679908
690489
700345
704357
707084
706288
704006
699655
694180
687430
680049
671791
662804
653221
643130
632507
621273
609706
597843
585841
573840
561896
549839
538366
526998
515713
504876
494064
483776
473617
463880
454385
445195
436312
427772
419537
411668
404006
396779
389760
383099
376469
370682
364908
359301
353633
348642
343806
338972
334259
329404
325508
321673
317797
313918
309889
306650
303485
300288
296994
294038
291171
288330
285390
282953
280545
278156
275718
273468
271330
269178
267126
265060
263084
261081
259216
257332
255665
254060
252487
250972
249527
248138
246750
245402
244080
242862
241581
240554
239514
238575
237661
236804
235977
235173
234390
233634
232884
232103
231336
230559
229822
229064
228362
227658
227000
226357
225737
225130
224540
223993
223436
222899
222373
221859
221374
220883
220428
219969
219543
219126
218723
218354
217981
217648
217316
217011
216718
216437
216173
215912
215672
215423
215177
214929
214690
214452
214221
213990
213764
213537
213324
213105
212907
212709
212524
212347
212176
212023
211870
211735
211597
211476
211354
211245
211132
211004
210872
210740
210602
210458
210314
210166
210024
209890
209769
209653
209546
209447
209363
209277
209205
209138
209065
209005
208918
208826
208733
208633
208532
208427
208322
208218
208111
208008
207903
207805
207707
207616
207524
207440
207353
207275
207194
207120
207043
206975
206902
206838
206771
206702
206566
721735
309593
345355
355316
338974
309989
285756
269235
260433
256851
256245
258554
262417
267139
272644
278682
285295
292442
300335
309033
318854
330077
342839
357597
374256
392975
413438
435799
460694
487358
516209
546402
577872
610160
640007
668291
690564
709545
722538
730346
738353
738205
736927
732316
726547
718896
710523
701013
690961
679953
668455
656312
644126
631485
618465
605082
591873
578482
565659
552927
540021
528106
516043
504308
492984
481582
470966
460272
450172
440171
430581
421318
412348
403750
395493
387481
379899
372560
365607
358622
352466
346419
340516
334552
329175
324003
318854
313814
308625
304264
300088
295884
291685
287348
283676
280173
276651
273056
269736
266528
263368
260110
257288
254556
251851
249108
246521
244046
241582
239205
236836
234554
232246
230076
227879
225896
223979
222099
220291
218542
216859
215170
213540
211908
210392
208812
207471
206130
204884
203676
202522
201408
200327
199279
198255
197257
196238
195244
194241
193290
192325
191413
190504
189641
188796
187973
187168
186382
185635
184883
184154
183438
182736
182066
181389
180753
180111
179508
178909
178334
177779
177237
176718
176216
175733
175269
174819
174389
173964
173565
173162
172773
172380
172004
171632
171271
170911
170563
170213
169880
169543
169226
168910
168607
168312
168023
167753
167484
167237
166985
166755
166522
166311
166095
165876
165657
165447
165234
165018
164806
164590
164379
164172
163976
163785
163601
163424
163258
163097
162946
162805
162662
162535
162394
162250
162111
161966
161822
161677
161531
161387
161241
161099
160955
160817
160678
160545
160412
160286
160159
160040
159919
159807
159693
159588
159480
159381
159279
159183
159015
724772
297923
306244
305578
283561
261299
243889
233727
229140
227941
229536
233301
238063
243642
249931
256913
264533
272911
282317
292912
305047
319050
335106
353432
373952
397329
422852
450499
481342
514441
549999
587010
622967
659181
686938
713894
729793
744071
751796
753983
755429
750974
743810
733720
722088
709250
695610
681695
667169
652321
638189
623276
610237
596560
584042
570911
559168
546938
535996
524962
513627
503496
493050
483149
473424
463436
454093
444467
435355
426143
417244
408645
400103
392010
384085
376491
369129
362105
355357
348526
342356
336486
330637
324697
319220
314030
308870
303773
298546
293992
289760
285492
281201
276786
272912
269286
265632
261913
258416
255031
251706
248283
245244
242330
239440
236519
233725
231045
228395
225812
223254
220778
218279
215908
213499
211313
209197
207132
205132
203187
201303
199423
197597
195757
194030
192252
190700
189166
187716
186308
184952
183641
182356
181114
179885
178696
177487
176307
175118
173991
172854
171775
170703
169678
168681
167705
166750
165815
164911
164017
163141
162279
161433
160621
159803
159028
158247
157509
156769
156064
155367
154698
154040
153410
152794
152200
151620
151062
150509
149983
149458
148951
148440
147950
147464
146994
146527
146074
145621
145187
144751
144334
143922
143521
143132
142748
142387
142023
141683
141340
141021
140697
140398
140097
139797
139499
139213
138929
138643
138364
138083
137807
137538
137279
137022
136774
136532
136300
136075
135860
135656
135449
135263
135068
134871
134681
134489
134300
134111
133923
133739
133553
133372
133190
133014
132837
132667
132496
132333
132169
132013
131856
131708
131558
131419
131276
131144
131008
130882
130677
730178
285501
277358
268908
247816
229932
217287
210675
208313
208292
211364
215780
221215
227515
234562
242432
251101
260800
271840
284465
299038
316063
335509
357907
382834
411450
442832
476287
513199
551604
590391
629947
661679
693685
711813
730801
736925
740115
735384
725775
712788
697373
679362
661502
642622
626617
609300
594365
578585
563944
550705
536832
526116
514674
505575
495840
487829
479269
471874
464283
456399
449227
441809
434774
427839
420600
414052
407323
400954
394517
388187
381963
375680
369631
363526
357687
351811
346157
340499
334742
329292
324200
319047
313788
308756
304024
299321
294610
289816
285415
281425
277405
273330
269161
265320
261760
258204
254589
251104
247717
244405
241022
237920
234969
232061
229131
226282
223550
220845
218195
215586
213041
210478
208017
205527
203234
201026
198864
196754
194693
192701
190727
188776
186820
184968
183090
181402
179746
178172
176641
175154
173719
172298
170925
169550
168228
166881
165562
164243
162981
161717
160512
159317
158171
157061
155965
154899
153845
152825
151822
150834
149860
148905
147982
147058
146174
145289
144443
143599
142790
141987
141216
140457
139722
139006
138307
137628
136966
136315
135686
135065
134460
133851
133269
132689
132128
131570
131028
130490
129969
129451
128949
128457
127975
127508
127045
126606
126164
125749
125329
124935
124537
124163
123789
123423
123055
122700
122350
121999
121659
121318
120985
120658
120342
120029
119725
119427
119140
118860
118591
118331
118072
117831
117587
117340
117103
116866
116631
116401
116172
115948
115723
115505
115286
115075
114862
114657
114451
114254
114055
113866
113675
113495
113313
113141
112966
112803
112636
112480
112237
737418
272839
255679
242402
222785
208042
198446
193821
192452
193432
197101
201924
207865
214755
222480
231184
240927
251991
264790
279635
296908
317266
340574
367645
397465
431342
468304
506021
545185
584642
618968
653694
674156
695843
697044
694805
685889
672206
654590
634307
609214
586085
560181
539357
516394
498536
479467
465239
450381
438042
427121
416290
408864
401000
395603
389963
386156
382032
379156
376280
373613
371396
369017
366648
364109
361244
358496
355616
352646
349476
346160
342670
339000
335204
331281
327291
323216
319208
315190
311119
307062
303293
299495
295609
291728
288022
284363
280651
276855
273147
269717
266352
262898
259345
255891
252658
249505
246301
243097
239987
236930
233835
230891
228087
225361
222613
219894
217272
214669
212119
209589
207105
204606
202172
199743
197434
195233
193060
190950
188864
186868
184877
182913
180947
179057
177173
175426
173717
172098
170510
168964
167462
165979
164535
163092
161690
160274
158875
157484
156141
154806
153516
152247
151019
149830
148656
147510
146379
145279
144198
143133
142080
141049
140046
139049
138084
137127
136200
135283
134393
133517
132665
131833
131016
130224
129445
128689
127946
127220
126512
125815
125133
124450
123791
123137
122500
121871
121255
120648
120055
119470
118897
118341
117790
117260
116731
116227
115722
115243
114761
114304
113844
113407
112974
112548
112123
111708
111301
110894
110498
110104
109720
109341
108975
108611
108260
107913
107580
107252
106937
106629
106324
106038
105748
105457
105177
104898
104623
104353
104085
103824
103563
103310
103056
102811
102565
102329
102090
101862
101632
101412
101191
100981
100769
100568
100364
100172
99977.4
99792.5
99512.6
746140
261348
238794
222341
204461
191640
183940
180383
179495
181033
184876
189921
196180
203509
211836
221354
232203
244733
259522
277016
297314
321603
349319
381117
415557
453056
492929
531463
567070
601625
626425
651058
652148
649322
638272
620921
598552
571253
539984
510749
478031
453583
427081
407844
387315
372250
356466
345122
333555
324701
316339
309320
304113
298771
295067
291294
288900
286389
285029
283652
282951
282791
282729
282993
283363
283810
284463
285059
285830
286384
286971
287393
287364
287153
286614
285767
284541
283055
281341
279409
277312
275176
272969
270624
268167
265673
263149
260547
257841
255093
252468
249935
247346
244664
241943
239326
236835
234303
231730
229214
226690
224123
221593
219150
216797
214421
212030
209680
207359
205071
202777
200516
198235
195984
193725
191543
189461
187394
185406
183422
181523
179620
177751
175862
174036
172201
170489
168789
167197
165615
164092
162586
161125
159675
158248
156833
155431
154017
152614
151243
149890
148565
147270
146008
144780
143573
142389
141223
140082
138960
137858
136764
135692
134644
133607
132594
131595
130617
129656
128713
127790
126883
126000
125128
124284
123448
122639
121839
121059
120294
119544
118806
118071
117353
116646
115952
115270
114597
113938
113289
112654
112027
111419
110815
110233
109653
109097
108541
108010
107478
106969
106462
105972
105491
105014
104544
104077
103623
103169
102727
102287
101859
101436
101028
100622
100230
99842.2
99468.9
99100.7
98746.1
98397.8
98053.8
97726.8
97397.2
97069.3
96749.8
96434.6
96123.2
95818.3
95516
95220.9
94927.2
94641.5
94356.7
94080.9
93804.9
93538.9
93271.8
93015.1
92756.8
92509.6
92261
92023.8
91784.8
91557.3
91327.8
91109.3
90889.3
90677.4
90363.2
756015
251132
224276
206421
190076
178701
172054
169024
168336
170044
173812
178891
185291
192937
201834
212227
224339
238610
255851
276521
300489
328978
361055
396546
434156
473532
512866
548206
575193
602815
611642
611335
601939
584636
560829
528828
493295
455151
419724
391105
362867
343294
323498
310371
296873
287451
277711
270605
263351
257748
251994
247427
243307
239148
235463
231655
228444
225143
222550
220063
218037
216594
215112
214399
213672
213617
213896
214399
215270
216358
217759
219331
221054
222906
224676
226531
228105
229725
230953
232200
232940
233635
234058
234367
234273
234002
233512
232781
231798
230608
229320
227978
226573
225032
223372
221659
219978
218246
216449
214613
212750
210836
208897
206973
205120
203239
201338
199421
197533
195662
193789
191944
190071
188172
186236
184323
182482
180648
178874
177109
175395
173693
172004
170291
168601
166894
165285
163663
162160
160649
159218
157780
156408
155024
153681
152337
151008
149659
148312
146976
145656
144353
143077
141829
140614
139415
138244
137081
135948
134825
133729
132633
131559
130501
129458
128428
127417
126419
125441
124474
123529
122595
121687
120787
119916
119051
118214
117383
116574
115777
114996
114225
113461
112708
111969
111238
110523
109814
109121
108434
107764
107100
106456
105815
105195
104579
103984
103390
102819
102251
101702
101157
100628
100110
99594.1
99087.4
98583.5
98092.2
97601.6
97123.5
96647.7
96184.4
95727
95284.1
94844.7
94419.7
93998.2
93591.8
93190.2
92802.9
92421.1
92044.3
91683.3
91320.5
90960.8
90609
90262.8
89920.6
89585.4
89253.4
88928.8
88606.5
88292.3
87979.9
87676.8
87374.4
87082.1
86789.8
86507.7
86224.9
85953
85680.6
85419.1
85156.5
84905.2
84652.6
84410.3
84168.1
83931.8
83586.2
766293
241927
211454
193356
178364
168045
161905
159061
158393
159980
163506
168460
174877
182784
192307
203776
217553
234134
254394
278745
306839
339201
374919
413529
453299
492936
527252
555644
572135
581652
575504
562366
540632
510074
471376
427102
388545
351524
323240
300250
283206
270372
260486
253513
247199
243053
238429
234827
231010
227530
223711
219891
215946
211884
207695
203293
199247
195148
191448
187996
184739
181896
179118
176694
174395
172313
170769
169184
168182
167194
166674
166382
166488
166824
167388
168229
169283
170569
172020
173653
175370
177197
179096
181136
183086
185025
186858
188611
190273
191548
192694
193589
194497
195101
195502
195573
195516
195316
194945
194373
193660
192802
191826
190771
189685
188538
187345
186087
184800
183497
182176
180838
179464
178045
176565
175059
173565
172063
170587
169125
167694
166285
164877
163450
161998
160521
159089
157638
156275
154901
153602
152290
151042
149781
148567
147348
146146
144926
143697
142468
141242
140022
138824
137638
136491
135348
134240
133127
132049
130972
129924
128867
127828
126800
125786
124779
123790
122806
121843
120885
119949
119020
118116
117217
116347
115481
114643
113808
112997
112192
111405
110625
109853
109088
108338
107593
106864
106138
105429
104724
104035
103351
102685
102023
101380
100740
100121
99503.4
98907.2
98314.9
97740.7
97172.4
96617.9
96076
95534.5
95003.9
94475.7
93959.6
93444.4
92941.6
92440.7
91952.5
91469.8
91001.6
90536.8
90086.6
89639.6
89207.5
88779.8
88366.7
87959
87556.5
87168.5
86780.1
86395.3
86018
85646.8
85279.9
84919.8
84563.4
84214.2
83868.1
83529.9
83194.6
82868.3
82543.8
82228.9
81915.4
81611.3
81308
81014.6
80722
80439.3
80156.6
79884.3
79611.8
79348.6
79086.8
78829.8
78455.8
776530
234019
200299
182400
168528
158935
153057
150149
149364
150643
153818
158551
164946
173166
183509
196505
212572
232121
255955
284446
316767
353426
392902
434458
475932
510499
535370
555196
554814
549154
533290
507089
470746
423917
379134
335661
304286
276039
258078
242426
233690
226121
222190
219600
218116
216911
215741
214439
212459
210089
206957
203326
199243
194837
190393
185703
181464
177159
173252
169397
165787
162543
159453
156641
153965
151388
149151
146892
144929
142986
141235
139653
138164
136945
135752
134817
133975
133345
132894
132592
132596
132754
133106
133710
134524
135558
136781
138213
139806
141507
143297
145164
147163
149200
151308
153239
155195
157009
158871
160422
161906
163075
164119
164833
165517
165952
166329
166459
166426
166295
166039
165650
165138
164509
163752
162891
161960
160985
159990
158982
157963
156931
155882
154803
153680
152515
151339
150148
148991
147824
146700
145563
144477
143378
142327
141271
140247
139208
138156
137096
136029
134962
133901
132839
131809
130778
129777
128769
127783
126797
125834
124862
123899
122943
121997
121054
120125
119197
118286
117378
116488
115601
114736
113874
113036
112199
111387
110577
109787
109001
108234
107470
106715
105962
105225
104490
103771
103052
102347
101645
100958
100273
99605.8
98940.2
98292.2
97646.1
97019.2
96394.3
95789.2
95188.1
94604.4
94027.4
93462.5
92911.6
92359.9
91819.1
91279.6
90751
90222.8
89705.6
89189.7
88685.9
88186.8
87701.9
87220
86752.6
86288.1
85838.6
85392.9
84962.3
84537
84117.3
83710.7
83305
82901.7
82506
82115.9
81730.5
81350.9
80975.8
80607.4
80243.1
79886.2
79533.1
79188.3
78846.4
78513.3
78182.8
77860.8
77541
77230
76920.8
76620.6
76321.4
76031.2
75742.1
75461.3
75182.7
74908.2
74509.6
786209
227208
190610
173127
160114
151033
145246
142143
141115
141992
144769
149270
155715
164460
176038
191175
210318
233495
261690
295233
332732
374536
418019
461632
499489
523177
537603
539136
531128
513113
483216
439067
389204
339990
301399
269299
246728
228076
215168
204238
197698
192123
190123
190134
191462
193283
195778
195686
194406
192625
189553
185734
181570
177326
173282
169073
165170
161173
157556
153882
150580
147489
144604
141961
139527
137122
134999
132861
130906
128970
127132
125396
123694
122147
120578
119151
117706
116412
115100
113954
112793
111818
110833
110073
109329
108804
108305
108024
107824
107847
107976
108245
108707
109354
110206
111222
112414
113781
115345
117046
118872
120768
122720
124670
126646
128623
130660
132607
134519
136330
137996
139510
140798
141879
142732
143296
143709
143932
144090
144073
143977
143783
143484
143073
142557
141933
141231
140472
139679
138861
138033
137187
136360
135521
134705
133879
133070
132248
131407
130555
129689
128817
127938
127051
126178
125299
124439
123572
122715
121863
121026
120181
119334
118491
117651
116811
115978
115145
114322
113500
112689
111881
111088
110295
109521
108745
107989
107231
106492
105753
105032
104313
103602
102890
102193
101496
100812
100127
99453
98780.3
98118.5
97458.1
96812.1
96166.6
95536.6
94907.4
94295.4
93683.6
93090
92498.7
91923.7
91355
90796.4
90252.6
89707
89171.7
88636.1
88110.1
87583.2
87065.3
86547.6
86040.7
85537.1
85047
84558.8
84084.9
83612.8
83155.7
82701.9
82263.7
81830
81403.1
80986.4
80573.6
80160.5
79755
79354.2
78958.2
78566.9
78180.3
77799.3
77423
77052.7
76687.3
76328.8
75974.5
75627.4
75284.5
74948.8
74616.6
74291.8
73970.1
73656
73343.9
73039.5
72736.8
72441.9
72149.2
71860.5
71441.6
795067
221780
182148
165193
152861
144128
138327
134981
133619
134081
136491
140853
147556
157259
170708
188770
211845
240047
273970
313996
357880
404996
451753
490214
518376
528944
528889
520459
500010
465191
415578
360405
314175
275973
248091
226139
209414
195824
185305
175744
168336
161543
156327
150901
146626
142498
140135
139698
140497
142279
145314
149244
154054
154554
152987
150346
147763
144979
142251
139451
136883
134320
131875
129577
127430
125361
123491
121585
119826
118080
116414
114819
113251
111800
110328
108946
107547
106236
104909
103673
102422
101262
100093
99013.3
97952.1
96965.5
96011.4
95093.2
94252.4
93417.5
92685.2
91935.8
91337.4
90733.7
90319
89896.6
89656.4
89417.1
89425.6
89518
89732.9
90074.4
90554.5
91172.6
91944.5
92886
94021.5
95334.8
96844.4
98529.6
100370
102328
104355
106407
108465
110381
112243
114009
115759
117395
118968
120362
121654
122711
123632
124269
124765
125031
125220
125220
125177
125068
124913
124704
124451
124142
123788
123378
122916
122411
121868
121292
120687
120058
119412
118752
118085
117406
116721
116029
115342
114647
113947
113244
112539
111829
111119
110407
109697
108986
108280
107574
106881
106184
105498
104808
104134
103456
102792
102127
101476
100827
100184
99538.2
98904.1
98270.5
97642.8
97017.1
96395.2
95775.6
95161.9
94550.3
93948.6
93347.4
92758.4
92169.5
91595.2
91019.9
90459.7
89899.7
89352.8
88811.6
88277.8
87758.3
87236.6
86724.9
86211.9
85707.4
85200.5
84700.6
84199.3
83706.8
83215.8
82736.3
82257.5
81791.5
81326
80874.5
80425.6
79992
79561.4
79139
78722.6
78314
77902.2
77498.2
77097.3
76701.2
76309
75921.1
75537
75157.6
74782.1
74412.1
74047
73687.1
73332.7
72983.4
72640.1
72301.2
71968.4
71639.4
71316.9
70996.7
70683.2
70371.3
70066.8
69764.2
69465.3
69032
802719
217078
174797
158334
146587
138113
132248
128632
126949
127040
129202
133658
141017
152283
168528
190667
219432
254412
295896
343589
393907
444705
487600
514328
527888
526344
516304
491865
452140
396364
341141
295390
260723
234236
213965
197941
184822
173336
163093
153459
144718
136353
128612
121376
114658
108250
102628
97926.9
95075.8
94602.6
95889.7
99088.9
104362
110607
117985
123860
130690
129987
128470
126692
124679
122590
120486
118550
116664
114877
113219
111501
109937
108369
106877
105451
104054
102760
101447
100218
98973.5
97797.5
96607.3
95487.4
94355.4
93289.8
92215.2
91200.5
90191.6
89233.5
88292.4
87371.8
86484.2
85601.5
84759.3
83901.7
83101
82292.4
81564.6
80833.8
80153.2
79480.7
78864.1
78285.4
77752.6
77267.6
76809.1
76425.3
76061.6
75810.8
75601.8
75554.8
75621.1
75794.7
76096.6
76531.6
77100.6
77796
78609.7
79529
80568.9
81750.8
83083
84559.7
86167.5
87877.2
89657.4
91464
93308.7
94996.4
96685.4
98172.8
99637.9
100907
102191
103337
104510
105521
106543
107406
108193
108858
109370
109764
110023
110189
110227
110186
110087
109925
109708
109437
109117
108752
108352
107924
107469
106993
106496
105982
105452
104909
104354
103789
103217
102638
102057
101472
100890
100304
99726.8
99145.1
98571.1
97995.5
97429.4
96864.2
96302.9
95738.5
95182.5
94630.9
94077.4
93527.1
92974.8
92426.1
91878
91332.6
90792.9
90253.3
89722.4
89190.6
88670.3
88147.9
87637.6
87125.7
86624
86127.2
85635.5
85156.8
84676.1
84205
83731.8
83265.5
82795.7
82330.9
81863.4
81402.2
80941.1
80489.2
80036.8
79595.2
79153.2
78723.3
78294.8
77880.3
77467.2
77062.4
76660.2
76267.2
75870.1
75480.2
75091.9
74708
74327
73950
73575.3
73204.6
72836
72472.2
72111.7
71755.8
71404.6
71057.9
70716.6
70379.2
70047.3
69718.7
69395.8
69074.7
68759.4
68445.2
68137.8
67831.8
67528.6
67089.3
809234
214256
168518
152398
141181
132930
126989
123115
121147
121069
123178
128071
136717
150602
171101
199347
236022
279740
329804
384822
440562
486532
518403
528886
528438
516111
488274
441808
383787
327790
284691
251704
226837
207543
192026
179138
167854
157592
147959
138873
130341
122253
114543
107100
99968.5
93147.3
86630.3
80380
74983.7
71097
68141.4
65755.9
65803.6
68145
73563
81342.1
90240.6
100477
106847
113266
112620
111464
109899
108226
106486
104867
103389
101867
100545
99210.4
97932.9
96708
95506
94384.1
93248.3
92187.4
91113.3
90094.6
89063.1
88089.2
87104.7
86175.8
85237.6
84350.5
83458.7
82611.5
81772.4
80957.5
80157.6
79366.7
78601.6
77823.6
77076.2
76321.8
75614
74905.1
74228.9
73547.1
72893.6
72246.2
71627.5
71016.6
70419
69835.3
69256.6
68703.7
68171.2
67679.7
67227.2
66823.1
66453
66139.7
65850.7
65630
65418.4
65283.6
65156.8
65169.2
65252.6
65429
65709.6
66099.9
66599.9
67203
67903.6
68687.2
69551.3
70489
71502.2
72587.2
73762.7
75027.7
76399.4
77852.8
79409.1
81021.6
82689.1
84373.2
86037.4
87612.6
89107.2
90469.8
91730.4
92845.3
93858.6
94737.7
95518
96178.6
96736.8
97186.4
97532.7
97799.5
97958.2
98056.3
98047.3
97993.8
97886.5
97726.3
97517.1
97263.9
96971.6
96644.4
96286.4
95905
95505.9
95091.3
94666
94230.9
93788.7
93340.3
92888.7
92432.9
91972.7
91507.9
91039.9
90573.8
90104.2
89635.8
89163.5
88692.6
88219.4
87746.8
87277.2
86805.8
86340.9
85872.6
85416.1
84956.4
84505.5
84051.2
83605.1
83163
82725.1
82297.7
81869.3
81448.8
81026
80608.1
80187.1
79769.3
79348.4
78931.2
78513.3
78102.3
77690.3
77287
76882.9
76488.4
76094.3
75711.9
75330
74955.4
74581.6
74216.3
73847.3
73483.7
73120.9
72761.8
72404.5
72050.1
71697.2
71346.9
70998.1
70652.3
70309.3
69969.2
69633.5
69300.7
68973
68647.6
68327.3
68008.8
67695.3
67382.7
67075
66767.6
66466
66165.4
65866.1
65432.4
814321
211420
163185
147313
136550
128528
122542
118455
116285
116319
118718
124658
135632
153856
180982
217906
264684
317842
375988
437771
491165
522862
536594
532610
518362
486913
435574
374655
320337
278529
247308
223722
205472
190611
177902
166738
156606
147223
138343
129971
122029
114447
107110
100015
93173.4
86604.8
80276
74254.9
68542.2
63177.1
58151.6
53479.3
49343.5
47629.1
47578
48794.3
53017
60665.5
70290.8
81135.5
88914.3
97082.1
97651.7
97173.9
96300.5
95260.5
94161.7
93011.1
91953.4
90875.2