/*--------------------------------*- C++ -*----------------------------------*\
| =========                 |                                                 |
| \\      /  F ield         | OpenFOAM: The Open Source CFD Toolbox           |
|  \\    /   O peration     | Version:  2312                                  |
|   \\  /    A nd           | Website:  www.openfoam.com                      |
|    \\/     M anipulation  |                                                 |
\*---------------------------------------------------------------------------*/
FoamFile
{
    version     2.0;
    format      ascii;
    arch        "LSB;label=32;scalar=64";
    class       volScalarField;
    location    "0.004";
    object      p;
}
// * * * * * * * * * * * * * * * * * * * * * * * * * * * * * * * * * * * * * //

dimensions      [1 -1 -2 0 0 0 0];

internalField   nonuniform List<scalar> 
48128
(
2369.79
2365.08
2363.22
2349.55
2337.2
2313.55
2273.7
2224.67
2172.59
2124.34
2086.81
2060.02
2039.28
2029.26
2027.7
2032.02
2042.64
2059.91
2084.07
2116.32
2160.94
2215.65
2280.02
2356.86
2447.93
2553.56
2674.24
2809.41
2963.24
3133.13
3323.46
3531.7
3761.25
4009.15
4278.39
4562.32
4870.33
5179.11
5507.98
5833.47
6154.39
6477.84
6796.51
7108
7416.25
7721.46
8020.31
8308.59
8583.93
8851.86
9106.81
9355.54
9586.79
9814.64
10021.8
10224.1
10407.1
10579.2
10736.6
10874.5
11009
11125
11238.2
11348.5
11442.4
11534.7
11607.2
11677.1
11731.8
11786.2
11836.1
11880.8
11926.9
11968.1
12010.1
12049.4
12088
12130.4
12162.7
12199.7
12271
12317.3
12339.8
12363.3
12425.3
12459.7
12478
12490.2
12501.8
12591
12628.7
12642.4
12651.1
12658.3
12737.1
12770.1
12779.8
12788.9
12821.8
12840.8
12850.1
12857.3
12910.6
12935.6
12946.2
12956.7
12980.6
12994.9
13004.5
13010.9
13008.9
12999.6
12986.9
12980.4
12975.2
12993.9
13009.9
13025.3
13041.6
13055.7
13060.7
13055
13044.8
13040.5
13041.3
13044.6
13079.2
13104.1
13137.9
13170.7
13203.7
13233.8
13259.1
13280.1
13293.9
13301.1
13297.6
13291.1
13286
13283.2
13282
13285.4
13288.3
13296.7
13302.7
13308.9
13313.7
13319.1
13324.5
13325.7
13328.5
13327.6
13328
13326.9
13325.2
13324
13323.1
13323.4
13324
13326.2
13328.6
13333.1
13338.1
13344.5
13351.2
13359
13366.2
13373.3
13379.8
13386.5
13388.9
13392.8
13392.9
13393.2
13392.7
13391.4
13389.4
13387
13384.6
13382.4
13380.1
13378.9
13378.3
13378.9
13380.2
13382.7
13385.9
13390.3
13395.8
13402.7
13410
13417.6
13424.1
13429.8
13429.9
13429.4
13426.7
13422.2
13416.8
13411.6
13406.6
13403
13401.1
13401.5
13403.4
13406.8
13411.7
13417.9
13425.5
13432.6
13438.7
13444.1
13450.2
13448.9
13450
13450.5
13449.1
13448
13446.1
13444.2
13442.2
13440.4
13438.9
13437.9
13437.1
13436.8
13436.8
13437
13437.3
13437.9
13438.4
13439.1
13439.8
13440.6
13441.4
13442.6
13443.6
13445.2
13446.6
13440.2
2371.09
2365.29
2363.48
2350.64
2337.97
2311.61
2270.93
2221.49
2168.88
2123.88
2092.45
2065.26
2043.65
2033.19
2031.05
2035.1
2045.44
2062.51
2087.23
2119.75
2159.68
2211.84
2274.86
2350.72
2440.39
2544.2
2662.34
2796.22
2948.3
3115.28
3302.08
3506.79
3732.68
3976.78
4241.39
4520.9
4824.6
5130.29
5455.43
5778.22
6097.41
6416.37
6732.36
7043.8
7353.5
7658.25
7956.84
8245.99
8522.93
8791.71
9048.13
9297.36
9529.97
9757.95
9966.7
10170.7
10355.9
10529.6
10688.1
10829.7
10964.7
11082.7
11200.1
11312.2
11409.4
11503.2
11577.3
11648.5
11704.8
11761.7
11813
11859.5
11907.3
11950.1
11993.6
12033.7
12073.6
12118
12150.1
12186.3
12261.2
12308.9
12330.7
12353.1
12417.2
12452.8
12472
12483.3
12491.7
12585.5
12624.5
12638.7
12646.4
12650.8
12732.6
12767.1
12776.6
12784.7
12818
12837.7
12846.9
12852.9
12907.7
12933.5
12944.2
12954.1
12978
12992.7
13002.6
13008.9
13006.9
12997.4
12984.9
12978.3
12973.2
12993.1
13008.9
13024.5
13040.6
13054.7
13059.9
13053.9
13043.6
13039.5
13040.4
13043.8
13078.9
13103.6
13137.8
13170.4
13203.1
13233.5
13258.6
13279.4
13293.2
13300.6
13297
13290.4
13285.4
13282.7
13281.5
13284.9
13288
13296.2
13302.5
13308.6
13313.4
13318.8
13324.3
13325.4
13328.2
13327.3
13327.8
13326.7
13324.9
13323.8
13322.9
13323.2
13323.9
13326.1
13328.5
13333
13338
13344.4
13351.2
13358.9
13366.1
13373.3
13379.7
13386.5
13388.9
13392.7
13392.8
13393.1
13392.6
13391.3
13389.4
13386.9
13384.5
13382.4
13380
13378.9
13378.3
13378.9
13380.2
13382.7
13385.9
13390.3
13395.8
13402.7
13410
13417.7
13424.1
13429.8
13430
13429.4
13426.7
13422.3
13416.8
13411.6
13406.6
13403
13401.2
13401.5
13403.4
13406.9
13411.8
13418
13425.6
13432.6
13438.8
13444.1
13450.2
13449
13450.1
13450.5
13449.1
13448
13446.1
13444.2
13442.2
13440.5
13439
13437.9
13437.1
13436.8
13436.8
13437
13437.4
13437.9
13438.5
13439.2
13439.8
13440.7
13441.5
13442.6
13443.7
13445.3
13446.6
13440.2
2372.83
2366.07
2361.26
2349.24
2330.46
2300.98
2259.22
2211
2162.62
2118.9
2081.45
2055.59
2036.46
2027.5
2026.49
2031.26
2042.04
2059.41
2083.69
2116.31
2158.2
2210.16
2272.65
2348.09
2436.91
2539.73
2656.52
2788.5
2938.09
3102.69
3286.61
3488.45
3710.85
3952.13
4212.82
4488.84
4789.37
5092.54
5413.79
5733.9
6051.91
6371.13
6686.55
7000.07
7309.58
7614.74
7913.95
8203.67
8482.65
8753.77
9011.73
9262.57
9496.56
9727.92
9939.51
10146
10332.8
10507.8
10666.2
10811
10945.4
11063.1
11184.5
11296.9
11396.6
11491
11564.8
11636.8
11693.2
11751.8
11803.1
11850.6
11899.2
11942.6
11986.7
12026.9
12067.6
12112.8
12145.5
12180.7
12255.8
12304.3
12327.5
12349.6
12412.1
12449
12470
12481.6
12487.9
12579.3
12620.8
12637.3
12646
12649.3
12726.9
12763.7
12775.3
12783.8
12814.9
12836.2
12846
12851.4
12904.5
12931.3
12943.4
12953.3
12976
12991.4
13001.4
13007.5
13005.5
12995.8
12983.7
12977
12971.9
12992.3
13008.3
13024.2
13039.9
13053.7
13058.8
13052.9
13042.6
13038.7
13040
13043.1
13078.6
13103.3
13137.7
13170.3
13202.6
13233.2
13258.1
13278.7
13292.4
13300
13296.6
13289.7
13284.8
13282.4
13281.2
13284.4
13287.6
13296
13302.2
13308.4
13313.2
13318.6
13324.1
13325.3
13328
13327
13327.6
13326.5
13324.8
13323.7
13322.7
13323.1
13323.8
13325.9
13328.4
13332.9
13337.9
13344.4
13351.1
13358.9
13366
13373.2
13379.6
13386.4
13388.9
13392.7
13392.7
13393
13392.5
13391.3
13389.3
13386.9
13384.5
13382.3
13380
13378.8
13378.3
13378.9
13380.2
13382.7
13385.9
13390.3
13395.8
13402.7
13410.1
13417.7
13424.1
13429.7
13430.1
13429.4
13426.7
13422.3
13416.8
13411.6
13406.6
13403
13401.2
13401.5
13403.4
13406.9
13411.8
13418
13425.6
13432.6
13438.9
13444.1
13450.2
13449.1
13450
13450.5
13449.1
13448
13446.1
13444.2
13442.3
13440.5
13439
13437.9
13437.2
13436.8
13436.8
13437.1
13437.4
13437.9
13438.5
13439.2
13439.9
13440.7
13441.5
13442.7
13443.7
13445.3
13446.7
13440.4
2378.33
2366.27
2360.42
2343.59
2319.86
2285.95
2243.05
2196.13
2148.91
2109.23
2076.84
2051.84
2034.11
2026.03
2025.46
2030.81
2041.82
2059.03
2082.79
2114.27
2154.32
2204.77
2265.95
2339.88
2426.82
2527.85
2642.53
2772.53
2919.59
3081.44
3262.05
3461.43
3681.1
3918.84
4177.73
4450.1
4748.14
5049.14
5369.64
5686.89
6004.17
6324.81
6639.29
6954.29
7263.24
7569.22
7868.14
8158.17
8438.29
8712.6
8970.76
9222.12
9454.99
9689.15
9904.26
10113.4
10301.5
10478.2
10635.7
10785.3
10918.2
11035.1
11162.3
11274.5
11378
11472.9
11546.4
11619.7
11676.2
11737.6
11788.8
11837.8
11887.7
11931.9
11977.2
12017.7
12059.3
12105.5
12139.8
12174.4
12247.8
12297.2
12323.4
12346
12405
12443.3
12467.1
12480.4
12487.3
12569.4
12613.2
12635.1
12646.1
12650.4
12718.8
12757.3
12773.3
12783.4
12811.3
12833.4
12845
12850.2
12899.9
12927.6
12942.1
12952.7
12973.2
12989.4
12999.6
13005.3
13003.2
12993.7
12982.1
12975.7
12970.7
12991.1
13007.6
13023.8
13038.9
13051.9
13057
13051.3
13041.6
13037.6
13039.6
13043.4
13077.6
13103.1
13137.4
13170.3
13202.3
13232.6
13257.2
13277.5
13290.9
13298.9
13295.9
13288.8
13284.1
13282
13280.9
13283.9
13287.3
13295.7
13301.8
13307.9
13312.8
13318
13323.6
13325.1
13327.6
13326.7
13327.2
13326.2
13324.5
13323.4
13322.5
13322.9
13323.6
13325.7
13328.3
13332.8
13337.8
13344.3
13351
13358.8
13365.9
13373.1
13379.5
13386.2
13388.9
13392.5
13392.5
13392.9
13392.4
13391.1
13389.2
13386.8
13384.4
13382.2
13379.9
13378.8
13378.3
13378.8
13380.1
13382.6
13385.9
13390.4
13395.8
13402.8
13410.1
13417.7
13424.1
13429.7
13430.2
13429.3
13426.6
13422.2
13416.7
13411.6
13406.6
13403
13401.2
13401.6
13403.5
13407
13411.8
13418.1
13425.7
13432.6
13438.9
13444.1
13450.2
13449.3
13450
13450.5
13449.2
13448
13446.1
13444.2
13442.3
13440.5
13439
13438
13437.2
13436.9
13436.9
13437.1
13437.5
13438
13438.5
13439.2
13439.9
13440.7
13441.6
13442.7
13443.7
13445.3
13446.7
13440.6
2380.6
2366.5
2354.71
2333.92
2304.68
2267.64
2225.16
2180.58
2136.58
2098.03
2067.43
2044.73
2029.42
2022.84
2022.96
2028.89
2039.79
2056.75
2079.95
2110.51
2149.63
2198.77
2258.6
2331.11
2416.41
2515.93
2628.48
2756.28
2901.05
3061.11
3239.72
3435.02
3654.39
3887.57
4145.67
4417.08
4716.21
5013.73
5334.06
5646.47
5961.65
6289.9
6598.82
6915.05
7220.37
7531.06
7826.89
8119.14
8398.14
8675.53
8934.15
9185.42
9416.8
9654.29
9874.86
10086.6
10275.7
10453.5
10609.9
10765
10894.2
11011
11145.5
11255.5
11363.6
11457.4
11529.7
11604.7
11660.9
11725.8
11776.2
11827.3
11878.2
11923.2
11969.6
12010.6
12052.9
12099.9
12137.1
12170.5
12240.5
12290.2
12320.7
12344.4
12398.6
12437.9
12465.1
12481.1
12490.5
12559.3
12604.7
12633.9
12648
12654.4
12711
12750.1
12772
12783.9
12808.5
12831.6
12845.1
12851.6
12895
12923.3
12941.5
12952.7
12971.1
12987.8
12998.1
13003.2
13000.9
12991.8
12981.2
12975.3
12970.6
12990.2
13007.5
13024.1
13038.2
13050
13054.7
13049.6
13040.9
13037.3
13039.9
13045
13076.5
13103.4
13137.8
13170.6
13201.9
13231.9
13256.1
13276.1
13289.2
13297.3
13295
13287.9
13283.6
13281.8
13280.8
13283.7
13287
13295.4
13301.5
13307.6
13312.5
13317.6
13323.1
13324.9
13327.3
13326.3
13326.9
13325.9
13324.2
13323.2
13322.3
13322.7
13323.5
13325.6
13328.2
13332.8
13337.7
13344.3
13350.9
13358.7
13365.8
13373
13379.3
13386
13388.8
13392.4
13392.4
13392.7
13392.2
13391
13389.1
13386.7
13384.3
13382.2
13379.9
13378.7
13378.3
13378.8
13380.1
13382.6
13385.9
13390.4
13395.9
13402.9
13410.1
13417.7
13424
13429.6
13430.1
13429.1
13426.4
13422.1
13416.7
13411.5
13406.6
13403
13401.2
13401.7
13403.6
13407.1
13411.9
13418.2
13425.7
13432.6
13438.9
13444.1
13450.1
13449.4
13450
13450.4
13449.2
13448
13446.1
13444.2
13442.3
13440.5
13439.1
13438
13437.3
13436.9
13436.9
13437.2
13437.5
13438
13438.6
13439.3
13439.9
13440.8
13441.6
13442.8
13443.8
13445.4
13446.6
13440.8
2380.95
2363.36
2346.68
2320.52
2287.05
2249.07
2207.24
2162.84
2121.56
2086.33
2058.53
2038.05
2024.97
2019.64
2020.16
2026.45
2037.04
2053.54
2076.01
2105.53
2143.53
2191.36
2249.87
2320.93
2404.44
2502.7
2613.21
2739.18
2882.45
3039.6
3218.83
3408.82
3626.56
3857.86
4114.89
4382.69
4681.77
4971.81
5293.62
5599.21
5904.85
6245.37
6542.8
6861.12
7157.25
7474.76
7769.52
8064.7
8348.59
8621.71
8883.92
9132.42
9364.63
9606.91
9834.82
10052
10240.9
10421.4
10576.8
10740
10865.6
10980.2
11129
11232.6
11349.3
11442.2
11509.3
11590.2
11642.3
11715.2
11761.7
11817.6
11868.8
11914
11961.7
12003.8
12047
12094.1
12135.3
12170.1
12232.3
12280.7
12318.3
12344.7
12392.5
12430.8
12463.1
12482.8
12495.6
12549.3
12595.2
12631.9
12650.4
12660
12703.2
12742.4
12770.2
12784.5
12806.6
12829.9
12845.5
12855
12889.4
12918.5
12940.3
12953
12969.4
12986
12996.4
13000.6
12997.8
12989.6
12980.6
12975.6
12971.9
12989.6
13008.1
13024.8
13037.6
13047.6
13051.7
13047.3
13040.6
13037.8
13040.9
13047.5
13075.7
13104.5
13138.8
13171.1
13201.6
13231.3
13254.7
13274.3
13287
13295.2
13293.8
13287.1
13283.3
13281.7
13281.1
13283.8
13287.1
13295.1
13301.3
13307.4
13312.3
13317.1
13322.6
13324.6
13327
13326
13326.5
13325.6
13323.9
13323
13322.3
13322.7
13323.5
13325.6
13328.3
13332.8
13337.7
13344.3
13350.9
13358.6
13365.7
13372.9
13379.1
13385.7
13388.7
13392.3
13392.2
13392.5
13392.1
13390.8
13389
13386.6
13384.2
13382.1
13379.9
13378.7
13378.3
13378.9
13380.2
13382.7
13385.9
13390.5
13396
13403
13410.1
13417.6
13423.8
13429.5
13430
13428.9
13426.2
13422
13416.6
13411.5
13406.6
13403
13401.3
13401.8
13403.8
13407.2
13412
13418.3
13425.7
13432.6
13438.9
13444.1
13450
13449.4
13449.9
13450.4
13449.2
13447.9
13446.1
13444.2
13442.3
13440.6
13439.1
13438
13437.3
13437
13437
13437.2
13437.5
13438.1
13438.6
13439.3
13440
13440.8
13441.7
13442.8
13443.8
13445.4
13446.7
13441
2377.28
2356.14
2335.43
2305.24
2269.71
2231.61
2187.97
2145.22
2106.88
2074.73
2049.59
2031.41
2020.24
2015.97
2016.83
2023.06
2033.58
2049.47
2071.15
2099.53
2136.35
2182.96
2239.97
2309.7
2391.31
2488.65
2597.67
2721.26
2864.12
3016.22
3194.08
3382.4
3595.91
3822
4073.57
4329.02
4629.71
4901.55
5232.04
5527.43
5816.32
6162.27
6449.3
6768.58
7062.88
7382.93
7677.1
7976.66
8272.04
8536.58
8800.56
9043.66
9273.51
9525.95
9759.34
9990.85
10176.1
10369.5
10519
10696.8
10824.2
10935.5
11102.2
11197.1
11327.9
11424.1
11479.4
11573.8
11619.1
11701.8
11744.3
11807.2
11859.3
11903.5
11953.2
11997.2
12042.8
12088.8
12134.8
12172
12223.2
12270.6
12316.4
12346.5
12385.7
12423.1
12461
12484.1
12500.7
12541.4
12585.8
12629.7
12651.4
12665.5
12697.7
12735.2
12767.4
12784.7
12805.5
12828.8
12845.7
12858.4
12884.4
12914.4
12938.7
12953.3
12968.5
12984.1
12994.4
12997.2
12993.9
12987.5
12980.5
12976.7
12974.5
12989.9
13009.3
13025.8
13037.1
13044.5
13047.8
13044.8
13040.5
13039.3
13042.3
13050.5
13076.9
13106.6
13140
13171.4
13201.2
13230.4
13253
13272.4
13284.4
13292.4
13292.3
13286.3
13283.3
13282
13281.6
13284.1
13287.5
13294.9
13301
13307.3
13312.1
13316.9
13322
13324.3
13326.8
13325.8
13326.1
13325.3
13323.7
13322.9
13322.2
13322.7
13323.6
13325.6
13328.5
13333
13337.9
13344.4
13351
13358.6
13365.6
13372.8
13378.9
13385.3
13388.5
13392.2
13392.1
13392.3
13391.9
13390.7
13388.9
13386.5
13384.2
13382.1
13379.9
13378.8
13378.4
13379
13380.3
13382.8
13386
13390.7
13396.1
13403.2
13410.1
13417.6
13423.7
13429.3
13429.8
13428.7
13425.9
13421.9
13416.5
13411.5
13406.7
13403.1
13401.5
13402
13404
13407.4
13412.2
13418.5
13425.8
13432.6
13439
13444
13449.8
13449.4
13449.9
13450.3
13449.2
13447.9
13446.1
13444.3
13442.4
13440.6
13439.2
13438.1
13437.4
13437
13437
13437.3
13437.6
13438.1
13438.7
13439.4
13440
13440.9
13441.7
13442.8
13443.9
13445.5
13446.7
13441.2
2370.42
2344.86
2321.8
2289.47
2252.94
2212.85
2169.07
2128.68
2093.26
2064
2041.24
2025.09
2015.55
2011.95
2013.06
2019.25
2029.6
2044.69
2065.47
2092.67
2128.27
2173.77
2229.11
2297.7
2377.82
2473.4
2581.58
2701.4
2842.65
2991.54
3164.69
3346.8
3551.38
3765.11
4021.9
4243.31
4535.85
4781.69
5099.97
5400.65
5677.43
6015.14
6297.52
6619.5
6920.67
7237.55
7539.97
7839.66
8146.75
8407.45
8681.68
8937.73
9148.87
9436.8
9645.45
9899.18
10072.2
10293.9
10433.7
10630.1
10758.4
10881.1
11057.6
11147
11290.9
11390.7
11439.5
11542.8
11590.4
11678
11722.5
11792.6
11845.3
11890.8
11943.5
11989.8
12038.4
12083.9
12133.6
12171.6
12215.6
12260.9
12313
12345.6
12380
12416.4
12457.7
12485.2
12505.1
12537.5
12577.8
12624.6
12652.2
12669.9
12694.8
12728.5
12763
12784.7
12805.1
12827.7
12846.1
12861.1
12881.7
12910.1
12936
12953.3
12967.7
12982
12991.4
12992.6
12989.5
12985.4
12981.1
12977.8
12977.9
12992.5
13011.4
13026.7
13036.3
13040.7
13043.1
13042
13040.7
13041
13044.6
13054.5
13080.6
13109.4
13141.1
13171.9
13200.8
13229.2
13250.8
13269.9
13281.3
13288.8
13290.7
13285.5
13283.4
13282.3
13282.5
13284.9
13288.3
13294.9
13300.9
13307.2
13311.9
13316.8
13321.3
13323.9
13326.5
13325.6
13325.7
13325.1
13323.6
13322.9
13322.3
13322.8
13323.8
13325.9
13328.8
13333.2
13338.2
13344.6
13351.2
13358.7
13365.6
13372.8
13378.8
13384.8
13388.3
13392.1
13392
13392.1
13391.7
13390.5
13388.8
13386.5
13384.2
13382.2
13380
13378.9
13378.5
13379.1
13380.4
13382.9
13386.2
13390.9
13396.3
13403.4
13410.2
13417.6
13423.6
13429.1
13429.5
13428.4
13425.6
13421.8
13416.5
13411.6
13406.8
13403.2
13401.7
13402.3
13404.3
13407.6
13412.5
13418.7
13425.9
13432.5
13439
13443.9
13449.6
13449.4
13449.9
13450.3
13449.2
13447.9
13446.1
13444.3
13442.4
13440.7
13439.3
13438.2
13437.4
13437.1
13437.1
13437.3
13437.7
13438.2
13438.7
13439.4
13440.1
13440.9
13441.8
13442.9
13444
13445.5
13446.8
13441.4
2359.92
2330.56
2306.7
2273.19
2236.47
2194.17
2151.88
2113.93
2081.13
2054.31
2033.71
2019.34
2011
2007.84
2009.12
2015.2
2025.09
2039.44
2059.27
2085.2
2119.43
2163.9
2217.91
2284.68
2364.1
2457.5
2562.8
2680.19
2816.49
2958.75
3120.76
3293.4
3497.99
3669.35
3919.09
4111.2
4389.16
4615.17
4905.54
5212.35
5491.7
5803.47
6101.26
6411.25
6737.61
7035.92
7366.38
7642.97
7984.87
8224.35
8517.89
8780.03
8994.48
9330.79
9511.08
9783.26
9936.96
10182.8
10321.8
10532.4
10665.8
10815.8
10993.8
11081.7
11239.8
11339.2
11391.7
11501.2
11555.8
11648.2
11695.8
11774.2
11826.3
11875.5
11931.3
11979.7
12031.9
12077.4
12128.9
12168.9
12208.1
12250.1
12304.7
12342.1
12374.2
12409.7
12452.5
12486.2
12508.4
12535.2
12571.5
12617.7
12651.7
12673.1
12693.8
12722.7
12757.2
12783.7
12805
12826.5
12846.8
12863
12880.6
12906.1
12932.7
12952.5
12966.7
12979.4
12987.3
12986.8
12985.1
12983.4
12982
12980.6
12982.8
12996
13013.9
13026.6
13034.4
13036.6
13037.9
13039.5
13040.8
13043.5
13048
13060.2
13085.6
13112.7
13142.3
13172.5
13200.3
13227.6
13248.1
13266.6
13277.4
13285
13288.3
13284.8
13283.6
13283
13283.7
13286
13289
13295
13300.9
13307.1
13311.9
13316.6
13320.7
13323.4
13326.2
13325.5
13325.4
13324.8
13323.5
13322.9
13322.6
13323.1
13324.2
13326.3
13329.2
13333.7
13338.6
13344.9
13351.4
13358.8
13365.6
13372.8
13378.6
13384.5
13388
13392
13391.8
13391.9
13391.6
13390.3
13388.7
13386.5
13384.2
13382.3
13380.1
13379.1
13378.7
13379.4
13380.7
13383.2
13386.6
13391.2
13396.6
13403.7
13410.4
13417.6
13423.4
13428.8
13429.1
13428.1
13425.4
13421.6
13416.4
13411.6
13407
13403.4
13402
13402.6
13404.6
13408
13412.8
13419
13425.9
13432.5
13439
13443.7
13449.3
13449.4
13449.9
13450.2
13449.1
13447.8
13446.1
13444.3
13442.5
13440.8
13439.4
13438.3
13437.5
13437.2
13437.2
13437.4
13437.7
13438.2
13438.8
13439.5
13440.2
13441
13441.9
13443
13444.1
13445.6
13446.9
13441.5
2345.5
2313.97
2290.56
2256.85
2219.92
2177.06
2137.03
2101.18
2070.64
2045.94
2027.23
2014.29
2006.78
2003.95
2005.29
2011.06
2020.27
2033.73
2052.74
2077.28
2110.23
2153.3
2206.72
2272.29
2348.6
2441.1
2540.59
2652.81
2778.7
2912.34
3065.8
3199.38
3404.79
3541.71
3770.36
3933.73
4181.75
4391.53
4652.55
4942.72
5256.06
5526.93
5882.03
6145.29
6545.34
6802.64
7195.57
7431.13
7814.81
8021.24
8339.87
8576.99
8838.67
9189.33
9344.95
9639.61
9786.74
10045.1
10176.4
10408.6
10548.1
10732.4
10917.6
11000.9
11172.2
11267.4
11334.5
11452.8
11514.7
11611.6
11662.9
11749.4
11801.3
11857.7
11917.5
11966.4
12023.8
12069.8
12121.6
12163.4
12202
12239.2
12293.5
12333.7
12368.8
12403.3
12446
12482.9
12510.8
12535.5
12566.5
12609.2
12646.6
12673.8
12694
12717.8
12749.6
12780.5
12804.5
12825.2
12847.2
12865
12880.3
12902.7
12928.3
12950.5
12965.2
12976.2
12980.4
12980.7
12980.5
12981.4
12983.4
12985.3
12989.4
13000.4
13016.2
13026
13030.9
13031.5
13033
13036.7
13041.4
13047
13053.5
13067.4
13091.1
13116.6
13143.8
13173
13199.6
13225.5
13244.7
13262.5
13273
13280.5
13285.3
13284.4
13283.9
13284.1
13285.1
13287.4
13290.1
13295.3
13301
13306.9
13311.7
13316.4
13320.1
13322.9
13325.8
13325.3
13325.1
13324.6
13323.5
13323.1
13322.9
13323.5
13324.7
13326.8
13329.8
13334.2
13339.1
13345.4
13351.8
13359
13365.6
13372.8
13378.3
13384.1
13387.7
13391.8
13391.6
13391.8
13391.4
13390.2
13388.6
13386.5
13384.3
13382.4
13380.3
13379.3
13379
13379.7
13381
13383.6
13386.9
13391.6
13397
13404.1
13410.6
13417.6
13423.1
13428.4
13428.6
13427.8
13425
13421.4
13416.4
13411.6
13407.2
13403.8
13402.4
13403.1
13405
13408.4
13413.2
13419.2
13426.1
13432.5
13439.1
13443.5
13449
13449.3
13450
13450.1
13449.1
13447.8
13446.1
13444.3
13442.6
13440.9
13439.5
13438.4
13437.7
13437.3
13437.3
13437.5
13437.8
13438.3
13438.9
13439.6
13440.2
13441.1
13441.9
13443.1
13444.2
13445.6
13446.9
13441.6
2328.6
2296.28
2273.81
2241.33
2203.63
2162.15
2124.36
2090.49
2061.98
2039.13
2021.94
2010.07
2003.12
2000.48
2001.83
2007.06
2015.45
2027.64
2045.84
2068.9
2101.05
2144
2194.85
2260.49
2331.98
2420.12
2510.63
2615.52
2729.79
2833.63
2986.96
3081.15
3265.12
3364.28
3563.8
3684.15
3899.78
4055.02
4312.63
4524.81
4858.11
5071.48
5438.12
5658.7
6115.84
6343.88
6801.29
7049.88
7500.9
7739.38
8150.37
8369.29
8697.95
9032.26
9183.57
9483.75
9627.52
9903.03
10019.6
10265.3
10399.4
10623.1
10812.1
10903.4
11087.1
11178.7
11270.1
11398.2
11464.9
11569
11623.2
11716.2
11770.3
11837.2
11900.5
11951.4
12012.3
12059.1
12111.9
12152.9
12195.1
12230.2
12279.9
12319.4
12362.9
12398.3
12438.5
12476.5
12510.7
12538.1
12564.1
12600.3
12638.5
12671.8
12694.7
12713.9
12741.7
12775.4
12802
12824.1
12846.8
12866.6
12881
12899.6
12923.2
12947
12961.2
12970.8
12972.1
12973.6
12975.4
12979.5
12985.2
12991.2
12997.8
13006
13018.3
13023.8
13025.8
13026.2
13028.4
13034.1
13042.4
13051.8
13061.2
13075.4
13097.6
13121
13145.4
13173.6
13198.5
13222.5
13240.8
13257.5
13267.2
13275.2
13282
13284.2
13284.4
13285.3
13286.9
13289
13291.4
13295.9
13301.2
13306.8
13311.5
13316.3
13319.4
13322.3
13325.4
13325.2
13324.9
13324.5
13323.6
13323.4
13323.3
13324
13325.3
13327.5
13330.5
13334.8
13339.8
13345.9
13352.3
13359.2
13365.7
13372.9
13378.1
13383.7
13387.3
13391.5
13391.3
13391.6
13391.2
13390
13388.5
13386.5
13384.4
13382.6
13380.6
13379.6
13379.4
13380.1
13381.5
13384
13387.4
13392.1
13397.5
13404.4
13410.8
13417.7
13422.7
13427.9
13428
13427.3
13424.7
13421.2
13416.3
13411.7
13407.4
13404.1
13402.9
13403.6
13405.6
13409
13413.7
13419.6
13426.2
13432.5
13439.1
13443.3
13448.6
13449.2
13450
13450.1
13449
13447.8
13446.2
13444.4
13442.7
13441
13439.6
13438.5
13437.8
13437.5
13437.4
13437.6
13438
13438.4
13439
13439.6
13440.3
13441.2
13442.1
13443.1
13444.3
13445.8
13446.9
13441.7
2310.33
2278.72
2257.69
2226.7
2188.85
2149.84
2113.93
2082.01
2055.3
2034.02
2018.01
2006.89
2000.34
1997.76
1998.89
2003.34
2010.45
2021.17
2038.9
2061.93
2092.2
2135.83
2183.26
2246.08
2312.09
2392.32
2466.92
2559.37
2664.47
2732.43
2873.48
2929.46
3071.61
3148.9
3280.38
3384.21
3515.14
3654.76
3811.8
4015.2
4294.27
4480.71
4895.5
5108.85
5556.14
5815.99
6323.42
6550.78
7058.29
7246.4
7713.53
7927.24
8370.43
8716.6
8924.55
9284.75
9466.55
9759.84
9889.01
10134.8
10255.2
10500.3
10676.1
10787
10984.2
11075.5
11201.8
11335
11405.1
11521
11577.8
11676.5
11734.3
11814
11880.2
11933.4
11996.9
12045.3
12098.9
12140.6
12185.9
12219.3
12265.9
12302.9
12354
12389.5
12430.7
12467.5
12507.9
12537.5
12562.8
12592
12627.9
12666.1
12692.4
12712.4
12736
12768.1
12797.1
12823.1
12845.8
12867
12882.1
12898.1
12918.4
12940.6
12953.9
12964.6
12962.7
12965.6
12970.1
12978
12986.7
12996.9
13007.4
13012.3
13020.1
13020.7
13020.2
13020.5
13023.9
13032.2
13043.8
13056.6
13070.5
13084.9
13104.9
13125.7
13147.8
13173.9
13196.8
13218.9
13235.5
13251.6
13259.9
13269.9
13278.5
13283.7
13284.9
13286.6
13288.6
13290.6
13292.9
13296.7
13301.4
13306.5
13311.3
13316.1
13318.8
13321.8
13325
13325.1
13324.6
13324.4
13323.8
13323.7
13323.9
13324.7
13326.1
13328.3
13331.4
13335.6
13340.5
13346.5
13352.8
13359.5
13365.9
13372.9
13377.8
13383.3
13386.8
13391.1
13391
13391.4
13391
13389.9
13388.5
13386.6
13384.5
13382.8
13380.9
13380
13379.9
13380.6
13382
13384.6
13388
13392.7
13398.1
13404.9
13411.1
13417.7
13422.3
13427.2
13427.3
13426.8
13424.3
13420.9
13416.2
13411.9
13407.8
13404.6
13403.5
13404.2
13406.2
13409.6
13414.3
13420
13426.3
13432.6
13439.1
13443
13448.2
13449.1
13450
13450
13449
13447.8
13446.2
13444.5
13442.8
13441.2
13439.8
13438.7
13438
13437.6
13437.6
13437.8
13438.1
13438.5
13439.1
13439.7
13440.4
13441.3
13442.2
13443.2
13444.4
13445.9
13446.9
13441.8
2291.7
2262.35
2243.02
2213.17
2176.26
2140.13
2105.94
2075.85
2050.73
2030.74
2015.61
2005.04
1998.67
1995.93
1996.43
1999.25
2005.39
2015.79
2033.14
2055.86
2084.62
2126.72
2170.03
2227.13
2285.75
2354.55
2409.51
2477.53
2580.18
2612.5
2723.86
2751.08
2853.51
2884.31
2983.39
3022.8
3116.16
3202.35
3328.51
3442.84
3608.82
3751.42
4009.48
4210.27
4616.94
4887.4
5454.71
5741.8
6322.17
6587.46
7198.14
7473.39
8024.79
8365.96
8596.86
9000.27
9168.78
9512.6
9696.55
9982.9
10124.5
10381
10540.8
10664.2
10870
10960.1
11125.3
11262.9
11334.4
11465.9
11526.7
11633.3
11694.3
11787
11857.1
11913
11979.5
12028.4
12084.5
12125.2
12173.5
12207
12252.4
12288
12340.4
12378.9
12422.4
12458.4
12502.6
12532.5
12560.6
12587.5
12615.8
12657.1
12683.9
12710.2
12732.8
12760.2
12790
12820.2
12843.7
12865.9
12882
12896.8
12913.6
12932.3
12945.4
12956.4
12953.8
12959.8
12966.1
12977
12988.5
13002.2
13015.7
13018.3
13021.8
13017.3
13014
13015.3
13020.4
13030.6
13045.2
13061.5
13079.5
13095.9
13113.2
13131.1
13150.7
13174.2
13194.9
13214.8
13228.9
13244.2
13252.5
13264.4
13274.5
13282.8
13285.2
13287.9
13290.4
13292.2
13294.3
13297.5
13301.6
13306.3
13311
13315.8
13318.2
13321.1
13324.3
13324.8
13324.3
13324.2
13324
13324.1
13324.4
13325.4
13326.9
13329.2
13332.3
13336.5
13341.4
13347.2
13353.3
13359.8
13366
13372.9
13377.5
13382.8
13386.3
13390.7
13390.6
13391.2
13390.7
13389.7
13388.4
13386.6
13384.7
13383.1
13381.3
13380.5
13380.5
13381.2
13382.6
13385.2
13388.7
13393.3
13398.7
13405.4
13411.3
13417.7
13421.8
13426.5
13426.6
13426.2
13423.8
13420.5
13416.2
13412
13408.2
13405.2
13404.2
13404.9
13406.9
13410.3
13414.9
13420.4
13426.5
13432.6
13439
13442.7
13447.7
13448.9
13450
13449.8
13448.9
13447.7
13446.2
13444.5
13442.9
13441.3
13440
13438.9
13438.2
13437.8
13437.8
13437.9
13438.2
13438.7
13439.2
13439.8
13440.6
13441.4
13442.3
13443.4
13444.6
13446.1
13446.9
13441.8
2274.5
2247.89
2230.34
2200.63
2166.6
2132.88
2100.53
2072.14
2048.45
2029.39
2014.83
2004.51
1998.09
1994.77
1993.86
1995.81
2001.7
2011.33
2028.75
2050.36
2076.22
2115.63
2152.93
2200.65
2248.77
2308.18
2344.83
2392.04
2477.15
2481.27
2554.95
2564.56
2606.95
2635.05
2655.06
2691.58
2721.06
2748.36
2773.31
2800.5
2841.03
2870.62
2931.58
3012.26
3166.86
3345.87
3676.84
4050.84
4702.21
5112.13
5948.19
6427.86
7207.58
7658.56
8063.86
8559.07
8847
9238.96
9437.4
9764.04
9924.92
10209
10380.5
10531.9
10738.2
10839.3
11045.2
11184.7
11257.4
11404.9
11469.1
11586.2
11651.9
11755.7
11829.9
11889.5
11959.9
12008.5
12067.5
12107.4
12158.9
12193.1
12239.5
12274.6
12326.4
12366
12413.5
12448.7
12494
12524.6
12557.2
12584
12607.5
12645.1
12673.9
12706.7
12728.8
12754.6
12781.3
12814.7
12838.8
12863.5
12880.2
12895.4
12908.9
12923
12934.5
12947.5
12944.2
12953.2
12961.8
12976.1
12990.7
13007.6
13022.8
13023.2
13021.9
13014
13009.3
13011.1
13017.7
13029.8
13047.3
13066.9
13089
13106.2
13122.5
13137.2
13154.6
13174.1
13192.2
13209.6
13221.2
13236
13245.1
13259.1
13269.8
13281.3
13285.4
13289.1
13292.2
13293.8
13296
13298.6
13302
13306.2
13310.6
13315.4
13317.4
13320.3
13323.4
13324.3
13323.8
13323.9
13324.1
13324.4
13325
13326.1
13327.8
13330.2
13333.3
13337.4
13342.3
13347.9
13353.8
13360
13366.1
13372.8
13377
13382.2
13385.6
13390
13390.2
13390.8
13390.4
13389.4
13388.2
13386.6
13384.8
13383.3
13381.7
13381
13381
13381.8
13383.3
13385.9
13389.4
13394.1
13399.4
13406
13411.5
13417.6
13421.1
13425.6
13425.7
13425.5
13423.2
13420.2
13416.1
13412.2
13408.7
13405.9
13405
13405.7
13407.7
13411.1
13415.6
13420.9
13426.7
13432.5
13438.9
13442.3
13447.2
13448.7
13450
13449.7
13448.8
13447.7
13446.2
13444.6
13443
13441.5
13440.2
13439.1
13438.4
13438
13437.9
13438.1
13438.4
13438.8
13439.3
13440
13440.7
13441.5
13442.4
13443.5
13444.8
13446.3
13446.9
13441.8
2259.62
2235.84
2220.48
2190.69
2160.09
2128.14
2097.76
2070.87
2048.36
2029.94
2015.64
2005.3
1998.5
1994.05
1992.16
1993.61
1999.24
2008.06
2025
2043.63
2065.84
2101.49
2131.75
2171.05
2200.43
2261.63
2275.35
2308.22
2353.68
2351.29
2381.07
2375.87
2376.62
2371.83
2378.42
2368.99
2351.73
2322.91
2290.13
2254.54
2225.55
2195.4
2177.34
2159.24
2154.69
2159.73
2178.58
2230.86
2542.63
2902.45
3453.96
4030.88
5061.04
5917.03
6835.87
7666.84
8205.01
8749.2
9075.1
9475.44
9722.02
10006.7
10156.3
10387.6
10575.3
10694.1
10941.9
11087.8
11171.8
11339.8
11406.7
11536.9
11609.1
11720.7
11797.8
11863.1
11938
11985.8
12048.2
12087.8
12142.2
12177.5
12226.1
12262.4
12313
12352.2
12402.6
12437.9
12483.8
12514.4
12552.6
12579.4
12600.7
12634.8
12662.6
12700.1
12723.6
12750.1
12774.6
12807.1
12832.9
12859.8
12877
12893.3
12904.2
12914.8
12922.2
12934.5
12933
12946.2
12957.8
12975
12992.9
13012.9
13028.5
13027.3
13021.1
13008.8
13004.2
13006.4
13015.1
13029.8
13050
13072.7
13097.8
13116.1
13131
13144.2
13159.1
13173.8
13188.5
13203.4
13213.4
13227.9
13237.8
13253.5
13264.6
13279.5
13285.3
13290.3
13293.9
13295.5
13297.6
13299.7
13302.5
13306
13310.1
13314.7
13316.6
13319.4
13322.1
13323.6
13323.3
13323.6
13324.1
13324.8
13325.7
13326.9
13328.8
13331.3
13334.5
13338.5
13343.3
13348.6
13354.3
13360.2
13366.1
13372.5
13376.5
13381.5
13384.8
13389.2
13389.6
13390.4
13389.9
13389.1
13388
13386.6
13385
13383.6
13382.2
13381.6
13381.7
13382.4
13384
13386.6
13390.3
13394.9
13400.2
13406.5
13411.7
13417.4
13420.4
13424.6
13424.7
13424.6
13422.5
13419.7
13416
13412.4
13409.2
13406.6
13405.9
13406.6
13408.6
13411.9
13416.3
13421.4
13426.9
13432.5
13438.7
13442
13446.7
13448.4
13449.9
13449.5
13448.7
13447.6
13446.2
13444.7
13443.2
13441.7
13440.4
13439.3
13438.6
13438.2
13438.1
13438.3
13438.5
13438.9
13439.5
13440.1
13440.8
13441.6
13442.6
13443.6
13444.9
13446.5
13446.9
13441.7
2247.14
2227.69
2213.26
2184.01
2156.78
2126.14
2097.61
2072.07
2050.28
2032.32
2018.22
2007.61
1999.91
1994.31
1991.53
1992.86
1997.97
2005.27
2020.76
2035.78
2054.79
2087.58
2108.51
2144.45
2151.72
2212.93
2199.16
2223.15
2233.07
2225.81
2218.68
2205.68
2187.53
2158.03
2124.47
2096.31
2073.91
2051.24
2028.06
2003.95
1982.11
1963.4
1950.45
1937.37
1929.36
1922.69
1920.75
1921.35
1934.82
1960.57
2008.05
2063.22
2478.82
3116.76
3961.25
5049.75
6247.93
7473.55
8231.7
8905.35
9348.26
9698.27
9931.44
10177.6
10386.9
10554.5
10800.5
10957.2
11064.7
11258.8
11332.1
11481
11561.4
11680
11760.5
11833.7
11911.5
11960.4
12026.9
12066.3
12123.8
12160.6
12212.2
12250.5
12300.4
12339.1
12390.2
12426.2
12472.4
12502.9
12545.5
12573
12594.3
12626.5
12652.5
12690.6
12716.9
12745.9
12769.2
12800.2
12825.4
12854.1
12872
12890.4
12898.8
12907.3
12908.9
12919.3
12922.6
12939.2
12955.3
12975.2
12996.4
13017.4
13031.9
13029.9
13020
13004
12999.6
13003.4
13013.1
13030.4
13054.1