/*--------------------------------*- C++ -*----------------------------------*\
| =========                 |                                                 |
| \\      /  F ield         | OpenFOAM: The Open Source CFD Toolbox           |
|  \\    /   O peration     | Version:  2312                                  |
|   \\  /    A nd           | Website:  www.openfoam.com                      |
|    \\/     M anipulation  |                                                 |
\*---------------------------------------------------------------------------*/
FoamFile
{
    version     2.0;
    format      ascii;
    arch        "LSB;label=32;scalar=64";
    class       surfaceScalarField;
    location    "0.004";
    object      phi;
}
// * * * * * * * * * * * * * * * * * * * * * * * * * * * * * * * * * * * * * //

dimensions      [1 0 -1 0 0 0 0];

oriented        oriented;

internalField   nonuniform List<scalar> 
95760
(
3.63487e-09
-3.63458e-09
1.81054e-09
1.82457e-09
-5.8051e-09
7.61588e-09
-1.86617e-08
1.28568e-08
-3.76459e-08
1.89843e-08
-6.0112e-08
2.24661e-08
-8.00403e-08
1.99282e-08
-9.70666e-08
1.70262e-08
-1.11093e-07
1.40261e-08
-1.22563e-07
1.14696e-08
-1.32171e-07
9.60825e-09
-1.40348e-07
8.1761e-09
-1.47606e-07
7.25798e-09
-1.54196e-07
6.58947e-09
-1.60346e-07
6.14859e-09
-1.66238e-07
5.89167e-09
-1.71944e-07
5.70563e-09
-1.77502e-07
5.55715e-09
-1.82868e-07
5.36561e-09
-1.88307e-07
5.43929e-09
-1.93352e-07
5.04442e-09
-1.98646e-07
5.29421e-09
-2.03371e-07
4.72485e-09
-2.07598e-07
4.22665e-09
-2.11191e-07
3.59342e-09
-2.14101e-07
2.90873e-09
-2.161e-07
1.99835e-09
-2.16374e-07
2.7273e-10
-2.15256e-07
-1.12054e-09
-2.12491e-07
-2.7677e-09
-2.07731e-07
-4.76459e-09
-2.00547e-07
-7.1882e-09
-1.90524e-07
-1.00284e-08
-1.77916e-07
-1.26128e-08
-1.6185e-07
-1.60697e-08
-1.42839e-07
-1.90124e-08
-1.18883e-07
-2.39551e-08
-9.25978e-08
-2.62819e-08
-6.31591e-08
-2.94346e-08
-3.18594e-08
-3.12944e-08
-8.70945e-10
-3.09824e-08
3.07098e-08
-3.15773e-08
6.29644e-08
-3.22484e-08
1.0007e-07
-3.70986e-08
1.414e-07
-4.13227e-08
1.84633e-07
-4.32274e-08
2.28823e-07
-4.41875e-08
2.73499e-07
-4.46763e-08
3.17915e-07
-4.44188e-08
3.63267e-07
-4.53557e-08
4.08446e-07
-4.51811e-08
4.54284e-07
-4.58399e-08
4.98788e-07
-4.44946e-08
5.42901e-07
-4.40893e-08
5.85514e-07
-4.25764e-08
6.28379e-07
-4.28182e-08
6.70038e-07
-4.16192e-08
7.1176e-07
-4.17073e-08
7.5162e-07
-3.98711e-08
7.89919e-07
-3.83271e-08
8.28135e-07
-3.82735e-08
8.62447e-07
-3.43841e-08
8.95561e-07
-3.31927e-08
9.27144e-07
-3.16332e-08
9.56966e-07
-2.98493e-08
9.86789e-07
-2.98138e-08
1.01458e-06
-2.77485e-08
1.04163e-06
-2.69797e-08
1.06622e-06
-2.45085e-08
1.08972e-06
-2.33956e-08
1.11169e-06
-2.18681e-08
1.13191e-06
-2.01252e-08
1.15103e-06
-1.90238e-08
1.16874e-06
-1.76312e-08
1.18562e-06
-1.68305e-08
1.20138e-06
-1.5728e-08
1.21586e-06
-1.44733e-08
1.22999e-06
-1.41296e-08
1.24381e-06
-1.38305e-08
1.25569e-06
-1.18939e-08
1.26685e-06
-1.11737e-08
1.27841e-06
-1.15552e-08
1.28936e-06
-1.09386e-08
1.29981e-06
-1.04342e-08
1.3091e-06
-9.26702e-09
1.31813e-06
-9.01043e-09
1.32711e-06
-8.95825e-09
1.33721e-06
-1.00947e-08
1.34474e-06
-7.52875e-09
1.35112e-06
-6.38798e-09
1.35754e-06
-6.42831e-09
1.36393e-06
-6.40962e-09
1.37182e-06
-7.91661e-09
1.37786e-06
-6.06701e-09
1.38299e-06
-5.15657e-09
1.38828e-06
-5.31625e-09
1.39316e-06
-4.89847e-09
1.39894e-06
-5.79762e-09
1.40337e-06
-4.43447e-09
1.40786e-06
-4.48096e-09
1.41246e-06
-4.58864e-09
1.41699e-06
-4.51872e-09
1.4203e-06
-3.28341e-09
1.42345e-06
-3.12979e-09
1.42664e-06
-3.16645e-09
1.43045e-06
-3.79102e-09
1.43352e-06
-3.04999e-09
1.43616e-06
-2.63722e-09
1.43921e-06
-3.04435e-09
1.44192e-06
-2.70327e-09
1.44471e-06
-2.78726e-09
1.44681e-06
-2.1113e-09
1.4485e-06
-1.69735e-09
1.44986e-06
-1.37414e-09
1.44981e-06
5.06684e-11
1.45051e-06
-7.1015e-10
1.45099e-06
-4.84218e-10
1.45193e-06
-9.40982e-10
1.45323e-06
-1.30414e-09
1.45428e-06
-1.04284e-09
1.4555e-06
-1.2301e-09
1.45638e-06
-8.78877e-10
1.45688e-06
-5.02595e-10
1.45677e-06
1.08305e-10
1.45667e-06
9.40451e-11
1.45631e-06
3.58182e-10
1.45623e-06
7.99268e-11
1.45611e-06
1.21402e-10
1.45626e-06
-1.55174e-10
1.45704e-06
-7.84077e-10
1.45762e-06
-5.79581e-10
1.4588e-06
-1.1748e-09
1.46013e-06
-1.33442e-09
1.46115e-06
-1.02292e-09
1.4618e-06
-6.52667e-10
1.46243e-06
-6.26021e-10
1.4631e-06
-6.66245e-10
1.46334e-06
-2.50476e-10
1.46328e-06
6.59087e-11
1.46306e-06
2.11813e-10
1.46285e-06
2.12439e-10
1.4624e-06
4.41466e-10
1.4619e-06
4.99101e-10
1.46123e-06
6.59543e-10
1.46069e-06
5.37291e-10
1.46009e-06
5.8721e-10
1.45949e-06
5.9809e-10
1.45888e-06
6.0972e-10
1.45822e-06
6.52448e-10
1.45752e-06
6.99016e-10
1.45688e-06
6.37872e-10
1.45611e-06
7.61224e-10
1.45536e-06
7.44795e-10
1.45455e-06
8.07677e-10
1.45372e-06
8.23006e-10
1.45281e-06
9.05805e-10
1.45189e-06
9.17513e-10
1.45089e-06
9.94532e-10
1.44988e-06
1.00923e-09
1.44885e-06
1.02505e-09
1.44775e-06
1.10136e-09
1.44675e-06
9.98191e-10
1.44562e-06
1.12593e-09
1.44462e-06
9.98219e-10
1.44357e-06
1.05258e-09
1.44259e-06
9.78528e-10
1.44164e-06
9.53523e-10
1.44072e-06
9.31601e-10
1.43983e-06
8.90512e-10
1.4389e-06
9.36101e-10
1.43815e-06
7.54614e-10
1.43737e-06
7.86205e-10
1.4366e-06
7.6529e-10
1.43582e-06
7.82314e-10
1.43503e-06
7.87287e-10
1.43422e-06
8.07871e-10
1.4334e-06
8.17906e-10
1.43256e-06
8.37283e-10
1.4317e-06
8.6805e-10
1.4308e-06
8.96315e-10
1.42989e-06
9.15296e-10
1.42891e-06
9.74558e-10
1.42793e-06
9.83752e-10
1.42696e-06
9.76917e-10
1.42596e-06
9.96963e-10
1.42498e-06
9.802e-10
1.42399e-06
9.86404e-10
1.42303e-06
9.66556e-10
1.42207e-06
9.60081e-10
1.42116e-06
9.05467e-10
1.42031e-06
8.50635e-10
1.41949e-06
8.16617e-10
1.41876e-06
7.34308e-10
1.41795e-06
8.0277e-10
1.41746e-06
4.8989e-10
1.41686e-06
6.00946e-10
1.4162e-06
6.55614e-10
1.41554e-06
6.55702e-10
1.41486e-06
6.79611e-10
1.4141e-06
7.60112e-10
1.41333e-06
7.72175e-10
1.4124e-06
9.19856e-10
1.41147e-06
9.3443e-10
1.41054e-06
9.28314e-10
1.40959e-06
9.47395e-10
1.40865e-06
9.33565e-10
1.40774e-06
9.12309e-10
1.40684e-06
8.98552e-10
1.40606e-06
7.84146e-10
1.40529e-06
7.72809e-10
1.40458e-06
7.09896e-10
1.40395e-06
6.34498e-10
1.40323e-06
7.26018e-10
1.40276e-06
4.64196e-10
1.40223e-06
5.32906e-10
1.40166e-06
5.6844e-10
1.4011e-06
5.61045e-10
1.4005e-06
6.01377e-10
1.39988e-06
6.17863e-10
1.39922e-06
6.61111e-10
1.39853e-06
6.8781e-10
1.39781e-06
7.10512e-10
1.39707e-06
7.35508e-10
1.39632e-06
7.48286e-10
1.39554e-06
7.68778e-10
1.39476e-06
7.75534e-10
1.39398e-06
7.81146e-10
1.39319e-06
7.78442e-10
1.3924e-06
7.85996e-10
1.39162e-06
7.68028e-10
1.39084e-06
7.74562e-10
1.39009e-06
7.48939e-10
1.38933e-06
7.58398e-10
1.3886e-06
7.29741e-10
1.38786e-06
7.48261e-10
1.38716e-06
7.08425e-10
1.38642e-06
7.38898e-10
1.38572e-06
7.0366e-10
1.38502e-06
7.00042e-10
4.55236e-10
6.47168e-10
-4.28147e-09
-7.61097e-09
1.0083e-08
-2.11553e-08
2.11604e-08
-4.01595e-08
3.18612e-08
-6.2289e-08
4.11139e-08
-8.24951e-08
4.26723e-08
-1.00734e-07
3.81667e-08
-1.1647e-07
3.27624e-08
-1.2952e-07
2.70754e-08
-1.4024e-07
2.21894e-08
-1.48666e-07
1.80344e-08
-1.55774e-07
1.52833e-08
-1.61771e-07
1.32544e-08
-1.66957e-07
1.17753e-08
-1.7144e-07
1.06313e-08
-1.7549e-07
9.94019e-09
-1.79183e-07
9.39894e-09
-1.8259e-07
8.96375e-09
-1.85832e-07
8.60708e-09
-1.88687e-07
8.29376e-09
-1.91378e-07
7.7359e-09
-1.93025e-07
6.94094e-09
-1.93995e-07
5.69403e-09
-1.94026e-07
4.25798e-09
-1.93196e-07
2.76349e-09
-1.91129e-07
8.41431e-10
-1.87842e-07
-1.29024e-09
-1.83452e-07
-4.11842e-09
-1.77649e-07
-6.92652e-09
-1.70185e-07
-1.02347e-08
-1.60467e-07
-1.44863e-08
-1.4833e-07
-1.93305e-08
-1.33052e-07
-2.53125e-08
-1.14907e-07
-3.07631e-08
-9.27755e-08
-3.82055e-08
-6.75026e-08
-4.42878e-08
-3.79241e-08
-5.35331e-08
-5.35414e-09
-5.88491e-08
3.12837e-08
-6.60695e-08
7.1028e-08
-7.10346e-08
1.13169e-07
-7.31192e-08
1.59001e-07
-7.74053e-08
2.08224e-07
-8.14653e-08
2.58489e-07
-8.73564e-08
3.08522e-07
-9.13487e-08
3.59317e-07
-9.40172e-08
4.11193e-07
-9.60618e-08
4.63072e-07
-9.65553e-08
5.14995e-07
-9.63457e-08
5.67723e-07
-9.80889e-08
6.20062e-07
-9.75233e-08
6.72744e-07
-9.85242e-08
7.23848e-07
-9.55887e-08
7.74123e-07
-9.43379e-08
8.22873e-07
-9.12835e-08
8.71217e-07
-9.11069e-08
9.1807e-07
-8.84245e-08
9.64312e-07
-8.7919e-08
1.00843e-06
-8.39927e-08
1.05104e-06
-8.09603e-08
1.09268e-06
-7.99714e-08
1.13104e-06
-7.28177e-08
1.16804e-06
-7.02718e-08
1.20324e-06
-6.6897e-08
1.23674e-06
-6.33865e-08
1.26956e-06
-6.2632e-08
1.30027e-06
-5.84364e-08
1.32994e-06
-5.65883e-08
1.35751e-06
-5.20099e-08
1.3838e-06
-4.95961e-08
1.40861e-06
-4.65853e-08
1.43192e-06
-4.33473e-08
1.4541e-06
-4.11244e-08
1.475e-06
-3.84707e-08
1.49488e-06
-3.66635e-08
1.51372e-06
-3.45483e-08
1.53167e-06
-3.24159e-08
1.54863e-06
-3.10958e-08
1.56474e-06
-2.995e-08
1.58178e-06
-2.89457e-08
1.59681e-06
-2.62043e-08
1.61054e-06
-2.52817e-08
1.62375e-06
-2.41274e-08
1.63835e-06
-2.50152e-08
1.65101e-06
-2.18984e-08
1.66261e-06
-2.05845e-08
1.67397e-06
-2.02955e-08
1.68513e-06
-2.12387e-08
1.69875e-06
-2.11448e-08
1.70909e-06
-1.67336e-08
1.71798e-06
-1.53364e-08
1.72654e-06
-1.49963e-08
1.73541e-06
-1.68083e-08
1.74696e-06
-1.76417e-08
1.75554e-06
-1.37674e-08
1.76287e-06
-1.26722e-08
1.76968e-06
-1.17225e-08
1.77814e-06
-1.42684e-08
1.78539e-06
-1.16829e-08
1.79227e-06
-1.13566e-08
1.79887e-06
-1.11826e-08
1.80723e-06
-1.28605e-08
1.81354e-06
-9.56654e-09
1.81911e-06
-8.67205e-09
1.8243e-06
-8.33493e-09
1.83043e-06
-9.90183e-09
1.83583e-06
-8.43161e-09
1.84093e-06
-7.72366e-09
1.84587e-06
-7.97496e-09
1.85036e-06
-7.18275e-09
1.85464e-06
-7.07334e-09
1.85834e-06
-5.80487e-09
1.86199e-06
-5.35233e-09
1.86527e-06
-4.66476e-09
1.86907e-06
-3.7592e-09
1.87214e-06
-3.77881e-09
1.87524e-06
-3.59797e-09
1.8784e-06
-4.10243e-09
1.88162e-06
-4.52526e-09
1.8846e-06
-4.03516e-09
1.88689e-06
-3.52864e-09
1.88895e-06
-2.94178e-09
1.89084e-06
-2.40217e-09
1.89253e-06
-1.59561e-09
1.89417e-06
-1.56166e-09
1.89632e-06
-1.80265e-09
1.89834e-06
-1.94934e-09
1.90063e-06
-2.18062e-09
1.90293e-06
-2.46381e-09
1.90534e-06
-3.20303e-09
1.9081e-06
-3.34132e-09
1.91064e-06
-3.70334e-09
1.91306e-06
-3.74979e-09
1.91535e-06
-3.31455e-09
1.91734e-06
-2.63736e-09
1.91861e-06
-1.89123e-09
1.92006e-06
-2.10776e-09
1.92119e-06
-1.38529e-09
1.92213e-06
-8.70517e-10
1.92279e-06
-4.48127e-10
1.92375e-06
-7.5262e-10
1.92443e-06
-2.50388e-10
1.92508e-06
-1.62243e-10
1.9259e-06
-1.67562e-10
1.92664e-06
-2.04467e-10
1.92729e-06
-7.06459e-11
1.92794e-06
-5.81478e-11
1.92853e-06
1.1185e-11
1.92889e-06
2.81886e-10
1.92937e-06
2.18023e-10
1.92974e-06
2.58891e-10
1.93003e-06
4.639e-10
1.93022e-06
5.36872e-10
1.93031e-06
7.12328e-10
1.93035e-06
7.71898e-10
1.93029e-06
9.6772e-10
1.93024e-06
9.63722e-10
1.9301e-06
1.12845e-09
1.92999e-06
1.11247e-09
1.92982e-06
1.1865e-09
1.92964e-06
1.28034e-09
1.92951e-06
1.12932e-09
1.92934e-06
1.29359e-09
1.92926e-06
1.07279e-09
1.92914e-06
1.18131e-09
1.92909e-06
1.0257e-09
1.92903e-06
1.01935e-09
1.92895e-06
1.02508e-09
1.92888e-06
9.67116e-10
1.92875e-06
1.07612e-09
1.9286e-06
9.11504e-10
1.92844e-06
9.46327e-10
1.92814e-06
1.07505e-09
1.92783e-06
1.09508e-09
1.92746e-06
1.15549e-09
1.92703e-06
1.23605e-09
1.92655e-06
1.29674e-09
1.92603e-06
1.35394e-09
1.92547e-06
1.423e-09
1.92486e-06
1.50621e-09
1.92427e-06
1.50988e-09
1.92361e-06
1.63356e-09
1.92298e-06
1.61391e-09
1.92233e-06
1.62092e-09
1.92172e-06
1.61126e-09
1.92109e-06
1.60798e-09
1.92049e-06
1.58714e-09
1.91993e-06
1.52934e-09
1.91938e-06
1.5067e-09
1.91894e-06
1.34755e-09
1.91853e-06
1.25862e-09
1.91812e-06
1.22068e-09
1.91775e-06
1.10921e-09
1.91726e-06
1.29474e-09
1.91682e-06
9.26831e-10
1.91628e-06
1.1405e-09
1.9156e-06
1.33542e-09
1.91484e-06
1.41474e-09
1.91405e-06
1.464e-09
1.91317e-06
1.64169e-09
1.91229e-06
1.65153e-09
1.91136e-06
1.846e-09
1.91042e-06
1.87218e-09
1.90954e-06
1.81168e-09
1.90871e-06
1.77056e-09
1.90795e-06
1.69277e-09
1.90724e-06
1.62492e-09
1.90657e-06
1.56471e-09
1.90606e-06
1.29324e-09
1.90547e-06
1.37071e-09
1.90488e-06
1.29311e-09
1.90436e-06
1.15727e-09
1.90364e-06
1.45215e-09
1.90311e-06
9.8797e-10
1.90248e-06
1.16445e-09
1.90176e-06
1.28644e-09
1.90104e-06
1.27592e-09
1.90025e-06
1.39296e-09
1.89944e-06
1.42366e-09
1.89857e-06
1.52449e-09
1.89769e-06
1.56866e-09
1.89679e-06
1.59966e-09
1.89589e-06
1.63388e-09
1.89499e-06
1.64377e-09
1.89408e-06
1.67512e-09
1.89317e-06
1.67401e-09
1.89227e-06
1.68295e-09
1.89137e-06
1.67148e-09
1.89046e-06
1.69015e-09
1.88956e-06
1.65333e-09
1.88866e-06
1.67281e-09
1.88778e-06
1.62675e-09
1.88688e-06
1.65693e-09
1.88602e-06
1.59832e-09
1.88512e-06
1.64602e-09
1.88428e-06
1.55805e-09
1.88338e-06
1.64086e-09
1.88255e-06
1.53502e-09
1.88159e-06
1.66126e-09
1.06186e-09
-5.48605e-09
1.20487e-09
-1.69326e-08
2.15297e-08
-3.39129e-08
3.8141e-08
-5.50617e-08
5.30101e-08
-7.47385e-08
6.07908e-08
-9.22849e-08
6.02187e-08
-1.07635e-07
5.35166e-08
-1.20239e-07
4.53663e-08
-1.30297e-07
3.71329e-08
-1.38408e-07
3.03006e-08
-1.45524e-07
2.51505e-08
-1.5112e-07
2.08782e-08
-1.55613e-07
1.77472e-08
-1.59326e-07
1.5488e-08
-1.6235e-07
1.36545e-08
-1.64878e-07
1.24681e-08
-1.6703e-07
1.15505e-08
-1.68873e-07
1.08065e-08
-1.70229e-07
9.96257e-09
-1.71012e-07
9.07641e-09
-1.71103e-07
7.82639e-09
-1.70486e-07
6.32441e-09
-1.69061e-07
4.26891e-09
-1.6673e-07
1.92659e-09
-1.63275e-07
-6.91844e-10
-1.58559e-07
-3.87532e-09
-1.52566e-07
-7.28436e-09
-1.45053e-07
-1.16332e-08
-1.35395e-07
-1.65863e-08
-1.23608e-07
-2.20249e-08
-1.09015e-07
-2.90836e-08
-9.17161e-08
-3.66347e-08
-7.04422e-08
-4.65926e-08
-4.62871e-08
-5.49242e-08
-1.73792e-08
-6.71182e-08
1.49701e-08
-7.664e-08
5.23388e-08
-9.09022e-08
9.26824e-08
-9.91903e-08
1.3698e-07
-1.10364e-07
1.84916e-07
-1.18967e-07
2.3498e-07
-1.2318e-07
2.89609e-07
-1.3203e-07
3.46356e-07
-1.38208e-07
4.03896e-07
-1.4489e-07
4.61242e-07
-1.48688e-07
5.18961e-07
-1.51731e-07
5.77287e-07
-1.54386e-07
6.35487e-07
-1.54756e-07
6.9392e-07
-1.54784e-07
7.52577e-07
-1.56752e-07
8.10453e-07
-1.55404e-07
8.67939e-07
-1.56013e-07
9.23202e-07
-1.5084e-07
9.76735e-07
-1.47842e-07
1.02838e-06
-1.42875e-07
1.07905e-06
-1.41711e-07
1.12765e-06
-1.36967e-07
1.17492e-06
-1.35145e-07
1.21958e-06
-1.28635e-07
1.26251e-06
-1.23908e-07
1.30374e-06
-1.21251e-07
1.34172e-06
-1.1087e-07
1.37845e-06
-1.07086e-07
1.4131e-06
-1.01604e-07
1.44608e-06
-9.64104e-08
1.47801e-06
-9.45697e-08
1.50767e-06
-8.80671e-08
1.53601e-06
-8.48859e-08
1.56223e-06
-7.81608e-08
1.58733e-06
-7.46197e-08
1.61086e-06
-7.00347e-08
1.63307e-06
-6.54794e-08
1.65428e-06
-6.22714e-08
1.67432e-06
-5.84542e-08
1.69343e-06
-5.57377e-08
1.71154e-06
-5.26469e-08
1.72902e-06
-4.99023e-08
1.74556e-06
-4.76378e-08
1.76129e-06
-4.56884e-08
1.77806e-06
-4.57232e-08
1.79348e-06
-4.16317e-08
1.80746e-06
-3.92583e-08
1.82056e-06
-3.72127e-08
1.83468e-06
-3.91069e-08
1.84779e-06
-3.49789e-08
1.85975e-06
-3.25122e-08
1.87111e-06
-3.16367e-08
1.88233e-06
-3.24386e-08
1.8954e-06
-3.42097e-08
1.90692e-06
-2.82595e-08
1.91628e-06
-2.47086e-08
1.92543e-06
-2.41677e-08
1.93453e-06
-2.59382e-08
1.94563e-06
-2.87647e-08
1.95543e-06
-2.36017e-08
1.96337e-06
-2.06313e-08
1.97086e-06
-1.92392e-08
1.97908e-06
-2.24911e-08
1.98704e-06
-1.96538e-08
1.99435e-06
-1.86536e-08
2.00157e-06
-1.83899e-08
2.00996e-06
-2.1231e-08
2.01737e-06
-1.69492e-08
2.02371e-06
-1.49922e-08
2.02958e-06
-1.41809e-08
2.03597e-06
-1.62592e-08
2.04199e-06
-1.44388e-08
2.04771e-06
-1.34219e-08
2.05307e-06
-1.33313e-08
2.05811e-06
-1.22091e-08
2.06237e-06
-1.13286e-08
2.06622e-06
-9.65493e-09
2.06996e-06
-9.09356e-09
2.07355e-06
-8.26375e-09
2.07816e-06
-8.3745e-09
2.08204e-06
-7.65442e-09
2.08599e-06
-7.55579e-09
2.09013e-06
-8.25181e-09
2.09427e-06
-8.6719e-09
2.09804e-06
-7.81194e-09
2.10096e-06
-6.46319e-09
2.10322e-06
-5.21278e-09
2.10534e-06
-4.53022e-09
2.10776e-06
-4.04439e-09
2.11004e-06
-3.85228e-09
2.11368e-06
-5.45964e-09
2.11658e-06
-4.85788e-09
2.11982e-06
-5.42992e-09
2.12328e-06
-5.93195e-09
2.12688e-06
-6.81468e-09
2.13066e-06
-7.12597e-09
2.13419e-06
-7.2188e-09
2.1374e-06
-6.95615e-09
2.14032e-06
-6.22912e-09
2.14283e-06
-5.13933e-09
2.1446e-06
-3.65239e-09
2.14611e-06
-3.61166e-09
2.14736e-06
-2.62966e-09
2.14865e-06
-2.15858e-09
2.14984e-06
-1.63847e-09
2.15117e-06
-2.08623e-09
2.15257e-06
-1.65598e-09
2.15403e-06
-1.63111e-09
2.15547e-06
-1.61784e-09
2.15674e-06
-1.48422e-09
2.158e-06
-1.33383e-09
2.15919e-06
-1.25198e-09
2.16034e-06
-1.14467e-09
2.16109e-06
-4.84621e-10
2.16204e-06
-7.34249e-10
2.16272e-06
-4.38637e-10
2.16339e-06
-2.16161e-10
2.1639e-06
6.91695e-12
2.16431e-06
2.96573e-10
2.16465e-06
4.17323e-10
2.16493e-06
6.85007e-10
2.1652e-06
6.81904e-10
2.16544e-06
8.87521e-10
2.1657e-06
8.45453e-10
2.16595e-06
9.28829e-10
2.16622e-06
1.00993e-09
2.16653e-06
8.1432e-10
2.16687e-06
9.52406e-10
2.16727e-06
6.77766e-10
2.1677e-06
7.51771e-10
2.16812e-06
6.11485e-10
2.1685e-06
6.44212e-10
2.16887e-06
6.69584e-10
2.16923e-06
6.11094e-10
2.16935e-06
9.70216e-10
2.1695e-06
7.68857e-10
2.16963e-06
8.28178e-10
2.16966e-06
1.04295e-09
2.1696e-06
1.16132e-09
2.16944e-06
1.31429e-09
2.1692e-06
1.47499e-09
2.1689e-06
1.60201e-09
2.16854e-06
1.70469e-09
2.16816e-06
1.80717e-09
2.16772e-06
1.94474e-09
2.1673e-06
1.92928e-09
2.16684e-06
2.0884e-09
2.16642e-06
2.03316e-09
2.16599e-06
2.04685e-09
2.16562e-06
1.98747e-09
2.16523e-06
1.99204e-09
2.16488e-06
1.94192e-09
2.16457e-06
1.83633e-09
2.16429e-06
1.78399e-09
2.16418e-06
1.45575e-09
2.16404e-06
1.39475e-09
2.16393e-06
1.33818e-09
2.16371e-06
1.32131e-09
2.16342e-06
1.59028e-09
2.16298e-06
1.36611e-09
2.16246e-06
1.65508e-09
2.16177e-06
2.02305e-09
2.16097e-06
2.21958e-09
2.16013e-06
2.30576e-09
2.15922e-06
2.55155e-09
2.15832e-06
2.55633e-09
2.15742e-06
2.74158e-09
2.15655e-06
2.73537e-09
2.15574e-06
2.61804e-09
2.15504e-06
2.47247e-09
2.15443e-06
2.30524e-09
2.15387e-06
2.17746e-09
2.15344e-06
2.0035e-09
2.15306e-06
1.66892e-09
2.15264e-06
1.79102e-09
2.15213e-06
1.80562e-09
2.15169e-06
1.59108e-09
2.15102e-06
2.1214e-09
2.15039e-06
1.61803e-09
2.14972e-06
1.8352e-09
2.14893e-06
2.06933e-09
2.14814e-06
2.06404e-09
2.14727e-06
2.26026e-09
2.14637e-06
2.32262e-09
2.14542e-06
2.46578e-09
2.14445e-06
2.53246e-09
2.14348e-06
2.56419e-09
2.14251e-06
2.59498e-09
2.14155e-06
2.59969e-09
2.14059e-06
2.63081e-09
2.13964e-06
2.61764e-09
2.13869e-06
2.62985e-09
2.13775e-06
2.60612e-09
2.13679e-06
2.63752e-09
2.13586e-06
2.58383e-09
2.13491e-06
2.62043e-09
2.13398e-06
2.55555e-09
2.13302e-06
2.61295e-09
2.1321e-06
2.52334e-09
2.13115e-06
2.60586e-09
2.13024e-06
2.46653e-09
2.12928e-06
2.60911e-09
2.1284e-06
2.41807e-09
2.12734e-06
2.71499e-09
1.83291e-09
-9.94587e-09
1.1151e-08
-2.53193e-08
3.69034e-08
-4.45173e-08
5.73392e-08
-6.3403e-08
7.18959e-08
-8.02888e-08
7.76767e-08
-9.46843e-08
7.46142e-08
-1.06555e-07
6.53877e-08
-1.16261e-07
5.50714e-08
-1.2451e-07
4.53822e-08
-1.31217e-07
3.70073e-08
-1.36356e-07
3.02895e-08
-1.40335e-07
2.48563e-08
-1.43365e-07
2.07765e-08
-1.4571e-07
1.78323e-08
-1.47517e-07
1.54617e-08
-1.48904e-07
1.38539e-08
-1.49867e-07
1.25128e-08
-1.50321e-07
1.12608e-08
-1.50363e-07
1.0004e-08
-1.49809e-07
8.52177e-09
-1.48535e-07
6.55267e-09
-1.46387e-07
4.17643e-09
-1.43327e-07
1.20814e-09
-1.3912e-07
-2.27976e-09
-1.33531e-07
-6.28154e-09
-1.26265e-07
-1.11414e-08
-1.1729e-07
-1.62604e-08
-1.06301e-07
-2.26245e-08
-9.2574e-08
-3.03151e-08
-7.62317e-08
-3.83705e-08
-5.60746e-08
-4.92451e-08
-3.32606e-08
-5.94539e-08
-5.74909e-09
-7.41108e-08
2.58577e-08
-8.65378e-08
6.28167e-08
-1.04082e-07
1.03556e-07
-1.17383e-07
1.5004e-07
-1.37386e-07
1.99009e-07
-1.48158e-07
2.5304e-07
-1.64391e-07
3.10387e-07
-1.76311e-07
3.69817e-07
-1.82605e-07
4.33423e-07
-1.95633e-07
4.9858e-07
-2.03361e-07
5.63982e-07
-2.10286e-07
6.28945e-07
-2.13645e-07
6.94271e-07
-2.17053e-07
7.59943e-07
-2.20056e-07
8.25033e-07
-2.19848e-07
8.90707e-07
-2.20464e-07
9.55229e-07
-2.21279e-07
1.01854e-06
-2.18719e-07
1.08035e-06
-2.17833e-07
1.13915e-06
-2.09625e-07
1.19556e-06
-2.04225e-07
1.24936e-06
-1.96621e-07
1.30183e-06
-1.941e-07
1.35125e-06
-1.86312e-07
1.39853e-06
-1.82362e-07
1.4426e-06
-1.72683e-07
1.48464e-06
-1.65946e-07
1.52411e-06
-1.60755e-07
1.56034e-06
-1.47165e-07
1.59533e-06
-1.42143e-07
1.62793e-06
-1.34257e-07
1.65891e-06
-1.27429e-07
1.68853e-06
-1.24196e-07
1.71555e-06
-1.1506e-07
1.74119e-06
-1.10484e-07
1.76459e-06
-1.01505e-07
1.78701e-06
-9.69764e-08
1.80776e-06
-9.07163e-08
1.82747e-06
-8.51334e-08
1.84632e-06
-8.10664e-08
1.86404e-06
-7.61411e-08
1.88096e-06
-7.26395e-08
1.8969e-06
-6.85774e-08
1.9125e-06
-6.55219e-08
1.92724e-06
-6.23821e-08
1.94154e-06
-5.99937e-08
1.95662e-06
-6.08106e-08
1.97098e-06
-5.60012e-08
1.98383e-06
-5.20921e-08
1.99592e-06
-4.92905e-08
2.00841e-06
-5.15743e-08
2.02063e-06
-4.7168e-08
2.03171e-06
-4.35685e-08
2.0421e-06
-4.19986e-08
2.05231e-06
-4.26277e-08
2.06367e-06
-4.5557e-08
2.0748e-06
-3.93901e-08
2.084e-06
-3.39272e-08
2.09267e-06
-3.28555e-08
2.10117e-06
-3.44625e-08
2.1108e-06
-3.84154e-08
2.12035e-06
-3.31897e-08
2.12827e-06
-2.85749e-08
2.13579e-06
-2.67792e-08
2.14291e-06
-2.96261e-08
2.15034e-06
-2.70902e-08
2.15752e-06
-2.58232e-08
2.16452e-06
-2.53795e-08
2.17196e-06
-2.86484e-08
2.1793e-06
-2.42583e-08
2.18562e-06
-2.12816e-08
2.1916e-06
-2.01364e-08
2.19736e-06
-2.19999e-08
2.20328e-06
-2.03296e-08
2.2088e-06
-1.89199e-08
2.21397e-06
-1.84922e-08
2.21867e-06
-1.68952e-08
2.22254e-06
-1.51974e-08
2.22577e-06
-1.28734e-08
2.22906e-06
-1.23924e-08
2.23229e-06
-1.1499e-08
2.23664e-06
-1.27192e-08
2.24055e-06
-1.15687e-08
2.24468e-06
-1.16962e-08
2.24906e-06
-1.26405e-08
2.25333e-06
-1.29539e-08
2.25716e-06
-1.16453e-08
2.26006e-06
-9.38367e-09
2.2622e-06
-7.36667e-09
2.26407e-06
-6.41557e-09
2.26663e-06
-6.62268e-09
2.26914e-06
-6.39011e-09
2.27291e-06
-9.24268e-09
2.27626e-06
-8.22574e-09
2.28009e-06
-9.27101e-09
2.28426e-06
-1.0109e-08
2.28863e-06
-1.11977e-08
2.29293e-06
-1.14212e-08
2.29697e-06
-1.12514e-08
2.3006e-06
-1.05755e-08
2.30382e-06
-9.44082e-09
2.30654e-06
-7.84717e-09
2.30852e-06
-5.61635e-09
2.30989e-06
-4.97351e-09
2.31105e-06
-3.78985e-09
2.31231e-06
-3.41264e-09
2.31355e-06
-2.87457e-09
2.3149e-06
-3.44496e-09
2.31644e-06
-3.20043e-09
2.31822e-06
-3.41917e-09
2.31978e-06
-3.18461e-09
2.32126e-06
-2.97631e-09
2.32277e-06
-2.84862e-09
2.32414e-06
-2.62992e-09
2.32551e-06
-2.51584e-09
2.32661e-06
-1.59062e-09
2.32761e-06
-1.74691e-09
2.32848e-06
-1.32199e-09
2.32933e-06
-1.08245e-09
2.32995e-06
-6.2375e-10
2.33047e-06
-2.35532e-10
2.33091e-06
-3.67034e-11
2.33129e-06
2.97496e-10
2.33169e-06
2.74751e-10
2.33207e-06
5.00961e-10
2.3325e-06
4.11638e-10
2.33293e-06
4.92424e-10
2.33342e-06
5.1956e-10
2.33396e-06
2.66665e-10
2.33464e-06
2.68545e-10
2.33526e-06
6.47856e-11
2.33596e-06
5.82426e-11
2.33663e-06
-6.07143e-11
2.33727e-06
1.5755e-11
2.33789e-06
5.72834e-11
2.33848e-06
3.42816e-11
2.33886e-06
6.02515e-10
2.3391e-06
5.33977e-10
2.33927e-06
6.71245e-10
2.33948e-06
8.32875e-10
2.33953e-06
1.1181e-09
2.33947e-06
1.3722e-09
2.33932e-06
1.62731e-09
2.33909e-06
1.82864e-09
2.33881e-06
1.98393e-09
2.3385e-06
2.11563e-09
2.33815e-06
2.29703e-09
2.3378e-06
2.27127e-09
2.33746e-06
2.42978e-09
2.33715e-06
2.3467e-09
2.33685e-06
2.34453e-09
2.3366e-06
2.23564e-09
2.33637e-06
2.2192e-09
2.33617e-06
2.14553e-09
2.33602e-06
1.97727e-09
2.33599e-06
1.81715e-09
2.33601e-06
1.43185e-09
2.33602e-06
1.39094e-09
2.33608e-06
1.27642e-09
2.33597e-06
1.4305e-09
2.33583e-06
1.73019e-09
2.33543e-06
1.76107e-09
2.33492e-06
2.16899e-09
2.33422e-06
2.72139e-09
2.33339e-06
3.05475e-09
2.33249e-06
3.19784e-09
2.33156e-06
3.49092e-09
2.33063e-06
3.4844e-09
2.32974e-06
3.62909e-09
2.32891e-06
3.56495e-09
2.32816e-06
3.3682e-09
2.32753e-06
3.09574e-09
2.32701e-06
2.82254e-09
2.32658e-06
2.61512e-09
2.3263e-06
2.28162e-09
2.32601e-06
1.95326e-09
2.32568e-06
2.12193e-09
2.32529e-06
2.20287e-09
2.3249e-06
1.97408e-09
2.32428e-06
2.74574e-09
2.32356e-06
2.33e-09
2.32287e-06
2.52865e-09
2.32204e-06
2.89046e-09
2.32119e-06
2.91176e-09
2.32027e-06
3.1736e-09
2.31929e-06
3.29173e-09
2.31829e-06
3.46334e-09
2.31726e-06
3.55369e-09
2.31624e-06
3.58249e-09
2.31522e-06
3.60592e-09
2.31422e-06
3.60181e-09
2.31321e-06
3.62676e-09
2.31223e-06
3.5981e-09
2.31124e-06
3.61312e-09
2.31026e-06
3.57502e-09
2.30927e-06
3.61831e-09
2.3083e-06
3.55039e-09
2.30732e-06
3.60573e-09
2.30635e-06
3.52306e-09
2.30535e-06
3.60993e-09
2.30439e-06
3.49048e-09
2.30339e-06
3.60895e-09
2.30245e-06
3.4184e-09
2.30144e-06
3.62232e-09
2.30052e-06
3.33839e-09
2.29939e-06
3.83311e-09
2.71987e-09
-1.39896e-08
2.5141e-08
-3.23014e-08
5.52154e-08
-5.00959e-08
7.5134e-08
-6.66631e-08
8.84632e-08
-8.07906e-08
9.18043e-08
-9.20239e-08
8.58474e-08
-1.01327e-07
7.46912e-08
-1.08998e-07
6.27414e-08
-1.15239e-07
5.16232e-08
-1.20189e-07
4.1957e-08
-1.23895e-07
3.39951e-08
-1.2664e-07
2.76006e-08
-1.28659e-07
2.2795e-08
-1.30079e-07
1.92523e-08
-1.31025e-07
1.64073e-08
-1.31424e-07
1.4252e-08
-1.31435e-07
1.2523e-08
-1.31033e-07
1.08583e-08
-1.30061e-07
9.03236e-09
-1.28369e-07
6.82917e-09
-1.25827e-07
4.01029e-09
-1.22225e-07
5.74779e-10
-1.17436e-07
-3.58112e-09
-1.1115e-07
-8.56627e-09
-1.03129e-07
-1.43025e-08
-9.2939e-08
-2.13318e-08
-8.0548e-08
-2.86522e-08
-6.5624e-08
-3.75503e-08
-4.70821e-08
-4.8859e-08
-2.57311e-08
-5.97248e-08
1.72757e-10
-7.51538e-08
3.06408e-08
-8.99272e-08
6.67503e-08
-1.10227e-07
1.07257e-07
-1.27051e-07
1.55065e-07
-1.51898e-07
2.06918e-07
-1.69237e-07
2.65254e-07
-1.95725e-07
3.25844e-07
-2.08742e-07
3.91948e-07
-2.30496e-07
4.61098e-07
-2.45452e-07
5.33481e-07
-2.54992e-07
6.07372e-07
-2.69515e-07
6.83287e-07
-2.79276e-07
7.57805e-07
-2.848e-07
8.33128e-07
-2.88962e-07
9.06745e-07
-2.90666e-07
9.81763e-07
-2.95071e-07
1.05422e-06
-2.92309e-07
1.12907e-06
-2.95321e-07
1.20008e-06
-2.92295e-07
1.26913e-06
-2.87779e-07
1.33476e-06
-2.83468e-07
1.39624e-06
-2.71086e-07
1.45491e-06
-2.62869e-07
1.50962e-06
-2.51277e-07
1.56252e-06
-2.46903e-07
1.611e-06
-2.34715e-07
1.65669e-06
-2.27967e-07
1.69843e-06
-2.14379e-07
1.73781e-06
-2.05304e-07
1.77383e-06
-1.968e-07
1.8065e-06
-1.79879e-07
1.83786e-06
-1.73555e-07
1.86675e-06
-1.63184e-07
1.89407e-06
-1.54793e-07
1.92003e-06
-1.50165e-07
1.94307e-06
-1.38089e-07
1.96467e-06
-1.32051e-07
1.98398e-06
-1.20776e-07
2.00256e-06
-1.15503e-07
2.01935e-06
-1.0746e-07
2.03556e-06
-1.01303e-07
2.05097e-06
-9.64527e-08
2.0653e-06
-9.04593e-08
2.07893e-06
-8.62559e-08
2.0917e-06
-8.1357e-08
2.1045e-06
-7.83467e-08
2.11662e-06
-7.45112e-08
2.12874e-06
-7.21294e-08
2.14111e-06
-7.31794e-08
2.15352e-06
-6.84194e-08
2.16435e-06
-6.29098e-08
2.17496e-06
-5.98813e-08
2.18493e-06
-6.15235e-08
2.19544e-06
-5.76532e-08
2.20476e-06
-5.28631e-08
2.21355e-06
-5.07598e-08
2.22203e-06
-5.10799e-08
2.23092e-06
-5.44364e-08
2.24058e-06
-4.90445e-08
2.24923e-06
-4.25817e-08
2.25687e-06
-4.05151e-08
2.26405e-06
-4.16641e-08
2.27152e-06
-4.59068e-08
2.27961e-06
-4.13105e-08
2.28731e-06
-3.63061e-08
2.29404e-06
-3.35283e-08
2.29978e-06
-3.53782e-08
2.30616e-06
-3.34718e-08
2.31242e-06
-3.20852e-08
2.3186e-06
-3.15426e-08
2.3246e-06
-3.46233e-08
2.33107e-06
-3.07e-08
2.33704e-06
-2.72278e-08
2.34239e-06
-2.54524e-08
2.3472e-06
-2.67876e-08
2.35235e-06
-2.54524e-08
2.35725e-06
-2.37993e-08
2.36166e-06
-2.28869e-08
2.36545e-06
-2.06723e-08
2.36836e-06
-1.80905e-08
2.37063e-06
-1.51423e-08
2.37299e-06
-1.47554e-08
2.37555e-06
-1.40624e-08
2.37908e-06
-1.62446e-08
2.38263e-06
-1.51237e-08
2.38657e-06
-1.56397e-08
2.39066e-06
-1.67422e-08
2.39455e-06
-1.68515e-08
2.3979e-06
-1.50123e-08
2.40032e-06
-1.18267e-08
2.40201e-06
-9.06783e-09
2.40344e-06
-7.87027e-09
2.40554e-06
-8.74485e-09
2.40793e-06
-8.80333e-09
2.41113e-06
-1.24653e-08
2.41455e-06
-1.16738e-08
2.41887e-06
-1.36032e-08
2.42343e-06
-1.46815e-08
2.42804e-06
-1.5815e-08
2.4325e-06
-1.58723e-08
2.43669e-06
-1.54418e-08
2.44042e-06
-1.42916e-08
2.44367e-06
-1.26712e-08
2.44632e-06
-1.04844e-08
2.4482e-06
-7.48196e-09
2.44927e-06
-6.03616e-09
2.45015e-06
-4.66464e-09
2.45119e-06
-4.44069e-09
2.45226e-06
-3.94614e-09
2.45347e-06
-4.65088e-09
2.45484e-06
-4.57846e-09
2.4565e-06
-5.08871e-09
2.45803e-06
-4.72255e-09
2.45948e-06
-4.43468e-09
2.46095e-06
-4.32697e-09
2.46229e-06
-3.97302e-09
2.46363e-06
-3.85843e-09
2.4648e-06
-2.77427e-09
2.4657e-06
-2.65069e-09
2.4665e-06
-2.14235e-09
2.46729e-06
-1.88496e-09
2.46792e-06
-1.26035e-09
2.46841e-06
-7.43149e-10
2.46885e-06
-4.87294e-10
2.46917e-06
-3.3279e-11
2.46955e-06
-1.12611e-10
2.46992e-06
1.26741e-10
2.47037e-06
-4.47062e-11
2.47082e-06
3.23099e-11
2.47144e-06
-9.93086e-11
2.47209e-06
-3.85013e-10
2.47286e-06
-5.04419e-10
2.47359e-06
-6.65431e-10
2.47441e-06
-7.6079e-10
2.47522e-06
-8.58556e-10
2.47596e-06
-7.21139e-10
2.4767e-06
-6.67189e-10
2.47735e-06
-6.09581e-10
2.4778e-06
1.64896e-10
2.47804e-06
3.01393e-10
2.4782e-06
5.20511e-10
2.47842e-06
6.17923e-10
2.47847e-06
1.0774e-09
2.47842e-06
1.41981e-09
2.47826e-06
1.78399e-09
2.47803e-06
2.06346e-09
2.47773e-06
2.2778e-09
2.47741e-06
2.43676e-09
2.47706e-06
2.64569e-09
2.47671e-06
2.61956e-09
2.47639e-06
2.75026e-09
2.47609e-06
2.64413e-09
2.47584e-06
2.60153e-09
2.47562e-06
2.44798e-09
2.47546e-06
2.38286e-09
2.47532e-06
2.27829e-09
2.47532e-06
1.98035e-09
2.47532e-06
1.81309e-09
2.47546e-06
1.29734e-09
2.47556e-06
1.28764e-09
2.47568e-06
1.15468e-09
2.47566e-06
1.44782e-09
2.47559e-06
1.80491e-09
2.47519e-06
2.15488e-09
2.47464e-06
2.7221e-09
2.4739e-06
3.46396e-09
2.47301e-06
3.94245e-09
2.47204e-06
4.16607e-09
2.47104e-06
4.49752e-09
2.47005e-06
4.46776e-09
2.46912e-06
4.5674e-09
2.46827e-06
4.40501e-09
2.46754e-06
4.09791e-09
2.46695e-06
3.68915e-09
2.46647e-06
3.30139e-09
2.46613e-06
2.95932e-09
2.46588e-06
2.52364e-09
2.46567e-06
2.16826e-09
2.46538e-06
2.40979e-09
2.46507e-06
2.51206e-09
2.46471e-06
2.33451e-09
2.46412e-06
3.34083e-09
2.46331e-06
3.13642e-09
2.46255e-06
3.27943e-09
2.4617e-06
3.74044e-09
2.46077e-06
3.83285e-09
2.45979e-06
4.14657e-09
2.45874e-06
4.33307e-09
2.45767e-06
4.53014e-09
2.45657e-06
4.6437e-09
2.45548e-06
4.66639e-09
2.4544e-06
4.68003e-09
2.45333e-06
4.66376e-09
2.45227e-06
4.67835e-09
2.45123e-06
4.63069e-09
2.45019e-06
4.64725e-09
2.44917e-06
4.59339e-09
2.44814e-06
4.64657e-09
2.44712e-06