/*--------------------------------*- C++ -*----------------------------------*\
| =========                 |                                                 |
| \\      /  F ield         | OpenFOAM: The Open Source CFD Toolbox           |
|  \\    /   O peration     | Version:  2312                                  |
|   \\  /    A nd           | Website:  www.openfoam.com                      |
|    \\/     M anipulation  |                                                 |
\*---------------------------------------------------------------------------*/
FoamFile
{
    version     2.0;
    format      ascii;
    arch        "LSB;label=32;scalar=64";
    class       volScalarField;
    location    "0.004";
    object      rho;
}
// * * * * * * * * * * * * * * * * * * * * * * * * * * * * * * * * * * * * * //

dimensions      [1 -3 0 0 0 0 0];

internalField   nonuniform List<scalar> 
48128
(
0.0366485
0.0365641
0.0365018
0.0362629
0.0360684
0.0357012
0.0350829
0.0343517
0.0336194
0.0329965
0.0325593
0.0322798
0.0320922
0.0320527
0.0321162
0.0322601
0.0324923
0.0328153
0.0332321
0.0337601
0.0344537
0.0352717
0.0362025
0.0372945
0.0385651
0.0400125
0.0416405
0.0434407
0.0454782
0.0476887
0.050131
0.0527565
0.0556124
0.0586563
0.0619434
0.0653751
0.0691005
0.0727898
0.0766922
0.0806741
0.0846386
0.0877218
0.0916947
0.0956167
0.0994942
0.103356
0.107167
0.110869
0.114409
0.117882
0.121201
0.124474
0.127502
0.130522
0.133272
0.136002
0.138488
0.14086
0.14304
0.144946
0.146838
0.148422
0.149953
0.151446
0.15271
0.153997
0.154999
0.155985
0.156734
0.157465
0.158122
0.15868
0.159242
0.159728
0.160194
0.16062
0.161014
0.161456
0.161777
0.162086
0.162742
0.163221
0.163409
0.163577
0.164107
0.164412
0.164544
0.164626
0.164611
0.165326
0.165636
0.165684
0.165709
0.165646
0.166245
0.166496
0.166476
0.166462
0.166636
0.166715
0.166694
0.166631
0.166966
0.16709
0.167056
0.167034
0.167118
0.167118
0.167084
0.167017
0.166865
0.166634
0.166338
0.166096
0.16582
0.165779
0.165743
0.165719
0.165721
0.165713
0.16562
0.165419
0.165151
0.164921
0.164746
0.164595
0.164706
0.164772
0.164917
0.165091
0.16527
0.165447
0.165582
0.165675
0.16569
0.165645
0.165496
0.165299
0.165102
0.164929
0.164769
0.164653
0.164537
0.16447
0.164383
0.164302
0.164206
0.164116
0.164037
0.163914
0.163807
0.163667
0.16354
0.163402
0.163257
0.163119
0.162981
0.162858
0.162738
0.162631
0.16253
0.162447
0.162366
0.1623
0.162242
0.162192
0.162141
0.162091
0.162037
0.161995
0.161905
0.161835
0.161729
0.161627
0.16152
0.161409
0.161292
0.161171
0.161051
0.160935
0.160816
0.16071
0.160609
0.160519
0.160436
0.160364
0.160302
0.160249
0.160208
0.160179
0.160157
0.160142
0.160117
0.160099
0.160015
0.159933
0.159836
0.159724
0.159601
0.159482
0.159361
0.159255
0.159164
0.159094
0.159036
0.158993
0.158963
0.158946
0.158942
0.158939
0.158929
0.158911
0.158915
0.158839
0.158786
0.158732
0.158663
0.158596
0.158524
0.158451
0.158378
0.158307
0.158238
0.158173
0.158111
0.158053
0.157998
0.157946
0.157896
0.157847
0.1578
0.157754
0.157709
0.157666
0.157624
0.157584
0.157545
0.157511
0.157481
0.157372
0.0366842
0.0365799
0.0365411
0.0363449
0.036165
0.0357812
0.0352115
0.0345649
0.0339367
0.0334739
0.0332151
0.0330031
0.0328663
0.0328699
0.0329608
0.0331244
0.0333664
0.0336918
0.0341127
0.0346259
0.0352283
0.0359899
0.0368864
0.0379398
0.0391574
0.040538
0.0420787
0.0437942
0.0457067
0.0477686
0.0500646
0.0525547
0.0552941
0.058226
0.0614163
0.0647439
0.0684042
0.0721967
0.075863
0.0798827
0.0838571
0.0877307
0.0917099
0.0957084
0.0997143
0.103699
0.107648
0.111512
0.115267
0.118974
0.122543
0.126069
0.129367
0.132628
0.135633
0.138607
0.141343
0.143946
0.146352
0.14853
0.15064
0.152476
0.154282
0.156013
0.157534
0.159039
0.160271
0.161472
0.162452
0.163422
0.164302
0.165095
0.165884
0.16659
0.167285
0.167923
0.168536
0.169191
0.169691
0.170219
0.171107
0.171772
0.172121
0.17247
0.173204
0.173693
0.173994
0.174202
0.174379
0.175336
0.175831
0.176034
0.176165
0.176269
0.177073
0.177494
0.177615
0.177722
0.178055
0.178287
0.178397
0.178474
0.178985
0.179265
0.179361
0.179449
0.179664
0.179803
0.179884
0.179933
0.179886
0.179771
0.179604
0.179491
0.179388
0.179497
0.179593
0.179683
0.179778
0.179869
0.179855
0.179734
0.179554
0.179425
0.17935
0.179287
0.179512
0.179672
0.179915
0.180153
0.180406
0.18064
0.180822
0.18097
0.181049
0.18106
0.180958
0.180821
0.180689
0.180571
0.180471
0.180402
0.180337
0.180314
0.180285
0.180256
0.180211
0.180172
0.180143
0.180063
0.180003
0.179903
0.179817
0.179719
0.179611
0.179509
0.179406
0.179317
0.179229
0.179156
0.179085
0.179034
0.178987
0.178955
0.178928
0.178912
0.178892
0.178874
0.178849
0.178836
0.178777
0.178735
0.178655
0.178577
0.178492
0.178401
0.178303
0.178201
0.178097
0.177997
0.177892
0.177799
0.177712
0.177637
0.177567
0.177509
0.177459
0.17742
0.177391
0.177375
0.177367
0.177365
0.177354
0.177344
0.17728
0.177206
0.177116
0.17701
0.176892
0.176774
0.176656
0.176547
0.176456
0.176387
0.176331
0.176289
0.176262
0.176247
0.176248
0.176249
0.176243
0.176228
0.176232
0.17616
0.176108
0.176053
0.175982
0.175912
0.175835
0.175758
0.17568
0.175602
0.175528
0.175457
0.175389
0.175325
0.175266
0.175208
0.175152
0.175098
0.175044
0.174993
0.174941
0.174892
0.174842
0.174796
0.174749
0.174708
0.174669
0.174556
0.0367264
0.0366247
0.0365583
0.0363907
0.036124
0.035717
0.0351681
0.0345779
0.0340321
0.0335782
0.0332237
0.0330234
0.0329071
0.0329153
0.0330032
0.0331593
0.0333873
0.0336953
0.0340871
0.0345856
0.0352009
0.0359387
0.0368017
0.0378215
0.0389967
0.0403332
0.0418303
0.0435049
0.0453864
0.0474276
0.0497004
0.0521632
0.054891
0.0577841
0.0610129
0.06434
0.0679866
0.0718209
0.0758065
0.0798715
0.0839375
0.0880597
0.0922027
0.0963811
0.100543
0.104698
0.108827
0.112872
0.116826
0.120732
0.124482
0.128179
0.131629
0.135047
0.138197
0.141308
0.144156
0.14686
0.149334
0.151629
0.153792
0.155679
0.157587
0.15937
0.16097
0.162534
0.163802
0.165051
0.166064
0.167088
0.168001
0.16884
0.169679
0.17043
0.171176
0.171856
0.172523
0.173239
0.173797
0.174368
0.175324
0.176063
0.176483
0.176876
0.177659
0.178223
0.178599
0.178869
0.179058
0.180061
0.180657
0.180946
0.181146
0.181275
0.182105
0.182621
0.182826
0.182979
0.183347
0.183654
0.183829
0.183941
0.184501
0.184856
0.185028
0.185165
0.185424
0.185626
0.185764
0.18586
0.18586
0.185784
0.18566
0.185592
0.185536
0.185714
0.185873
0.18603
0.186185
0.186329
0.18637
0.186293
0.186153
0.186075
0.186055
0.186051
0.186338
0.186556
0.18686
0.187159
0.187463
0.187753
0.187979
0.188165
0.188279
0.188329
0.188256
0.188142
0.188041
0.187966
0.187902
0.187878
0.187858
0.187883
0.18789
0.187898
0.18789
0.187886
0.187884
0.187834
0.187801
0.187724
0.187661
0.187584
0.187499
0.187419
0.18734
0.187274
0.187211
0.18716
0.187115
0.187087
0.187066
0.18706
0.187058
0.187068
0.187074
0.187081
0.18708
0.187091
0.187052
0.18703
0.186966
0.186905
0.186837
0.186762
0.18668
0.186592
0.186503
0.186416
0.186326
0.186247
0.186174
0.186112
0.186057
0.186013
0.185977
0.185952
0.185937
0.185936
0.185943
0.185955
0.185958
0.185959
0.185905
0.185838
0.185755
0.185654
0.185541
0.185427
0.185314
0.185211
0.185124
0.185063
0.185014
0.18498
0.18496
0.184953
0.184963
0.184971
0.184972
0.184962
0.184971
0.184903
0.184853
0.184799
0.184729
0.18466
0.184584
0.184506
0.184427
0.18435
0.184275
0.184204
0.184136
0.184072
0.184013
0.183955
0.183899
0.183844
0.18379
0.183738
0.183686
0.183636
0.183585
0.183538
0.183489
0.183446
0.183405
0.183289
0.0368568
0.0366705
0.036599
0.0363588
0.0360264
0.0355752
0.035031
0.0344596
0.033917
0.0335116
0.033219
0.0330196
0.0329089
0.0329154
0.0329955
0.0331475
0.0333633
0.0336529
0.0340227
0.0344885
0.0350588
0.0357577
0.0365856
0.0375709
0.0387144
0.0400308
0.0415075
0.0431679
0.0450346
0.0470596
0.0493264
0.0517577
0.0545692
0.0573997
0.0607188
0.064186
0.0679997
0.0718907
0.0760526
0.0802354
0.08446
0.0888025
0.0931327
0.0975211
0.101876
0.106241
0.110566
0.114813
0.11899
0.123129
0.12706
0.130924
0.134494
0.138061
0.141351
0.144594
0.147529
0.150319
0.152808
0.15519
0.157345
0.159213
0.161182
0.162946
0.164581
0.166146
0.167387
0.168634
0.169619
0.170653
0.171536
0.172368
0.173203
0.173944
0.174687
0.175354
0.17602
0.17674
0.177321
0.177887
0.178834
0.179593
0.180062
0.180463
0.181222
0.181813
0.182233
0.182534
0.18273
0.183653
0.184291
0.184661
0.184906
0.185049
0.185804
0.186363
0.186642
0.186827
0.18718
0.187517
0.187736
0.187855
0.188401
0.188793
0.18902
0.189183
0.189443
0.189677
0.18984
0.189952
0.189967
0.189905
0.189798
0.189749
0.189706
0.189907
0.1901
0.190291
0.190473
0.190637
0.190702
0.19065
0.190535
0.190478
0.190491
0.190518
0.190828
0.191089
0.191432
0.191777
0.192114
0.19244
0.192698
0.192912
0.19305
0.193127
0.193077
0.192978
0.192896
0.192843
0.192799
0.192796
0.192802
0.192853
0.192884
0.192918
0.192934
0.192953
0.192978
0.192953
0.192941
0.192887
0.192847
0.192788
0.192719
0.192656
0.192593
0.192545
0.1925
0.192468
0.192441
0.192433
0.192432
0.192447
0.192466
0.192498
0.192522
0.192548
0.192565
0.192592
0.192569
0.192562
0.19251
0.192463
0.192408
0.192345
0.192275
0.192198
0.192121
0.192046
0.191967
0.1919
0.191839
0.191789
0.191745
0.191713
0.19169
0.191677
0.191674
0.191687
0.191706
0.19173
0.191742
0.191754
0.191708
0.191647
0.191569
0.191475
0.191366
0.191258
0.19115
0.191052
0.190972
0.190918
0.190875
0.190849
0.190837
0.190838
0.190856
0.19087
0.190877
0.190873
0.190887
0.190823
0.190774
0.190723
0.190656
0.190587
0.190513
0.190437
0.190359
0.190283
0.19021
0.19014
0.190074
0.190011
0.189953
0.189897
0.189841
0.189788
0.189735
0.189684
0.189632
0.189582
0.189532
0.189485
0.189437
0.189394
0.189352
0.189235
0.0369307
0.0367211
0.0365589
0.0362566
0.0358561
0.0353758
0.0348349
0.0342871
0.0337906
0.0333944
0.0331133
0.0329295
0.0328362
0.0328489
0.032926
0.0330727
0.0332735
0.0335498
0.0339021
0.0343465
0.0348982
0.0355763
0.0363881
0.0373629
0.0384973
0.0398091
0.0412746
0.0429253
0.0447951
0.0468142
0.0491771
0.0515285
0.05446
0.0574785
0.0609022
0.0645091
0.0685076
0.072526
0.0768798
0.0812163
0.0856542
0.0903066
0.0948247
0.0994608
0.104025
0.108677
0.113204
0.1177
0.122113
0.126503
0.130626
0.134649
0.138336
0.142051
0.145495
0.148864
0.151855
0.154706
0.157183
0.159637
0.161737
0.163571
0.165587
0.167285
0.16893
0.170453
0.171626
0.172835
0.173752
0.174764
0.175575
0.176369
0.177164
0.177862
0.17857
0.179196
0.179836
0.180527
0.181123
0.181648
0.182541
0.183282
0.183792
0.184184
0.184878
0.185461
0.185908
0.186224
0.186431
0.187208
0.187843
0.1883
0.188573
0.188728
0.189359
0.189913
0.19027
0.190467
0.190786
0.191132
0.191373
0.191502
0.191987
0.192389
0.192666
0.192838
0.19308
0.193323
0.193494
0.193598
0.19361
0.193549
0.193451
0.193409
0.193368
0.193568
0.193783
0.193992
0.194178
0.194339
0.194407
0.194367
0.194272
0.194228
0.194261
0.194306
0.194609
0.194911
0.195284
0.195655
0.196009
0.196355
0.196632
0.196865
0.197016
0.19711
0.197079
0.19699
0.196921
0.196882
0.19685
0.196857
0.196874
0.19694
0.196986
0.197034
0.197065
0.197096
0.197137
0.197129
0.19713
0.197089
0.197063
0.197021
0.196967
0.196918
0.196869
0.196833
0.196802
0.196784
0.196773
0.196781
0.196797
0.196829
0.196864
0.196912
0.19695
0.196991
0.197021
0.197056
0.197043
0.197046
0.197004
0.196966
0.19692
0.196866
0.196805
0.196738
0.196669
0.196603
0.196533
0.196474
0.196423
0.196382
0.196348
0.196325
0.19631
0.196307
0.196314
0.196337
0.196364
0.196398
0.196418
0.196439
0.196399
0.196343
0.19627
0.19618
0.196076
0.195972
0.195867
0.195773
0.195699
0.19565
0.195613
0.195592
0.195586
0.195594
0.195618
0.195637
0.19565
0.19565
0.195669
0.195609
0.19556
0.195512
0.195447
0.19538
0.195307
0.195232
0.195155
0.19508
0.195008
0.194939
0.194874
0.194813
0.194755
0.1947
0.194646
0.194593
0.194541
0.194491
0.19444
0.19439
0.19434
0.194294
0.194245
0.194203
0.19416
0.194043
0.0369858
0.0367192
0.0364759
0.036101
0.0356498
0.0351586
0.0346167
0.0340786
0.0336148
0.0332508
0.0329909
0.0328223
0.0327456
0.032761
0.0328343
0.0329791
0.0331702
0.0334368
0.0337774
0.0342079
0.0347486
0.0354185
0.0362269
0.0371992
0.0383279
0.0396432
0.0411092
0.0427559
0.0447036
0.0467015
0.0491811
0.0517178
0.0547173
0.0579008
0.061488
0.0652732
0.0695014
0.0736934
0.0783262
0.0828513
0.0874743
0.0925288
0.0971978
0.102095
0.106862
0.111857
0.116621
0.12139
0.126064
0.130596
0.134919
0.139035
0.142879
0.146731
0.150393
0.153895
0.156963
0.159857
0.162348
0.164886
0.166921
0.168694
0.170821
0.172422
0.174069
0.175552
0.176572
0.177753
0.178552
0.179556
0.180253
0.180994
0.18173
0.182354
0.183006
0.183577
0.184181
0.184816
0.185424
0.185925
0.1867
0.187362
0.187929
0.188311
0.188903
0.189425
0.189903
0.190224
0.190437
0.19104
0.191628
0.192166
0.192462
0.192629
0.193113
0.193625
0.194041
0.194244
0.194526
0.194853
0.1951
0.195247
0.195631
0.196018
0.196331
0.196504
0.196718
0.196947
0.197112
0.197188
0.197181
0.197112
0.197016
0.196975
0.19693
0.197109
0.197336
0.197553
0.197727
0.197863
0.197916
0.197881
0.197805
0.197766
0.197806
0.197865
0.198144
0.198486
0.198874
0.199255
0.199615
0.199975
0.200255
0.200498
0.200651
0.200752
0.200732
0.200652
0.20059
0.200556
0.200531
0.200543
0.200564
0.200633
0.200687
0.200744
0.200781
0.200818
0.200864
0.200866
0.200875
0.200841
0.200821
0.200787
0.200743
0.200705
0.200667
0.200641
0.200621
0.200614
0.200614
0.200632
0.200658
0.200699
0.200744
0.2008
0.200848
0.200899
0.200937
0.200979
0.200976
0.200987
0.200951
0.200919
0.20088
0.200832
0.200778
0.200717
0.200653
0.200593
0.200528
0.200476
0.200431
0.200396
0.200367
0.200351
0.200342
0.200346
0.20036
0.20039
0.200423
0.200463
0.200487
0.200515
0.200478
0.200425
0.200355
0.200268
0.200166
0.200065
0.199962
0.199871
0.199799
0.199754
0.199721
0.199704
0.199701
0.199714
0.199741
0.199763
0.199782
0.199783
0.199806
0.199748
0.1997
0.199653
0.199589
0.199522
0.199449
0.199374
0.199298
0.199223
0.199151
0.199083
0.199017
0.198956
0.198899
0.198844
0.19879
0.198738
0.198686
0.198635
0.198584
0.198534
0.198484
0.198437
0.198389
0.198345
0.198302
0.198185
0.0369861
0.0366538
0.0363485
0.0359207
0.0354457
0.0349444
0.0343785
0.0338589
0.0334273
0.0330917
0.0328533
0.0327044
0.032644
0.0326638
0.0327379
0.03288
0.033071
0.0333314
0.0336663
0.0340901
0.0346303
0.0353012
0.0361076
0.0370821
0.0382091
0.0395328
0.0410575
0.0427049
0.0447595
0.0468915
0.0494559
0.0521722
0.0553323
0.0587339
0.0625424
0.066538
0.0711
0.0754447
0.0805044
0.0851863
0.0898397
0.0951903
0.099961
0.105079
0.109988
0.115208
0.120188
0.125198
0.130143
0.134687
0.139219
0.14345
0.147509
0.151575
0.155528
0.159267
0.162431
0.165477
0.167989
0.170654
0.172666
0.174469
0.176686
0.17819
0.179834
0.181263
0.18213
0.183272
0.183945
0.184927
0.185519
0.186232
0.18691
0.187475
0.188078
0.188623
0.189192
0.189769
0.190371
0.190847
0.191454
0.192052
0.192639
0.19301
0.19346
0.193912
0.194393
0.194697
0.194916
0.195338
0.195878
0.196451
0.196738
0.196927
0.197267
0.19772
0.198138
0.198348
0.198589
0.198879
0.199098
0.199262
0.199539
0.199901
0.200211
0.200387
0.200568
0.200764
0.200904
0.200931
0.200893
0.200812
0.200713
0.200661
0.200622
0.200763
0.200992
0.2012
0.201343
0.201436
0.201462
0.201432
0.201363
0.201331
0.201356
0.201439
0.2017
0.202058
0.202447
0.202828
0.203186
0.203549
0.203824
0.204065
0.204205
0.204306
0.204288
0.204214
0.204156
0.204122
0.204098
0.204106
0.204128
0.204191
0.204246
0.204305
0.204341
0.204379
0.204421
0.204428
0.204438
0.204405
0.204385
0.204355
0.204314
0.204282
0.20425
0.204231
0.204217
0.204215
0.204221
0.204244
0.204275
0.20432
0.204369
0.204429
0.204481
0.204537
0.204576
0.204623
0.204626
0.204643
0.204612
0.204581
0.204546
0.204501
0.20445
0.204391
0.20433
0.204273
0.204211
0.20416
0.204118
0.204086
0.20406
0.204046
0.20404
0.204049
0.204065
0.2041
0.204135
0.204177
0.204203
0.204233
0.204198
0.204145
0.204074
0.203988
0.203887
0.203786
0.203684
0.203592
0.203521
0.203477
0.203446
0.20343
0.203429
0.203444
0.203472
0.203495
0.203516
0.203517
0.20354
0.203484
0.203435
0.203387
0.203323
0.203254
0.203181
0.203105
0.203028
0.202952
0.202878
0.202809
0.202742
0.20268
0.202622
0.202566
0.202511
0.202457
0.202404
0.202352
0.2023
0.202249
0.202198
0.20215
0.2021
0.202055
0.20201
0.201892
0.0369348
0.0365328
0.0361901
0.0357356
0.0352468
0.0347111
0.034138
0.0336463
0.0332438
0.0329361
0.0327201
0.0325907
0.0325447
0.0325689
0.0326467
0.0327907
0.0329856
0.0332433
0.0335792
0.034006
0.0345482
0.0352249
0.0360294
0.0370095
0.0381775
0.0395106
0.0411243
0.042887
0.0450238
0.0473076
0.0500388
0.0529751
0.0563423
0.0600017
0.064168
0.0680757
0.0727648
0.0770662
0.0821517
0.0872048
0.0920478
0.0976347
0.102699
0.108205
0.113419
0.118947
0.124222
0.129496
0.13475
0.139408
0.144066
0.148415
0.152347
0.156821
0.160812
0.164771
0.168091
0.171367
0.17398
0.176731
0.178755
0.180729
0.183027
0.184495
0.186196
0.187606
0.188353
0.189482
0.190098
0.191062
0.191585
0.192315
0.192905
0.193393
0.19395
0.19444
0.194964
0.195454
0.196015
0.196412
0.196879
0.197384
0.19797
0.1983
0.19865
0.199031
0.199484
0.199782
0.199979
0.200292
0.200727
0.201269
0.201576
0.201749
0.20199
0.202327
0.202721
0.202932
0.203127
0.203355
0.203541
0.203686
0.203888
0.204178
0.20447
0.204646
0.204782
0.204928
0.205012
0.204982
0.204899
0.204794
0.204691
0.204602
0.204584
0.20469
0.204893
0.20507
0.205173
0.205204
0.205202
0.205161
0.205095
0.205074
0.205078
0.205191
0.205446
0.205791
0.206162
0.206536
0.206884
0.207233
0.20749
0.207721
0.207846
0.207928
0.207913
0.207832
0.207776
0.207732
0.207712
0.207709
0.207727
0.207775
0.207823
0.207877
0.207907
0.20794
0.207971
0.207974
0.207983
0.207946
0.20792
0.20789
0.20785
0.207819
0.207791
0.207772
0.207759
0.207756
0.207763
0.207785
0.207815
0.207858
0.207906
0.207965
0.208014
0.20807
0.208106
0.208149
0.208157
0.208177
0.208145
0.208113
0.208077
0.208032
0.20798
0.207921
0.207858
0.2078
0.207736
0.207685
0.207642
0.207608
0.207582
0.207567
0.207561
0.207569
0.207585
0.207621
0.207654
0.207695
0.207719
0.207748
0.20771
0.207656
0.207583
0.207495
0.207391
0.207287
0.207182
0.207087
0.207017
0.206971
0.206938
0.206921
0.206919
0.206933
0.20696
0.206981
0.207003
0.207002
0.207023
0.206966
0.206915
0.206864
0.206797
0.206726
0.20665
0.206571
0.206491
0.206412
0.206336
0.206264
0.206195
0.20613
0.206069
0.20601
0.205953
0.205897
0.205841
0.205787
0.205732
0.205679
0.205625
0.205574
0.205522
0.205475
0.205427
0.205307
0.0368261
0.0363705
0.0360155
0.0355466
0.0350468
0.0344688
0.033916
0.0334513
0.0330753
0.0327922
0.0325985
0.0324879
0.0324545
0.032484
0.032568
0.0327178
0.0329179
0.0331822
0.0335276
0.033956
0.0344995
0.0351861
0.0360138
0.0370067
0.0382416
0.0396819
0.0413452
0.0432478
0.0455311
0.0480012
0.0509067
0.0541337
0.0577582
0.0611376
0.0654078
0.0691594
0.0739405
0.0783387
0.0834723
0.0890285
0.0943834
0.100157
0.105803
0.111674
0.117555
0.123329
0.129063
0.134408
0.140019
0.144733
0.149461
0.153799
0.157808
0.162631
0.166156
0.17024
0.173512
0.17704
0.179824
0.182669
0.18488
0.187115
0.189572
0.191099
0.192927
0.194323
0.195131
0.196283
0.196985
0.197968
0.198496
0.199267
0.199762
0.200217
0.200727
0.20116
0.20164
0.202035
0.202528
0.202857
0.203181
0.203561
0.204101
0.204409
0.204648
0.20494
0.205331
0.20563
0.205768
0.205963
0.20628
0.206743
0.207059
0.207201
0.207336
0.207551
0.207876
0.208091
0.208238
0.208396
0.208551
0.208658
0.208782
0.208985
0.209238
0.209404
0.20949
0.209565
0.209574
0.209462
0.209333
0.209201
0.209084
0.208973
0.208945
0.209017
0.209182
0.209299
0.209347
0.20931
0.209261
0.209214
0.209153
0.209131
0.209126
0.20926
0.209501
0.209814
0.210152
0.210508
0.210832
0.211156
0.211382
0.211589
0.211682
0.211737
0.211721
0.211635
0.211573
0.211519
0.211489
0.211476
0.211474
0.211503
0.211537
0.211576
0.211595
0.211614
0.211628
0.211623
0.211624
0.211582
0.211548
0.211516
0.211476
0.211441
0.211409
0.211385
0.211368
0.211358
0.211357
0.211371
0.211393
0.211428
0.211468
0.211518
0.211559
0.211608
0.211636
0.211672
0.211678
0.211696
0.211659
0.211623
0.211582
0.211531
0.211474
0.21141
0.211342
0.211278
0.21121
0.211153
0.211106
0.211068
0.211036
0.211017
0.211007
0.211011
0.211024
0.211056
0.211083
0.21112
0.211138
0.211162
0.211117
0.211058
0.210979
0.210887
0.210778
0.210668
0.210559
0.210459
0.210385
0.210335
0.210299
0.210278
0.210273
0.210283
0.210304
0.210322
0.210342
0.210335
0.21035
0.210292
0.210237
0.21018
0.210109
0.210033
0.209953
0.209869
0.209785
0.209702
0.209621
0.209544
0.209471
0.209401
0.209336
0.209273
0.209211
0.209151
0.209092
0.209033
0.208975
0.208918
0.20886
0.208805
0.20875
0.208699
0.208647
0.208523
0.0366583
0.0361754
0.0358282
0.035356
0.034841
0.034246
0.0337231
0.03328
0.0329277
0.0326673
0.032494
0.0324001
0.0323777
0.0324152
0.0325084
0.0326665
0.0328759
0.0331516
0.0335066
0.0339385
0.0344931
0.0352049
0.0360825
0.0371577
0.0384237
0.0399948
0.0417508
0.0438144
0.0462473
0.048972
0.0520288
0.054976
0.0587643
0.0618969
0.0661446
0.0699631
0.0746476
0.0794405
0.0845221
0.0905071
0.0966079
0.102545
0.109206
0.115205
0.122094
0.128096
0.134418
0.139747
0.145608
0.150141
0.154727
0.158889
0.163149
0.168218
0.171425
0.175414
0.178444
0.182033
0.184822
0.187886
0.190425
0.192853
0.195648
0.19723
0.199202
0.200584
0.201681
0.20297
0.203868
0.204924
0.205579
0.206465
0.20698
0.207513
0.208074
0.208515
0.209032
0.209395
0.20984
0.210141
0.210398
0.210652
0.211105
0.211379
0.211582
0.211779
0.212083
0.212332
0.212454
0.212544
0.212711
0.213038
0.213319
0.21346
0.213503
0.213581
0.213793
0.213999
0.214104
0.214173
0.214275
0.214333
0.21436
0.21446
0.214636
0.214775
0.214798
0.214784
0.21467
0.214492
0.214313
0.214157
0.214031
0.21392
0.213866
0.21389
0.213995
0.214036
0.214
0.213895
0.213802
0.213732
0.213685
0.213662
0.213658
0.213785
0.213991
0.214263
0.214551
0.214873
0.215157
0.215441
0.215622
0.215787
0.215841
0.215852
0.215831
0.215749
0.215677
0.215612
0.21556
0.215523
0.215494
0.215491
0.2155
0.215514
0.215511
0.215512
0.215502
0.215481
0.215473
0.215425
0.215382
0.215338
0.215284
0.215237
0.215193
0.215156
0.215126
0.215104
0.215091
0.215089
0.215095
0.215114
0.215139
0.215172
0.215199
0.215236
0.21525
0.215275
0.215272
0.215282
0.215234
0.215188
0.215136
0.215075
0.215008
0.214934
0.214857
0.214784
0.214706
0.214641
0.214584
0.214537
0.214497
0.21447
0.214452
0.214448
0.214453
0.214476
0.214495
0.214523
0.214529
0.214544
0.214489
0.214422
0.214335
0.214234
0.214117
0.214
0.213884
0.213777
0.213696
0.213639
0.213597
0.213569
0.213558
0.213561
0.213575
0.213586
0.213601
0.213586
0.213592
0.213529
0.21347
0.213405
0.213327
0.213245
0.213158
0.213068
0.212977
0.212888
0.2128
0.212717
0.212637
0.212562
0.212491
0.212422
0.212354
0.212288
0.212223
0.212159
0.212095
0.212032
0.211969
0.211909
0.211848
0.211792
0.211735
0.211605
0.0364506
0.0359632
0.0356331
0.0351704
0.0346311
0.0340535
0.0335579
0.0331357
0.0328056
0.0325659
0.0324105
0.0323304
0.0323187
0.0323669
0.0324734
0.0326432
0.0328655
0.033144
0.0335131
0.0339698
0.0345626
0.0353363
0.0362435
0.0374202
0.0387547
0.0404524
0.0423181
0.0445816
0.0471476
0.049748
0.0529076
0.0554648
0.059213
0.0621192
0.0664478
0.0699406
0.0747931
0.0789392
0.0847953
0.0897835
0.096665
0.102484
0.109257
0.115489
0.123031
0.128829
0.135875
0.141779
0.148354
0.153674
0.159254
0.16364
0.167977
0.173278
0.176429
0.180186
0.182919
0.186354
0.188875
0.192076
0.194685
0.19742
0.200459
0.202285
0.204442
0.205825
0.207299
0.20884
0.209935
0.21112
0.211945
0.21297
0.213653
0.214348
0.21507
0.215626
0.216251
0.216706
0.217195
0.217552
0.217882
0.218126
0.218496
0.218806
0.219106
0.219292
0.219525
0.219757
0.219919
0.219982
0.220021
0.220173
0.220408
0.220567
0.220567
0.220508
0.220592
0.220749
0.22081
0.220815
0.220843
0.220847
0.220775
0.22075
0.220821
0.220907
0.220842
0.220732
0.220494
0.220264
0.220075
0.219943
0.219824
0.219697
0.219594
0.219525
0.219519
0.219433
0.219291
0.219122
0.218984
0.21891
0.218884
0.218851
0.218831
0.218906
0.219056
0.21926
0.21948
0.219751
0.219976
0.220199
0.220326
0.220431
0.220429
0.220393
0.220384
0.220321
0.220231
0.220149
0.220068
0.219988
0.219913
0.219865
0.219834
0.219811
0.219779
0.219755
0.219716
0.219681
0.219659
0.219591
0.21952
0.219449
0.219371
0.219301
0.219233
0.219172
0.219118
0.219075
0.219041
0.21902
0.219006
0.219002
0.219002
0.21901
0.219016
0.219034
0.219031
0.219036
0.219013
0.219005
0.218938
0.218876
0.218807
0.218729
0.218646
0.218557
0.218464
0.218376
0.218284
0.218204
0.218134
0.218073
0.21802
0.217979
0.217949
0.217933
0.217925
0.217936
0.217941
0.217956
0.217945
0.217946
0.217877
0.217799
0.2177
0.217589
0.217461
0.217334
0.217209
0.217092
0.217002
0.216936
0.216883
0.216846
0.216827
0.21682
0.216823
0.216823
0.216831
0.216804
0.216798
0.216729
0.216663
0.216588
0.216501
0.21641
0.216314
0.216216
0.216117
0.216019
0.215924
0.215832
0.215744
0.215661
0.215582
0.215505
0.215429
0.215356
0.215283
0.215211
0.21514
0.215071
0.215001
0.214934
0.214866
0.214804
0.214739
0.214602
0.036218
0.0357476
0.0354429
0.0349909
0.0344384
0.0338963
0.0334218
0.0330214
0.0327118
0.0324909
0.0323509
0.0322828
0.0322824
0.0323445
0.0324662
0.0326493
0.0328765
0.0331786
0.033587
0.0340797
0.0347022
0.0355518
0.0365124
0.0377944
0.0392342
0.0410517
0.0429689
0.0453575
0.0479497
0.0501714
0.0533228
0.055598
0.0590595
0.0620521
0.0655873
0.0694005
0.0732152
0.0777305
0.0817476
0.0871616
0.0928808
0.0986703
0.10589
0.111796
0.119003
0.125874
0.13339
0.139421
0.146635
0.151865
0.158303
0.163493
0.16906
0.174784
0.178881
0.183291
0.186596
0.190082
0.192557
0.195635
0.197976
0.200913
0.203799
0.205981
0.208368
0.209956
0.211618
0.213492
0.214748
0.216105
0.217068
0.218206
0.219078
0.219981
0.220851
0.221556
0.222299
0.222897
0.223492
0.223976
0.224446
0.224783
0.225197
0.225599
0.226085
0.226387
0.226713
0.227016
0.22734
0.227493
0.227562
0.227634
0.227883
0.228116
0.228162
0.2281
0.228087
0.228172
0.228239
0.228251
0.228216
0.228169
0.228027
0.227896
0.227843
0.227816
0.227669
0.227494
0.22718
0.226977
0.226817
0.226685
0.226567
0.226456
0.22632
0.226085
0.225909
0.225649
0.225389
0.225185
0.225056
0.224971
0.224923
0.22489
0.224829
0.224805
0.224842
0.224936
0.225056
0.225239
0.225379
0.225514
0.225568
0.225597
0.225528
0.225469
0.22545
0.225392
0.225274
0.225165
0.22506
0.224955
0.224847
0.224749
0.224669
0.2246
0.22454
0.224486
0.224406
0.22433
0.224266
0.22416
0.224047
0.223937
0.223824
0.223717
0.223614
0.223518
0.22343
0.223354
0.223288
0.223236
0.223194
0.223164
0.223139
0.22312
0.223097
0.223088
0.223051
0.223025
0.222973
0.22294
0.222846
0.222759
0.222664
0.222561
0.222455
0.222343
0.222229
0.222119
0.222005
0.221905
0.221815
0.221733
0.22166
0.2216
0.221551
0.221517
0.221492
0.221485
0.221472
0.221468
0.221435
0.221418
0.221331
0.221238
0.221124
0.220997
0.220857
0.220716
0.220578
0.220448
0.220346
0.220266
0.220201
0.220152
0.220119
0.220099
0.220087
0.220074
0.22007
0.220029
0.220009
0.219932
0.219856
0.219768
0.21967
0.219568
0.219461
0.219352
0.219243
0.219134
0.219028
0.218926
0.218828
0.218734
0.218646
0.218559
0.218474
0.218391
0.218309
0.218228
0.218148
0.21807
0.217992
0.217916
0.21784
0.217771
0.217695
0.217549
0.035973
0.0355441
0.0352635
0.0348183
0.0342753
0.0337732
0.0333181
0.0329391
0.0326489
0.0324448
0.0323186
0.032262
0.0322719
0.0323528
0.0324938
0.0326968
0.0329468
0.0332631
0.0337089
0.0342546
0.0349171
0.035854
0.0368975
0.0382733
0.0398302
0.0417325
0.0436276
0.0458366
0.0484914
0.0503559
0.0533399
0.0554503
0.0586959
0.061031
0.0648057
0.0673777
0.0708208
0.0739525
0.0779081
0.0816824
0.0855311
0.0898768
0.0945178
0.100069
0.106857
0.113777
0.122489
0.129933
0.138253
0.145191
0.153772
0.160505
0.167449
0.173047
0.177867
0.182893
0.186643
0.19096
0.19454
0.198007
0.200584
0.203689
0.206238
0.208546
0.211153
0.21293
0.214792
0.216933
0.218301
0.219866
0.220958
0.22222
0.223211
0.224321
0.225307
0.226124
0.226958
0.227657
0.228345
0.228915
0.229488
0.229925
0.230423
0.23089
0.231483
0.231953
0.232431
0.232846
0.233341
0.233631
0.233868
0.234054
0.234336
0.2347
0.234913
0.235075
0.235172
0.23528
0.235483
0.235643
0.235693
0.235718
0.235629
0.235505
0.235407
0.235317
0.235172
0.235015
0.234729
0.234493
0.234274
0.234086
0.233922
0.233782
0.233695
0.233404
0.233093
0.232706
0.232388
0.232135
0.231917
0.231757
0.231651
0.231582
0.231549
0.231426
0.231338
0.231286
0.231276
0.231334
0.231362
0.231384
0.231331
0.231276
0.231176
0.23112
0.231064
0.230997
0.230845
0.2307
0.230558
0.230406
0.23026
0.230126
0.230002
0.229888
0.229778
0.229679
0.229546
0.229418
0.229303
0.229152
0.228989
0.228833
0.228676
0.228525
0.228379
0.22824
0.228112
0.227995
0.22789
0.227799
0.227721
0.227654
0.227593
0.227538
0.227481
0.227438
0.227363
0.2273
0.227214
0.227148
0.227022
0.226903
0.226776
0.226642
0.226504
0.226364
0.22622
0.226081
0.225939
0.22581
0.225692
0.225583
0.225483
0.225398
0.225324
0.225266
0.225218
0.225188
0.22515
0.225122
0.225062
0.22502
0.224911
0.224798
0.224664
0.224518
0.224359
0.2242
0.224044
0.223897
0.223778
0.22368
0.223598
0.223531
0.223482
0.223444
0.223414
0.223384
0.223364
0.223305
0.223268
0.223179
0.223091
0.222986
0.222874
0.222757
0.222636
0.222514
0.222391
0.22227
0.222151
0.222036
0.221925
0.221819
0.221718
0.221619
0.221522
0.221427
0.221334
0.221242
0.221151
0.221062
0.220974
0.220887
0.220802
0.220723
0.220635
0.220478
0.0357404
0.03536
0.0351014
0.0346509
0.0341502
0.0336806
0.0332481
0.0328904
0.0326197
0.0324294
0.0323161
0.0322745
0.0322997
0.0324213
0.0325675
0.0327689
0.0330436
0.0333966
0.0338958
0.0344919
0.0352186
0.0362518
0.0373787
0.0388193
0.0404873
0.0424582
0.0443145
0.0462512
0.0488362
0.0504931
0.0532134
0.0552277
0.0577661
0.0603956
0.0624963
0.0650233
0.0673379
0.0695792
0.0716421
0.0734007
0.0752321
0.076608
0.0783401
0.0801041
0.0827043
0.0863723
0.091418
0.099632
0.109954
0.120225
0.133281
0.145107
0.155677
0.163851
0.171619
0.179081
0.184661
0.189987
0.193911
0.197903
0.201013
0.204685
0.20746
0.210089
0.212889
0.214897
0.217243
0.219451
0.220861
0.222627
0.223809
0.225213
0.226299
0.227591
0.228668
0.229581
0.230496
0.231245
0.231999
0.232612
0.233255
0.233762
0.234322
0.234826
0.235455
0.236025