/*--------------------------------*- C++ -*----------------------------------*\
| =========                 |                                                 |
| \\      /  F ield         | OpenFOAM: The Open Source CFD Toolbox           |
|  \\    /   O peration     | Version:  2312                                  |
|   \\  /    A nd           | Website:  www.openfoam.com                      |
|    \\/     M anipulation  |                                                 |
\*---------------------------------------------------------------------------*/
FoamFile
{
    version     2.0;
    format      ascii;
    arch        "LSB;label=32;scalar=64";
    class       volScalarField;
    location    "0.004";
    object      T;
}
// * * * * * * * * * * * * * * * * * * * * * * * * * * * * * * * * * * * * * //

dimensions      [0 0 0 1 0 0 0];

internalField   nonuniform List<scalar> 
48128
(
225.306
225.376
225.584
225.756
225.781
225.795
225.816
225.65
225.167
224.323
223.319
222.361
221.409
220.593
219.987
219.473
219.044
218.72
218.51
218.421
218.538
218.873
219.441
220.195
221.168
222.366
223.77
225.339
227.029
228.919
230.995
233.252
235.656
238.153
240.66
243.159
245.581
247.915
250.242
251.948
253.358
257.301
258.261
259.019
259.719
260.304
260.765
261.116
261.424
261.64
261.805
261.884
261.984
262.005
262.016
261.936
261.84
261.688
261.534
261.409
261.233
261.168
261.132
261.094
261.075
260.983
260.925
260.839
260.807
260.799
260.817
260.88
260.968
261.074
261.226
261.387
261.583
261.78
261.957
262.254
262.723
262.941
263.119
263.349
263.814
264.055
264.23
264.356
264.625
265.359
265.657
265.869
266.011
266.264
266.956
267.245
267.48
267.693
268.102
268.37
268.599
268.851
269.424
269.745
270.02
270.276
270.638
270.936
271.192
271.434
271.638
271.822
272.038
272.299
272.644
273.104
273.5
273.863
274.202
274.512
274.771
274.985
275.217
275.51
275.818
276.14
276.686
277.104
277.574
277.974
278.368
278.705
279.009
279.295
279.56
279.787
279.966
280.161
280.389
280.624
280.871
281.14
281.4
281.692
281.969
282.24
282.506
282.776
283.027
283.264
283.509
283.731
283.962
284.177
284.393
284.609
284.829
285.051
285.276
285.511
285.739
285.982
286.23
286.485
286.733
286.986
287.232
287.473
287.709
287.928
288.14
288.348
288.538
288.726
288.906
289.079
289.246
289.41
289.574
289.736
289.9
290.066
290.235
290.41
290.587
290.772
290.957
291.148
291.341
291.544
291.744
291.937
292.123
292.281
292.436
292.576
292.693
292.801
292.907
293.014
293.127
293.242
293.37
293.506
293.654
293.81
293.972
294.139
294.314
294.474
294.628
294.778
294.904
295.019
295.14
295.25
295.349
295.449
295.542
295.636
295.729
295.823
295.919
296.018
296.117
296.218
296.319
296.422
296.524
296.627
296.728
296.83
296.929
297.029
297.127
297.227
297.323
297.423
297.511
297.574
225.21
225.3
225.366
225.351
225.252
225.101
224.717
223.937
222.681
221.077
219.502
218.042
216.658
215.525
214.705
214.07
213.597
213.3
213.193
213.305
213.607
214.137
214.885
215.886
217.152
218.679
220.455
222.471
224.756
227.233
229.813
232.497
235.212
237.976
240.626
243.301
245.752
247.595
250.563
252.034
253.352
254.833
255.782
256.434
256.954
257.319
257.546
257.656
257.632
257.477
257.27
256.962
256.676
256.355
256.038
255.672
255.289
254.877
254.461
254.049
253.616
253.257
252.945
252.642
252.352
252.018
251.693
251.358
251.048
250.771
250.515
250.294
250.108
249.943
249.81
249.694
249.612
249.559
249.482
249.449
249.68
249.681
249.617
249.563
249.795
249.806
249.759
249.686
249.6
250.102
250.172
250.164
250.13
250.07
250.543
250.627
250.641
250.65
250.832
250.892
250.916
250.926
251.274
251.383
251.457
251.527
251.69
251.781
251.857
251.913
251.938
251.916
251.908
251.938
251.982
252.216
252.387
252.565
252.742
252.889
253.008
253.064
253.118
253.22
253.342
253.497
253.861
254.114
254.434
254.727
255.001
255.258
255.485
255.676
255.83
255.958
256.032
256.098
256.191
256.306
256.423
256.586
256.739
256.931
257.093
257.254
257.41
257.571
257.717
257.855
257.994
258.12
258.252
258.373
258.494
258.619
258.749
258.885
259.024
259.173
259.322
259.484
259.649
259.821
259.992
260.166
260.335
260.5
260.662
260.814
260.947
261.082
261.201
261.321
261.435
261.544
261.649
261.752
261.857
261.963
262.071
262.185
262.302
262.425
262.553
262.688
262.826
262.971
263.121
263.28
263.436
263.589
263.733
263.858
263.958
264.056
264.137
264.208
264.277
264.351
264.43
264.521
264.621
264.73
264.853
264.984
265.122
265.266
265.415
265.554
265.685
265.813
265.928
266.012
266.111
266.203
266.283
266.367
266.445
266.525
266.605
266.687
266.771
266.857
266.945
267.035
267.127
267.219
267.312
267.405
267.497
267.59
267.682
267.775
267.867
267.961
268.053
268.149
268.235
268.281
225.116
225.098
225.049
224.935
224.783
224.469
223.835
222.797
221.416
219.873
218.29
216.887
215.627
214.626
213.947
213.441
213.109
212.957
212.991
213.207
213.627
214.278
215.17
216.319
217.735
219.403
221.279
223.332
225.558
227.942
230.413
233.016
235.554
238.309
240.585
243.092
245.456
247.06
248.836
250.136
251.22
252.091
252.683
253.063
253.314
253.416
253.382
253.245
252.994
252.633
252.243
251.786
251.382
250.988
250.602
250.178
249.749
249.303
248.869
248.429
247.98
247.61
247.295
246.985
246.687
246.337
246.002
245.66
245.344
245.061
244.794
244.557
244.348
244.158
243.992
243.842
243.72
243.623
243.495
243.403
243.567
243.505
243.383
243.276
243.431
243.382
243.279
243.138
243.005
243.419
243.417
243.346
243.243
243.136
243.512
243.526
243.474
243.432
243.534
243.53
243.484
243.439
243.703
243.741
243.743
243.748
243.834
243.858
243.864
243.851
243.815
243.732
243.668
243.631
243.61
243.76
243.849
243.942
244.032
244.101
244.144
244.135
244.125
244.154
244.205
244.268
244.555
244.731
244.974
245.189
245.394
245.583
245.748
245.886
245.991
246.067
246.099
246.121
246.162
246.216
246.277
246.368
246.454
246.577
246.683
246.785
246.886
246.991
247.095
247.183
247.279
247.362
247.454
247.535
247.615
247.7
247.788
247.883
247.979
248.086
248.193
248.313
248.434
248.563
248.69
248.822
248.948
249.072
249.193
249.304
249.403
249.502
249.588
249.675
249.757
249.834
249.908
249.98
250.055
250.13
250.209
250.293
250.381
250.474
250.573
250.679
250.789
250.905
251.027
251.158
251.286
251.413
251.53
251.633
251.714
251.79
251.853
251.906
251.957
252.014
252.075
252.147
252.23
252.321
252.424
252.536
252.655
252.781
252.91
253.032
253.148
253.261
253.363
253.436
253.522
253.604
253.674
253.749
253.818
253.889
253.96
254.033
254.109
254.186
254.265
254.347
254.43
254.514
254.598
254.684
254.769
254.854
254.939
255.026
255.111
255.199
255.285
255.376
255.459
255.501
224.84
224.836
224.718
224.59
224.367
223.891
223.102
222.057
220.759
219.305
217.838
216.516
215.367
214.469
213.888
213.47
213.239
213.186
213.302
213.602
214.107
214.839
215.804
217
218.416
220.026
221.826
223.787
225.888
228.151
230.425
233.023
235.043
237.884
239.737
241.572
243.296
244.716
246.008
246.96
247.696
248.165
248.392
248.469
248.414
248.243
247.953
247.583
247.094
246.55
246.001
245.432
244.95
244.531
244.142
243.705
243.3
242.881
242.515
242.152
241.776
241.499
241.299
241.086
240.882
240.603
240.349
240.086
239.853
239.653
239.46
239.295
239.145
239.012
238.898
238.794
238.713
238.651
238.545
238.463
238.631
238.581
238.466
238.371
238.509
238.468
238.373
238.234
238.11
238.471
238.473
238.409
238.3
238.196
238.511
238.516
238.457
238.411
238.479
238.463
238.4
238.343
238.573
238.588
238.57
238.558
238.609
238.613
238.594
238.559
238.501
238.404
238.326
238.27
238.232
238.354
238.414
238.472
238.521
238.554
238.564
238.527
238.492
238.491
238.511
238.547
238.783
238.922
239.118
239.285
239.445
239.59
239.714
239.814
239.886
239.933
239.941
239.936
239.954
239.981
240.015
240.074
240.128
240.216
240.288
240.357
240.425
240.496
240.564
240.622
240.684
240.733
240.794
240.848
240.904
240.963
241.025
241.093
241.162
241.241
241.321
241.412
241.504
241.603
241.7
241.802
241.9
241.997
242.091
242.18
242.256
242.332
242.397
242.463
242.524
242.58
242.634
242.686
242.741
242.796
242.854
242.919
242.986
243.06
243.138
243.224
243.314
243.411
243.513
243.624
243.733
243.841
243.941
244.028
244.095
244.156
244.206
244.248
244.286
244.33
244.379
244.438
244.507
244.584
244.673
244.77
244.875
244.988
245.103
245.212
245.317
245.418
245.51
245.576
245.653
245.726
245.789
245.856
245.918
245.982
246.046
246.112
246.18
246.251
246.323
246.398
246.473
246.551
246.629
246.708
246.787
246.867
246.946
247.027
247.107
247.19
247.271
247.357
247.436
247.477
224.604
224.548
224.421
224.293
223.957
223.35
222.569
221.595
220.314
218.905
217.544
216.356
215.346
214.565
214.075
213.751
213.602
213.605
213.768
214.103
214.624
215.346
216.271
217.39
218.705
220.208
221.89
223.732
225.654
227.835
229.542
232.274
233.806
235.663
237.181
238.579
239.868
240.872
241.748
242.243
242.514
242.685
242.473
242.249
241.846
241.454
240.904
240.354
239.629
238.954
238.309
237.692
237.185
236.807
236.484
236.087
235.776
235.437
235.192
234.962
234.696
234.553
234.526
234.436
234.384
234.206
234.075
233.948
233.841
233.78
233.701
233.66
233.612
233.577
233.554
233.535
233.526
233.538
233.485
233.45
233.645
233.645
233.575
233.526
233.672
233.675
233.623
233.525
233.443
233.754
233.806
233.777
233.702
233.629
233.89
233.925
233.888
233.863
233.921
233.919
233.87
233.83
234.028
234.052
234.043
234.038
234.076
234.083
234.062
234.028
233.971
233.881
233.809
233.753
233.719
233.83
233.883
233.928
233.957
233.974
233.977
233.933
233.892
233.881
233.888
233.924
234.124
234.242
234.409
234.549
234.682
234.8
234.898
234.973
235.025
235.057
235.054
235.034
235.041
235.055
235.076
235.118
235.157
235.226
235.28
235.33
235.38
235.431
235.481
235.522
235.564
235.595
235.635
235.669
235.703
235.745
235.788
235.837
235.888
235.948
236.008
236.077
236.146
236.223
236.299
236.38
236.459
236.537
236.612
236.691
236.754
236.815
236.865
236.917
236.964
237.007
237.047
237.085
237.125
237.168
237.212
237.262
237.316
237.375
237.44
237.512
237.587
237.67
237.759
237.856
237.95
238.045
238.132
238.207
238.265
238.315
238.355
238.388
238.418
238.453
238.493
238.543
238.602
238.67
238.749
238.836
238.93
239.032
239.137
239.237
239.333
239.426
239.509
239.57
239.639
239.707
239.764
239.825
239.882
239.941
240
240.061
240.124
240.189
240.256
240.326
240.397
240.469
240.542
240.616
240.691
240.766
240.841
240.918
240.994
241.073
241.151
241.233
241.309
241.348
224.302
224.261
224.164
223.967
223.531
222.89
222.168
221.137
219.909
218.625
217.41
216.354
215.469
214.8
214.376
214.099
213.978
213.991
214.151
214.463
214.937
215.576
216.394
217.393
218.584
219.967
221.49
223.225
224.666
226.779
228.044
229.658
230.934
232.156
233.177
233.95
234.711
235.073
235.485
235.476
235.205
235.179
234.545
234.157
233.368
232.838
232.133
231.486
230.749
230.029
229.43
228.865
228.37
228.129
227.854
227.586
227.33
227.15
226.999
226.954
226.809
226.793
227.003
226.989
227.177
227.103
227.113
227.19
227.19
227.335
227.356
227.502
227.562
227.646
227.742
227.834
227.905
228.01
228.037
228.073
228.287
228.381
228.389
228.414
228.581
228.655
228.672
228.648
228.626
228.882
229.016
229.04
229.021
228.998
229.203
229.303
229.309
229.325
229.39
229.422
229.41
229.407
229.568
229.633
229.654
229.676
229.717
229.745
229.735
229.721
229.681
229.616
229.569
229.528
229.514
229.619
229.681
229.723
229.747
229.764
229.776
229.739
229.71
229.705
229.713
229.76
229.934
230.043
230.196
230.319
230.436
230.539
230.624
230.686
230.73
230.757
230.754
230.732
230.736
230.747
230.764
230.799
230.831
230.891
230.936
230.978
231.019
231.06
231.103
231.135
231.167
231.189
231.219
231.243
231.265
231.293
231.324
231.36
231.397
231.442
231.489
231.547
231.603
231.669
231.732
231.801
231.868
231.935
231.999
232.064
232.119
232.17
232.21
232.252
232.29
232.323
232.354
232.384
232.416
232.449
232.484
232.526
232.571
232.621
232.676
232.739
232.806
232.881
232.96
233.047
233.132
233.217
233.297
233.362
233.414
233.457
233.492
233.52
233.545
233.575
233.609
233.653
233.706
233.769
233.841
233.921
234.009
234.103
234.201
234.294
234.384
234.471
234.548
234.606
234.672
234.735
234.789
234.846
234.9
234.955
235.012
235.069
235.129
235.191
235.255
235.321
235.389
235.458
235.528
235.6
235.671
235.743
235.816
235.89
235.964
236.04
236.115
236.195
236.269
236.308
223.954
223.975
223.871
223.609
223.113
222.515
221.755
220.758
219.613
218.454
217.373
216.426
215.634
215.048
214.653
214.386
214.255
214.243
214.355
214.591
214.949
215.464
216.153
217.025
218.066
219.343
220.45
222.029
222.958
224.123
225.033
225.894
226.438
226.736
226.944
226.693
226.883
226.372
226.448
226.085
225.579
225.562
224.802
224.44
223.746
223.287
222.564
221.995
221.468
220.84
220.257
219.666
219.05
218.977
218.641
218.572
218.289
218.343
218.179
218.402
218.427
218.393
218.94
218.947
219.481
219.6
219.612
220.037
220.092
220.481
220.576
220.907
221.078
221.233
221.443
221.618
221.79
221.961
222.101
222.225
222.453
222.621
222.771
222.885
223.074
223.226
223.352
223.418
223.462
223.706
223.879
224.004
224.062
224.096
224.278
224.427
224.518
224.584
224.678
224.758
224.807
224.844
224.984
225.101
225.175
225.231
225.292
225.344
225.365
225.383
225.368
225.348
225.338
225.33
225.337
225.446
225.524
225.578
225.612
225.636
225.664
225.645
225.648
225.663
225.688
225.736
225.901
226.013
226.152
226.268
226.38
226.477
226.557
226.62
226.669
226.694
226.712
226.693
226.705
226.721
226.741
226.775
226.809
226.864
226.908
226.949
226.991
227.03
227.072
227.102
227.134
227.153
227.181
227.202
227.22
227.242
227.266
227.294
227.325
227.362
227.404
227.455
227.504
227.565
227.623
227.686
227.747
227.809
227.869
227.924
227.975
228.021
228.054
228.091
228.123
228.152
228.179
228.204
228.232
228.261
228.293
228.33
228.37
228.417
228.467
228.526
228.588
228.658
228.733
228.815
228.894
228.974
229.049
229.111
229.159
229.199
229.231
229.259
229.281
229.31
229.342
229.384
229.435
229.495
229.564
229.64
229.724
229.815
229.908
229.997
230.084
230.168
230.242
230.299
230.363
230.424
230.477
230.533
230.586
230.64
230.695
230.752
230.81
230.871
230.934
230.999
231.065
231.133
231.202
231.272
231.342
231.413
231.485
231.558
231.631
231.706
231.781
231.859
231.933
231.972
223.618
223.642
223.539
223.23
222.714
222.128
221.388
220.44
219.397
218.351
217.369
216.505
215.79
215.245
214.85
214.565
214.39
214.31
214.322
214.419
214.645
215.021
215.572
216.321
217.015
218.121
218.728
219.473
219.988
220.334
220.365
220.128
219.625
218.641
218.389
217.185
217.198
216.19
216.306
215.786
214.91
214.664
213.66
213.156
212.609
212.009
211.49
210.94
210.656
210.133
209.972
209.831
209.243
209.671
208.989
209.332
208.784
209.3
208.956
209.577
209.704
209.779
210.505
210.519
211.288
211.554
211.619
212.258
212.442
212.967
213.196
213.655
213.955
214.233
214.566
214.854
215.147
215.418
215.685
215.923
216.189
216.436
216.711
216.924
217.146
217.368
217.594
217.75
217.881
218.105
218.332
218.554
218.698
218.816
218.985
219.2
219.368
219.511
219.652
219.791
219.905
220.007
220.14
220.312
220.44
220.544
220.643
220.729
220.797
220.85
220.887
220.931
220.968
221.008
221.03
221.165
221.266
221.334
221.387
221.427
221.471
221.497
221.546
221.574
221.631
221.676
221.844
221.961
222.095
222.213
222.328
222.429
222.516
222.59
222.646
222.686
222.733
222.732
222.757
222.785
222.81
222.853
222.892
222.95
223
223.048
223.095
223.141
223.183
223.223
223.258
223.282
223.312
223.334
223.352
223.372
223.395
223.422
223.453
223.491
223.532
223.584
223.635
223.695
223.753
223.817
223.878
223.94
224.001
224.056
224.105
224.148
224.181
224.216
224.249
224.277
224.305
224.33
224.358
224.388
224.42
224.457
224.498
224.544
224.594
224.653
224.714
224.784
224.857
224.938
225.017
225.096
225.169
225.23
225.279
225.32
225.352
225.383
225.407
225.437
225.471
225.514
225.565
225.625
225.694
225.77
225.853
225.943
226.034
226.123
226.208
226.291
226.365
226.424
226.489
226.551
226.605
226.661
226.715
226.77
226.827
226.884
226.944
227.005
227.069
227.134
227.201
227.27
227.339
227.41
227.481
227.552
227.624
227.697
227.771
227.847
227.923
228.001
228.076
228.117
223.285
223.269
223.162
222.821
222.348
221.801
221.07
220.19
219.238
218.279
217.375
216.574
215.902
215.367
214.947
214.611
214.353
214.153
214.007
213.968
214.054
214.281
214.582
215.111
215.401
215.784
215.977
215.934
215.535
214.771
213.601
211.98
211.019
209.122
208.773
207.127
206.832
205.272
204.768
203.996
202.735
201.894
200.927
200.035
199.702
198.781
198.871
198.131
198.701
197.994
198.573
198.911
198.593
199.91
199.449
200.235
199.546
200.408
199.997
200.9
201.013
201.404
202.065
202.054
202.995
203.317
203.413
204.164
204.402
205.013
205.304
205.88
206.279
206.666
207.11
207.502
207.911
208.288
208.667
209.016
209.355
209.683
210.061
210.38
210.682
210.987
211.31
211.573
211.807
212.061
212.348
212.651
212.898
213.113
213.321
213.586
213.83
214.052
214.258
214.456
214.635
214.796
214.962
215.178
215.361
215.52
215.668
215.801
215.924
216.031
216.135
216.243
216.341
216.432
216.498
216.644
216.771
216.861
216.942
217.016
217.088
217.164
217.249
217.317
217.397
217.461
217.633
217.758
217.9
218.03
218.156
218.271
218.375
218.467
218.548
218.616
218.687
218.719
218.763
218.808
218.851
218.904
218.955
219.023
219.086
219.146
219.206
219.263
219.316
219.367
219.411
219.443
219.477
219.501
219.522
219.547
219.575
219.608
219.644
219.689
219.739
219.797
219.856
219.923
219.989
220.059
220.127
220.195
220.261
220.321
220.373
220.42
220.456
220.495
220.532
220.564
220.597
220.627
220.66
220.695
220.731
220.773
220.817
220.868
220.922
220.984
221.049
221.122
221.199
221.282
221.363
221.444
221.52
221.584
221.636
221.683
221.72
221.756
221.784
221.819
221.858
221.904
221.959
222.022
222.093
222.172
222.256
222.348
222.441
222.531
222.618
222.702
222.779
222.843
222.91
222.975
223.032
223.091
223.149
223.207
223.266
223.327
223.389
223.453
223.519
223.587
223.657
223.728
223.799
223.872
223.945
224.019
224.093
224.168
224.244
224.322
224.4
224.48
224.557
224.602
222.936
222.876
222.759
222.412
222.006
221.502
220.801
219.988
219.11
218.222
217.378
216.617
215.959
215.405
214.931
214.506
214.116
213.75
213.463
213.266
213.165
213.117
213.092
213.075
212.975
212.667
212.025
210.964
209.35
207.211
205.314
202.774
201.88
199.371
198.612
195.909
195.191
192.616
191.796
190.283
189.568
187.797
187.672
185.862
186.791
185.037
186.521
185.281
187.004
186.149
187.807
188.087
188.765
190.339
189.942
191.476
191.097
192.275
191.848
193.026
193.004
193.906
194.434
194.345
195.417
195.726
195.82
196.606
196.798
197.432
197.672
198.284
198.664
199.1
199.565
199.96
200.423
200.841
201.275
201.68
202.073
202.444
202.906
203.305
203.689
204.067
204.475
204.842
205.181
205.499
205.847
206.229
206.568
206.876
207.162
207.476
207.789
208.09
208.38
208.651
208.909
209.141
209.362
209.63
209.874
210.098
210.314
210.505
210.686
210.865
211.037
211.206
211.363
211.503
211.625
211.78
211.933
212.053
212.167
212.281
212.398
212.528
212.651
212.766
212.875
212.975
213.157
213.3
213.457
213.61
213.758
213.895
214.027
214.149
214.266
214.376
214.474
214.541
214.605
214.672
214.741
214.815
214.887
214.974
215.058
215.14
215.22
215.295
215.365
215.431
215.485
215.526
215.566
215.602
215.638
215.678
215.719
215.766
215.815
215.872
215.933
216.006
216.081
216.162
216.242
216.325
216.405
216.485
216.56
216.628
216.688
216.745
216.79
216.839
216.885
216.927
216.97
217.01
217.052
217.095
217.14
217.19
217.243
217.301
217.363
217.432
217.505
217.584
217.668
217.758
217.845
217.932
218.014
218.084
218.144
218.199
218.244
218.287
218.324
218.367
218.412
218.466
218.527
218.596
218.672
218.755
218.844
218.939
219.036
219.131
219.222
219.31
219.392
219.463
219.535
219.604
219.667
219.731
219.794
219.857
219.921
219.986
220.053
220.122
220.192
220.265
220.338
220.413
220.489
220.565
220.642
220.72
220.798
220.877
220.957
221.038
221.12
221.202
221.283
221.332
222.592
222.477
222.34
222.048
221.713
221.229
220.572
219.822
219.005
218.173
217.371
216.629
215.96
215.354
214.792
214.233
213.673
213.159
212.703
212.209
211.811
211.409
211.005
210.481
209.661
208.454
206.716
204.419
201.738
198.465
196.711
193.559
192.132
188.705
186.875
183.538
181.675
178.986
177.21
175.599
175.112
172.423
173.427
170.724
173.204
171.577
174.409
173.256
176.17
175.479
178.322
178.204
180.42
181.623
181.367
183.391
183.389
185.16
184.839
186.215
186.12
187.489
187.933
187.809
188.958
189.24
189.429
190.17
190.284
190.934
191.082
191.684
191.953
192.419
192.798
193.123
193.547
193.894
194.304
194.641
195.022
195.363
195.825
196.177
196.599
196.996
197.425
197.82
198.216
198.592
198.969
199.404
199.797
200.177
200.54
200.896
201.26
201.649
202.012
202.356
202.688
202.998
203.29
203.608
203.915
204.21
204.494
204.749
204.99
205.227
205.433
205.621
205.822
206.036
206.237
206.433
206.633
206.802
206.967
207.134
207.299
207.46
207.616
207.798
207.966
208.121
208.332
208.509
208.689
208.877
209.057
209.226
209.394
209.559
209.714
209.875
209.991
210.085
210.175
210.267
210.37
210.481
210.59
210.707
210.821
210.931
211.037
211.136
211.222
211.303
211.373
211.435
211.499
211.561
211.622
211.686
211.751
211.821
211.893
211.97
212.051
212.14
212.232
212.333
212.434
212.538
212.635
212.732
212.818
212.902
212.981
213.055
213.117
213.183
213.244
213.301
213.359
213.413
213.469
213.527
213.585
213.648
213.714
213.784
213.858
213.939
214.023
214.114
214.208
214.308
214.405
214.5
214.591
214.672
214.742
214.809
214.864
214.918
214.966
215.019
215.074
215.136
215.206
215.283
215.366
215.457
215.553
215.654
215.757
215.859
215.957
216.051
216.142
216.221
216.299
216.375
216.446
216.517
216.586
216.656
216.727
216.799
216.872
216.947
217.024
217.102
217.182
217.262
217.343
217.425
217.508
217.591
217.674
217.758
217.843
217.929
218.016
218.102
218.188
218.243
222.264
222.107
221.95
221.73
221.457
220.99
220.383
219.688
218.921
218.128
217.348
216.606
215.901
215.209
214.524
213.795
213.071
212.258
211.516
210.813
210.07
209.326
208.345
207.07
205.333
203.051
200.041
196.608
193.617
189.763
187.764
183.589
181.215
176.816
174.27
169.907
167.286
163.827
162.47
160.509
161.095
158.226
161.087
159.226
162.68
160.993
165.175
163.713
167.718
166.258
169.778
168.943
172.514
173.765
173.837
176.501
176.769
178.904
178.942
180.503
180.488
182.1
182.528
182.47
183.678
183.803
184.439
184.994
185.048
185.756
185.844
186.451
186.628
187.124
187.431
187.672
188.041
188.291
188.626
188.867
189.176
189.409
189.781
190.016
190.395
190.686
191.046
191.356
191.702
192.026
192.356
192.743
193.081
193.466
193.829
194.186
194.559
194.977
195.363
195.749
196.125
196.489
196.842
197.2
197.556
197.919
198.251
198.567
198.812
199.034
199.244
199.481
199.719
199.974
200.257
200.539
200.816
201.056
201.28
201.469
201.637
201.842
202.063
202.292
202.563
202.808
203.083
203.322
203.554
203.793
204.021
204.239
204.447
204.67
204.86
205.069
205.219
205.352
205.477
205.604
205.731
205.858
205.991
206.142
206.287
206.43
206.559
206.684
206.799
206.916
207.024
207.124
207.221
207.319
207.415
207.513
207.611
207.712
207.816
207.922
208.031
208.145
208.261
208.383
208.504
208.627
208.747
208.866
208.977
209.087
209.191
209.29
209.376
209.464
209.547
209.626
209.704
209.779
209.855
209.932
210.01
210.091
210.175
210.263
210.354
210.451
210.553
210.658
210.767
210.881
210.991
211.098
211.202
211.297
211.381
211.462
211.531
211.598
211.66
211.726
211.794
211.869
211.949
212.037
212.131
212.232
212.337
212.448
212.559
212.671
212.777
212.88
212.981
213.071
213.158
213.243
213.322
213.403
213.481
213.56
213.64
213.72
213.801
213.884
213.968
214.054
214.141
214.228
214.317
214.406
214.495
214.584
214.674
214.765
214.856
214.948
215.041
215.134
215.225
215.287
221.972
221.774
221.629
221.475
221.232
220.793
220.234
219.585
218.855
218.085
217.306
216.545
215.791
214.956
214.078
213.049
212.081
211.155
210.155
209.118
208.021
206.676
204.921
202.754
199.956
196.586
192.436
188.332
185.397
180.769
177.931
172.869
169.391
164.668
160.404
156.319
153.312
150.881
148.862
146.861
147.014
145.434
147.806
146.598
150.546
149.673
155.165
153.974
159.334
158.087
163.103
162.236
166.982
168.45
168.408
171.466
171.166
173.57
173.671
175.668
175.871
177.578
178.083
178.173
179.371
179.347
180.473
180.902
180.909
181.705
181.767
182.406
182.549
183.084
183.367
183.565
183.913
184.096
184.398
184.558
184.831
184.986
185.274
185.436
185.75
185.952
186.222
186.427
186.692
186.906
187.136
187.387
187.584
187.905
188.133
188.392
188.65
188.97
189.248
189.565
189.873
190.181
190.49
190.81
191.138
191.487
191.8
192.091
192.285
192.569
192.843
193.159
193.466
193.787
194.059
194.341
194.652
194.909
195.126
195.359
195.618
195.907
196.216
196.52
196.818
197.171
197.506
197.82
198.124
198.427
198.716
198.996
199.254
199.533
199.744
199.971
200.172
200.355
200.523
200.691
200.853
201.011
201.171
201.337
201.507
201.678
201.846
202.006
202.159
202.317
202.467
202.607
202.743
202.881
203.017
203.153
203.288
203.425
203.563
203.703
203.844
203.989
204.135
204.283
204.431
204.58
204.727
204.871
205.009
205.147
205.278
205.405
205.519
205.634
205.744
205.849
205.953
206.055
206.156
206.257
206.36
206.466
206.572
206.683
206.797
206.915
207.037
207.162
207.29
207.421
207.548
207.671
207.79
207.903
208.004
208.103
208.19
208.275
208.355
208.438
208.523
208.614
208.709
208.812
208.92
209.034
209.152
209.274
209.397
209.52
209.638
209.752
209.865
209.968
210.068
210.163
210.255
210.347
210.437
210.527
210.617
210.708
210.799
210.891
210.985
211.08
211.176
211.273
211.37
211.467
211.565
211.663
211.761
211.86
211.959
212.058
212.16
212.259
212.357
212.427
221.74
221.503
221.394
221.284
221.056
220.651
220.131
219.517
218.808
218.044
217.239
216.405
215.543
214.378
213.319
212.215
211.072
209.845
208.545
207.124
205.409
203.343
200.689
197.525
193.529
189.42
184.368
180.203
176.737
171.222
167.294
161.799
157.245
152.02
148.026
144.23
140.798
137.63
134.88
132.939
131.58
130.563
130.387
131.025
133.419
134.975
140.139
141.666
149.008
148.158
155.502
154.346
161.318
162.861
163.718
166.531
166.932
169.441
169.578
171.908
172.037
173.787
174.342
174.671
175.75
175.748
177.153
177.585
177.597
178.497
178.554
179.253
179.404
179.975
180.257
180.445
180.793
180.94
181.238
181.359
181.627
181.744
181.999
182.128
182.409
182.552
182.793
182.942
183.165
183.321
183.486
183.647
183.767
184.003
184.141
184.33
184.479
184.683
184.833
185.058
185.232
185.417
185.591
185.773
185.952
186.157
186.295
186.496
186.624
186.898
187.149
187.454
187.753
188.059
188.308
188.517
188.731
188.919
189.151
189.421
189.734
190.078
190.451
190.814
191.161
191.504
191.892
192.25
192.607
192.957
193.291
193.624
193.923
194.246
194.464
194.729
194.972
195.21
195.425
195.636
195.837
196.034
196.232
196.428
196.629
196.831
197.035
197.231
197.42
197.614
197.802
197.981
198.154
198.33
198.504
198.677
198.849
199.021
199.193
199.367
199.54
199.715
199.892
200.07
200.247
200.423
200.597
200.767
200.931
201.095
201.253
201.408
201.549
201.692
201.828
201.961
202.094
202.224
202.353
202.482
202.611
202.743
202.876
203.012
203.15
203.292
203.436
203.584
203.734
203.884
204.03
204.172
204.309
204.442
204.563
204.684
204.791
204.898
205
205.104
205.21
205.321
205.435
205.556
205.681
205.813
205.947
206.083
206.22
206.357
206.49
206.616
206.745
206.863
206.978
207.088
207.194
207.301
207.405
207.509
207.613
207.716
207.82
207.925
208.031
208.138
208.246
208.354
208.462
208.57
208.678
208.787
208.895
209.004
209.113
209.222
209.333
209.441
209.548
209.627
221.578
221.313
221.237
221.15
220.948
220.573
220.077
219.468
218.745
217.961
217.075
216.073
215.035
213.828
212.63
211.287
209.843
208.307
206.648
204.612
202.172
199.296
195.632
191.418
186.082
182.02
176.367
171.999
167.292
161.488
156.474
150.813
145.718
141.12
137.019
133.103
129.639
126.38
123.547
120.846
118.356
116.034
113.957
112.111
110.533
109.338
108.46
108.741
117.424
123.963
135.652
139.538
151.253
154.935
158.216
161.266
163.042
165.356
166.152
168.513
169.233
170.672
170.963
172.21
172.887
172.894
174.466
174.899
174.925
175.937
175.99
176.768
176.947
177.533
177.826
178.025
178.374
178.496
178.807
178.905
179.182
179.28
179.529
179.651
179.903
180.025
180.26
180.378
180.59
180.697
180.879
180.996
181.08
181.271
181.359
181.544
181.649
181.797
181.903
182.073
182.185
182.319
182.412
182.514
182.597
182.685
182.73
182.859
182.894
183.122
183.287
183.5
183.72
183.913
184.077
184.18
184.28
184.351
184.496
184.689
184.934
185.218
185.535
185.851
186.15
186.409
186.689
186.988
187.313
187.647
187.957
188.292
188.563
188.867
189.121
189.446
189.734
190.044
190.315
190.577
190.827
191.066
191.305
191.537
191.772
192.008
192.246
192.477
192.702
192.929
193.151
193.365
193.574
193.785
193.994
194.202
194.408
194.613
194.818
195.023
195.227
195.432
195.637
195.84
196.043
196.242
196.44
196.633
196.819
197.007
197.189
197.368
197.535
197.703
197.864
198.024
198.183
198.339
198.494
198.648
198.802
198.958
199.113
199.271
199.432
199.595
199.761
199.929
200.1
200.27
200.435
200.596
200.751
200.904
201.046
201.189
201.318
201.447
201.571
201.698
201.827
201.959
202.094
202.235
202.38
202.531
202.682
202.835
202.988
203.14
203.289
203.431
203.576
203.713
203.844
203.97
204.094
204.217
204.338
204.459
204.579
204.699
204.819
204.939
205.06
205.181
205.303
205.425
205.547
205.668
205.79
205.911
206.032
206.153
206.274
206.395
206.518
206.638
206.755
206.846
221.502
221.193
221.152
221.079
220.904
220.535
220.037
219.411
218.635
217.787
216.833
215.758
214.594
213.255
211.774
210.142
208.398
206.503
204.283
201.528
198.264
194.497
189.645
184.655
178.471
174.719
168.478
163.339
157.685
151.817
146.316
141.275
136.611
132.126
128.115
124.715
121.616
118.715
115.961
113.409
111.106
109.049
107.217
105.561
104.116
102.818
101.704
100.709
100.11
99.8298
100.165
100.327
112.257
127.495
139.968
149.914
155.99
159.757
162.69
165.097
166.472
167.65
168.639
169.568
170.438
170.867
172.158
172.717
172.791
173.883
173.899
174.774
174.957
175.563
175.871
176.1
176.427
176.536
176.868
176.95
177.243
177.333
177.588
177.708
177.94
178.054
178.283
178.389