/*--------------------------------*- C++ -*----------------------------------*\
| =========                 |                                                 |
| \\      /  F ield         | OpenFOAM: The Open Source CFD Toolbox           |
|  \\    /   O peration     | Version:  2312                                  |
|   \\  /    A nd           | Website:  www.openfoam.com                      |
|    \\/     M anipulation  |                                                 |
\*---------------------------------------------------------------------------*/
FoamFile
{
    version     2.0;
    format      ascii;
    arch        "LSB;label=32;scalar=64";
    class       volVectorField;
    location    "0.004";
    object      U;
}
// * * * * * * * * * * * * * * * * * * * * * * * * * * * * * * * * * * * * * //

dimensions      [0 1 -1 0 0 0 0];

internalField   nonuniform List<vector> 
48128
(
(3.23157 -1.49375 0)
(3.32371 0.234073 0)
(-2.36204 2.40369 0)
(-11.7832 2.83268 0)
(-28.0225 4.82914 0)
(-49.1912 6.59855 0)
(-71.1939 5.5709 0)
(-91.5677 4.40831 0)
(-109.966 3.09754 0)
(-125.996 1.69534 0)
(-139.209 0.609867 0)
(-150.155 0.926524 0)
(-159.703 0.901698 0)
(-167.569 1.03896 0)
(-174.014 1.17714 0)
(-179.763 1.29874 0)
(-184.806 1.45059 0)
(-189.082 1.60669 0)
(-192.574 1.79787 0)
(-195.193 2.1071 0)
(-196.742 2.48227 0)
(-197.294 2.41576 0)
(-197.173 1.94458 0)
(-195.598 1.59355 0)
(-192.732 1.13539 0)
(-188.621 0.685148 0)
(-183.32 0.114227 0)
(-176.855 -0.634726 0)
(-168.748 -1.11234 0)
(-159.319 -1.69644 0)
(-149.005 -2.32807 0)
(-137.481 -3.01224 0)
(-124.922 -3.69974 0)
(-111.552 -4.25025 0)
(-97.4784 -4.93973 0)
(-82.7678 -5.43185 0)
(-67.3177 -6.2478 0)
(-51.5806 -6.34792 0)
(-36.1043 -6.68651 0)
(-20.8324 -6.64185 0)
(-6.92925 -6.22314 0)
(6.15902 -5.61084 0)
(18.0499 -4.83514 0)
(30.3462 -4.71882 0)
(43.3012 -5.03989 0)
(56.2325 -5.03314 0)
(68.7178 -4.87109 0)
(80.6864 -4.70907 0)
(91.958 -4.43797 0)
(102.848 -4.28055 0)
(113.222 -4.05061 0)
(123.433 -3.90507 0)
(132.905 -3.65605 0)
(142.117 -3.54897 0)
(150.585 -3.33117 0)
(158.884 -3.19573 0)
(166.781 -2.97099 0)
(174.506 -2.83292 0)
(182.1 -2.65714 0)
(189.096 -2.40794 0)
(196.151 -2.32167 0)
(202.646 -2.07039 0)
(208.454 -1.86604 0)
(214.166 -1.72042 0)
(219.362 -1.52788 0)
(224.627 -1.45116 0)
(229.572 -1.31744 0)
(234.51 -1.23561 0)
(239.172 -1.10552 0)
(243.465 -1.00101 0)
(247.598 -0.912072 0)
(251.402 -0.807445 0)
(254.957 -0.727159 0)
(258.233 -0.645264 0)
(261.341 -0.583008 0)
(264.246 -0.527919 0)
(266.937 -0.459564 0)
(269.364 -0.413392 0)
(271.828 -0.423341 0)
(274.403 -0.29756 0)
(275.588 -0.257148 0)
(277.313 -0.288884 0)
(279.329 -0.295477 0)
(281.698 -0.212625 0)
(282.65 -0.186874 0)
(284.095 -0.206922 0)
(285.804 -0.175031 0)
(287.685 -0.240916 0)
(290.106 -0.079035 0)
(289.919 -0.0922493 0)
(290.755 -0.126685 0)
(292.022 -0.12002 0)
(293.528 -0.17207 0)
(295.546 -0.0333528 0)
(295.276 -0.0408634 0)
(295.972 -0.0718292 0)
(297.025 -0.0902455 0)
(298.433 -0.0554107 0)
(298.975 -0.049574 0)
(299.8 -0.0492468 0)
(300.796 -0.0622599 0)
(302.229 -0.00815971 0)
(302.13 -0.0125184 0)
(302.601 -0.0270622 0)
(303.31 -0.0391123 0)
(304.225 -0.0193121 0)
(304.687 -0.0193315 0)
(305.288 -0.0160769 0)
(305.982 -0.0185074 0)
(306.735 -0.0282238 0)
(307.565 -0.0270713 0)
(308.495 -0.0356606 0)
(309.461 -0.0171259 0)
(310.193 -0.0225228 0)
(311.062 0.0271395 0)
(311.086 0.0141859 0)
(311.234 0.018313 0)
(311.442 0.0168744 0)
(311.678 0.00968863 0)
(311.986 0.00552736 0)
(312.403 -0.00815512 0)
(312.965 -0.0140773 0)
(313.6 -0.00970226 0)
(314.073 -0.0036621 0)
(314.399 0.00589311 0)
(314.786 0.0235516 0)
(314.349 0.0177469 0)
(314.225 0.0285932 0)
(313.931 0.0260702 0)
(313.735 0.0126846 0)
(313.523 0.0288253 0)
(313.4 0.00890958 0)
(313.414 0.00154828 0)
(313.488 -0.000533663 0)
(313.645 0.000734537 0)
(313.906 -0.00825334 0)
(314.297 -0.0057897 0)
(314.74 -0.00687793 0)
(315.124 -0.00235273 0)
(315.402 -0.00220942 0)
(315.705 0.00928612 0)
(315.816 0.0151358 0)
(315.989 0.0213566 0)
(315.975 0.0308403 0)
(316.002 0.0302455 0)
(316.041 0.0301842 0)
(316.096 0.0322742 0)
(316.117 0.0313607 0)
(316.166 0.030222 0)
(316.248 0.0338996 0)
(316.313 0.031611 0)
(316.418 0.034461 0)
(316.493 0.0329466 0)
(316.588 0.033664 0)
(316.694 0.0335226 0)
(316.768 0.0351848 0)
(316.843 0.0373201 0)
(316.868 0.0390878 0)
(316.894 0.042065 0)
(316.872 0.0415605 0)
(316.845 0.0446598 0)
(316.777 0.0420659 0)
(316.699 0.0463082 0)
(316.592 0.0443814 0)
(316.481 0.0435501 0)
(316.355 0.0432985 0)
(316.234 0.0403649 0)
(316.133 0.040684 0)
(316.029 0.0359187 0)
(315.945 0.0393034 0)
(315.929 0.0326862 0)
(315.905 0.0306683 0)
(315.924 0.0291334 0)
(315.945 0.027949 0)
(315.976 0.0270861 0)
(316.019 0.0266557 0)
(316.069 0.026261 0)
(316.125 0.0260147 0)
(316.172 0.0265764 0)
(316.206 0.0267561 0)
(316.241 0.0283055 0)
(316.238 0.0293291 0)
(316.224 0.0305466 0)
(316.19 0.0306481 0)
(316.137 0.0319428 0)
(316.06 0.0315024 0)
(315.967 0.0318249 0)
(315.854 0.0314288 0)
(315.723 0.0317356 0)
(315.569 0.0308733 0)
(315.405 0.0297441 0)
(315.26 0.0279656 0)
(315.112 0.0253138 0)
(315.028 0.0245662 0)
(315.029 0.0181595 0)
(315.042 0.0176668 0)
(315.096 0.0175096 0)
(315.177 0.016064 0)
(315.273 0.0155785 0)
(315.344 0.0171291 0)
(315.414 0.0169097 0)
(315.427 0.0215769 0)
(315.402 0.0226857 0)
(315.349 0.0233689 0)
(315.257 0.0245331 0)
(315.134 0.0250343 0)
(314.986 0.0253577 0)
(314.817 0.0251648 0)
(314.625 0.0246824 0)
(314.455 0.0214271 0)
(314.318 0.0207417 0)
(314.194 0.0183452 0)
(314.068 0.0170011 0)
(314.08 0.0129183 0)
(314.054 0.012624 0)
(314.025 0.0120583 0)
(314.041 0.0119131 0)
(314.038 0.0119332 0)
(314.049 0.0123863 0)
(314.048 0.0128719 0)
(314.041 0.0136382 0)
(314.026 0.0143045 0)
(313.999 0.0149985 0)
(313.961 0.0155208 0)
(313.912 0.0160524 0)
(313.853 0.0164237 0)
(313.786 0.0166444 0)
(313.712 0.0165516 0)
(313.635 0.0167058 0)
(313.554 0.0162521 0)
(313.473 0.0163208 0)
(313.39 0.0155878 0)
(313.311 0.015656 0)
(313.228 0.0148771 0)
(313.148 0.0151783 0)
(313.062 0.0143486 0)
(312.979 0.0146043 0)
(312.885 0.0144319 0)
(312.777 0.0124948 0)
(312.822 0.0096649 0)
(1.36825 -3.31122 0)
(-3.0275 3.55821 0)
(-14.1826 7.79983 0)
(-29.8539 11.5896 0)
(-50.666 15.5655 0)
(-72.0972 17.1767 0)
(-92.5503 15.3005 0)
(-111.511 13.1589 0)
(-128.761 10.9289 0)
(-143.342 9.29562 0)
(-154.613 8.66839 0)
(-163.965 7.35266 0)
(-171.903 6.49466 0)
(-177.92 5.81205 0)
(-182.366 5.28799 0)
(-185.937 4.94609 0)
(-188.704 4.64102 0)
(-190.636 4.36155 0)
(-191.745 4.10811 0)
(-192.09 3.9732 0)
(-191.489 4.04424 0)
(-189.636 3.68034 0)
(-186.315 3.11379 0)
(-181.739 2.5225 0)
(-175.776 2.00049 0)
(-168.495 1.3922 0)
(-160.007 0.757101 0)
(-150.536 -0.121602 0)
(-140.403 -0.830998 0)
(-129.271 -1.62029 0)
(-117.302 -2.56019 0)
(-104.28 -3.5776 0)
(-90.3576 -4.68335 0)
(-75.554 -5.58852 0)
(-60.0301 -6.6806 0)
(-43.9296 -7.42805 0)
(-27.4279 -8.70268 0)
(-10.492 -9.07072 0)
(6.14155 -9.52548 0)
(22.9209 -9.59636 0)
(38.9306 -9.17346 0)
(55.1493 -9.12506 0)
(71.2814 -8.84371 0)
(86.8375 -9.23746 0)
(101.115 -9.42677 0)
(114.547 -9.34529 0)
(127.346 -9.1562 0)
(139.492 -8.82474 0)
(150.938 -8.44792 0)
(161.98 -8.32556 0)
(172.38 -8.00158 0)
(182.596 -7.85399 0)
(191.958 -7.37642 0)
(201.038 -7.08494 0)
(209.365 -6.64283 0)
(217.487 -6.48234 0)
(225.158 -6.13242 0)
(232.6 -5.98493 0)
(239.845 -5.56213 0)
(246.54 -5.25523 0)
(253.18 -5.10732 0)
(259.437 -4.49222 0)
(264.967 -4.27018 0)
(270.411 -3.98407 0)
(275.374 -3.71231 0)
(280.35 -3.63351 0)
(285.108 -3.32104 0)
(289.709 -3.17767 0)
(294.199 -2.84494 0)
(298.288 -2.67523 0)
(302.247 -2.46215 0)
(305.943 -2.24143 0)
(309.392 -2.0911 0)
(312.63 -1.91603 0)
(315.704 -1.80226 0)
(318.551 -1.66654 0)
(321.314 -1.52326 0)
(323.756 -1.44892 0)
(326.2 -1.40226 0)
(328.932 -1.27382 0)
(330.26 -1.11647 0)
(332.055 -1.08892 0)
(334.082 -1.04648 0)
(336.547 -1.05805 0)
(337.656 -0.875247 0)
(339.198 -0.817607 0)
(340.961 -0.820312 0)
(342.82 -0.898053 0)
(345.497 -0.804872 0)
(345.581 -0.554405 0)
(346.526 -0.521372 0)
(347.879 -0.537049 0)
(349.391 -0.660397 0)
(351.663 -0.631046 0)
(351.67 -0.438741 0)
(352.445 -0.412996 0)
(353.58 -0.391444 0)
(355.049 -0.506048 0)
(355.795 -0.363623 0)
(356.77 -0.361054 0)
(357.868 -0.369745 0)
(359.456 -0.411255 0)
(359.642 -0.26278 0)
(360.282 -0.232869 0)
(361.126 -0.240264 0)
(362.151 -0.307701 0)
(362.788 -0.235799 0)
(363.548 -0.20566 0)
(364.37 -0.227717 0)
(365.24 -0.193649 0)
(366.169 -0.200544 0)
(367.192 -0.148327 0)
(368.266 -0.131439 0)
(369.152 -0.108928 0)
(370.235 -0.0419662 0)
(370.543 -0.0624773 0)
(370.955 -0.0566514 0)
(371.387 -0.0813545 0)
(371.819 -0.09875 0)
(372.294 -0.0768285 0)
(372.837 -0.0777486 0)
(373.502 -0.0569963 0)
(374.224 -0.0393438 0)
(374.863 0.00016803 0)
(375.357 -0.00998781 0)
(376.01 0.0100675 0)
(375.818 -0.00497633 0)
(375.919 -0.0125757 0)
(375.839 -0.0237573 0)
(375.802 -0.0577386 0)
(375.801 -0.0562555 0)
(375.836 -0.0722688 0)
(375.932 -0.0779453 0)
(376.103 -0.0620081 0)
(376.359 -0.0418448 0)
(376.699 -0.0324463 0)
(377.151 -0.040997 0)
(377.649 -0.0163457 0)
(378.144 0.00101744 0)
(378.537 0.0131477 0)
(378.968 0.00370043 0)
(379.225 0.0235515 0)
(379.545 0.025037 0)
(379.705 0.0296902 0)
(379.902 0.0242342 0)
(380.11 0.0275503 0)
(380.333 0.0266227 0)
(380.525 0.0289779 0)
(380.734 0.032497 0)
(380.969 0.0328033 0)
(381.186 0.0297888 0)
(381.434 0.0372163 0)
(381.652 0.0374835 0)
(381.884 0.0413718 0)
(382.128 0.0422961 0)
(382.335 0.0472192 0)
(382.548 0.0464094 0)
(382.714 0.0510397 0)
(382.892 0.0502059 0)
(383.007 0.0519013 0)
(383.142 0.0551899 0)
(383.21 0.0491815 0)
(383.289 0.0549914 0)
(383.324 0.0473818 0)
(383.367 0.051207 0)
(383.385 0.0456019 0)
(383.409 0.0449987 0)
(383.437 0.0430119 0)
(383.469 0.0420228 0)
(383.514 0.0428459 0)
(383.588 0.0343535 0)
(383.667 0.0365307 0)
(383.768 0.0360059 0)
(383.872 0.0371598 0)
(383.981 0.0376916 0)
(384.097 0.0389805 0)
(384.218 0.0395645 0)
(384.341 0.0405737 0)
(384.457 0.0419835 0)
(384.558 0.0433092 0)
(384.663 0.0433124 0)
(384.732 0.0462761 0)
(384.803 0.045715 0)
(384.837 0.0450968 0)
(384.872 0.0451321 0)
(384.868 0.0443002 0)
(384.857 0.0440233 0)
(384.827 0.0426175 0)
(384.78 0.0416583 0)
(384.712 0.0385656 0)
(384.635 0.0356012 0)
(384.565 0.0342419 0)
(384.489 0.0303234 0)
(384.468 0.0339868 0)
(384.496 0.0202306 0)
(384.538 0.0252856 0)
(384.607 0.0284981 0)
(384.698 0.0293463 0)
(384.803 0.0303665 0)
(384.889 0.033976 0)
(384.968 0.0341716 0)
(385.023 0.0396546 0)
(385.028 0.0399477 0)
(385.014 0.0389777 0)
(384.97 0.0389655 0)
(384.902 0.0376704 0)
(384.813 0.0360245 0)
(384.703 0.0351413 0)
(384.577 0.0290279 0)
(384.462 0.0302098 0)
(384.362 0.026589 0)
(384.276 0.023862 0)
(384.173 0.0289438 0)
(384.188 0.0178126 0)
(384.171 0.0207804 0)
(384.146 0.0227267 0)
(384.159 0.0221323 0)
(384.154 0.0240718 0)
(384.163 0.0242714 0)
(384.162 0.0260076 0)
(384.158 0.026609 0)
(384.147 0.0271387 0)
(384.128 0.0277675 0)
(384.101 0.0278658 0)
(384.065 0.0283437 0)
(384.021 0.0282358 0)
(383.971 0.0281776 0)
(383.914 0.027849 0)
(383.853 0.0278961 0)
(383.789 0.0270537 0)
(383.723 0.0270996 0)
(383.655 0.0260883 0)
(383.588 0.0262543 0)
(383.518 0.025133 0)
(383.447 0.0255777 0)
(383.372 0.0240397 0)
(383.297 0.0249849 0)
(383.214 0.0234504 0)
(383.101 0.0241567 0)
(383.141 0.0149328 0)
(-3.5471 -1.10804 0)
(-10.4207 8.74567 0)
(-24.7111 16.6038 0)
(-43.5052 23.6277 0)
(-63.7088 28.8581 0)
(-83.2689 29.0476 0)
(-101.02 26.029 0)
(-116.959 22.545 0)
(-130.82 19.1851 0)
(-142.295 16.2556 0)
(-152.03 14.2452 0)
(-159.68 11.8334 0)
(-165.826 10.0545 0)
(-170.197 8.72583 0)
(-173.049 7.64163 0)
(-175.166 6.91661 0)
(-176.457 6.36911 0)
(-176.961 5.97425 0)
(-176.676 5.45993 0)
(-175.289 4.94698 0)
(-172.77 4.02848 0)
(-168.979 3.22806 0)
(-163.934 2.24745 0)
(-157.769 1.21157 0)
(-150.355 0.179333 0)
(-141.742 -0.975861 0)
(-132.096 -2.10632 0)
(-121.464 -3.39991 0)
(-109.749 -4.67285 0)
(-96.8744 -6.0126 0)
(-83.0672 -7.61066 0)
(-68.1932 -9.21567 0)
(-52.4274 -11.0589 0)
(-35.7666 -12.4421 0)
(-18.355 -14.2788 0)
(-0.413206 -15.4001 0)
(17.7104 -17.21 0)
(36.0547 -17.7513 0)
(53.9047 -18.5993 0)
(71.7618 -18.8575 0)
(88.9032 -18.3969 0)
(106.058 -18.676 0)
(122.749 -18.5535 0)
(138.485 -18.6474 0)
(153.009 -18.3348 0)
(166.485 -17.8899 0)
(179.239 -17.4284 0)
(191.167 -16.7566 0)
(202.391 -16.0648 0)
(213.231 -15.6878 0)
(223.263 -15.0229 0)
(233.134 -14.6168 0)
(241.938 -13.7399 0)
(250.404 -13.1101 0)
(257.965 -12.3158 0)
(265.377 -11.8969 0)
(272.229 -11.2315 0)
(278.901 -10.8438 0)
(285.25 -10.1301 0)
(291.084 -9.53757 0)
(296.846 -9.19715 0)
(302.278 -8.27428 0)
(306.943 -7.81664 0)
(311.588 -7.31198 0)
(315.788 -6.80959 0)
(320.037 -6.59278 0)
(324.096 -6.07691 0)
(327.967 -5.78708 0)
(331.787 -5.27388 0)
(335.188 -4.95537 0)
(338.53 -4.60136 0)
(341.62 -4.2385 0)
(344.521 -3.97251 0)
(347.25 -3.68011 0)
(349.85 -3.46114 0)
(352.256 -3.22844 0)
(354.594 -3.0092 0)
(356.662 -2.84533 0)
(358.743 -2.68486 0)
(361.118 -2.62056 0)
(362.223 -2.36079 0)
(363.749 -2.22755 0)
(365.488 -2.08347 0)
(367.621 -2.14853 0)
(368.578 -1.89239 0)
(369.906 -1.75436 0)
(371.433 -1.69248 0)
(373.07 -1.71868 0)
(375.453 -1.79407 0)
(375.487 -1.4409 0)
(376.305 -1.28054 0)
(377.488 -1.2135 0)
(378.832 -1.29974 0)
(380.859 -1.40973 0)
(380.883 -1.12579 0)
(381.576 -1.00351 0)
(382.587 -0.90488 0)
(383.873 -1.06969 0)
(384.571 -0.899828 0)
(385.456 -0.856592 0)
(386.457 -0.822365 0)
(387.899 -0.947583 0)
(388.088 -0.730798 0)
(388.676 -0.654922 0)
(389.449 -0.608478 0)
(390.378 -0.698022 0)
(390.988 -0.606144 0)
(391.698 -0.556982 0)
(392.467 -0.55685 0)
(393.279 -0.504817 0)
(394.144 -0.483889 0)
(395.092 -0.405318 0)
(396.077 -0.373441 0)
(396.905 -0.327026 0)
(397.913 -0.294846 0)
(398.232 -0.279131 0)
(398.65 -0.264601 0)
(399.093 -0.28675 0)
(399.546 -0.306226 0)
(400.034 -0.279582 0)
(400.577 -0.236352 0)
(401.222 -0.197761 0)
(401.911 -0.165123 0)
(402.537 -0.127447 0)
(403.027 -0.117015 0)
(403.704 -0.158189 0)
(403.579 -0.150173 0)
(403.723 -0.160697 0)
(403.692 -0.174078 0)
(403.717 -0.204005 0)
(403.765 -0.212254 0)
(403.849 -0.225008 0)
(403.985 -0.222049 0)
(404.18 -0.19898 0)
(404.444 -0.16384 0)
(404.778 -0.115615 0)
(405.209 -0.121298 0)
(405.685 -0.0864927 0)
(406.152 -0.0623234 0)
(406.543 -0.0405832 0)
(406.964 -0.0545347 0)
(407.249 -0.033762 0)
(407.586 -0.0287014 0)
(407.786 -0.0322249 0)
(408.013 -0.030865 0)
(408.248 -0.0240793 0)
(408.495 -0.0225871 0)
(408.717 -0.0198198 0)
(408.948 -0.00325286 0)
(409.204 -0.00813982 0)
(409.441 -0.00311479 0)
(409.708 0.00534768 0)
(409.945 0.00975431 0)
(410.194 0.018546 0)
(410.454 0.0215086 0)
(410.682 0.0306763 0)
(410.916 0.0305566 0)
(411.107 0.0375672 0)
(411.311 0.0365916 0)
(411.459 0.0395913 0)
(411.625 0.0426884 0)
(411.729 0.0367923 0)
(411.844 0.0426217 0)
(411.917 0.0334185 0)
(411.998 0.0368397 0)
(412.053 0.0308562 0)
(412.112 0.0304581 0)
(412.174 0.0315424 0)
(412.237 0.0285618 0)
(412.311 0.034161 0)
(412.405 0.0294078 0)
(412.504 0.0297399 0)
(412.62 0.0366034 0)
(412.737 0.037356 0)
(412.859 0.0399407 0)
(412.987 0.0432205 0)
(413.118 0.0458128 0)
(413.251 0.0479503 0)
(413.38 0.0502791 0)
(413.493 0.0534886 0)
(413.611 0.0531233 0)
(413.697 0.0572559 0)
(413.786 0.0559692 0)
(413.84 0.0561605 0)
(413.898 0.0550087 0)
(413.918 0.0548468 0)
(413.931 0.0532982 0)
(413.922 0.0508539 0)
(413.9 0.0499611 0)
(413.859 0.0428627 0)
(413.81 0.0399458 0)
(413.763 0.0385562 0)
(413.707 0.0350051 0)
(413.705 0.041234 0)
(413.732 0.0326953 0)
(413.775 0.0385683 0)
(413.841 0.0455547 0)
(413.926 0.0487193 0)
(414.024 0.0499566 0)
(414.109 0.0555544 0)
(414.186 0.0554773 0)
(414.244 0.0604061 0)
(414.266 0.0609277 0)
(414.26 0.0581349 0)
(414.232 0.0556198 0)
(414.182 0.0522593 0)
(414.113 0.0496123 0)
(414.025 0.0469538 0)
(413.922 0.0383279 0)
(413.826 0.0408049 0)
(413.738 0.0394595 0)
(413.662 0.0348087 0)
(413.568 0.0436053 0)
(413.574 0.0311132 0)
(413.556 0.03583 0)
(413.528 0.0398023 0)
(413.534 0.0392912 0)
(413.526 0.0425908 0)
(413.529 0.0433825 0)
(413.525 0.0460007 0)
(413.518 0.046988 0)
(413.506 0.0473916 0)
(413.486 0.0478462 0)
(413.46 0.0477329 0)
(413.426 0.0481679 0)
(413.385 0.0477197 0)
(413.338 0.0476454 0)
(413.285 0.0469626 0)
(413.229 0.0472016 0)
(413.168 0.0458807 0)
(413.106 0.0461503 0)
(413.041 0.0446282 0)
(412.976 0.0452169 0)
(412.909 0.043323 0)
(412.84 0.0443818 0)
(412.768 0.0417132 0)
(412.695 0.0437349 0)
(412.614 0.0404426 0)
(412.501 0.0443852 0)
(412.526 0.0289343 0)
(-5.45762 3.48709 0)
(-16.4885 16.6383 0)
(-33.9689 26.6616 0)
(-52.326 35.4153 0)
(-70.8163 39.2983 0)
(-87.5897 38.6933 0)
(-102.229 34.8267 0)
(-114.937 30.26 0)
(-126.255 25.3636 0)
(-135.667 20.6113 0)
(-143.24 16.6287 0)
(-149.014 13.724 0)
(-153.392 11.4989 0)
(-156.249 9.86127 0)
(-157.731 8.51688 0)
(-158.714 7.61333 0)
(-158.985 6.85284 0)
(-158.479 6.13835 0)
(-157.11 5.48092 0)
(-154.717 4.77954 0)
(-151.222 3.94146 0)
(-146.561 2.8869 0)
(-140.67 1.59742 0)
(-133.558 0.199899 0)
(-125.086 -1.28632 0)
(-115.26 -2.96615 0)
(-104.158 -4.61411 0)
(-91.9086 -6.5515 0)
(-78.387 -8.61456 0)
(-63.5336 -10.6615 0)
(-47.612 -13.1339 0)
(-30.4731 -15.2812 0)
(-12.5244 -18.1655 0)
(6.53634 -19.9773 0)
(26.2385 -22.7388 0)
(46.4485 -24.3267 0)
(66.5066 -26.9232 0)
(86.572 -27.4068 0)
(105.856 -28.7008 0)
(124.976 -29.007 0)
(143.228 -28.2695 0)
(160.987 -28.7969 0)
(178.039 -28.3561 0)
(193.746 -27.98 0)
(208.323 -27.055 0)
(221.503 -26.2977 0)
(234.079 -25.4234 0)
(245.512 -24.3704 0)
(256.417 -23.3226 0)
(266.787 -22.5697 0)
(276.178 -21.503 0)
(285.437 -20.7222 0)
(293.4 -19.3227 0)
(301.003 -18.2604 0)
(307.517 -17.1247 0)
(314.011 -16.4505 0)
(319.777 -15.4343 0)
(325.462 -14.7826 0)
(330.694 -13.7154 0)
(335.46 -12.924 0)
(340.162 -12.311 0)
(344.574 -11.0617 0)
(348.19 -10.5111 0)
(351.825 -9.75484 0)
(355.083 -9.11644 0)
(358.424 -8.74816 0)
(361.575 -8.00306 0)
(364.57 -7.59499 0)
(367.528 -6.89589 0)
(370.083 -6.50872 0)
(372.646 -6.02282 0)
(374.965 -5.58027 0)
(377.176 -5.24921 0)
(379.245 -4.87782 0)
(381.215 -4.60398 0)
(383.027 -4.30386 0)
(384.789 -4.05343 0)
(386.325 -3.8181 0)
(387.892 -3.6396 0)
(389.767 -3.62972 0)
(390.509 -3.26644 0)
(391.629 -3.01202 0)
(392.956 -2.83174 0)
(394.629 -2.96216 0)
(395.323 -2.63948 0)
(396.323 -2.41107 0)
(397.5 -2.31608 0)
(398.791 -2.34749 0)
(400.702 -2.44771 0)
(400.66 -2.06093 0)
(401.268 -1.75638 0)
(402.172 -1.69931 0)
(403.237 -1.77267 0)
(404.872 -1.95551 0)
(404.859 -1.64889 0)
(405.39 -1.40581 0)
(406.187 -1.30406 0)
(407.2 -1.47329 0)
(407.775 -1.31387 0)
(408.485 -1.23406 0)
(409.304 -1.20484 0)
(410.516 -1.37746 0)
(410.611 -1.10751 0)
(411.072 -0.961891 0)
(411.699 -0.903828 0)
(412.452 -1.01182 0)
(412.97 -0.909728 0)
(413.561 -0.834079 0)
(414.209 -0.814563 0)
(414.896 -0.738294 0)
(415.632 -0.665986 0)
(416.443 -0.565178 0)
(417.279 -0.539869 0)
(417.99 -0.493538 0)
(418.863 -0.529767 0)
(419.112 -0.467584 0)
(419.457 -0.464688 0)
(419.834 -0.496734 0)
(420.235 -0.510549 0)
(420.669 -0.454077 0)
(421.149 -0.369079 0)
(421.719 -0.288693 0)
(422.325 -0.252977 0)
(422.883 -0.24651 0)
(423.313 -0.23052 0)
(423.903 -0.319283 0)
(423.794 -0.28286 0)
(423.915 -0.312837 0)
(423.888 -0.339758 0)
(423.917 -0.375575 0)
(423.967 -0.389611 0)
(424.046 -0.384016 0)
(424.171 -0.361654 0)
(424.348 -0.32068 0)
(424.583 -0.264054 0)
(424.879 -0.187144 0)
(425.257 -0.174645 0)
(425.687 -0.129416 0)
(426.095 -0.112277 0)
(426.441 -0.0892392 0)
(426.811 -0.110523 0)
(427.068 -0.0963744 0)
(427.37 -0.0968814 0)
(427.55 -0.0904906 0)
(427.755 -0.0829537 0)
(427.968 -0.077174 0)
(428.19 -0.0707907 0)
(428.397 -0.0662389 0)
(428.609 -0.0338969 0)
(428.84 -0.0441884 0)
(429.062 -0.0304804 0)
(429.311 -0.0212542 0)
(429.531 -0.00924634 0)
(429.762 0.00285263 0)
(430.001 0.0088038 0)
(430.213 0.0182283 0)
(430.43 0.0180906 0)
(430.611 0.0254515 0)
(430.802 0.0234198 0)
(430.944 0.0261415 0)
(431.102 0.0289123 0)
(431.204 0.0205085 0)
(431.32 0.0232573 0)
(431.392 0.0149979 0)
(431.476 0.0164542 0)
(431.533 0.0120264 0)
(431.595 0.0134513 0)
(431.658 0.0142576 0)
(431.724 0.0125394 0)
(431.796 0.0285248 0)
(431.886 0.0219428 0)
(431.981 0.0244816 0)
(432.094 0.0307931 0)
(432.204 0.0365747 0)
(432.319 0.0428084 0)
(432.439 0.0489309 0)
(432.562 0.0536199 0)
(432.688 0.05695 0)
(432.81 0.0601346 0)
(432.917 0.0645119 0)
(433.03 0.0632512 0)
(433.113 0.0679881 0)
(433.199 0.0652106 0)
(433.254 0.0650282 0)
(433.312 0.0620408 0)
(433.335 0.0616538 0)
(433.354 0.0597505 0)
(433.348 0.0558295 0)
(433.332 0.0529187 0)
(433.297 0.0416614 0)
(433.258 0.0398398 0)
(433.217 0.0372928 0)
(433.168 0.0383857 0)
(433.166 0.0463308 0)
(433.188 0.0426669 0)
(433.227 0.0508626 0)
(433.286 0.0626504 0)
(433.361 0.0692881 0)
(433.449 0.0718517 0)
(433.525 0.078495 0)
(433.593 0.0778427 0)
(433.646 0.0817783 0)
(433.665 0.0807314 0)
(433.659 0.0765397 0)
(433.634 0.0710391 0)
(433.589 0.0650834 0)
(433.526 0.0605754 0)
(433.446 0.0540536 0)
(433.352 0.0452648 0)
(433.262 0.0478973 0)
(433.179 0.0492835 0)
(433.105 0.0427129 0)
(433.014 0.0581684 0)
(433.012 0.046333 0)
(432.992 0.0508115 0)
(432.957 0.0572567 0)
(432.956 0.0570562 0)
(432.943 0.0618172 0)
(432.938 0.06352 0)
(432.929 0.0666292 0)
(432.915 0.067915 0)
(432.897 0.0681826 0)
(432.873 0.0683584 0)
(432.842 0.0679065 0)
(432.805 0.0680893 0)
(432.762 0.0671806 0)
(432.713 0.066997 0)
(432.658 0.0658698 0)
(432.6 0.0661967 0)
(432.538 0.0644291 0)
(432.474 0.064938 0)
(432.408 0.0629476 0)
(432.342 0.0639832 0)
(432.273 0.0613856 0)
(432.203 0.0629834 0)
(432.129 0.059204 0)
(432.055 0.0622546 0)
(431.973 0.0571491 0)
(431.858 0.0643783 0)
(431.871 0.0443429 0)
(-6.39356 10.663 0)
(-21.4168 26.2911 0)
(-39.7574 37.7971 0)
(-56.8902 45.806 0)
(-73.0606 48.8145 0)
(-87.1885 46.8804 0)
(-98.8509 41.6471 0)
(-108.938 35.1297 0)
(-118.025 29.0851 0)
(-125.491 23.9581 0)
(-131.191 19.5657 0)
(-135.35 15.8869 0)
(-138.39 13.1036 0)
(-140.178 11.0716 0)
(-140.71 9.41904 0)
(-140.952 8.22706 0)
(-140.361 7.21327 0)
(-139.076 6.29342 0)
(-136.891 5.33781 0)
(-133.711 4.23758 0)
(-129.42 2.88509 0)
(-123.876 1.34875 0)
(-116.968 -0.43503 0)
(-108.658 -2.43193 0)
(-98.8165 -4.5778 0)
(-87.4426 -6.99521 0)
(-74.5494 -9.3049 0)
(-60.3063 -11.9466 0)
(-44.6733 -14.9177 0)
(-27.4233 -17.6212 0)
(-9.01905 -21.1454 0)
(11.1468 -23.9018 0)
(31.994 -27.8347 0)
(54.182 -30.3826 0)
(77.0135 -34.1223 0)
(100.319 -35.8648 0)
(122.879 -39.0744 0)
(145.274 -39.2744 0)
(166.272 -40.6973 0)
(186.86 -40.9278 0)
(206.774 -39.9418 0)
(224.725 -40.0856 0)
(242.435 -39.352 0)
(257.633 -38.2813 0)
(272.306 -36.8454 0)
(284.668 -35.4092 0)
(297.027 -34.2228 0)
(307.589 -32.5418 0)
(318.211 -31.3351 0)
(327.627 -29.9947 0)
(336.091 -28.4653 0)
(344.3 -27.1983 0)
(351.051 -25.2324 0)
(357.335 -23.7086 0)
(362.258 -22.0395 0)
(367.391 -21.065 0)
(371.579 -19.6021 0)
(375.868 -18.6311 0)
(379.577 -17.189 0)
(382.89 -16.1108 0)
(386.222 -15.2369 0)
(389.281 -13.6837 0)
(391.51 -12.9444 0)
(393.814 -11.9979 0)
(395.863 -11.1887 0)
(398.099 -10.7262 0)
(400.162 -9.77234 0)
(402.132 -9.24348 0)
(404.063 -8.3692 0)
(405.666 -7.91281 0)
(407.307 -7.28633 0)
(408.742 -6.77977 0)
(410.162 -6.37309 0)
(411.455 -5.91522 0)
(412.67 -5.57805 0)
(413.763 -5.21095 0)
(414.852 -4.93893 0)
(415.752 -4.64482 0)
(416.722 -4.42899 0)
(417.98 -4.50534 0)
(418.286 -4.08433 0)
(418.929 -3.74746 0)
(419.767 -3.50799 0)
(420.891 -3.63002 0)
(421.254 -3.30262 0)
(421.85 -3.01628 0)
(422.6 -2.86831 0)
(423.464 -2.86116 0)
(424.772 -3.03685 0)
(424.639 -2.66168 0)
(424.972 -2.27606 0)
(425.532 -2.15997 0)
(426.239 -2.22067 0)
(427.369 -2.44527 0)
(427.291 -2.14114 0)
(427.603 -1.83566 0)
(428.122 -1.69658 0)
(428.801 -1.81436 0)
(429.185 -1.68211 0)
(429.66 -1.58591 0)
(430.231 -1.5428 0)
(431.113 -1.68183 0)
(431.112 -1.47455 0)
(431.397 -1.28446 0)
(431.822 -1.19782 0)
(432.344 -1.26744 0)
(432.715 -1.18131 0)
(433.133 -1.09093 0)
(433.608 -1.05102 0)
(434.12 -0.952103 0)
(434.68 -0.843183 0)
(435.302 -0.704092 0)
(435.941 -0.677822 0)
(436.489 -0.629939 0)
(437.18 -0.699527 0)
(437.317 -0.641169 0)
(437.542 -0.644309 0)
(437.808 -0.687979 0)
(438.113 -0.698303 0)
(438.45 -0.623937 0)
(438.82 -0.49619 0)
(439.269 -0.383508 0)
(439.748 -0.331175 0)
(440.191 -0.35131 0)
(440.53 -0.334508 0)
(440.962 -0.480088 0)
(440.835 -0.438518 0)
(440.892 -0.486294 0)
(440.835 -0.522018 0)
(440.836 -0.571999 0)
(440.846 -0.572103 0)
(440.882 -0.556558 0)
(440.96 -0.515445 0)
(441.088 -0.455822 0)
(441.268 -0.377291 0)
(441.498 -0.269829 0)
(441.8 -0.22661 0)
(442.157 -0.172487 0)
(442.486 -0.15961 0)
(442.764 -0.137997 0)
(443.062 -0.158451 0)
(443.266 -0.152976 0)
(443.509 -0.166822 0)
(443.642 -0.15153 0)
(443.8 -0.141421 0)
(443.968 -0.135505 0)
(444.141 -0.124248 0)
(444.31 -0.118084 0)
(444.478 -0.0807458 0)
(444.661 -0.0817651 0)
(444.844 -0.0640889 0)
(445.052 -0.055396 0)
(445.233 -0.0344506 0)
(445.424 -0.0182725 0)
(445.625 -0.0102623 0)
(445.801 0.00401388 0)
(445.981 0.00164604 0)
(446.131 0.0102147 0)
(446.289 0.00557985 0)
(446.406 0.00812901 0)
(446.536 0.00707195 0)
(446.617 -0.00163766 0)
(446.711 -0.00399391 0)
(446.765 -0.0098024 0)
(446.831 -0.0119396 0)
(446.873 -0.0144679 0)
(446.919 -0.010666 0)
(446.967 -0.0089596 0)
(447.019 -0.00894628 0)
(447.072 0.011494 0)
(447.142 0.0123979 0)
(447.22 0.0183136 0)
(447.315 0.0220096 0)
(447.406 0.0330712 0)
(447.502 0.0420621 0)
(447.603 0.0509607 0)
(447.706 0.0578473 0)
(447.813 0.0630148 0)
(447.915 0.0667905 0)
(448.005 0.0723249 0)
(448.1 0.0709154 0)
(448.169 0.0745575 0)
(448.239 0.0717874 0)
(448.283 0.0709205 0)
(448.328 0.0668784 0)
(448.343 0.0653295 0)
(448.35 0.0621011 0)
(448.341 0.0562529 0)
(448.319 0.0502763 0)
(448.28 0.0383275 0)
(448.237 0.0372798 0)
(448.192 0.0331222 0)
(448.143 0.0389926 0)
(448.127 0.0472968 0)
(448.142 0.0507836 0)
(448.171 0.0632505 0)
(448.217 0.0796334 0)
(448.277 0.0896255 0)
(448.349 0.093594 0)
(448.41 0.101014 0)
(448.465 0.100158 0)
(448.504 0.102754 0)
(448.51 0.0993281 0)
(448.5 0.0928196 0)
(448.47 0.0838465 0)
(448.421 0.075164 0)
(448.356 0.0684464 0)
(448.274 0.0581902 0)
(448.18 0.0495898 0)
(448.089 0.0540422 0)
(448.005 0.0559963 0)
(447.928 0.0504456 0)
(447.838 0.0706616 0)
(447.824 0.0624326 0)
(447.795 0.0658907 0)
(447.754 0.074986 0)
(447.742 0.0756706 0)
(447.721 0.0815455 0)
(447.705 0.084323 0)
(447.686 0.0878245 0)
(447.664 0.0894736 0)
(447.636 0.0894577 0)
(447.604 0.0892641 0)
(447.566 0.0884528 0)
(447.521 0.0882965 0)
(447.471 0.0868966 0)
(447.416 0.0866332 0)
(447.356 0.0850771 0)
(447.292 0.0854967 0)
(447.225 0.0833566 0)
(447.156 0.0840956 0)
(447.085 0.0816412 0)
(447.013 0.0831238 0)
(446.94 0.0798498 0)
(446.865 0.0820205 0)
(446.788 0.0771689 0)
(446.708 0.081254 0)
(446.623 0.0742012 0)
(446.506 0.0848319 0)
(446.504 0.0614129 0)
(-9.14461 19.3975 0)
(-24.1255 36.8645 0)
(-42.5404 47.7794 0)
(-57.814 55.1429 0)
(-71.7287 56.8188 0)
(-83.3726 53.2364 0)
(-92.6444 46.4196 0)
(-100.857 39.3761 0)
(-107.886 32.5445 0)
(-113.45 26.4349 0)
(-117.607 21.3055 0)
(-120.616 17.1708 0)
(-122.688 14.019 0)
(-123.643 11.646 0)
(-123.415 9.72887 0)
(-122.887 8.1917 0)
(-121.497 7.00526 0)
(-119.426 5.81797 0)
(-116.401 4.5311 0)
(-112.324 3.0373 0)
(-107.049 1.22086 0)
(-100.353 -0.89184 0)
(-92.1406 -3.29443 0)
(-82.338 -6.01621 0)
(-70.7902 -8.9329 0)
(-57.506 -12.262 0)
(-42.4313 -15.3865 0)
(-25.6656 -18.8933 0)
(-7.32953 -23.1246 0)
(13.3776 -26.6566 0)
(35.222 -31.4966 0)
(59.197 -35.1173 0)
(84.1303 -40.2945 0)
(110.631 -43.5182 0)
(137.513 -48.4837 0)
(164.924 -50.2157 0)
(190.424 -53.8472 0)
(215.818 -53.5215 0)
(238.651 -55.0555 0)
(260.494 -54.7586 0)
(282.877 -53.7281 0)
(300.124 -52.7484 0)
(318.548 -51.6725 0)
(332.669 -49.4447 0)
(347.551 -47.7104 0)
(358.679 -45.2612 0)
(370.461 -43.7656 0)
(379.618 -41.1557 0)
(389.058 -39.8343 0)
(396.655 -37.612 0)
(403.785 -35.4898 0)
(410.057 -33.5201 0)
(415.35 -30.8263 0)
(419.607 -28.8443 0)
(422.743 -26.5891 0)
(425.988 -25.2745 0)
(428.543 -23.2707 0)
(431.043 -21.9553 0)
(433.174 -20.0984 0)
(434.753 -18.7754 0)
(436.445 -17.5449 0)
(438.024 -15.7754 0)
(438.474 -14.839 0)
(439.381 -13.7308 0)
(439.79 -12.771 0)
(440.642 -12.1466 0)
(441.415 -11.0292 0)
(441.932 -10.3264 0)
(442.664 -9.35921 0)
(442.947 -8.78057 0)
(443.523 -8.0935 0)
(443.792 -7.53428 0)
(444.2 -7.10064 0)
(444.57 -6.59243 0)
(444.899 -6.2182 0)
(445.176 -5.79988 0)
(445.529 -5.57564 0)
(445.723 -5.23294 0)
(446.04 -5.04462 0)
(446.577 -4.99705 0)
(446.485 -4.70498 0)
(446.592 -4.27064 0)
(446.883 -4.02599 0)
(447.392 -4.02448 0)
(447.396 -3.79864 0)
(447.529 -3.45368 0)
(447.797 -3.26367 0)
(448.164 -3.23477 0)
(448.792 -3.40495 0)
(448.577 -3.1261 0)
(448.557 -2.68722 0)
(448.73 -2.51309 0)
(449.03 -2.51218 0)
(449.59 -2.73249 0)
(449.449 -2.51701 0)
(449.485 -2.20346 0)
(449.685 -1.99801 0)
(449.987 -2.04023 0)
(450.141 -1.94629 0)
(450.338 -1.85871 0)
(450.618 -1.79856 0)
(451.08 -1.94179 0)
(451.004 -1.747 0)
(451.086 -1.54695 0)
(451.268 -1.41796 0)
(451.509 -1.45371 0)
(451.697 -1.39659 0)
(451.898 -1.28969 0)
(452.166 -1.22184 0)
(452.464 -1.0886 0)
(452.811 -0.933697 0)
(453.209 -0.768878 0)
(453.611 -0.750078 0)
(453.966 -0.711677 0)
(454.423 -0.827853 0)
(454.436 -0.792362 0)
(454.512 -0.809988 0)
(454.643 -0.857008 0)
(454.825 -0.851394 0)
(455.033 -0.749812 0)
(455.256 -0.581697 0)
(455.554 -0.437578 0)
(455.874 -0.37301 0)
(456.162 -0.418143 0)
(456.379 -0.429979 0)
(456.611 -0.596409 0)
(456.453 -0.58238 0)
(456.425 -0.668659 0)
(456.311 -0.715395 0)
(456.242 -0.756455 0)
(456.177 -0.750237 0)
(456.14 -0.717806 0)
(456.152 -0.657058 0)
(456.206 -0.576044 0)
(456.306 -0.471861 0)
(456.444 -0.334384 0)
(456.645 -0.25679 0)
(456.905 -0.194931 0)
(457.132 -0.190441 0)
(457.323 -0.168917 0)
(457.528 -0.196765 0)
(457.66 -0.195736 0)
(457.823 -0.218298 0)
(457.893 -0.205111 0)
(457.985 -0.189748 0)
(458.089 -0.186095 0)
(458.196 -0.168351 0)
(458.308 -0.165641 0)
(458.409 -0.120571 0)
(458.529 -0.109594 0)
(458.652 -0.0891197 0)
(458.799 -0.0780015 0)