/*--------------------------------*- C++ -*----------------------------------*\
| =========                 |                                                 |
| \\      /  F ield         | OpenFOAM: The Open Source CFD Toolbox           |
|  \\    /   O peration     | Version:  2312                                  |
|   \\  /    A nd           | Website:  www.openfoam.com                      |
|    \\/     M anipulation  |                                                 |
\*---------------------------------------------------------------------------*/
FoamFile
{
    version     2.0;
    format      ascii;
    arch        "LSB;label=32;scalar=64";
    class       volScalarField;
    location    "4e-05";
    object      alphat;
}
// * * * * * * * * * * * * * * * * * * * * * * * * * * * * * * * * * * * * * //

dimensions      [1 -1 -1 0 0 0 0];

internalField   nonuniform List<scalar> 
109340
(
0.48159088791732
0.33146590407706
0.17914861153603
0.14984829553232
0.14530379306939
0.14840789525399
0.15418097627582
0.16236578743852
0.14165510054708
0.12607788261602
0.1137373723156
0.1036664075556
0.095273493061304
0.088164700329704
0.082063841412975
0.076769838437472
0.072131953393085
0.068034758039327
0.064388419632282
0.061121985241805
0.058178601079286
0.055512095394343
0.053084509580514
0.050864275484823
0.048824840810784
0.046943609805238
0.045201108120017
0.043580293892366
0.042065948542563
0.040644074123173
0.039301194251217
0.038023363728897
0.036794451019124
0.035592673104635
0.034382534617879
0.03309529854996
0.47598952371112
0.2317323846645
0.17005170206842
0.15568663986952
0.15479011783176
0.15807629338191
0.14049860244328
0.12226415635116
0.10810375808112
0.096893566438145
0.087817667642033
0.080324276534866
0.074034720527719
0.068682037703211
0.064072807304031
0.06006313964641
0.05654361125817
0.053429631700965
0.050654905724698
0.048166736562592
0.045922605467282
0.043887734944052
0.042033346754278
0.040335383751579
0.038773540131539
0.03733050786214
0.035991362079079
0.034743032269703
0.033573814552978
0.032472873367562
0.031429633986029
0.030432888736889
0.029469202915289
0.028519718856364
0.027552484143923
0.026502654784454
0.27968930659593
0.19783246757744
0.17074092393857
0.15955532121587
0.12772495015008
0.10650291030172
0.091126604254508
0.079541046296287
0.070539469338133
0.063374628196321
0.057553985708546
0.052740932529239
0.048699831256378
0.045262070981188
0.042304244616157
0.039733898596853
0.037480418231066
0.035489097470273
0.033716922312019
0.032129333123035
0.030698022266868
0.029399654741274
0.028214997591406
0.027128134163479
0.026125856195851
0.025197079031397
0.024332425331396
0.02352373586702
0.022763807249219
0.022045966458792
0.021363678868428
0.020709948106922
0.020076164642879
0.019450236343827
0.018811777483934
0.018115874149677
0.1608997254577
0.16239830508877
0.10199778394289
0.074287847133212
0.058462806063104
0.048245738677947
0.041125915127049
0.035892776792787
0.031892728641725
0.028742233590884
0.026201475360093
0.024112592511435
0.022367468052201
0.020889774412386
0.019624157297286
0.018529429598081
0.017574314876724
0.016734699966872
0.015989402932203
0.015319844711383
0.014711607828546
0.014154150651302
0.013639805731918
0.013162934131478
0.012719246004399
0.012305225814142
0.01191767302043
0.011554205255796
0.011212597137588
0.01089061959639
0.010585820056256
0.010294980011989
0.010012883624548
0.0097320780693284
0.0094415625179977
0.0091171554989844
0.097048187454744
0.031710541120768
0.01929448440212
0.013999547179515
0.011083674518793
0.0092540287094034
0.0080102286498571
0.0071173097231608
0.0064503413354714
0.0059374032584289
0.0055344878796019
0.0052137191618714
0.0049566929044157
0.0047510268279782
0.0045882164168532
0.0044622520918959
0.0043685294018033
0.0042991756394845
0.0042409641477848
0.0041833567453826
0.0041232411310726
0.0040625389828534
0.0040041851971268
0.0039503778449183
0.0039024140577947
0.0038609839171406
0.0038262605421223
0.0037982015042792
0.0037770649287848
0.0037622009456718
0.0037524985190725
0.0037466429298417
0.003742647742677
0.0037370802923774
0.0037215431276378
0.0036707237648144
0.0002435684479751
0.00036337021785519
0.00046748697445146
0.00054879545738664
0.0006069820720727
0.0006454128687903
0.00066856811061958
0.00068065038993722
0.00068502741777793
0.00068445517116512
0.00068055842236689
0.00067460926941233
0.00066748389636087
0.00065977494709244
0.00065187903581117
0.00064408066554641
0.00063656262214858
0.0006294460059631
0.00062286368746532
0.00061695201531325
0.0006115629280584
0.0006066092025252
0.00060203984006114
0.00059781572067074
0.00059389657335532
0.00059023628155096
0.00058678082365102
0.00058346364951423
0.0005801984424753
0.00057686729505187
0.00057330145386342
0.0005692481137152
0.00056426460499139
0.00055740001989734
0.00054612519380082
0.00051898114574581
0.030364048171499
0.01684813586736
0.0090964756666372
0.0056100249548921
0.0037323108610994
0.002516754184889
0.00170263261099
0.0011387523012672
0.00076681886567369
0.00055194368734176
0.00044286899818555
0.00042918733228748
0.00039326891438954
0.00035193255931257
0.00030414078446498
0.00025401247196359
0.00021110816610518
0.00017471472359425
0.00014419704402999
0.00011998917367772
0.00010102949316071
8.5276611420161e-05
7.1959840800782e-05
5.7403104861404e-05
4.6286655387109e-05
3.7683610786133e-05
3.0958570632541e-05
2.5657236377226e-05
2.142747786109e-05
1.8026761333867e-05
1.5267181881002e-05
1.3012693807458e-05
1.1154906869681e-05
9.6110434225343e-06
8.3228105789115e-06
7.2423447370601e-06
6.3296313553002e-06
5.5539828184047e-06
4.8920458457635e-06
4.3243085639445e-06
3.8347121895338e-06
3.4110751947734e-06
3.0434698828405e-06
2.7233886261857e-06
2.4437072634859e-06
2.198475724669e-06
1.9826051412085e-06
1.7918680627531e-06
1.6229373560669e-06
1.4727022937283e-06
1.3394026834565e-06
5.7151343560574e-06
0.00047818291126013
0.00056952511395759
0.00034865653468618
9.2925724784122e-05
5.9646913229382e-05
4.8035045306358e-05
4.3335159767097e-05
2.7012752243648e-05
2.3465997731426e-05
2.7443630174684e-05
3.1207918998345e-05
3.4807032674948e-05
3.8226940598718e-05
4.1432660556333e-05
4.4468261668316e-05
4.7348510135306e-05
5.0031195049578e-05
5.2430535073425e-05
5.4473127215374e-05
5.6068235211909e-05
5.7062206470257e-05
5.7431068331657e-05
5.7291823518942e-05
5.6739418919719e-05
5.5872543210105e-05
5.4765727058621e-05
5.3492075466055e-05
5.2099320842384e-05
5.0657072988202e-05
4.9212069753688e-05
4.7797743600728e-05
4.6468718526753e-05
4.4471188210959e-05
4.3570424811979e-05
4.2908495094928e-05
4.2446179076647e-05
4.2017318380117e-05
4.1492086059023e-05
4.0864542619003e-05
4.0028790231107e-05
3.8983611394948e-05
3.7385853298196e-05
3.5459728459828e-05
3.3203407920281e-05
3.073227841929e-05
2.8240716142135e-05
2.591101741852e-05
2.3870203710669e-05
2.2236381813678e-05
2.1686462097302e-05
2.2129008413946e-05
2.3507278315135e-05
2.650273860553e-05
2.9108615908935e-05
3.1083028167309e-05
3.1950547597639e-05
3.2487245043805e-05
3.2724701086248e-05
3.1986466280605e-05
3.0708035583202e-05
2.9061460630875e-05
2.7198000644801e-05
2.5410216815428e-05
2.4051255710208e-05
2.3076746759027e-05
2.2648829360633e-05
2.2361249098338e-05
2.2232932602572e-05
2.23127305491e-05
2.2597716481325e-05
2.3089050123905e-05
2.3593015860541e-05
2.4051240299866e-05
2.4425162933475e-05
2.4728703354593e-05
2.4825369031662e-05
2.4652861119491e-05
2.4366394807878e-05
2.3954651604713e-05
2.3516212692406e-05
2.3132640133396e-05
2.2763441554252e-05
2.2437410651309e-05
2.2151183527598e-05
2.1917543245555e-05
2.1625481350437e-05
2.5086498607762e-05
4.2860338073528e-05
0.023404917145827
0.012954516850894
0.0076335713596349
0.0049654590585952
0.0033230796475845
0.0022469362544495
0.0015098620984577
0.0010064528724838
0.00066945779502952
0.00045185862840024
0.00031638641885073
0.00023807955948646
0.00019180449607677
0.00015810672247313
0.00013399143649963
0.00011629422543748
0.00010208115954782
9.088352306826e-05
8.1597359906226e-05
7.3154021212837e-05
6.5636068649647e-05
5.9067883089767e-05
5.3166448067122e-05
4.7843652903621e-05
4.3050980050553e-05
3.5113114337522e-05
2.8903424627164e-05
2.3995244897908e-05
2.0082832021438e-05
1.6932818973613e-05
1.4372538094379e-05
1.2273088205785e-05
1.0538358700839e-05
9.0968800851673e-06
7.8920081294945e-06
6.8785391691204e-06
6.0214403700118e-06
5.2922772303228e-06
4.6683051884553e-06
4.1318371225006e-06
3.6688553048883e-06
3.26790843691e-06
2.9194930966454e-06
2.6156753717556e-06
2.3497691741999e-06
2.1162375793091e-06
1.9104255090574e-06
1.7282593371356e-06
1.5666647028802e-06
1.4229495213449e-06
1.2895548537179e-06
2.0517520018244e-05
0.00055839063161575
0.00052859487322299
0.00026569099015954
7.1742295492543e-05
5.0440676757026e-05
4.0463710979902e-05
3.6046901831513e-05
2.0609679871767e-05
2.104637495726e-05
2.4304823086614e-05
2.7274542061942e-05
3.0070840914549e-05
3.2706462745967e-05
3.5211708505161e-05
3.7606872716984e-05
3.9902067705179e-05
4.205872248283e-05
4.3991159427397e-05
4.5639946932799e-05
4.6928983383198e-05
4.7779459975516e-05
4.812994504896e-05
4.8118941037987e-05
4.7786880840007e-05
4.7185836895508e-05
4.6398482922405e-05
4.5473635126329e-05
4.4458845627444e-05
4.3402089331115e-05
4.2344800360504e-05
4.1325626377329e-05
4.0379288236381e-05
4.0731177444552e-05
3.9933015100594e-05
3.9375663600518e-05
3.9052632662329e-05
3.8776917318001e-05
3.8429220608003e-05
3.7981113566864e-05
3.7336948733345e-05
3.6447306064089e-05
3.5056872860357e-05
3.3379212903087e-05
3.1439917921573e-05
2.9258034179806e-05
2.6996298351664e-05
2.484682776816e-05
2.2946680586849e-05
2.14640130964e-05
2.0936200007084e-05
2.135734337873e-05
2.2571993756473e-05
2.4840735658833e-05
2.6979039647811e-05
2.8855789374285e-05
2.9792203886598e-05
3.0385311022526e-05
3.0601133838124e-05
2.9963139192341e-05
2.8898758006962e-05
2.7509980376103e-05
2.5931737868686e-05
2.4410338098441e-05
2.3171852095982e-05
2.2353098040891e-05
2.2012121807116e-05
2.181223520824e-05
2.1753560728414e-05
2.1888594357677e-05
2.2194078211483e-05
2.2605244728112e-05
2.3002844706042e-05
2.3360896626524e-05
2.3631707212938e-05
2.3730494982093e-05
2.3715614461929e-05
2.3508514156124e-05
2.3251553069251e-05
2.2912404558239e-05
2.2558628877458e-05
2.2231609559782e-05
2.1910800190071e-05
2.1634289610425e-05
2.1360633335494e-05
2.114666262144e-05
2.083384293273e-05
2.3675089166011e-05
3.7568664279496e-05
0.017243946252132
0.00867480446977
0.0051996374082386
0.0034736193885799
0.0023297732193123
0.0015867320140477
0.0010852386546664
0.0007503190477934
0.00052747797878773
0.00038106980965241
0.00029056279895624
0.00022506884735795
0.00018091404822524
0.00014981818083095
0.0001259640331698
0.00010663481802535
9.1209114304085e-05
7.8806561089181e-05
6.8513433217425e-05
5.9661974235563e-05
5.2359201724452e-05
4.636130860764e-05
4.1186459544339e-05
3.6834390057296e-05
3.322467118035e-05
3.0144146131354e-05
2.7473862730203e-05
2.3624358147223e-05
1.9759485108663e-05
1.665014840918e-05
1.4126121653869e-05
1.2057360337179e-05
1.0347194099698e-05
8.9282942354846e-06
7.7452063811777e-06
6.7513914263339e-06
5.9114838182674e-06
5.1978334984571e-06
4.5874598278929e-06
4.0624415803738e-06
3.6090367382681e-06
3.2161366269283e-06
2.8746109236415e-06
2.5767161218423e-06
2.3159091459032e-06
2.0867669636772e-06
1.8846895145844e-06
1.7057215065601e-06
1.5468436439981e-06
1.4055489560545e-06
1.2751134877179e-06
1.7481915041192e-05
0.00054718890848986
0.00052575352016212
0.00027096019564787
6.6679602855043e-05
4.4004816292374e-05
3.4049062290701e-05
2.954290379558e-05
1.7455816118621e-05
1.7674515018126e-05
2.034272649354e-05
2.2764974426455e-05
2.4961731249157e-05
2.6972179568924e-05
2.885052988971e-05
3.0649962534727e-05
3.2398078525549e-05
3.4084457689139e-05
3.5647713353258e-05
3.7038490437451e-05
3.8209989701681e-05
3.9093273975394e-05
3.9638667298706e-05
3.9888236309513e-05
3.9856713347231e-05
3.960662247207e-05
3.9163665761314e-05
3.8587727572233e-05
3.790911717919e-05
3.7169219872081e-05
3.6418016246448e-05
3.5681263187316e-05
3.499599275402e-05
3.5633418674886e-05
3.514618788603e-05
3.4851282683513e-05
3.4667257366583e-05
3.4517073451883e-05
3.4318394576867e-05
3.4029994606589e-05
3.3565346450569e-05
3.2820244840773e-05
3.1656112644272e-05
3.0248974094322e-05
2.8603447334683e-05
2.6762264622754e-05
2.4840647596689e-05
2.2978047518035e-05
2.1336440463178e-05
2.0097205682869e-05
1.9661665429707e-05
2.0117148843714e-05
2.1164991879389e-05
2.3208383531892e-05
2.5162774128445e-05
2.7109405726675e-05
2.8067827759906e-05
2.8719919790077e-05
2.8933526548513e-05
2.8325584967546e-05
2.7358269624042e-05
2.6139114715615e-05
2.4802179549155e-05
2.3508909861231e-05
2.2347499987744e-05
2.1622780441741e-05
2.1317498152288e-05
2.1144456010839e-05
2.1152396171962e-05
2.1316881429166e-05
2.1629514892653e-05
2.1966664425016e-05
2.2300784101157e-05
2.2593011857097e-05
2.2801233711775e-05
2.2906910172722e-05
2.2873837665228e-05
2.2712429799358e-05
2.2524783600123e-05
2.2263526522962e-05
2.1988237289105e-05
2.1719122961895e-05
2.1449114436979e-05
2.1208353744449e-05
2.0965354871578e-05
2.0777495180609e-05
2.047696934683e-05
2.2829181776992e-05
3.5053633310597e-05
0.0087080389489516
0.0047730875431366
0.002918973880739
0.0018922838767184
0.0013114853019005
0.00094575568010339
0.00070203724970157
0.00053843850978383
0.00042438088022481
0.00033948119580972
0.00027495812586688
0.00022330710006765
0.00018178976783009
0.00014913635412778
0.00012359459996333
0.0001041517158601
8.8423589290661e-05
7.5691595529971e-05
6.5428555162915e-05
5.6584031922458e-05
4.8862689627589e-05
4.2370010634302e-05
3.723064474817e-05
3.2863842514908e-05
2.914582777523e-05
2.6083296436828e-05
2.3562179925111e-05
2.1373088451642e-05
1.9462894662008e-05
1.6414430793714e-05
1.393419743175e-05
1.1899730837723e-05
1.0216976495637e-05
8.8176851004112e-06
7.6490398125685e-06
6.6668649510313e-06
5.8353726405593e-06
5.1278191777544e-06
4.5233350492093e-06
4.0041575931729e-06
3.5560935899228e-06
3.1679779492502e-06
2.8308900618866e-06
2.5371996940492e-06
2.2804375095772e-06
2.0550926205772e-06
1.8564992311657e-06
1.6807793536636e-06
1.5248049496599e-06
1.386062097411e-06
1.2593536177453e-06
1.3876442129111e-05
0.00052989679744591
0.00052086560531988
0.0002784777390453
6.1322711526896e-05
3.7020990933972e-05
2.7284935546304e-05
2.274464646568e-05
1.4183668541054e-05
1.4369660284671e-05
1.6536143003712e-05
1.8561761447086e-05
2.0371476689652e-05
2.1968705498264e-05
2.3374924642348e-05
2.4648626976699e-05
2.5851981468769e-05
2.7033301587821e-05
2.8200687280458e-05
2.9339331844429e-05
3.042970229306e-05
3.1418147056453e-05
3.2221351150632e-05
3.2830469845837e-05
3.3206888556779e-05
3.3361486417235e-05
3.3329937179217e-05
3.3110803284395e-05
3.2749177250215e-05
3.2301144578853e-05
3.1795939812031e-05
3.1272295796093e-05
3.0768795178444e-05
3.1238308040442e-05
3.093418547696e-05
3.0750784108225e-05
3.0644736715397e-05
3.0583251434257e-05
3.0496345976892e-05
3.0325029538932e-05
2.9986740129669e-05
2.9353392338587e-05
2.8368379107258e-05
2.7169412041533e-05
2.5772255349396e-05
2.422663005111e-05
2.2600492863316e-05
2.10259055939e-05
1.9665808723914e-05
1.8694621841014e-05
1.8458526338943e-05
1.8801929616495e-05
1.9639570080003e-05
2.1394096780112e-05
2.3151264866001e-05
2.5111578958588e-05
2.6326707304635e-05
2.7006339631879e-05
2.7255842427458e-05
2.6772268635304e-05
2.5960441168264e-05
2.4933227495785e-05
2.3813511194614e-05
2.2703479839178e-05
2.1669509042344e-05
2.0995407001633e-05
2.0683945793431e-05
2.0502887316493e-05
2.0525462532115e-05
2.0663586377807e-05
2.0928237158162e-05
2.119454767276e-05
2.1464101852596e-05
2.1703550764515e-05
2.1868684450312e-05
2.1979221616539e-05
2.1951259437314e-05
2.1834517969379e-05
2.1670131793184e-05
2.1458591379485e-05
2.1237353283646e-05
2.1024962732051e-05
2.0816423214331e-05
2.0649278942552e-05
2.0474644342016e-05
2.03949866325e-05
2.0294938488824e-05
2.3008269480032e-05
3.8427913682898e-05
0.0034320829739568
0.0024372984888686
0.0016627183341344
0.001258712667635
0.00097508788131322
0.00076322332792066
0.00060887696497047
0.00049999011283642
0.00041208330949897
0.00033733672643377
0.00027632002773211
0.00022769926556117
0.00018705489606656
0.0001539059754588
0.00012694733946827
0.00010505982170075
8.8167202451329e-05
7.4947036158589e-05
6.3957531611966e-05
5.4872018145715e-05
4.7413449577772e-05
4.1146728881277e-05
3.5684097058523e-05
3.1314566419257e-05
2.7650968739668e-05
2.4537919271307e-05
2.1876634746495e-05
1.9697222528377e-05
1.7814475391127e-05
1.6125420671508e-05
1.3708938133216e-05
1.1721042283906e-05
1.0075040798414e-05
8.7036182202288e-06
7.5552863496046e-06
6.5884900693559e-06
5.7691993629778e-06
5.0718659110709e-06
4.475368370208e-06
3.9624429443803e-06
3.5194698275987e-06
3.1357682141283e-06
2.8023307140778e-06
2.5115830658165e-06
2.2571406795675e-06
2.033701283487e-06
1.8366945708323e-06
1.6623056305633e-06
1.5076229804621e-06
1.3701131143703e-06
1.2466685333076e-06
1.0335922921779e-05
0.00050508137385377
0.00051384064146819
0.0002877139437151
5.6714264726792e-05
2.8938565878905e-05
2.0740864622142e-05
1.6711392122144e-05
1.0895358062402e-05
1.0888405013694e-05
1.2572773358599e-05
1.4248212762037e-05
1.5839995081897e-05
1.729730490525e-05
1.8550248765411e-05
1.9587205460338e-05
2.0477180966674e-05
2.1313324524162e-05
2.2174624422934e-05
2.3109411210865e-05
2.414112629166e-05
2.5285147067604e-05
2.6457424072885e-05
2.7508083228241e-05
2.8350266399599e-05
2.8940599909806e-05
2.9318387280647e-05
2.9433991818014e-05
2.9362675622667e-05
2.9136983016083e-05
2.880095744317e-05
2.8417800196044e-05
2.8028414709983e-05
2.8256093817317e-05
2.8056401212835e-05
2.7928363398777e-05
2.7856085134232e-05
2.7824718619118e-05
2.7779032887826e-05
2.7654741458571e-05
2.7371433840248e-05
2.6787947636297e-05
2.5898600240637e-05
2.4819762097553e-05
2.3578354494722e-05
2.221253804509e-05
2.0785144298998e-05
1.9451775166798e-05
1.8328506351182e-05
1.7622919879281e-05
1.748938464204e-05
1.7742009885013e-05
1.8406089722804e-05
1.9880525127585e-05
2.1461553862086e-05
2.3237169461195e-05
2.4582737540602e-05
2.5539081625587e-05
2.5810947526709e-05
2.5466272914178e-05
2.4836142557889e-05
2.4003087786826e-05
2.3050909788943e-05
2.2075034724982e-05
2.1146400484883e-05
2.0524143052963e-05
2.0194144707547e-05
2.0022509655407e-05
2.0036949227525e-05
2.0181290366655e-05
2.0395326292173e-05
2.0612036530936e-05
2.0820135249556e-05
2.1006754302033e-05
2.1160925139193e-05
2.1291876545799e-05
2.1368072565228e-05
2.1387532331912e-05
2.135006465803e-05
2.1305598433053e-05
2.127716056467e-05
2.1269520098594e-05
2.1318171964919e-05
2.1413206918794e-05
2.1580054021893e-05
2.1858021793672e-05
2.2139353364237e-05
2.6238851737318e-05
5.2830218767356e-05
0.0010921683606652
0.00096703203905278
0.0010172758075465
0.0010717597660699
0.0011258175571044
0.00096706803993408
0.0007427144130076
0.00057270641427647
0.00044284779317184
0.0003558665547972
0.0002893126806392
0.00023688552542483
0.00019450950042829
0.00015979314929577
0.00013159349328097
0.00010882023853486
9.0369868187571e-05
7.5652574196679e-05
6.3842564252525e-05
5.4305707206716e-05
4.651097562876e-05
4.0157690652109e-05
3.5010019281928e-05
3.0548830015977e-05
2.6889017455725e-05
2.38027242768e-05
2.1190832930123e-05
1.889664369057e-05
1.700697786476e-05
1.5386213769221e-05
1.3435599310827e-05
1.1508035282926e-05
9.9079891978957e-06
8.5707290031906e-06
7.4479811788749e-06
6.5012660327823e-06
5.698468772923e-06
5.0132232529601e-06
4.425999617277e-06
3.9211449225586e-06
3.4848908333579e-06
3.1064098934488e-06
2.7769778760597e-06
2.4894456509143e-06
2.2376415228776e-06
2.01639938267e-06
1.8212073606466e-06
1.6484124292141e-06
1.4951518940562e-06
1.3588585189597e-06
1.2372998105921e-06
7.3648940920131e-06
0.00047348640677196
0.00050468541388823
0.000298112070374
5.2906521012572e-05
2.2252102535365e-05
1.6995774018489e-05
1.4554674186197e-05
9.9765101596387e-06
9.9253252903389e-06
1.142095867814e-05
1.2821525787973e-05
1.4021790198863e-05
1.5105334924034e-05
1.610284872372e-05
1.6952711556142e-05
1.7645451450243e-05
1.8268717389906e-05
1.8914338917689e-05
1.9636392712398e-05
2.0464960518294e-05
2.1422205698185e-05
2.2544813589447e-05
2.3837360417578e-05
2.5077376892288e-05
2.6040101553142e-05
2.6693097667095e-05
2.7052774690875e-05
2.7149998298105e-05
2.7042662091818e-05
2.6792781111566e-05
2.6479640529279e-05
2.6147626602262e-05
2.6278323476057e-05
2.6100978447081e-05
2.5984263156101e-05
2.5929045330834e-05
2.5905620913079e-05
2.5871472183444e-05
2.5763109313481e-05
2.549756998666e-05
2.4925204158427e-05
2.4087343520463e-05
2.3076912636675e-05
2.1916774169132e-05
2.0651608076495e-05
1.9372086107178e-05
1.823980507209e-05
1.7306338935021e-05
1.6876063321634e-05
1.6783234028731e-05
1.7010743044902e-05
1.7534640162317e-05
1.8752227064764e-05
2.0120094392007e-05
2.1668956633267e-05
2.3054847005013e-05
2.4197838654609e-05
2.464020720432e-05
2.4376635080755e-05
2.3879798499496e-05
2.3213686180618e-05
2.2421861615159e-05
2.1596104510291e-05
2.0782063735604e-05
2.0271735336952e-05
1.995093107333e-05
1.984004272833e-05
1.9907133785339e-05
2.0094041924059e-05
2.0351301897842e-05
2.0657521680846e-05
2.0999559130531e-05
2.1390555656181e-05
2.1761410192737e-05
2.2168652923319e-05
2.2470340593934e-05
2.2856473333597e-05
2.3246162489837e-05
2.3677705340534e-05
2.4187791737006e-05
2.4772689911086e-05
2.5493410622138e-05
2.6363023268086e-05
2.7423940389e-05
2.8674936552984e-05
3.0024200384252e-05
3.6288725489287e-05
9.355931773627e-05
1.3651461102059e-05
0.00019568365927414
0.00028659146136644
0.00038851881496991
0.00048071344315011
0.00056157423337775
0.00063611221689054
0.00068593982022654
0.00053009700910048
0.00041236667880853
0.00032781582535594
0.00026410733223285
0.00021493785296518
0.00017544181131078
0.00014358705333333
0.00011805118006234
9.7461268666024e-05
8.0860303341522e-05
6.7492893486476e-05
5.675950350365e-05
4.8189076785699e-05
4.1266851196711e-05
3.5635485770107e-05
3.1106880732189e-05
2.7258608736465e-05
2.400393887102e-05
2.1339529077785e-05
1.9063206745508e-05
1.7052117630938e-05
1.5319559014901e-05
1.364575624869e-05
1.1695119262629e-05
1.0074414445648e-05
8.7196950875452e-06
7.5801175923908e-06
6.617641450281e-06
5.8010050755691e-06
5.1042833698667e-06
4.5073314805608e-06
3.9932402594739e-06
3.5484715371105e-06
3.1627898059459e-06
2.8272279414626e-06
2.534230517027e-06
2.2775002800477e-06
2.051783393821e-06
1.8527292183699e-06
1.6766356187191e-06
1.5202714388975e-06
1.3812919115449e-06
1.2575206372321e-06
1.4731541077645e-06
0.00024996858845269
0.00050999568987021
0.00037242206126946
8.8507059216964e-05
2.1776505313579e-05
1.8984088471887e-05
1.8173705732618e-05
1.4508507408675e-05
1.2805779807371e-05
1.4127089534174e-05
1.4799254940543e-05
1.4766312461126e-05
1.4997863871292e-05
1.542566174162e-05
1.5825178646471e-05
1.6330600053933e-05
1.6782185861527e-05
1.7200452399098e-05
1.7688465704195e-05
1.8306716665924e-05
1.9081420782439e-05
2.0042051849331e-05
2.1196055613284e-05
2.2544003792724e-05
2.3840104614676e-05
2.4753763299926e-05
2.5310303511006e-05
2.5541436821343e-05
2.5526312839454e-05
2.5350725037203e-05
2.5094451473818e-05
2.4809220963667e-05
2.4783229245899e-05
2.4605750812772e-05
2.447712188175e-05
2.4414374593241e-05
2.4366337522598e-05
2.429441124846e-05
2.415763707365e-05
2.3872013690473e-05
2.3289548086333e-05
2.2482741642008e-05
2.1518658426698e-05
2.0436101421121e-05
1.9293889362656e-05
1.8220288976435e-05
1.7250712511883e-05
1.6577086216933e-05
1.6326554681727e-05
1.6233560349394e-05
1.6455427791391e-05
1.6825265511922e-05
1.7568780513742e-05
1.8705506826689e-05
2.0014574723366e-05
2.1378149477046e-05
2.2648946556285e-05
2.3258714731265e-05
2.3393045477774e-05
2.3143603217624e-05
2.2636486283031e-05
2.2093410874191e-05
2.1522298458842e-05
2.1034955249221e-05
2.0863928883061e-05
2.0844528918057e-05
2.106298089113e-05
2.1459718973716e-05
2.2042025249828e-05
2.2773432426311e-05
2.3662213009148e-05
2.4700652725754e-05
2.589481025665e-05
2.7152867595962e-05
2.8509575875274e-05
2.9883642249063e-05
3.1349433756275e-05
3.2890742863078e-05
3.451306876627e-05
3.6293429270135e-05
3.8212868935879e-05
4.0345121415673e-05
4.2719968810075e-05
4.5328260409836e-05
4.8145713572261e-05
5.1179657082279e-05
7.5116068263108e-05
0.00018819098290607
3.0632492023316e-06
2.2260668459282e-05
4.8353951480401e-05
7.8883066528368e-05
0.00011590769322301
0.00015894375630385
0.00020350670909232
0.00024908486811867
0.00029065718391843
0.00031796566825825
0.00032479401930486
0.00027151698467424
0.00021820098608044
0.00017676715189605
0.00014399422537145
0.00011790732493405
9.6752561013015e-05
7.9807028939866e-05
6.6319868312158e-05
5.552080562447e-05
4.685949172199e-05
3.9883352230791e-05
3.422716359767e-05
2.960469442042e-05
2.5833740601731e-05
2.2771398920711e-05
2.0155759715636e-05
1.7900162975465e-05
1.6058545762771e-05
1.4483729314778e-05
1.2437179214622e-05
1.0713281350573e-05
9.2681210808819e-06
8.0571788260111e-06
7.0334952266342e-06
6.1649808409794e-06
5.4230478466319e-06
4.787329546766e-06
4.2402232271055e-06
3.7668924720291e-06
3.35613201528e-06
2.9988922377871e-06
2.6867787225141e-06
2.4134422432382e-06
2.1731470169712e-06
1.9612742556586e-06
1.7738681878349e-06
1.6077499004201e-06
1.4600495900147e-06
1.3283718831726e-06
1.2108005672202e-06
2.0612920720633e-06
0.00031570940930687
0.00045979303236957
0.00032774514253287
7.0700932029207e-05
3.4015507258239e-05
5.1293306780624e-05
5.6415142711473e-05
4.3484048980623e-05
4.6126044860243e-05
5.3059830011273e-05
5.4127036172853e-05
4.602405322314e-05
3.3114510662608e-05
2.2454841390177e-05
1.704947718086e-05
1.5848915306101e-05
1.5618974551737e-05
1.575089974038e-05
1.5914835797374e-05
1.6308787893951e-05
1.7006572124322e-05
1.797844314414e-05
1.9197929534273e-05
2.0668145715254e-05
2.2116525505634e-05
2.3048932590317e-05
2.3541482690108e-05
2.3727610052223e-05
2.3714941639303e-05
2.3595017586412e-05
2.3338746893885e-05
2.2974451981721e-05
2.279466076477e-05
2.242856022297e-05
2.2148024683689e-05
2.1985178912789e-05
2.1834614588622e-05
2.1685535892868e-05
2.1494589254154e-05
2.1123599110171e-05
2.0507202871629e-05
1.9749947029343e-05
1.8900596937662e-05
1.7995310457642e-05
1.7141834920449e-05
1.6410882641098e-05
1.5921118079918e-05
1.571143721242e-05
1.5666875148661e-05
1.5751446510262e-05
1.5978028405413e-05
1.6390526257443e-05
1.7957925536695e-05
1.934431500267e-05
2.095830904706e-05
2.2728169868013e-05
2.4514688302156e-05
2.5864702342531e-05
2.6563291626485e-05
2.7133420331432e-05
2.7262022929303e-05
2.7259927251264e-05
2.7325892956106e-05
2.7487186807871e-05
2.8014214893937e-05
2.8900755445381e-05
3.0247360126072e-05
3.1926635215179e-05
3.4031621903047e-05
3.6462142786618e-05
3.9179247001419e-05
4.2117752229923e-05
4.5268133894042e-05
4.8540557848085e-05
5.1890538728828e-05
5.5239251281468e-05
5.8683499564013e-05
6.2254816891996e-05
6.602487749823e-05
7.0062689796803e-05
7.4352623786847e-05
7.8862479612102e-05
8.3690818587242e-05
8.8611547247341e-05
9.3758111453631e-05
9.9032002710425e-05
0.00013365409208144
0.00026786081773705
2.8092338718809e-06
7.2881300388767e-06
1.450146776145e-05
2.4527611040302e-05
3.8044192850471e-05
5.4898884060443e-05
7.5115919291863e-05
9.8174783114985e-05
0.00012332587877853
0.00014877345732392
0.00016908496996432
0.0001803404214394
0.00018008114582665
0.00016779393831311
0.00014475204690579
0.00011835162644397
9.7588075022133e-05
8.0806023544049e-05
6.7207173857995e-05
5.6222987141574e-05
4.7377411194173e-05
4.0264880921667e-05
3.4489261184926e-05
2.9757021365943e-05
2.5850338180257e-05
2.2616146986643e-05
1.9924841981741e-05
1.7688191074442e-05
1.5815730549614e-05
1.3621299658966e-05
1.1724733949018e-05
1.0138055826458e-05
8.8017601118028e-06
7.6734609093459e-06
6.7158808834811e-06
5.8997904605083e-06
5.2025961674608e-06
4.604067779898e-06
4.0861323519181e-06
3.6373997977014e-06
3.2478602439486e-06
2.9076598518028e-06
2.6098433725491e-06
2.3481539466537e-06
2.117325485164e-06
1.91353752399e-06
1.7331549364328e-06
1.5728591273089e-06
1.4300591509939e-06
1.3026624184077e-06
1.1888051614776e-06
1.149817265088e-06
0.00014646705032967
0.00041266873969615
0.00033533168228825
0.00011676822583673
7.45980426511e-05
0.00010472760960379
0.00010524067347387
8.3699232437778e-05
8.7753550165988e-05
0.00010458656852832
0.00011902787949761
0.00012250730081809
0.00010776548625931
7.1840929482128e-05
4.044093179977e-05
2.2557184104845e-05
1.6146915904585e-05
1.5129940293738e-05
1.5024933803339e-05
1.5167297296239e-05
1.5782543351219e-05
1.6827253549747e-05
1.8206294748439e-05
1.9738010360364e-05
2.109301013871e-05
2.1940826863822e-05
2.23665498794e-05
2.2377535531501e-05
2.2156063084093e-05
2.1768206158321e-05
2.1292174279552e-05
2.0810916706205e-05
2.0735532585679e-05
2.0329334237823e-05
2.0060993082767e-05
1.9962379639288e-05
1.9929839685786e-05
1.9918201993073e-05
1.9828463779031e-05
1.9627623489616e-05
1.9287825474589e-05
1.8812943233931e-05
1.8228980161643e-05
1.7644358317403e-05
1.7145004524688e-05
1.6885187984606e-05
1.6892319107355e-05
1.7085107440526e-05
1.7374784331732e-05
1.7828510880411e-05
1.8558461206527e-05
1.9916186949469e-05
2.4487824681467e-05
2.672895936181e-05
2.9274371668177e-05
3.2118709651826e-05
3.5062887267917e-05
3.8050482286678e-05
3.9959027340097e-05
4.1552201327576e-05
4.2829647665381e-05
4.4005736022226e-05
4.5344778478789e-05
4.6991284225032e-05
4.9101334646918e-05
5.1725681809299e-05
5.4840030603395e-05
5.8413313312098e-05
6.2351664658939e-05
6.6573092469224e-05
7.0999049416525e-05
7.5523465885989e-05
8.0162111410437e-05
8.4835510894267e-05
8.9517997533701e-05
9.4182358227248e-05
9.8795041603705e-05
0.00010340821125707
0.00010802460839348
0.00011275484510736
0.00011760580827581
0.00012248258037528
0.00012744701291744
0.00013233265323442
0.00013729905801732
0.00014267825890968
0.00017800730059746
0.00031468056403199
2.5012928605991e-06
4.5485041993582e-06
6.555702936388e-06
1.0657622758059e-05
1.6397714510613e-05
2.4000028647767e-05