/*--------------------------------*- C++ -*----------------------------------*\
| =========                 |                                                 |
| \\      /  F ield         | OpenFOAM: The Open Source CFD Toolbox           |
|  \\    /   O peration     | Version:  2312                                  |
|   \\  /    A nd           | Website:  www.openfoam.com                      |
|    \\/     M anipulation  |                                                 |
\*---------------------------------------------------------------------------*/
FoamFile
{
    version     2.0;
    format      ascii;
    arch        "LSB;label=32;scalar=64";
    class       volScalarField;
    location    "4e-05";
    object      cSound;
}
// * * * * * * * * * * * * * * * * * * * * * * * * * * * * * * * * * * * * * //

dimensions      [0 1 -1 0 0 0 0];

internalField   nonuniform List<scalar> 
109340
(
546.40506429399
545.70863576184
543.96975604117
541.77181453047
539.28656267475
536.63412922079
533.81628631957
530.7985297978
527.56158577697
523.96789074875
519.84760438463
515.05382679162
509.4375375067
502.8473099116
495.13610170605
486.16998421015
475.83468791487
464.04452946586
450.74961373996
435.94194916504
419.6596535667
401.99110004455
383.07426173909
363.08993408794
342.25170113145
320.79179447727
298.94535054266
276.93381045714
254.9491415217
233.13955864556
211.59638721297
190.34042827311
169.30860406363
148.35585213993
127.29752780557
106.00035515703
546.68889442834
545.665060604
543.66100758217
541.28420283299
538.70978238
536.03443794612
533.2364957141
530.24224548273
526.9477229898
523.23269788199
518.95712590419
513.97474601799
508.13430177721
501.28359482205
493.27684403787
483.98239107627
473.29280757763
461.13023433059
447.45404998153
432.2669429222
415.61913629369
397.61143494274
378.39357049977
358.15618969335
337.11965137581
315.51935514347
293.58950249296
271.54649736109
249.57348774125
227.80621570443
206.31976435669
185.11200049128
164.08446270202
143.03528944115
121.64587501542
99.772032114986
547.32592025924
546.07117704991
543.82316521002
541.38191384084
538.83640287183
536.21113966479
533.43998510482
530.44963664184
527.15515108854
523.44026963335
519.16745819715
514.18940602533
508.35358186
501.50694810803
493.50357638718
484.21246841373
473.52550641141
461.36461125059
447.68832409779
432.49864439967
415.84441485322
397.82568596134
378.59151456535
358.33275277475
337.26996039316
315.63936556318
293.67641255923
271.59913612158
249.59246122668
227.79371098085
206.27909390829
185.04429438178
163.97277805643
142.80587741755
121.06999864073
98.188066899619
548.21326557905
546.61108134171
544.23041928291
541.7087603327
539.10926525674
536.43043498252
533.62360139716
530.61539785607
527.31336101906
523.59909053305
519.3347453382
514.3713383267
508.55401539405
501.72757894669
493.74348332035
484.46794578676
473.79038689712
461.63038077577
447.94342218258
432.7296369257
416.03458259606
397.95719837025
378.64649531116
358.29479632393
337.12561574863
315.37910788363
293.29571314035
271.09918991582
248.9803835233
227.08207534232
205.48504823856
184.18934673328
163.05836193126
141.76817821601
119.61960722184
95.212683822472
549.60951876098
547.3972107075
544.60634153107
541.88418985794
539.20581110539
536.5065279427
533.70668975615
530.72449101603
527.45619731526
523.77706187726
519.547039997
514.61288882667
508.81382215906
501.98672846685
493.97354007755
484.62985282999
473.83403270066
461.4946659905
447.54927099779
431.99906175927
414.8819434883
396.30113684129
376.41490246774
355.43421765967
333.6053644136
311.19681080977
288.4795305945
265.70850962683
243.10436982929
220.83659270989
199.00490542659
177.645137662
156.60885633514
135.54201667527
113.52357156824
87.895486086546
552.19857059676
547.81194389805
544.69376845899
541.90525978603
539.22023543814
536.5115830752
533.67110521597
530.5803529032
527.09977568487
523.05820890724
518.26215497482
512.49951780172
505.54945191971
497.1941620745
487.23277272809
475.49682413165
461.86942220865
446.31220320896
428.88318361836
409.61327504621
388.69796891848
366.40895214869
343.08529130291
319.1103692562
294.88092226884
270.77707477282
247.13544375321
224.23008012615
202.26012291999
181.34367807719
161.51608626273
142.73615917457
124.81296680598
107.37668347458
89.509673431141
67.989302477302
85.239080050521
67.309183909816
53.847370442134
44.60676969337
38.465052042917
34.304355417956
31.507898875505
29.691303617822
28.608739783499
28.103056817426
28.028791760566
28.359847824549
28.984757035416
29.776613167642
30.692640525805
31.665618971172
32.654491147697
33.629088452821
34.567436045189
35.458872062457
36.298909562057
37.085028169645
37.817644865098
38.499586529116
39.13413734694
39.724488096885
40.274285324405
40.787120093119
41.266027027017
41.714037104692
42.133837994091
42.527932482573
42.898501273197
43.247475758323
43.576717853574
43.887897278006
44.18245732936
44.461731042536
44.726966699765
44.979248424286
45.219494493349
45.448528326011
45.667120340406
45.876010094777
46.075903858716
46.267439465235
46.451156351526
46.627550374624
46.797110251641
46.960203172507
47.117129728963
47.275656735226
48.308020546943
49.579673183987
51.298234489097
52.625846860128
52.638762803947
52.595929279692
52.563444473229
52.478353054083
52.438108129233
52.44317371647
52.445970738377
52.447013960475
52.446450607138
52.444278782057
52.440823276598
52.436540211335
52.43210962458
52.428077586893
52.424749177963
52.42235016411
52.421092840428
52.421047138392
52.421468819413
52.422135084534
52.423815630339
52.426599823736
52.430347557482
52.434983226929
52.440680582002
52.447372908209
52.45503048514
52.463830919082
52.469146299306
52.480779446256
52.493851416005
52.50823279217
52.522867088539
52.537011247932
52.550443315144
52.562629633704
52.573287149077
52.580677586211
52.585890521532
52.588897491244
52.590384227069
52.591597560316
52.593548990117
52.597356483579
52.604001817732
52.619194304769
52.642523402326
52.671760149746
52.714405625413
52.7455333287
52.772617440769
52.792109880636
52.808723389477
52.823156005367
52.83162795309
52.836769115865
52.83953395227
52.841038397375
52.842880639999
52.84785502141
52.856171501516
52.868895195275
52.88271787927
52.897690881854
52.913949530568
52.932031358393
52.95074320054
52.968768256576
52.985850939122
53.001574615661
53.016145519969
53.029001289692
53.039771414181
53.049644938782
53.05859713658
53.067363453197
53.076333533383
53.085351364456
53.094551515446
53.103684634181
53.112599265773
53.120293418712
53.016284739049
36.94443283033
78.248738617117
60.707418085423
48.611010760036
40.85554837186
35.763894164429
32.399971286206
30.223516461818
28.889196907553
28.182738815991
27.956653551415
28.107834992327
28.55113503305
29.241196175125
30.077766122514
30.998996996322
31.967916378497
32.943247485757
33.899112802672
34.818784659523
35.691708449987
36.512958659606
37.281595470196
37.998666220296
38.666195673223
39.287355330723
39.865653448246
40.404680361265
40.907689971994
41.377836562356
41.81793953503
42.230628277197
42.618295660252
42.983069867229
43.326860305635
43.651413160338
43.958324837431
44.249034817366
44.524838585301
44.786903303916
45.03627016201
45.273846468599
45.500427002099
45.716762834717
45.923590271489
46.121580845899
46.311336234061
46.493422722323
46.668315824056
46.836398250313
46.998114468554
47.153927634922
47.34825395696
48.591887149409
49.932415208407
51.733754042538
52.642553546678
52.600278227314
52.55057679726
52.510860598533
52.410397108824
52.390031857303
52.392626422841
52.392331720302
52.390652157641
52.387479198641
52.382867561986
52.377115477881
52.370762034167
52.364605386666
52.359243944684
52.354988403804
52.352076369561
52.350759283843
52.350940345394
52.351458388091
52.352976733149
52.355833490106
52.359964399664
52.365056501728
52.37123001399
52.37844869877
52.386619013294
52.395784084087
52.406146614434
52.428671126902
52.441160396762
52.455186377651
52.470730364186
52.486399996728
52.501521819056
52.515817961748
52.528768107596
52.53992582356
52.547915965642
52.553968726785
52.558237051354
52.560902584994
52.563076087624
52.565883029022
52.570534518672
52.578075770902
52.593317449641
52.616324155725
52.644228750682
52.682702929653
52.713257563665
52.741872799393
52.76227305966
52.779093803078
52.793227111963
52.801596827715
52.806897922774
52.809930469198
52.811821955986
52.81401465682
52.818658564299
52.826930683958
52.839369043183
52.852753054365
52.867115352373
52.882618165015
52.899570450489
52.916250852042
52.932157778974
52.946995276244
52.960485926605
52.972317483063
52.9830060589
52.992187068126
53.00092300474
53.008967547635
53.016787917063
53.024609369819
53.032278692841
53.039914662115
53.04724870159
53.054473753473
53.060623189641
52.971025096187
39.096951027716
74.54594691043
55.843903244992
44.542717967361
37.442454044215
33.264680368114
30.682881341611
29.088087396655
28.20567124707
27.836733250136
27.819143231056
28.175700740859
28.721253799907
29.437534224189
30.276030664985
31.187725412963
32.134794856334
33.086251242844
34.019886588556
34.920040876953
35.77594087166
36.582933151197
37.340096939061
38.047734159625
38.707583352335
39.322542392334
39.895853598725
40.430601282954
40.929968132227
41.39699850129
41.834437671965
42.244841563892
42.630537073806
42.993624654237
43.335970510088
43.659265676574
43.965076433205
44.254833202786
44.529811521727
44.791153603951
45.03988931357
45.276920664999
45.503035322994
45.718974092191
45.925459161582
46.123151986547
46.312653792743
46.494525240669
46.669233572366
46.837154782736
46.998757505661
47.154461654728
47.341033722674
48.56262025961
49.888078998203
51.671914283285
52.61695792585
52.56370916105
52.503999353459
52.455997682704
52.354515042866
52.329444106254
52.329027471711
52.326293339678
52.32233350553
52.316919134107
52.310035668339
52.302024456094
52.293505780022
52.285423746888
52.278536688114
52.273180129694
52.269581203198
52.268027105587
52.268141286143
52.268987439578
52.271485245006
52.275563074578
52.280990541211
52.2874211472
52.294979205488
52.303453973528
52.312812957283
52.323119410569
52.334582003758
52.361728900534
52.375523834306
52.390753215096
52.407063500064
52.423380186875
52.439245168525
52.454367779641
52.468271222641
52.480016123476
52.488659066655
52.495714873703
52.501185771125
52.505443277853
52.509370448416
52.51384807312
52.520314660653
52.52990706215
52.544612320889
52.567639198372
52.593922289244
52.630143635694
52.659738569909
52.687396556523
52.706580020512
52.722641160112
52.735956321979
52.743287354503
52.747951923162
52.750980453919
52.753536080606
52.756845286959
52.761745354217
52.770299931044
52.78235076982
52.794571587961
52.808169233678
52.82223967246
52.837217188532
52.851077771592
52.8644025905
52.877008970928
52.888450499099
52.898801974949
52.907985282121
52.916072999077
52.923749039296
52.93038788736
52.936502384211
52.942186535664
52.947344726532
52.95227049965
52.956755242723
52.961236376555
52.964567736357
52.876887566581
40.427242117868
67.610526083347
47.878937699969
38.335199141497
32.9229975075
30.157200347887
28.633314966728
27.839243189242
27.532962411651
27.566272313461
27.845056071537
28.345915200615
28.978614980916
29.718997220629
30.548318367021
31.433481696748
32.350076767042
33.272439030309
34.177680153565
35.052325614731
35.887396787576
36.677225031127
37.419262248401
38.114537723074
38.764715321777
39.371630318806
39.938057321711
40.467294971027
40.962116639588
41.425227233923
41.859229253143
42.26669622181
42.649870949692
43.010790851027
43.351255853146
43.672918096177
43.977298903514
44.265769344864
44.539590218094
44.799904266699
45.04771172815
45.283904947463
45.509273131447
45.724554225053
45.930455543848
46.127625393043
46.316661240915
46.498114708651
46.672439603991
46.840019372659
47.001342183477
47.156766094328
47.333963130334
48.52278312104
49.826950073167
51.583741551653
52.584798004702
52.521844688321
52.453609528791
52.398860108556
52.298807267494
52.270124236815
52.267805850598
52.263811283647
52.258363855561
52.251111929723
52.24202380899
52.231677072232
52.220941174864
52.210924625538
52.202575163331
52.196246648955
52.192129475606
52.190514084196
52.190539439054
52.192201590649
52.196043665722
52.201498205205
52.20824089606
52.21590574082
52.224501783225
52.233793990756
52.243840362765
52.254733087265
52.2666566226
52.292773065325
52.307373306774
52.323062629992
52.339645598605
52.356337649909
52.372689626511
52.388325499165
52.402681886693
52.414547645092
52.423605089232
52.43120010806
52.437510096558
52.443024549686
52.448320777527
52.454453366286
52.462637222175
52.474314679147
52.490823362586
52.51134170651
52.535495722828
52.569166412688
52.596803329063
52.623160530634
52.641835213415
52.657602659344
52.670013652314
52.676890457913
52.681603561853
52.685224078347
52.688715855439
52.69284756013
52.697859653566
52.706207277761
52.71749993806
52.728774736067
52.741537498778
52.754779842751
52.768663796575
52.781563260817
52.79365634783
52.805056252263
52.815557382113
52.82520796948
52.833915832034
52.842193141033
52.850453957244
52.858694592515
52.867509887923
52.877231396192
52.888133688513
52.900995052005
52.916085495934
52.934492526915
52.955376467837
52.886083110677
39.89927702856
52.874721491024
35.733070040188
30.618694366205
28.152394336955
27.243090735075
26.917582362182
26.949036100085
27.205455508255
27.582879382241
28.095315560218
28.677376285012
29.342961209771
30.084529749579
30.890947602672
31.743493846446
32.619753282321
33.501847047722
34.372403004008
35.216726123982
36.025444989324
36.793239662823
37.517826096079
38.198289177075
38.835797578097
39.432681151035
39.990998552447
40.513285263164
41.002231360312
41.46049517349
41.890456485917
42.294382835958
42.674510525113
43.032820549987
43.371092501385
43.690830732576
43.993515315595
44.280480118082
44.55295839088
44.812049756328
45.058744541481
45.293940585008
45.518427142916
45.732915594676
45.938097288028
46.1346152635
46.323060939489
46.503972906522
46.677788952916
46.844916897439
47.005845590048
47.160851663905
47.32868980896
48.472790296754
49.750522405346
51.47234564827
52.549769780171
52.481744955119
52.406615197668
52.345479290588
52.247738086155
52.21638316694
52.212780692107
52.208757891311
52.203271699395
52.195454499835
52.184819079305
52.172175074593
52.159153391226
52.147123670026
52.137220556728
52.129915002339
52.125373704431
52.123702732473
52.123907470902
52.126971894791
52.132477266851
52.1394273095
52.147517738268
52.15628930693
52.16562374066
52.175459023492
52.185910363459
52.197139705279
52.20928110212
52.233330906839
52.248148529298
52.263871172928
52.280261599517
52.296909604449
52.313348193041
52.329097494421
52.343555243738
52.355335901487
52.364545757042
52.372379399194
52.379130295953
52.38522774461
52.391290501293
52.398784987017
52.40830364613
52.421977261157
52.439233622067
52.458121792935
52.480186615263
52.510619758519
52.536250580888
52.560553162959
52.580771514853
52.597811463935
52.6108397316
52.618598058077
52.624216181149
52.628783594413
52.633057682262
52.637798323862
52.643427318534
52.651833535994
52.662524646515
52.673821853109
52.686916794441
52.701080727863
52.716622595124
52.733284168791
52.75189200352
52.772985773559
52.79710177881
52.824466481273
52.854842153211
52.88863212265
52.92612480907
52.96815915793
53.01633828546
53.072570107502
53.139082056863
53.218520969279
53.312741841689
53.424883417163
53.553917441868
53.593410204363
39.72502913017
26.325586517616
24.35990992278
24.704218351219
25.296752526413
25.841774467937
26.353566415376
26.863015732492
27.399026629457
27.940523547048
28.514943146101
29.135809846343
29.806196963235
30.528760663647
31.298276032539
32.10576259357
32.936166846576
33.773152675471
34.602156121326
35.410588871385
36.189248958085
36.931804782525
37.635034872036
38.298138726028
38.921393107107
39.506040626964
40.054272620977
40.568287781974
41.050330174731
41.50265254276
41.927664775571
42.327448262555
42.704032108608
43.059243577499
43.394832662609
43.71229860603
44.012982536636
44.298219193834
44.569138400782
44.826813335759
45.072257283975
45.306347360951
45.529849813313
45.743452586723
45.947824984021
46.143603365257
46.331381095301
46.511674532295
46.68490923994
46.851525502247
47.011981453036
47.166474548287
47.32595880634
48.412595688501
49.660411748832
51.340771818827
52.513299873104
52.443599465267
52.357525824298
52.285829748959
52.188378154677
52.155200999262
52.151906047074
52.150777543518
52.148532708595
52.143193095859
52.133744058388
52.120507768629
52.105760150324
52.091941648969
52.080368527153
52.071845249817
52.066636080545
52.064780407586
52.065431390229
52.070195702989
52.077580440105
52.086206773552
52.095608541893
52.105260478285
52.115114899198
52.125288784708
52.136015218806
52.147504958989
52.159831052727
52.18259444546
52.197227318677
52.2128385927
52.229101437271
52.245717926624
52.262187976075
52.277981181126
52.292410710065
52.303969962017
52.313241115976
52.32121253834
52.328142897606
52.334579709284
52.341515537314
52.350334916081
52.361149644854
52.376577479667
52.393303676462
52.41071892315
52.430088269184
52.4588072599
52.484946378668
52.511343333687
52.535288008062
52.555878294479
52.571437398452
52.581923559307
52.590590480036
52.598319777406
52.605860058864
52.614188451822
52.6237604538
52.63691555703
52.654020270552
52.675634711487
52.703572196469
52.739816050688
52.785785372172
52.843259431603
52.914082005843
52.998943024672
53.097363655421
53.209547744751
53.335174479118
53.476904028306
53.635689139326
53.814564464059
54.018608214922
54.252773857799
54.521094538532
54.829112044128
55.178675902453
55.574245580818
56.011420300344
56.354003247083
41.64643001114
26.043654992363
22.913473211144
24.171278243263
25.150297065552
25.970464265169
26.653931423998
27.24944936967
27.818610253033
28.382205991698
28.952771811846
29.551866905886
30.187151903897
30.861046950069
31.574034029878
32.321712514969
33.095213605523
33.881310081839
34.667577585313
35.441425753719
36.192928232476
36.915175718004
37.603731075432
38.256130053135
38.871981117166
39.452044949771
39.997146424915
40.509299205872
40.990614055683
41.443160313495
41.868745386855
42.269468847327
42.64732714877
43.003987929764
43.341072285269
43.660120205348
43.96245446993
44.249313784479
44.521872524226
44.781137989342
45.028073179236
45.263596641801
45.488521801631
45.703525624855
45.90923909889
46.106284051356
46.295240667158
46.476638719977
46.650973928285
46.818640869091
46.979967579726
47.135452884205
47.28402171211
48.017317410188
49.222103896892
50.750260128428
52.350615801055
52.43325705539
52.318368792681
52.220592326531
52.122256764251
52.064472911023
52.059592530116
52.067175351509
52.077661188758
52.084593524823
52.08394823026
52.075493661763
52.061826801703
52.046453153869
52.03245955988
52.021558347414
52.014638565204
52.011882545585
52.012515248389
52.018389577095
52.027461091861
52.037758601299
52.048195009931
52.058478985497
52.0686502965
52.078956803492
52.08971762662
52.101135235146
52.113341447764
52.138155543883
52.152673121606
52.168217155282
52.184454687388
52.201049110605
52.217429618631
52.233188549924
52.247515973689
52.25888737279
52.268204309069
52.276166178317
52.283171633079
52.289958717467
52.298068011444
52.307591407078
52.3199639012
52.335843192296
52.350595934682
52.368622109263
52.386178747926
52.401209455286
52.437086887215
52.479629550503
52.527276280209
52.57692356521
52.621778123502
52.662105965802
52.69651754926
52.725926895158
52.75627717293
52.791039426776
52.833833293891
52.892707674582
52.972140622867
53.079850494907
53.222610023326
53.407158678679
53.637648931371
53.917104676558
54.247053849551
54.626310263597
55.055042012815
55.530758262315
56.052629836818
56.618714421041
57.227101988459
57.880207092825
58.579334221312
59.327744417477
60.128181678621
60.980908730935
61.879643251401
62.828158681005
63.801972543558
64.512154465152
46.448208437334
34.375623499081
28.830970398088
28.521475869635
28.542411959193
28.710519883658
28.962614805605
29.290582236203
29.692556958964
30.106947324458
30.566630620796
31.068003460107
31.604114975953
32.174594168466
32.781108783751
33.420204561493
34.085322156338
34.766886910544
35.454310949647
36.138452965631
36.809759096467
37.460924995286
38.08740353418
38.686035296255
39.255299967903
39.794776507495
40.305022189682
40.787070637827
41.241948669631
41.671243032249
42.076795959755
42.459883257316
42.822152967978
43.165017158414
43.489864121652
43.797924710607
44.090488394688
44.368610969358
44.633327204186
44.885545384963
45.126077096326
45.355755314818
45.575375359858
45.785560520444
45.986885983511
46.179914132255
46.365176995739
46.543135760492
46.714265408421
46.878990404945
47.03759892599
47.19047747765
47.336956830455
48.165767205652
49.327974887698
50.85449551839
52.33337974255
52.285860545198
52.120858561612
52.010126533696
51.900891118272
51.851177936939
51.834305868249
51.83311767688
51.853657012596
51.898392272973
51.947412114457
51.966330205956
51.963479509299
51.949670349085
51.933906034171
51.923014001768
51.918581395236
51.919805514945
51.928804617012
51.942157804647
51.955432077416
51.967123276587
51.978098772917
51.988744574916
51.999273630527
52.009986439451
52.02115996449
52.033132899174
52.046063155596
52.065672050169
52.080018392682
52.095793218981
52.113679824614
52.1313686513
52.148799505059
52.165201810383
52.178992693476
52.189665488336
52.198924807158
52.207174955208
52.21505172622
52.223882535962
52.234299817183
52.247165481137
52.262520102017
52.278987529681
52.298039910658
52.32032130461
52.356111549299
52.545334309244
52.714049059138
52.922499894609
53.16352689577
53.425377377157
53.690893109109
53.95378935254
54.204018562838
54.450502754466
54.701737221686
54.977934936918
55.300728175971
55.700321932093
56.199804087412
56.81635705834
57.558543032166
58.428241505211
59.417280677046
60.520276273536
61.718215361296
62.979123730358
64.286588698528
65.640140572771
67.025121206937
68.412424265242
69.79409091312
71.173017079653
72.544962346167
73.905160735548
75.250850806207
76.565056448639
77.841953415337
79.067802610086
80.248638255275
80.374986328612
62.122755246773
37.82852091998
32.667359657777
31.981607960853
31.683669254902
31.534301746045
31.48670225325
31.541961881342
31.683293771613
31.905958422905
32.204596251456
32.543159225786
32.936533062488
33.381816146305
33.868792294511
34.390516291358
34.943137324372
35.51928692918
36.11021881233
36.706724808422
37.300925025246
37.885557987364
38.454613710901
39.004243411742
39.531827829289
40.035960521299
40.516110437194
40.97244278737
41.405480222336
41.816158028705
42.205491575104
42.574646290662
42.924757813554
43.257102527507
43.572937427478
43.87312974
44.158590930096
44.430442308907
44.689678670668
44.937038436436
45.173282067731
45.399178783286
45.615347113012
45.82242607471
46.020987754806
46.211524129141
46.394548252825
46.57050724315
46.739792906759
46.902790859212
47.059876834857
47.211439431911
47.356885986455
47.945802829478
49.072354544847
50.477199498979
52.061698332707
52.230864526043
52.12252263391
52.049383865081
51.944470133614
51.867787684531
51.810113034194
51.756480217671
51.717273504981
51.712506489265
51.747344632533
51.81367447275
51.852435208802
51.852210554641
51.840728947722
51.832423558727
51.832281126142
51.843409061582
51.862341953883
51.879668125534
51.893403099496
51.905895724846
51.917500232978
51.928928923254
51.940770479832
51.953707439176
51.96788580933
51.983136978019
51.998969999822
52.018145619147
52.036014198456
52.056220050879
52.08021053703
52.106003507988
52.133466371205
52.161200602387
52.188224480934
52.214612193079
52.240298753728
52.265516824298
52.29140379802
52.319496915648
52.352355708192
52.393845048299
52.448299966173
52.523830158308
52.631795346305
52.7881561769
53.071128107898
54.568116602873
55.333779966254
56.213904997893
57.170499348726
58.156762401439
59.145468781153
60.098348367301
61.009519506142
61.89558618883
62.794766176464
63.756315844984
64.823387287072
66.005235514379
67.310582196109
68.740704867218
70.287721100463
71.930095472781
73.632288487147
75.355205764053
77.06697313014
78.744630186837
80.366906220018
81.917169036396
83.389492082457
84.799951394917
86.149161192124
87.441085545565
88.665059020086
89.822639678752
90.936983288803
92.003973025498
93.039707584119
94.029265293657
95.036424814981
94.236490576715
75.786018287386
40.402057208739
35.239685218782
34.449787950749
34.065621685982
33.810092984429
33.649164302009
33.560679331017
33.561996860089
33.641249452463
33.78045469307
34.002391440652
34.270961858859
34.583989354996
34.953435484442
35.36852829283
35.818953516732
36.296854567425
36.797260159286
37.310802899144
37.829748362179
38.3475176949
38.858359732028
39.3571796355
39.840908978452
40.307354874456
40.75514366177
41.183622554912
41.592743504445
41.982804593559
42.354227149855
42.707873684095
43.044630793356
43.365085658534
43.670355672883
43.961488496117
44.239127062569
44.503826330304
44.756591707141
44.998307926404
45.229572860719
45.450956278874
45.663099161227
45.866531431325
46.061794451144
46.249397881241
46.429745959776
46.603246793597
46.770312552664
46.931285289486
47.086513649323
47.236307792579
47.380899873775
47.704940036525
48.804234114559
50.069900003022
51.645626437366
52.256666558001
52.276593277908
52.283766813414
52.202232648607
52.091588043061
51.970693240602
51.832814194386
51.705297704608
51.626980524152
51.617007789343
51.658182442788
51.729211328936
51.756389364209
51.752790727845
51.747896544869
51.755592454203
51.77871125066
51.804243299981
51.823168681434
51.838883408049
51.853559788245
51.868670498271
51.885353264268
51.902757849267
51.922600098234
51.948837987903
51.983223999331
52.02731063448
52.057630050484
52.117381439366
52.192905743655
52.286415908676
52.399057419841
52.529925022212
52.675633065439
52.832164128718
52.995493304829
53.163769357898
53.336355625537
53.518239910592
53.720226484203
53.960596948513
54.26168892902
54.651645473334
55.15833120166
55.812075777959
56.656312828116
57.985442614615
62.489726236032
64.180195258907
66.0268329081
67.948498721044
69.867735998055
71.72952408999
73.432261578235
75.00663011456
76.487116209724
77.879620664484
79.25717999843
80.662121914187
82.129871094737
83.672564964306
85.278302197669
86.922644569154
88.576877710595
90.216864024107
91.816427348821
93.360422925124
94.841123984181
96.249696016502
97.590233775706
98.863686300407
100.08881102034
101.26706412042
102.39800744617
103.47093847658
104.48385776369
105.45447739681
106.387467125
107.29723683478
108.17514455412
109.07941714708
107.57429232617
89.910309580749
42.888162820193
37.148969500035
36.309155498098
35.891837851876
35.606701418245
35.399179056714
35.256253164857
35.179061050485
35.16962711641
35.222384183653
35.329908846137
35.511710211873
35.739394074124
36.003287749001
36.319996030331
36.67976610044
37.072986566635
37.491051137433
37.927779301323
38.377063484097
38.831518775822
39.285543620831
39.734536595189
40.174192910202
40.602018670547
41.016244432242
41.415638043354
41.799510521729
42.167605229555
42.52000135814
42.85696347742
43.179057791397
43.486824774549
43.780721743855
44.061629145184
44.330445056813
44.587504935524
44.833350640889
45.068740018642
45.294355783072
45.510654858333
45.718207884724
45.917557957136
46.109123514422
46.293341337017
46.470627986698
46.641337143151
46.805829437352
46.964455974972
47.117555275804
47.265423481837
47.40820540764
47.572689133383
48.533975991741
49.643722095966
51.119071289482
52.217072958852
52.46147193542
52.611778790233
52.621346255896
52.498663936608
52.294957929867
52.029050476456
51.762249120108
51.579025690165
51.51964582308
51.54728950703
51.625375430915
51.670465907137
51.671524821607
51.671892919464
51.692706294535
51.726901897547
51.754137651037
51.775072259088
51.796179057765
51.817867867772
51.84240569989
51.877979557368
51.931797822273
52.011255945643
52.125870221612
52.285273126813
52.501382541843
52.612030457925
52.917416726138
53.302580218157
53.776498385311
54.338390603285
54.976655922836
55.669577186369
56.389872803702
57.108759640349
57.805766644654
58.497597766033
59.212924601468
59.988884316355
60.867904933079
61.885719558057
63.069880184395
64.44567320205
66.025668189164
67.834904218588
70.27019888859
76.741303414513
78.945207915393
81.268671362796
83.606131906789
85.89559911973
87.98729606622
89.857393719258
91.565922805122
93.1044742449
94.504507742404
95.866214711305
97.234517560197
98.640664835065
100.09286331045
101.58229308872
103.09021477395
104.59647533047
106.07544827101
107.50271152829
108.87768052802
110.198645395
111.46464074079
112.67727627281
113.83661526781
114.94735242993
116.00751251201
117.01451301197
117.96641495209
118.86602428876
119.7291175344
120.56257105833
121.37995268335
122.17839074122
122.98172246132
121.1883477487
106.38884623229
46.061087266215
38.649240463775
37.78944954783
37.346110854539
37.054477646634
36.831005647315
36.668235827441
36.552201895262
36.490995478069
36.489111826332
36.533187648104
36.631609331937
36.795826624132
36.995078177001
37.227549962637
37.506655605877
37.825767200395
38.173918701853
38.543829439407
38.928708040787
39.324573486211
39.725576190415
40.126531202036
40.523788690525
40.91385043447
41.294556599099
41.664354315899
42.022250174032
42.367594474758
42.700056695915
43.019504872198
43.326150961252
43.620323485007
43.902346321309
44.172574725119
44.431666767611
44.680254244379
44.918619929804
45.147284919989
45.366781758692
45.577591087935
45.780181988788
45.975046597895
46.162545672896
46.343017409372
46.516866272118
46.684489019766
46.846159380663
47.002214596512
47.152921895478
47.298546068174
47.439490003431
47.575807161131
48.26679484607
49.223336200746
50.523518790631
51.907511430428
52.52246728044
52.86159310465
53.055807041721
52.976057744217
52.674965488802
52.24449397185
51.808138512202
51.512019605925
51.42019292524
51.457211401212
51.551887445526
51.595972248133
51.596838207293
51.610339894499
51.651465884031
51.686477994686
51.714663436612
51.742063297195
51.773763867869
51.823555266399