/*--------------------------------*- C++ -*----------------------------------*\
| =========                 |                                                 |
| \\      /  F ield         | OpenFOAM: The Open Source CFD Toolbox           |
|  \\    /   O peration     | Version:  2312                                  |
|   \\  /    A nd           | Website:  www.openfoam.com                      |
|    \\/     M anipulation  |                                                 |
\*---------------------------------------------------------------------------*/
FoamFile
{
    version     2.0;
    format      ascii;
    arch        "LSB;label=32;scalar=64";
    class       volScalarField;
    location    "4e-05";
    object      dydt;
}
// * * * * * * * * * * * * * * * * * * * * * * * * * * * * * * * * * * * * * //

dimensions      [0 0 -1 0 0 0 0];

internalField   nonuniform List<scalar> 
109340
(
0
0
0
1.6631603162072e-06
0.0010483943398341
0.0065526374641141
0.019857135474429
0.04384934677608
0.08011774847202
0.13052043770061
0.1978238321569
0.28465434521945
0.39384050971128
0.52868638681646
0.6931770595356
0.89216739584162
1.1317754692954
1.4197389039113
1.7659337582938
2.1830237702314
2.6873105909496
3.299556029403
4.0462617671863
4.9618507947167
6.0916492297124
7.4965843593675
9.2604269169323
11.50171545113
14.394018389779
18.202039603119
23.349660056958
30.556960236567
41.132417655137
57.614620265804
85.234400397806
135.60582133169
0
0
0
2.9459678910146e-05
0.001761611149915
0.0086858675041421
0.023686756588189
0.04924357808221
0.087678259310781
0.14123820884411
0.21237862370334
0.30371063455752
0.41815553724374
0.559167039958
0.73093892048161
0.93867913562605
1.1888109528841
1.4895517155902
1.8514312804932
2.287961580611
2.8164857142662
3.4590858243212
4.2440007627239
5.2080258328659
6.3998478319991
7.8852265640854
9.7551816853837
12.139560162463
15.230323597507
19.323768380766
24.901370473719
32.798891853133
44.581761027143
63.422245429349
96.498142338805
160.29787835269
0
0
0
1.9831301854581e-05
0.0015829702472916
0.0080240505281122
0.022322639576881
0.047201761053008
0.085031830886177
0.13810525844487
0.20885735853409
0.29991883649577
0.41424066087966
0.55529315208315
0.72724475856758
0.93520520798336
1.1855586132382
1.4864479062922
1.8483739976517
2.2848059161858
2.8131211919941
3.4553740252891
4.2398129628471
5.2031796511141
6.3942132604906
7.8787130969492
9.7477584683718
12.131240195519
15.221234419653
19.314434849063
24.893497795318
32.801099539066
44.646341693609
63.813617822648
98.50813628599
171.04948658243
0
0
0
2.7327836444255e-06
0.0012353716886526
0.0072407547303301
0.021167786354864
0.045769696926909
0.083460176388126
0.13652666069315
0.20733834322326
0.29846227755066
0.41280285069946
0.55378466625834
0.72555633434629
0.93322660294535
1.1831625087314
1.483510030147
1.8448434582791
2.2806662065321
2.8086122276101
3.4508437071943
4.2358102939231
5.2005073424696
6.3940456776671
7.8827950520933
9.7586299747802
12.152585753956
15.258517442103
19.376262546475
24.994545892956
32.968022232496
44.974312284349
64.692127037
101.92065830046
190.34214526887
0
0
0
2.1314902076946e-07
0.0011113856737606
0.0069531241856344
0.020658881935384
0.044911808731408
0.082150360330058
0.13472820723748
0.20502316913264
0.29561146650732
0.40942514710307
0.54993186480735
0.72134398127126
0.92885384238821
1.1789119332589
1.4797967031581
1.8431087866677
2.2823452898225
2.8165667455123
3.4690324225441
4.2700760973965
5.2587572937273
6.4876048256684
8.0274300391356
9.976509547727
12.474956025242
15.730028290107
20.062474428483
26.000017219606
34.44038792674
47.231727998374
68.534309120131
110.63622364532
229.59946192687
0
0
0
1.1241787684288e-05
0.0018068460394909
0.0095310686005545
0.026568677063509
0.05589940000889
0.10021293131673
0.16216060090708
0.24449690556482
0.35035494749071
0.48348360091418
0.64852345456826
0.8513289636355
1.0993427583686
1.4019428667883
1.7701331218878
2.2168247803414
2.7694145313712
3.4525081654839
4.2997636904661
5.3548967835774
6.6746989398438
8.3341919684275
10.43425083376
13.113340725015
16.567087420582
21.082287005986
27.099133439855
35.329684239379
47.005970204807
64.612366792565
93.843269472402
152.59743640396
345.71315814054
229.83673566233
386.58573627135
600.23700348461
852.72197120303
1132.7050488828
1453.8898641607
1820.4665184187
2235.4373658966
2698.1146644712
3197.2485830643
3738.0377147951
4243.3613596631
4671.577118919
5054.5455511199
5342.6406631493
5546.1796242046
5666.6699591592
5712.2723554319
5701.0855826256
5645.5968987892
5554.5777708363
5439.7227413218
5310.5951592505
5171.9395628626
5028.2326990384
4883.6454582908
4740.2041249136
4599.1662089303
4462.1417040818
4329.6601099363
4202.1944934126
4079.7744633293
3962.5773812127
3850.6610848095
3743.7873547422
3641.7655284407
3544.4822779538
3451.7189841361
3363.1850346327
3278.6676807545
3198.0007574928
3120.9718946778
3047.3749038611
2977.0234972201
2909.7323746391
2845.3188166403
2783.6043842917
2724.4470397376
2667.73567955
2613.3387133749
2561.0142509109
2514.9762441386
1998.3442537784
1554.8120633452
1161.440845901
821.00150762235
806.92776922082
826.31984510065
838.92661397202
900.65545934424
910.0225122934
890.74920242401
874.12097752022
859.36080909899
846.57867027918
835.91096501524
827.13624469343
819.93364700829
813.88919279927
808.7015827063
804.2482804203
800.52272410166
797.58623821672
795.47084204589
794.13541447288
793.28222528679
792.79178967315
792.59491131178
792.57290808782
792.70181744266
792.69360340761
792.4844498241
792.00201319604
791.00666836252
789.52965208342
786.57620705442
782.44182759125
777.29821049549
771.93641001696
767.11806204874
762.91910574913
759.89664731595
758.04664786023
759.67469121241
763.35905706997
769.44729089026
777.50553145015
786.40717903249
795.18360254868
802.59266811596
807.5981758478
805.58714727846
797.63627251398
783.06569067606
757.68688275855
738.87434554202
722.58252152955
712.46327776866
703.96149449599
696.47771651592
695.92114527434
698.41760488841
703.34311787156
710.05315511448
716.60690470197
720.5982816442
722.03467000787
719.95515230907
716.93131249893
712.91209550362
707.3105014937
700.25501939244
692.13716840746
683.7847095275
675.61596701553
668.14239585907
661.11891297772
655.20395428731
651.08618572744
647.2220408149
644.10724279777
640.91257135208
637.2257043308
633.36411037503
628.95336930608
624.25496684517
619.14227118299
612.62957815618
537.94405323644
0
289.37444639405
496.28557810192
754.07918152279
1034.1728461979
1350.4505200741
1708.2982686544
2105.8403360948
2542.5014563644
3011.2653337858
3501.4605376663
3995.2032947455
4470.632272075
4863.31940936
5184.6463904897
5436.3835156796
5601.5570458448
5691.6512954534
5716.8765999406
5688.13922316
5618.6781082071
5519.9770518291
5400.4568685108
5267.1688531038
5126.6253997189
4982.8222190006
4838.3624199698
4695.5631631197
4556.0380386944
4420.4776135954
4289.5996673794
4163.7638917107
4043.1173954332
3927.6836082454
3817.3875350573
3712.131965242
3611.7459253238
3515.9715772066
3424.597617751
3337.4278214215
3254.2389560839
3174.8060046353
3098.9275965817
3026.4192590454
2957.0977258726
2890.7782051018
2827.2816429384
2766.4393199241
2708.0963110832
2652.1533037358
2598.4797040367
2546.8815853107
2502.8056944967
1862.9347125214
1470.7930818198
1067.9183261708
806.84124670539
816.67102214815
837.11900388164
852.35854932041
918.69483518351
914.44182304626
895.47469198421
879.4681589649
865.24758502899
853.02951643645
842.84360599094
834.47950975781
827.57931510215
821.73837616983
816.69004521358
812.33541610137
808.68901913296
805.79509266129
803.69251432022
802.21033113599
801.06866071607
800.33834658788
799.86757121174
799.59885783544
799.36636354761
798.98540657383
798.41039096492
797.47975257445
795.99619181598
792.97119782277
790.12074774823
786.0025435782
780.65029122241
775.101778047
770.06174038074
765.67476046959
762.48431631148
760.69927606411
762.34116940501
765.88059734254
771.34746150708
778.87175535411
787.47674216549
796.01311317188
803.30474702685
807.76605415587
805.78560543592
797.62596418832
783.51780798077
761.56171244318
743.31289853917
726.09720186743
714.74906009699
705.26212507352
697.90240143073
697.04794644753
698.93190646222
703.35107619601
709.46516354428
715.41691038556
719.34088992865
720.39669447939
718.11643629382
714.86424738668
710.50764663713
704.61053974987
697.34240339585
689.27676491
681.11219409794
673.06261861121
665.50675775666
659.06659509749
653.10126271383
648.57711248267
643.83016247784
639.51076925521
635.00401390037
630.03559946664
624.80826810967
618.9834706296
612.82003734785
605.95941221629
597.92313760916
531.89420833949
0
341.11086543062
627.62175624236
936.63521929304
1305.5895230923
1670.8619410221
2055.6996314198
2475.3607980401
2913.1550626262
3361.3387082183
3839.3574694126
4234.1192269914
4628.5509040921
4975.8529206882
5258.4020246689
5472.5413641991
5616.6662768902
5693.9425971135
5710.7406435417
5676.8467982209
5605.8045477079
5507.2562487385
5387.8373577442
5255.2663724967
5115.6710502523
4972.5828515221
4828.7368244262
4686.7740081941
4547.9067296582
4413.0485503221
4282.8251276467
4157.5728776551
4037.4791796268
3922.5257867839
3812.6482762693
3707.7719978135
3607.72440674
3512.2544083142
3421.1638944239
3334.2584447803
3251.3021881644
3172.0767592491
3096.3918136279
3024.0629620584
2954.9075108325
2888.7418290881
2825.3890780162
2764.6740148709
2706.4547085467
2650.6338708013
2597.0570049887
2545.5691119721
2499.8241452116
1874.1121765985
1482.620982516
1083.2659268362
813.2992295971
824.75869669805
847.84734947878
865.56221836393
930.96432619186
928.60646928046
909.9036331909
893.91424218813
879.66003507314
867.39572324867
857.1926888025
848.84199240969
841.94543397792
836.07952760297
830.95174212755
826.4472353141
822.58054157994
819.38157453846
816.89766117909
814.94163904602
813.30062201809
812.06064280136
811.10633300367
810.34771330908
809.5509124378
808.66571975994
807.58388598512
806.15927129062
804.19691334323
800.00859079915
796.1139158932
791.14716585685
785.53004740571
779.7829488301
774.53919052904
769.96562925372
766.65187480355
765.22116786501
766.84505232681
770.27942213512
775.61793701121
782.65624245015
790.63086691476
798.5951328692
805.34454685069
808.99262987758
805.97226342144
797.30027737477
783.91764499927
762.19002509617
743.80171402996
725.71800254083
713.63819512965
703.70075517947
696.92805313716
696.59193228906
698.63943799515
702.58069016065
707.56619985706
712.28793902962
715.84874385326
716.31449880358
713.60310357342
709.73834960576
704.43205846703
697.74021376203
689.85035140125
681.27228579515
672.4001088494
663.33254358758
654.77048553846
646.58187389259
639.06596025013
632.22939989213
624.89955897548
617.66621662512
609.99743488232
601.69657793384
592.90034085784
583.26461823463
573.02543310649
561.77183110886
549.37161389965
489.26266063818
0
462.87952239647
932.26019347235
1359.8901945271
1851.5062857363
2275.8164028116
2686.8329873998
3093.5125400964
3487.2904499825
3866.1745910963
4233.5571540541
4544.3475115631
4843.410414626
5120.0675184037
5349.7637985574
5528.5156905752
5645.7016035022
5702.0967243068
5707.5338465253
5668.4491450579
5592.944314338
5490.9531774303
5372.4134071805
5241.1163791313
5101.7544829607
4959.3749463007
4817.1390716959
4675.9798370103
4537.8053643524
4403.8019389833
4274.4220738244
4149.9273746635
4030.4724311598
3916.1236612791
3806.8315130108
3702.4236915864
3602.7490902586
3507.6719217062
3416.9585707176
3330.3555002431
3247.6726712126
3168.7128690859
3093.274857963
3021.1646898502
2952.2051656402
2886.2201093178
2823.0348363963
2762.4730616522
2704.4022111842
2648.7104921467
2595.2528422619
2543.8682647284
2496.0286780375
1890.9225145404
1499.3106754697
1105.3668827947
823.18689925579
836.58150759951
863.33286626893
884.58271636199
948.49065431952
948.35324178398
929.9080871736
913.56897243486
898.91006836684
886.2920626691
875.88254228394
867.44955854301
860.470193937
854.45503771301
849.08112139338
844.23527173338
839.94553380158
836.26352547918
833.17681036116
830.58120176354
828.33445328779
826.47985494422
824.88998525093
823.49573243965
822.08073609098
820.63098039317
818.98034887493
816.97830562799
814.44616826925
809.46861579351
804.94623162712
799.49961166619
793.72715324106
787.69916041798
782.05323634407
777.11489093311
773.49298753527
772.10938769163
773.56561899459
776.83523787233
781.86033246112
788.27159104278
795.52805623845
802.63723409241
808.21934714767
810.53109142502
806.51493390901
797.69476901962
785.31584447047
764.62476307047
746.54299706395
727.30825550445
713.94259585124
703.12030600044
696.50316669334
695.7566550062
697.09361335879
699.85884869103
703.27530835796
706.48253446057
708.79331253783
708.13488194151
704.33464537402
699.16067733205
692.11050452096
683.63123265621
673.78231147672
663.1298440066
651.82982458353
639.93848797784
627.92457894074
615.66938650322
603.75877771103
591.65153443087
578.86559325188
565.53335960032
551.30289016839
536.00706727095
519.72362527297
502.20198492941
483.66783867705
463.74461116477
442.54121563832
380.11247761996
0
890.52645865977
1863.8693745635
2421.1872869116
2987.592254788
3369.4705668082
3697.6566874264
3968.4423495041
4196.9673704712
4431.8249820791
4634.6193870124
4860.5185083554
5081.281575296
5285.4086805653
5457.9406650262
5588.37389404
5674.5158539424
5712.8761319278
5704.2146384828
5656.6750218599
5577.8630994016
5474.9955299335
5354.2719742557
5223.1358904244
5085.8966136354
4944.7357017352
4802.9798274811
4663.1809190703
4526.3292161059
4393.2165225936
4264.6608412701
4141.0181952143
4022.3980933405
3908.7235931608
3800.0500699039
3696.1921233478
3597.0026654207
3502.3645757421
3412.0275375579
3325.7882976207
3243.452843568
3164.8110318302
3089.6456858555
3017.7827266431
2949.0501879466
2883.2752770884
2820.2816027182
2759.9028081278
2702.0056447564
2646.4615033628
2593.1410185829
2541.8811515099
2492.2886702276
1912.8782649642
1520.6006665265
1133.646639029
836.74634014816
851.68246945868
882.87022047585
908.44442016927
970.38454633029
972.01121632141
953.53793255662
936.16277711143
920.38164767501
906.76499005639
895.62607715956
886.75824916919
879.46686489935
873.10001808737
867.27826279929
861.88702341164
856.99501126528
852.58692876921
848.77541898664
845.40748739788
842.47879240237
839.94754481013
837.64379518014
835.58530900987
833.60271898529
831.619511815
829.46121113704
826.93145754982
823.92619471042
818.87697368825
813.79677503607
807.94703091584
801.88475166281
795.57815735711
789.53007087162
784.26520585283
780.37143860718
778.97183030733
780.24873495779
783.30543362096
787.9623308888
793.88865578956
800.51661191473
806.43755534347
810.62591779021
810.94196544193
805.97246095947
797.40749687596
785.60564985556
765.71374660345
747.79167555058
727.0072017033
711.76932625796
699.5739449398
692.25732029506
690.05067664451
689.64141372121
690.37013876516
691.58882180668
692.54646257148
692.81862489906
689.84280685629
683.41522419187
675.11910338264
664.20630905827
651.4294872845
636.85430141246
620.8353136275
603.54451109935
585.03551547126
565.4026328274
544.57946834082
523.20425228122
500.96809667592
478.03286644306
454.00979529748
428.96444416369
403.15523520406
376.57461139978
349.27853189098
321.52630560537
293.13839412302
265.20038147146
207.0634691373
0
4366.8258180059
5162.0261531792
5147.4442418979
4981.0694399095
4883.6924961196
4849.4447158533
4857.7897944041
4882.571245907
4958.9080281135
5065.5155372883
5189.12166197
5322.1359594283
5451.0521159948
5566.0535917681
5653.1463638484
5704.772204055
5720.0442581851
5698.1721110619
5642.8685537266
5559.34610774
5454.4547657423
5334.2115510528
5203.3056635697
5066.1956800833
4927.0338084304
4787.0751135211
4648.3661710315
4512.6927705483
4381.0642403465
4253.6184919979
4130.9292630189
4013.1485005955
3900.2349448132
3792.2864788606
3689.1121164866
3590.4748871452
3496.2889945043
3406.4279617604
3320.6456301915
3238.6839633927
3160.3669742917
3085.5105603026
3013.9408894242
2945.4741056391
2879.9373816917
2817.1595121164
2756.9868249199
2699.277495451
2643.9032367799
2590.7323814962
2539.6275313523
2489.8220654482
1939.5802570583
1546.0253713308
1167.3095849783
854.29269218209
869.26381704638
905.39190740214
935.63946893118
995.82971355132
998.58792725564
979.81376331041
960.65326526396
942.83077676076
927.3698965286
914.8394585176
905.07741300234
897.22026219127
890.3483659347
883.96001386762
877.92592457418
872.27933248538
867.06104991785
862.38272971014
858.18082808036
854.43087557094
851.10953665853
848.07344800001
845.33875916276
842.77796052111
840.27589206337
837.65174016796
834.64168064008
831.20506367507
826.35566554811
820.79339722905
814.77336766013
808.38117978011
801.86571425098
795.54922107231
790.04521730416
785.96338373916
784.58340339246
785.65634072878
788.43569791448
792.75409587698
798.25689484466
804.03887075408
808.32104852216
810.82853972171
808.91253619455
803.06600149617
793.98211889871
782.16944685696
762.55140152147
743.00273854623
721.37175734999
702.54943384325
686.99516125824
676.90818604326
671.3071998963
667.2370681075
664.09796213838
661.41075892002
658.27448520084
654.28899762718
646.49968013056
635.08467374827
620.52739670939
602.58609584795
581.41517431825
557.66682595685
531.64514330037
503.79990725123
473.90245395928
442.48486834476
409.49872832359
376.79265585382
343.49318882063
310.79486589901
279.06499217069
248.71286801661
219.88569456365
192.35332588598
166.05521518657
141.17355704509
117.92808712191
96.768387284405
60.071535057507
0
18229.534259628
10987.471934919
8471.4485978071
7197.2070383929
6403.4860625506
5946.5197511289
5697.1771928055
5552.3707833536
5483.2981683782
5469.7249531838
5491.131693174
5535.7347046879
5593.9903244321
5653.4494726563
5702.5125949345
5729.4601209129
5729.6694999941
5700.7404730063
5643.3020842872
5561.2145787188
5458.8062191711
5341.210483715
5213.2777841952
5078.9221390319
4940.7058130459
4802.533123977
4665.5000621487
4530.6429057584
4398.998836342
4271.9058955657
4149.3301870214
4031.3720401605
3918.2104941834
3809.8683791862
3706.2519445711
3607.1764718839
3512.5263652443
3422.1357357807
3335.7906701237
3253.3296033729
3174.5566853597
3099.2339163981
3027.18048148
2958.2434546564
2892.2567418983
2829.0557970632
2768.4803732955
2710.3809361033
2654.6288836045
2601.0894392428
2549.6732437922
2497.9142453175
2184.7281248984
1663.5328911771
1300.4768023213
925.01438175191
876.96998902505
919.23212512449
955.61126534912
1009.5054333969
1030.149128801
1014.2136378148
993.2408334858
972.20291590294
952.90282255948
937.04193095448
924.98865452862
915.74596947506
907.9994589896
900.86061525578
894.01636853502
887.40780793954
881.18133223313
875.44513933165
870.20467320121
865.50739661261
861.12278405902
857.24023262493
853.667845625
850.42183830837
847.36312341768
844.2407499598
840.87912509566
837.19590477142
831.51274386228
825.7195126671
819.64915472322
812.83512592558
805.93680388339
799.23656376999
793.31839507675
788.9484788227
787.40612368414
788.11248743748
790.55719259204
794.42657920757
799.13536346292
803.22073760669
806.16570005606
806.1477376218
801.99322232458
795.07110001243
785.58889939667
772.43512621986
736.97700282716
711.82914246954
684.23594652512
656.27504795903
630.39936940102
610.88934715507
596.1393170355
583.57314294845
572.64689516354
561.88798648291
550.13130816306
536.31433861806
517.7379060956
494.12520272867
464.98448120831
431.71863275968
395.18120827786
356.83051502711
318.0558464983
279.94965285318
243.37408801108
209.17893569236
178.03425172977
150.05958092211
124.79905708895
102.17055344308
82.026510871636
64.109838748516
48.479808169266
35.133680725152
24.120221236743
15.36787549276
9.0060520127315
4.5608471895208
0.070120069670573
0
11420.147482524
12688.249195636
10642.037370059
9225.1559510794
8222.8039731194
7508.3778039774
6978.7097395902
6571.4312839587
6328.3904493253
6144.0853804461
6010.3590366231
5924.2872854473
5869.9913225843
5833.2379871757
5802.603410447
5767.4114300608
5720.2911391345
5657.9496887463
5578.2124633914
5482.042505051
5372.1651688471
5251.6779053982
5123.6964050142
4991.5523132271
4857.5146783543
4723.1988461796
4589.8870221986
4459.8172550786
4333.1052146154
4210.1577350668
4091.3628755457
3977.0372718446
3867.5738876607
3762.4550023376
3661.8184508705
3565.4607910869
3473.3816307019
3385.3326863339
3301.1538569696
3220.7114553388
3143.7709415998
3070.1264478081
2999.6474526169
2932.1525491268
2867.5047827156
2805.5562489074
2746.1543651427
2689.1437862465
2634.3979390221
2581.8213384044
2531.2894645007
2480.2343119283
2070.0508481175
1642.8369851823
1290.843780485
941.43245104501
921.98717893108
970.99139244317
1013.8079978022
1072.0273644389
1079.2550778249
1064.015281125
1043.8224863025
1021.1505622051
997.00307597472
974.40261704027
957.05291735387
944.67888895264
934.96497798656
926.10515212726
917.35704144374
908.82844357442
900.68446919899
892.9995007481
885.75061153112
879.09796258852
872.85652482731
867.20895300584
862.24372337284
857.83570481763
853.55985367106
849.24420833823
844.56922476574
839.39777379164
834.6563673231
828.25975425209
820.73707884393
812.187267496
803.43911333615
794.90360847328
787.05144030718
781.27296673425
778.08785764032
776.78485592202
776.78781582792
777.80828213926
778.5488483301
778.20145322777
775.08705253762
768.7131999303
759.37601608426
746.93618654746
730.1175906011
705.27690428152
615.49951868187
565.1527841964
513.37399390821
462.69451489583
419.40225996708
382.36086427809
352.88024722365
326.66671410831
302.94493734899
280.5764903594
257.99484986408
234.27937241205
208.3140503418
180.88191506512
152.50184601494
124.59054607783
97.942653440067
73.757244589732
53.526696816282
37.100524227382
24.007480281773
14.264026407266
7.7768344445907
3.6916636830108
1.2286573358624
0.10574813535539
0
0
0
0
0
0
0
0
0
0
8815.9440845561
11126.180312892
10372.971442157
9435.7886351036
8658.269078424
8043.0641772168
7543.418755237
7137.8997710869
6794.9289482974
6522.9553946922
6326.4957149397
6162.2201016161
6031.4099332449
5929.6161044791
5845.2135720256
5768.5670617878
5691.0874365056
5607.2385649888
5514.7918062675
5412.4295827377
5300.5918172151
5181.1578490537
5056.2212142352
4927.7699657989
4797.9383616906
4668.2990434139
4540.0622551653
4414.1924469069
4291.2125522585
4172.0501213283
4057.0122294361
3945.9060060886
3839.0985839365
3736.4310640197
3638.0414145207
3543.8029237937
3453.52362738
3367.0919531546
3284.5063809315
3205.3873025302
3129.5974122751
3057.0433149421
2987.5237660857
2920.9086165495
2857.0796876656
2795.8534238405
2737.0906464692
2680.6782027776
2626.5138531229
2574.4382879867
2524.330177509
2475.4608101831
2259.2147371993
1721.3501059535
1385.3437074192
1039.4700381991
947.79237604321
1001.2694678249
1050.7493065107
1104.6354129498
1115.9344271684
1104.4354864589
1085.7995804635
1064.0218665837
1040.7555516206
1016.8548976223
994.25856942243
976.20379335397
962.1072517381
950.33638512229
939.18192504293
928.3296673198
917.84098824841
907.57895002546
897.79339663159
888.83903705558
880.40373267267
872.73345128124
865.6503880173
858.98243615581
852.26121606136
845.09531340692
837.2146828425
828.27674549258
822.36256218257
812.20401343926
800.02138571743
785.93854715054
771.06929786148
755.72446753149
741.43813563741
728.57851358027
717.41285078297
707.88079384981
699.94054009128
692.19764939447
683.68642310983
672.64004454098
657.39470444278
637.42264610676
612.49339897541
581.63654536956
542.98138297655
485.23433350874
330.765411289
281.67275729609
236.91493226683
195.11598148026
157.92617756503
125.71586962297
100.25861912138
79.309503305096
61.892780400914
47.052726155659
35.384194426498
26.23364746696
18.430580040195
11.86066448435
6.7513489580277
3.1535739554692
0.9760756010452
0.04288941885322
0
0
0
0
0
0
0
0
0
0
0
0
0
0
0
0
0
0
7683.8285990238
9381.2356818062
9467.2609287344
8961.4049778969
8423.1422359229
7955.6599408742
7549.5390979478
7195.9031045866
6890.0081245442
6625.7232401526
6397.1684266815
6224.6725104955
6075.6109109796
5944.7444756748
5830.2073194179
5728.1406459876
5632.1129686256
5534.5992758888
5433.6940249737
5327.7857052295
5216.0496199864
5098.8711688796
4977.7925928742
4854.1899654643
4729.4693074882
4605.0806004652
4481.9691103633
4360.948775479
4242.7593970811
4127.8386697373
4016.5212756828
3908.9484273777
3805.3895173806
3705.8061196991
3610.0420516442
3518.1577195858
3430.0915123557
3345.6866297991
3264.7568600005
3187.1849718287
3112.8011018628
3041.4890356518
2973.1713884484
2907.6499733059
2844.7609487995
2784.3921666694
2726.4145607365
2670.7449680329
2617.217913163
2565.7205074369
2516.2302212235
2468.3795745839
2428.1892311686
1809.3002036654
1488.4703621125
1157.4572239846
979.71071872729
1028.1711918039
1083.9206304573
1133.2019326215
1149.8357078158
1142.5038717254
1124.1100001316
1100.1981139824
1074.7299746325
1050.1637254769
1026.9931974174
1006.1485056536
988.45612283882
973.01626225372
958.91983522854
945.34942697237
932.18320428496
918.88358816854
906.03444586779
894.15568831454
882.40716870771
871.09283719877
859.77031306844
847.75284043057
834.39422501129
819.00469638673
801.13874265131
780.45372040111
770.2743735137
746.18429918635
718.75079336869
688.2217623563
655.39719743745
621.36221798042
587.87581220597
556.19969076439
527.41610894766
502.12186088989
479.07771300858
456.49623149668
432.22634558609
404.71038461528
373.60163228968
338.48857171393
300.14193346523
260.04053161673
218.77414773235
171.69794786476
78.946059005205
57.370610200238
38.587634204533
24.259312654697
14.18609179393
7.4963017286161
3.7722321619225
1.6074657910372
0.47124689348129
0.02854599715293
0
0
0
0
0
0
0
0
0
0
0
0
0
0
0
0
0
0
0
0
0
0
0
0
0
0
7225.7919388558
8025.9644825504
8471.5589593202
8315.6475771074
7974.5174084868
7635.7750663832
7322.3729927519
7038.8077894615
6779.3433342486
6552.543244594
6340.4405999266
6163.2995549802
6012.559065057
5880.426708604
5758.8745303417
5646.6671751018
5541.1092764956
5438.866174772
5335.352823979
5229.0455670601
5119.4091656293
5006.1889615674
4890.0640073118
4772.0550941983
4653.227417365
4534.6047771226
4417.1133771019
4301.482779257
4188.2619960094
4077.9810118981
3970.9415695371
3867.3786715769
3767.4090946749
3671.0132964932
3578.1914303485
3488.8937512728
3403.0834114216
3320.8898983552
3241.970217256
3166.1842514038
3093.4809236107
3023.6689546155
2956.6641649676
2892.3282934712
2830.5314048316
2771.1371291441
2714.0936874123
2659.2320516032
2606.4472643517
2555.7355188231
2506.8499432843
2459.6742232811
2419.7363161981
1903.9911111859
1601.538872715
1288.4965847572
1043.3771238613
1052.4205916877
1112.7816380226
1160.4847513558
1181.8923254484
1179.1443502964
1161.3957469294
1134.608170667
1104.8598154596
1077.4690862991
1053.149154348
1030.8063442722
1010.4489342203
992.30358591884
975.12243678234
958.75324623443
942.60073427742
925.73837860048
909.61359574862
891.85739983939
874.31296707307
854.66580452798
831.92827627906
804.92913862122
772.8997242806
734.98956867668
691.51980713348
642.74969060106
622.10368641225
568.52610466482
512.56260870521
457.70225878228
405.46076136679
357.06382394843
313.38656935864
274.92210858204
241.25831091405
212.66886118539
187.92587969705
165.96943843056
145.09430218953
124.3056886202
103.82376828617
83.94281458922
65.345384622799
48.851515635785
34.420726144193
21.621665344187
5.8169867869127
2.7701415831125
0.81205969264395
0.023354684985442
0
0
0
0
0
0
0
0
0
0
0
0
0
0
0
0
0
0
0
0
0
0
0
0
0
0
0
0
0
0
0
0
7258.0499614382
7025.1920595522
7554.4248563449
7647.7632131775
7472.4659881571
7236.3192758334
7001.339724679
6779.7649419637
6570.1136001257
6373.3764259613
6199.6269172309
6027.5849299365
5882.9510928681
5764.5867854308
5646.0067228781
5534.4227307545
5428.408543171
5324.6546134215
5222.2898326011
5118.9118018969
5013.1545360544
4905.0146752321
4794.7411542566
4682.9241920729
4570.3978613811
4458.0084638727
4346.5197448617
4236.6102267548
4128.8070448981
4023.500545888
3920.9806987431
3821.5437060508
3725.3277000693
3632.3979534867
3542.7884198399
3456.5317791733
3373.2942062697
3293.3831745149
3216.5600278582
3142.745960188
3071.7914524491
3003.576124125
2938.0002005463
2874.9883345179
2814.4522725693
2756.2216707199
2700.2118906108
2646.2610337432
2594.3819039731
2544.3947951905
2496.1814109568
2449.8088423831
2404.1305771502
2012.5933942749
1721.9734737982
1430.0263607531
1159.865785928
1084.4255614668
1129.6116804429
1179.1501044986
1203.6495183801
1205.6121281434
1191.7911861786
1164.6733601152
1130.8518585443
1100.4119404929
1074.1731669197
1049.4763202253
1026.3078740629
1005.2069047951
985.61347883906
966.23779421149
947.20226426281
925.72947534055
902.76250369889
875.57039696111
842.9642830598
801.49421066451
749.54571420076
687.37432360208
615.81779497118
538.86932518787
462.65699432428
389.92897843356
362.4487216309
302.45859064753
246.60796130865
198.49342632799
157.49500050556
124.05648046929
97.991995973488
77.922602603838
62.626567369911
50.8730734382
41.361763457991
33.315004730579
26.284801119772
20.122674910551
14.806833282956
10.34474867197
6.7334415551087
3.9735306933783
1.9604678281504
0.74625842347167
0
0
0
0
0
0
0
0
0
0
0
0
0
0
0
0
0.078406069545313
0.27845679629054
0.59590987185692
1.0439414851549
1.6370580953312
2.385887626539
3.2944392168182
4.3501098429775
5.5216784121805
6.7524315776435
7.9782552549721
9.1546004596843
10.272251072368
11.389483508791
12.536370216931
13.839083269803
15.512519131587
16.132605919785
1.7221505397507
0
7933.3423142645
6214.6696404885
6783.3725432946
7003.7597235969
6974.7034703174
6824.6179786017
6652.4785066137
6481.1055726744
6314.6520542856
6154.6119672009
6001.2429565216
5854.3038024963
5731.3792455575
5604.628563706
5505.470546416
5396.79048558
5297.6205071105
5198.4536679274
5099.3349459541
4999.9420098408
4899.7064428059
4797.6427569508
4693.6671567722
4588.4395424157
4482.538089382
4376.5960569026
4271.3400215907
4167.3490213974
4065.0997025888
3964.9816088416
3867.2763970368
3772.2026020395
3679.9613768287
3590.6695132531
3504.3581247858
3421.0580761686