/*--------------------------------*- C++ -*----------------------------------*\
| =========                 |                                                 |
| \\      /  F ield         | OpenFOAM: The Open Source CFD Toolbox           |
|  \\    /   O peration     | Version:  2312                                  |
|   \\  /    A nd           | Website:  www.openfoam.com                      |
|    \\/     M anipulation  |                                                 |
\*---------------------------------------------------------------------------*/
FoamFile
{
    version     2.0;
    format      ascii;
    arch        "LSB;label=32;scalar=64";
    class       volScalarField;
    location    "4e-05";
    object      k;
}
// * * * * * * * * * * * * * * * * * * * * * * * * * * * * * * * * * * * * * //

dimensions      [0 2 -2 0 0 0 0];

internalField   nonuniform List<scalar> 
109340
(
7.0675528287735
7.0695829367119
7.078161852829
7.088888738347
7.0975522025784
7.1022192581608
7.1024599744141
7.0990399973088
7.0927089525477
7.0833602806496
7.0711048763272
7.0561630854234
7.0387464500175
7.0190097405218
6.9970266036997
6.9728099458961
6.9463639328634
6.9177327529773
6.8870146604237
6.8543446791192
6.8198708238345
6.7837393008223
6.7460872872602
6.7070402802086
6.6667099144104
6.6251891789535
6.5825467004418
6.5388191567145
6.4940001102522
6.4480227865382
6.4007306510603
6.3518233732629
6.3007371113581
6.246336628052
6.1860090583467
6.1130251088672
7.0643915699769
7.0693551809121
7.0780260231006
7.0860235223028
7.0908528250045
7.0918716822346
7.0890661266766
7.0821162077787
7.071322621359
7.0571253806411
7.0398054270707
7.019617360439
6.9967956516882
6.9715165828132
6.9438790771868
6.9139316401738
6.8817343666274
6.8474013362079
6.8111014702633
6.7730339871375
6.7334042608291
6.6924082850523
6.6502264141385
6.6070195287477
6.5629248140535
6.5180503755817
6.4724695946957
6.4262130527917
6.3792564831365
6.3315019589867
6.2827427904275
6.232597366038
6.1803519071561
6.1245501090612
6.0618249947677
5.9834989588308
7.058969984771
7.0657053293611
7.0730781610812
7.0776605837741
7.0780612687564
7.0737887732181
7.0645519074048
7.0504693874761
7.0318123922572
7.0089878284265
6.9824082704178
6.9524699410234
6.9195473897815
6.8839560451062
6.8459279740312
6.8056438480438
6.7633027175484
6.7191711668331
6.6735800406497
6.6268777833595
6.5793976159642
6.5314360328829
6.483254216331
6.4350614074176
6.387021517015
6.3392422207798
6.2917876400549
6.2446500100171
6.1977690604713
6.150999682319
6.1040834050756
6.0565796262375
6.0076663158913
5.9556801419772
5.896734490613
5.8202340057653
7.0477776769283
7.0601090344943
7.0656643191386
7.0634524373988
7.0536087141313
7.035990177718
7.0108703516686
6.9787049877491
6.9401252131154
6.8959134278524
6.8469474900134
6.7941487762913
6.7384314728994
6.6806345956567
6.6214892173327
6.5616533269331
6.5018074936497
6.4428953902016
6.3856786954436
6.3308535668234
6.2789819710629
6.2304016667275
6.1852475786713
6.1435360273674
6.1052151140639
6.0701317235981
6.0379661709299
6.0086046502064
5.9818912645176
5.9575951456061
5.9353560218576
5.9145996480356
5.8941683455097
5.8716152737635
5.8405365583855
5.7803503511253
7.0351677210896
7.0696068298064
7.0846339375711
7.0778258731412
7.0504730697087
7.0033318285317
6.9396435522032
6.8635784029355
6.7796885093378
6.6925171525455
6.6063097224753
6.5251531297919
6.4526402148345
6.3919561034522
6.3459139859311
6.3171583126349
6.3087457168989
6.32313443974
6.3618554390413
6.4220916781967
6.500032791078
6.5921114669433
6.6954422921072
6.807843102236
6.9276789767307
7.0536797106324
7.1847883347889
7.3202521351218
7.4602479969379
7.603491786829
7.748094262
7.8917300850699
8.0309754727054
8.158744894605
8.255376599824
8.2457411204428
8.5230779635216
12.639830496908
16.152343563819
18.828939477029
20.6782017916
21.832777059162
22.458670304759
22.707728781636
22.699567439738
22.530380945905
22.256804057428
21.922519659513
21.557292246937
21.181029915958
20.80691179535
20.44427001153
20.09904363846
19.775130996503
19.476494271781
19.206400165098
18.960073109979
18.734817622248
18.529254616147
18.342567231983
18.17417008923
18.023616160762
17.890645224945
17.775203312644
17.677493529849
17.59807239244
17.538146820488
17.500024893307
17.48727683139
17.5057132446
17.565160420555
17.654608111646
6.0124909895708
5.8712353079656
5.6882061064139
5.4644192077704
5.2000016197922
4.894946140334
4.554164042404
4.1846142000251
3.7962732287539
3.4060431735721
3.0291112582002
2.7056976118802
2.4349217475472
2.1846848466392
1.9550386668757
1.7452100369284
1.5572857209782
1.3924208308764
1.2481379104648
1.1227189263963
1.0140350684383
0.91927349409964
0.83631242465446
0.76394490373099
0.70069502679519
0.64505987773404
0.59594560675539
0.55240262795018
0.51343725874528
0.4784756333256
0.44697228655316
0.41849727483246
0.39257599208812
0.36884033616725
0.34714769746097
0.32736652388673
0.30929486325132
0.29272542370593
0.27746786198613
0.26332370551454
0.2501274703227
0.23780010396624
0.2263069604641
0.21561253485484
0.20567277138765
0.1964275664049
0.18778978826491
0.17967468912695
0.17203414572289
0.16480050666447
0.15794986775183
1.1259729156324
577.34148510082
490.69130734526
267.0080063881
43.123070607205
22.619462535405
17.659266765979
16.055717927926
11.288059545308
9.9173303307424
10.548948389315
11.093628213728
11.598306017715
12.091213425452
12.592848428331
13.133811387174
13.714916669385
14.294528335718
14.820214340271
15.256044996472
15.564753844403
15.688763830786
15.644853936169
15.45372888007
15.166385892023
14.803933421714
14.384635386759
13.931818792126
13.459920938957
12.973256865586
12.485252479811
12.003117883549
11.530681110542
10.74680629795
10.339143630249
9.965777970267
9.6181016839352
9.2843603619162
8.958699845874
8.6430000783974
8.3282921669337
8.0166338823319
7.689967156509
7.3560068899321
7.0117588290726
6.6631484110964
6.3196675938638
5.9997107142986
5.7041084197794
5.4498137011689
5.3149521317018
5.3025126966454
5.3810203215084
5.6177338671248
5.8813819216109
5.9763886688789
5.9531130891155
5.8939534731584
5.7933012620802
5.6421710531351
5.4493561745426
5.2321736426207
5.0035213892264
4.7845786790521
4.6063083629312
4.45811907556
4.3644802680334
4.2863222123812
4.2278889088654
4.1872455053781
4.1628029690888
4.1660107655006
4.1711867933118
4.1730633600542
4.1687260382088
4.161090988064
4.1340990636785
4.0869581824907
4.0226122028321
3.9457240681299
3.863220805101
3.7865297573208
3.7113355431482
3.6372799787348
3.5707197761912
3.5134360757262
3.435228061672
4.4340437053603
2.8471498735592
5.8703564431294
5.7063177299458
5.48704122913
5.2175959465795
4.9028637361659
4.5495271319793
4.1675379382666
3.7678870632237
3.363964506922
2.9676068511806
2.5903406312537
2.243654510855
1.9415700753154
1.6815628665418
1.461309759228
1.2801898217495
1.1325066664563
1.0136666086039
0.91755525352149
0.83651712422045
0.76754014960497
0.70786692003904
0.65526478424941
0.60868335176718
0.56741698720354
0.53059477317471
0.49725409540641
0.46676248079957
0.43873575949056
0.41299079313756
0.3893478682025
0.36751512678438
0.3472256385539
0.32836091310371
0.31090542531815
0.29482601827558
0.28002475671284
0.26633503953111
0.2535797636995
0.24162102484187
0.23036955520924
0.21978196275006
0.20984810136416
0.20055918390997
0.1918840989211
0.18377566307347
0.17616697931439
0.16897237505677
0.16214923343333
0.15567298739822
0.14883229407297
14.888235353734
576.7547138571
444.24085583655
195.21787475731
28.922476997623
17.81151618517
13.79142481629
12.340456785878
8.054390109636
7.9467346083167
8.2756718187251
8.5636108364983
8.8248455868874
9.0951397135934
9.4046714939588
9.7616955699367
10.160093086216
10.566435929986
10.937997996198
11.249763626331
11.477191054426
11.590819870874
11.587461016666
11.502311025125
11.347005323611
11.133531799874
10.882326736028
10.610057986753
10.318790702329
10.015415492924
9.7103907987469
9.4081188692295
9.1095486644012
9.2685592811918
8.9530201853301
8.6633227666422
8.3967941731079
8.1482467526722
7.9096867142189
7.6784612946466
7.4460068313107
7.2086249510244
6.9588352109835
6.7009497969657
6.4341399003441
6.1564863780139
5.8742168235071
5.6032095845053
5.347888016654
5.1280815184667
5.007762109631
4.9903848554676
5.0396972827701
5.1654730736539
5.3137483726092
5.3651030008702
5.3426619599007
5.2907915778975
5.205244125732
5.0841076804863
4.9410900273067
4.7858032760138
4.6238376781598
4.468965972911
4.3308183648473
4.226714384557
4.1634066314662
4.1173659080063
4.082908927105
4.0628163197378
4.0512866454231
4.048665480236
4.0450636841324
4.0369879227866
4.0216207808236
3.9947357179565
3.9562183582249
3.9055359674371
3.8450243911184
3.7778954110006
3.7082153872884
3.6399538013011
3.5719337997129
3.5078328962388
3.4428427924798
3.3849502850307
3.3000857585813
4.1110678249434
2.8888344893413
5.7011743421886
5.5166451675668
5.2687548665184
4.9696367497942
4.6329559012088
4.2700165220548
3.8933282733509
3.5119156748043
3.1363162479978
2.7689903776921
2.4350641411325
2.1245871074944
1.8471516459307
1.6046776988116
1.3965574005699
1.220982288439
1.0746493168913
0.95364836386653
0.85372306900799
0.7685320229271
0.69609325865016
0.63461136958725
0.58184284001032
0.5362013925837
0.49675826189634
0.46261132850838
0.43262036227781
0.40588266961256
0.38181948118117
0.36015528087191
0.34061871219801
0.32279853943854
0.30632218259468
0.29103163263076
0.27689831533528
0.26388808535639
0.25189575381712
0.24075355086617
0.23029003572956
0.22037702597666
0.21095745287588
0.20201008325435
0.19354857895795
0.18558693610339
0.17811592858316
0.17110262720363
0.16448715078056
0.15819626157557
0.15219444991097
0.14646465072553
0.14044598080315
11.748144086857
567.08151708872
442.95289378416
201.30171248596
26.113612868579
14.272512984064
10.251740848731
8.6901404930706
5.820126423419
5.6892620291504
5.8483999326852
5.9819740316152
6.0810823171039
6.1835281436976
6.3199171495973
6.5042812936707
6.7337323230957
6.9920479246961
7.2502966751128
7.4909183891823
7.7023351959374
7.8642295901108
7.9616465811017
8.0060000060609
7.9982972540804
7.9498292907097
7.8638344561176
7.7558875374614
7.6214619437586
7.4713012852503
7.3148877625252
7.1528192126107
6.9880704235688
7.2796035731445
7.0872823340728
6.9156469412062
6.7520132634838
6.6032031938123
6.4639092560915
6.3278871195919
6.1877384306635
6.038727778102
5.87962742629
5.7109160528393
5.5316278015563
5.3404416079753
5.1393331246196
4.9373639953569
4.7434598236309
4.574739771126
4.4846491700214
4.4758444923852
4.5098640165782
4.6156024486758
4.7343179151145
4.8396833778439
4.8444561613744
4.8227696211939
4.770145671603
4.6862902268879
4.5861638671664
4.475056624834
4.3578031961136
4.239075948347
4.1179647292331
4.0333282466768
3.9798716929959
3.9473441080118
3.9258765457661
3.916687253103
3.9140937007559
3.9146934707715
3.9155130353095
3.9123153283427
3.901962538161
3.8842206335369
3.8557881151456
3.8181424183934
3.77276944888
3.7206080143598
3.6644770874071
3.6063599028876
3.547983788794
3.4901568699788
3.4308659071898
3.3769188395354
3.2964401960114
4.0079882648282
2.9983891814286
5.6281832193366
5.3517203694948
4.9858216581695
4.5875508335219
4.2079589008761
3.8423673574725
3.4958569216397
3.1613012475723
2.8436618652908
2.5389984132833
2.2596899700614
1.9966112051778
1.7535703671157
1.5364163934679
1.3456608591686
1.1809646722737
1.041346554288
0.92457733394942
0.82631659989265
0.74215865789561
0.66976449258133
0.607154687393
0.55315407761218
0.5065247043609
0.46599028240276
0.43066788786
0.3999467438648
0.37293349365179
0.34895367009677
0.32763646798148
0.30865777450099
0.29161883606551
0.27611479576669
0.26189637176847
0.24889041243546
0.2370421883178
0.22622090736478
0.21627794130716
0.20707370093865
0.19847219750504
0.19037119640558
0.1827177721485
0.17550470846686
0.1687331884247
0.1623979700694
0.15646106105459
0.15085576203655
0.14550972416687
0.14038515256987
0.1354636110334
0.13038725380498
8.1801951655182
551.82182694784
440.20059102786
209.84927697037
23.113088867927
10.476672514771
6.714975884607
5.2233510152352
3.6856764797195
3.6348936836577
3.7179153011277
3.7987907318416
3.8519585207222
3.8981121890551
3.9510941210071
4.0238697045866
4.1229600463477
4.2529734948988
4.4123446415276
4.5972716051241
4.8051602769125
5.0222866759895
5.2258257165297
5.4079827013798
5.553343344453
5.6599784423909
5.7303938441226
5.7598850299293
5.753561134082
5.7232967764865
5.6725990083138
5.6046293773356
5.524775965068
5.7295547882365
5.6281310401268
5.5335452205476
5.44604012901
5.368717519817
5.2969232094285
5.2247257558713
5.1462447415604
5.0569586515664
4.9568621547981
4.8475577249005
4.7280435722555
4.5968556091437
4.45320707511
4.3038817868551
4.1613182071642
4.0390523703086
3.9838938671234
3.9784229652715
4.0074746063021
4.1103257437104
4.2322249833095
4.369097657935
4.4588739342524
4.4671461860616
4.4500030979569
4.4052359889321
4.3408166095284
4.2602948594416
4.1696927624461
4.0717053448637
3.9700093539435
3.8903160309414
3.8378303355499
3.8041038485987
3.7849577272307
3.776385173864
3.7777516173012
3.7811113538201
3.7869234646521
3.7901758784325
3.7884958838854
3.780535596541
3.7623341347543
3.7351841026083
3.699875156568
3.6588806555276
3.6140430479878
3.5675997520995
3.5204065469513
3.4773605917827
3.4312293030526
3.3998423475385
3.3599816446074
4.1848307617873
3.2588692845964
7.6615262903248
6.3710306208604
5.2251389798362
4.4109379513282
3.8143862532562
3.3460163100776
3.0114400628914
2.7664025230422
2.5383088923971
2.3089328255376
2.0801430586236
1.8618224501393
1.6581526960809
1.4691041683169
1.2983572116866
1.1474073890325
1.0163493277059
0.90448538165254
0.80834833185729
0.72533083477289
0.65374229476303
0.59211962792206
0.53864452776213
0.49202786515568
0.45138204185006
0.41575716934772
0.38439572778611
0.3567161842864
0.3322271251935
0.31049135524106
0.29116438520078
0.27388144671748
0.25830233930696
0.24414360515759
0.23126985383378
0.21959712207719
0.2089956362808
0.19933249720246
0.19046425255877
0.18226125284559
0.17461939467518
0.16747055447834
0.16077949152102
0.15453579164223
0.14872731713979
0.14332160424035
0.13825510983522
0.13345848747446
0.12889096696934
0.12452268271719
0.12022830687936
4.9634068241739
529.49474341587
435.84240551331
220.2254317551
20.541591558264
6.4798367569328
3.7497321890098
2.7451279803836
2.0326157890134
1.9849546709503
2.0558489830054
2.1393235695027
2.2250538605602
2.3072087350788
2.3781601177684
2.4381714335756
2.497053528221
2.5700359434771
2.6722889831169
2.8152315114138
3.0063044566231
3.2523115479806
3.5387172076617
3.8276117272067
4.0948805191685
4.3224847639787
4.5111720030216
4.6442789124197
4.7343256328706
4.7839936335649
4.7981053764919
4.7855785777415
4.7550780087486
4.8628690780292
4.8131244870474
4.7609484674023
4.7135190942988
4.6705929643653
4.6292807167083
4.5860471381247
4.5351091764487
4.4716007355658
4.3962466075836
4.3119995919633
4.2185214166548
4.1141031103144
3.998169099214
3.8761175111412
3.7604364030549
3.6710212272274
3.6346222234342
3.632976272619
3.6607991818171
3.7564084835809
3.8771061032842
4.0188582903643
4.133471220437
4.2194600008943
4.2353255038246
4.2222283393469
4.1908445090376
4.1385610180208
4.0679596181356
3.9840181564824
3.8955635648479
3.8204759328605
3.7677433421043
3.7343565024116
3.7185338682929
3.7166981433232
3.7205681069881
3.7277234189816
3.7372427306136
3.7470133721077
3.7583507784345
3.7665571756506
3.7719226815861
3.7724839749413
3.7697839732156
3.7658357909377
3.7636761410491
3.7666504997298
3.7766432511176
3.7990624062397
3.8375144642715
3.8949954255135
3.9748410547139
5.3053367861161
4.8149494841488
11.817950514817
7.9253917454297
6.1471379096947
4.8775129133159
4.0076298078328
3.3869748449189
2.9080851269421
2.5542290025411
2.275313805926
2.0797762277216
1.9208979142963
1.7481333259598
1.5716938932751
1.4042905772308
1.2525151803444
1.1164305651069
0.9952738923613
0.8886306768318
0.79489723621077
0.71349922850453
0.64289023674687
0.58164598086755
0.52869525063385
0.48267389892237
0.44226478063668
0.40677256287499
0.37551805881754
0.34781334959521
0.32312086460648
0.30115420545744
0.28155481056151
0.26400197448772
0.24819983943603
0.23387341299531
0.22085720343029
0.20905321110944
0.19834789311132
0.18859635822752
0.1796812850698
0.17150139141298
0.16394440727352
0.15692084413555
0.15037714964333
0.1442959821396
0.13866393581723
0.13345003201827
0.1285924960695
0.12402855098594
0.11971468208711
0.1156097337305
0.11168342197825
2.5029523320953
500.89975291668
429.67182354251
231.84530630162
18.511931180951
3.6148789266365
2.3238491725021
1.9186512796999
1.5163794214526
1.4896919627882
1.5487503173799
1.5925759748099
1.6290381906261
1.6710070490233
1.7151439032488
1.7542736476164
1.7909483605873
1.837902418752
1.9083064341351
2.0120743190349
2.1564144330123
2.3488285535222
2.6003951421379
2.9187462435092
3.260328871545
3.5687151512843
3.8246184510564
4.0243446045901
4.166666608862
4.2589145193741
4.3091400584998
4.3290681624472
4.328754420088
4.4033298279978
4.3811856886096
4.3539356072067
4.3293203153123
4.3032676978895
4.2761026644747
4.2457636494439
4.206404161709
4.1530095864503
4.0871900173952
4.0117988022216
3.9262940235915
3.8300180430256
3.723543908263
3.6139051003903
3.5127451733757
3.4548663112962
3.429000531638
3.4306235202475
3.452780582212
3.5365943814355
3.6488648539126
3.7845397457041
3.9185936655723
4.0495396740554
4.1279431063674
4.1346249843185
4.1216847485262
4.0894171516991
4.0373340608334
3.9697710761342
3.8928836855952
3.8378952907622
3.786638431514
3.7696235220697
3.7744226650791
3.7911834618572
3.8209058881916
3.8627642550825
3.9173931737667
3.9825314723888
4.0580962125751
4.1413918784639
4.2315886644825
4.3326932824132
4.445501883363
4.5750430941361
4.7267146087747
4.9093080203142
5.1320690743685
5.4093588129345
5.7513904034834
6.16962993137
6.676670313641
9.6465318094927
10.83099761732
6.650791619464
7.0111836624224
5.368596227988
4.6603684773181
4.0120261736572
3.4749183625464
3.0481944240238
2.7003176921048
2.3598041537937
2.0749008896326
1.8498985728254
1.6743684955558
1.5364821426002
1.3946507297109
1.2510184561779
1.1192159969518
1.0022663840004
0.89832327192333
0.8051982641672
0.72300152893748
0.65112825533693
0.58847723238678
0.53399036637708
0.48662072259967
0.44533903859204
0.4088910370759
0.37673081233519
0.34833799290612
0.32314392946166
0.30056884395935
0.28035962415736
0.26224738570261
0.24592995537111
0.23117163286798
0.21775384943589
0.20554084985969
0.19443223600469
0.18431936566589
0.17509232223426
0.1666350211837
0.15884835669191
0.15165482279544
0.14498099059533
0.13878740722094
0.13305436085015
0.12775426680826
0.1228462936973
0.11827259659972
0.11396711777715
0.10990435063931
0.10606952364109
0.13793255589344
331.16767757338
447.91824174919
300.53158872881
50.187723215145
3.0542012210965
2.4800837804828
2.5971254717207
2.4558506041798
2.3103210415204
2.2251838525006
1.9384777855768
1.6581990587662
1.531287436397
1.4886365672254
1.477302821601
1.4879760560944
1.5078875593652
1.5442973987033
1.609998288275
1.7144840770237
1.8648340148726
2.0700067525241
2.3386371009555
2.6798455339906
3.0469874192873
3.3584857488687
3.6047529601362
3.7867933027271
3.9136237151452
3.9950321738426
4.0442075164792
4.0694328355317
4.1258237460997
4.1188896443471
4.1056763288815
4.0895868946148
4.0693414329104
4.0461679993191
4.0198200297249
3.9849805340899
3.9357945399441
3.8739756815214
3.8022844180307
3.7216402236623
3.6322445737427
3.5362282203038
3.4362736956832
3.3577598047953
3.3188465173548
3.3005537452996
3.303768993847
3.3243693153541
3.3932735023214
3.5143763934084
3.6599911323661
3.8266267615079
3.9925712698005
4.1236978362905
4.2169547085236
4.2438841275503
4.2368727873912
4.2167968871024
4.1839723981409
4.1557819865908
4.1644945728081
4.1958459552599
4.2608645385949
4.3633811057375
4.5073373136063
4.697350763316
4.9351154638077
5.2259663726646
5.5690084315109
5.9687737470965
6.4256003569044
6.9442876844334
7.5337853350379
8.2027259570755
8.9713880217253
9.8618727520743
10.905432405114
12.137471909575
13.595927314948
15.315973059655
17.305196708195
19.74260865053
36.451849060681
32.281736998812
4.240534848145
3.506294271948
3.2756144069374
3.0623527490722
2.954762441336
2.8005576275958
2.6268793287459
2.4533732395676
2.274038788891
2.0865649789658
1.878846303653
1.6322967429976
1.441563531211
1.2856626114223
1.1620463033873
1.05232746126
0.94575135538589
0.8486180835276
0.76250675778183
0.68732854943949
0.62149111155284
0.56330148211801
0.51196829971149
0.46678033056067
0.42701763385389
0.39203095335911
0.36120309508093
0.33379872628778
0.30943311919608
0.28773540294398
0.26829158892114
0.25077902842774
0.23490059678559
0.22055434292469
0.20749435835424
0.19558036791466
0.18467160686745
0.17469913669008
0.16556422410287
0.15715938301551
0.14940998022208
0.14225056051876
0.13560655513167
0.12944395175597
0.12373274325107
0.11844303543726
0.11353604101252
0.10897504700067
0.10470611626557
0.10069171795923
0.096927188154789
0.20257023565691
353.65702736396
394.51447750953
266.01563676018
36.858428320641
6.6590667207559
20.135435476847
29.287493250001
26.62633282921
29.463047553841
31.100054853064
27.182338844902
17.667452380173
7.2442223256285
2.4002643010981
1.4322545177253
1.2587617335448
1.2140120281507
1.2205920457881
1.2596318773809
1.3498473705721
1.5003137352645
1.7159960811142
2.0042558367006
2.3798106860209
2.7889809334384
3.1275779797629
3.3957647159556
3.6062625153413
3.7709010917185
3.9022943984674
3.9855812066769
4.018899641676
4.0014902443864
3.9804503920186
3.9505975549231
3.9138147633047
3.8747053188453
3.8375297851766
3.7987975420111
3.7515481219145
3.6902788744215
3.6197462229304
3.543453866121
3.4626636309305
3.3814026466049
3.3070818678743
3.2538697441904
3.2326029071771
3.2335449391358
3.2474429841251
3.2820245441508
3.3643754049676
3.7490795322814
3.9987797443459
4.3010138269942
4.6496413686003
5.0132183248345
5.3476989015448
5.6102573213024
5.8422908815276
5.9992616704898
6.1405466212418
6.2980965282121
6.5009183302528
6.7899456237976
7.2027725332602
7.7680415902994
8.5149305696994
9.4772241897077
10.680754979398
12.148751757352
13.906195232077
15.961408453204
18.329244935155
21.022686536646
24.055511743762
27.461144704984
31.272233041783
35.564262220081
40.384457331919
45.775907321575
51.779351772783
58.389121867561
65.59545706224
73.194592577992
82.643239327204
130.63615380971
87.803800860784
3.7372655166675
2.076724123791
2.1529764946248
2.0937221856248
2.0926369916792
2.093520290953
2.0819353987092
2.0453220579982
1.9965354582117
1.9164303498268
1.8132440213799
1.6848126203394
1.5069590746216
1.3023311457335
1.1470614312388
1.0206819376843
0.91786307690395
0.8311737840713
0.74967011207471
0.67595539819218
0.61058142101017
0.55366214458297
0.50417735781329
0.46052543733366
0.42164654674843
0.38706401058338
0.35634826883516
0.32905432162857
0.30481171446621
0.28315532357002
0.26369233728965
0.24622493443641
0.23045987095586
0.21621695365838
0.20326955042701
0.19143834811561
0.18061859615468
0.17071502644266
0.16160063661816
0.15321258545502
0.14548403184752
0.13832537653583
0.13168425054005
0.12551021990725
0.11976286857257
0.11442406887564
0.10946502446823
0.10483960586548
0.10051269352166
0.096469349272778
0.092672407485144
0.09533169667723
171.24164535877
352.93622314382
278.37685397509
82.171801803711
35.674091211614
69.629962409881
80.175439385133
71.878194732198
77.58585167332
85.890848465917
87.068697216233
77.818167057797
57.07927299805
27.888945103375
7.4980439005115
1.9599083090304
1.1851286691521
1.0819457769644
1.0925559177663
1.1704760401
1.3318652977119
1.5768672833378
1.9094547779957
2.3416667400225
2.7862524818427
3.1601397038681
3.4670947377702
3.691443024946
3.8409262214903
3.9240350698755
3.957244008776
3.9583870413149
3.9687601517988
3.940006776073
3.9162352700245
3.9012449769448
3.895512316825
3.8933883097681
3.891394249182
3.8816691855686
3.8607580795805
3.8291966063341
3.7890382069112
3.7452624730741
3.7062634596221
3.6992954534156
3.7297869330563
3.791593368652
3.8830437659137
4.0154112277698
4.2083013641119
4.5587795613206
5.9987218304043
6.7470175658854
7.6339390682423
8.6488674529587
9.7629380511292
10.938024334801
12.01369132114
13.050522252108
14.087939792772
15.212515909203
16.507779943132
18.085043397785
20.057829038696
22.536144616854
25.598029018297
29.328017203097
33.776968315753
38.941733262964
44.786769416017
51.273901998326
58.323787064507
65.863144343584
73.833956862247
82.209467903936
90.99949805956
100.21488309505
109.87165486138
119.96281298129
130.49937430491
141.49401448187
152.93077134402
164.78488716001
176.83789734497
194.14273945698
263.86131685272
168.17194245565
3.519027987274
1.5766893998003
1.5148737019007
1.5309988505759
1.5493237366996
1.5846469956604
1.6165883207714
1.6385778479441
1.6457395830967
1.6480769800059
1.6215249681382
1.5569080978119
1.4799646933515
1.3561126877118
1.1902894318095
1.0336158701635
0.91391907805793
0.81660502179513
0.73618497761653
0.66790132497466
0.60492424611957
0.5484321644111
0.49860068848336
0.45508581679435
0.4169346939763
0.38316092418344
0.35305915591365
0.32612634027351
0.30200136350358
0.28035641063171
0.26091484733694
0.24344346699379
0.22766370331619
0.21338334751235
0.20042852405039
0.18862912919181
0.17783526646808
0.16796906613055
0.15892280851209
0.15059670656468
0.14291647539014
0.13580966959271
0.12920187434579
0.12305842221295
0.11734578364607
0.11202780491497
0.10706853648489
0.10243389829542
0.098111454967992
0.094054871872765
0.090245391662108
0.086440256161388
42.609192514884
296.19660512326
273.13971268728
143.85109463243
75.751699422261
119.66293295788
122.44533053903
108.6651239776
115.24284873295
128.31526909612
133.10694186997
125.98511081317
106.08278302749
73.878531978456
33.803232652536
8.9213256748399
2.2744998084332
1.1497676597649
1.0407074658289
1.0868500564679
1.2586842473866
1.5515243841818
1.9627419730925
2.4625667794085
2.8960296294872
3.2077773362921
3.4128725547624
3.5320768843646
3.6220185779655
3.6999761518772
3.7695828316663
3.8414235730666
3.9007311786825
3.9917287617004
4.1104853831962
4.2597922184162
4.4321930399875
4.6204687776635
4.7985804303594
4.9650442699165
5.1084986831817
5.2186691517032
5.3077854122546
5.4020629367448
5.5337424880967
5.7142008345793
5.95053028756
6.264585354086
6.6765185921475
7.2105418144538
7.9303526976478
9.1969654964607
14.206861891784
16.558704673199
19.498593060357
22.98790517795
26.895768608394
30.983000607957
34.946402474458
38.909002799117
42.969483591071
47.275631576797
52.018338680454
57.423084760669
63.661200546651
70.851278729838
79.022284603619
88.113938526315
97.977212022786
108.44681150808
119.40025989124
130.74663012012
142.38388043705
154.242161102
166.28912008587
178.5354596043
191.05150476194
203.89721123075
217.12265944401
230.72581036482
244.69742979425
259.03521530309
273.73783749354
288.81097740891
304.41856524945
327.75005613024
394.91172817297
260.26855988117
3.7960163446549
1.3981733643244
1.1679122847549
1.1740481078932
1.1997968772041
1.2396343327274
1.2821895382823
1.3212505252449
1.3532814623237
1.3742139818005
1.3951776958499
1.3895533899345
1.3425062830224
1.2940914970687
1.2057170197075
1.0820882009877
0.93952692065855
0.82530132436144
0.73534552871718
0.66145059223913
0.59910109208581
0.54525840495607
0.49633803126293
0.45271775888943
0.4141882685559
0.38022868600481
0.35021702808447
0.32360359329371
0.29983824277012
0.2784528018482
0.25913450310781
0.24166660448891
0.22587657848956
0.21156983980243
0.19858864949171
0.18677062662212
0.17599168283181
0.16611471590563
0.15705207104821
0.14872283976815
0.14103318358966
0.13393830126112
0.12737224304415
0.12127547444345
0.11560687475265
0.11032870040532
0.10539526627751
0.10079354745884
0.096481678999202
0.092435853820587
0.088654195476514
0.085005782940139
2.5725763255782
220.74540611873
245.23802724814
185.49550009497
108.72186247134
157.02401220483
155.66827739279
129.1126837528
138.77575599434
158.18124501565
163.93884270685
154.87014366833
133.4318416
101.0508661314
58.256718083138
18.753309728756
4.6181542502191
1.4564922140837
1.0298738319401
1.0534523570371
1.2500858735625
1.620915423139
2.135878861549
2.5639544396358
2.8620383118729
3.0695396799131
3.2622749459199
3.4649754269488
3.7213058583435
4.0279547417838
4.3798873247281
4.7838663762481
4.9450820012262
5.3962306741075
5.9030031748283
6.4616703253578
7.0629036834561
7.6895543270085
8.3179491434703
8.9207728916857
9.4718858060122
9.9544228246953
10.425197338219
10.934988925804
11.540495980379
12.292935086313
13.240516034979
14.451877298707
16.013036466899
18.019521446674
20.695730648963
25.045938372048
39.32742417086
45.695636281799
53.397024767512
62.048633260357
71.136607479119
80.23290493346
88.668189689827
96.798953722365
104.95655033004
113.31326824407
122.10959600491
131.65859105336
142.1696810041
153.64277064393
165.96332707287
178.99286735458
192.56247737311
206.5029906588
220.68719116778
235.03304000068
249.49091152955
264.04456238368
278.70283400487
293.49670135571
308.48376792642
323.69847997554
339.16050028889
354.86364978618
370.80565914747
387.00457013447
403.47723597521
420.27266879414
437.79190093695
461.73584017746
507.51052408952
362.61589890307
5.0599070166248
1.294113650824
0.99984041598211
0.94251946086944
0.96388468499287
1.0003118734447
1.0431641968868
1.0842199568166
1.1219465717059
1.1549532448435
1.182141590738
1.2071123437441
1.2081027365907
1.1644927435026
1.1352891893486
1.0697353530604
0.97044195884233
0.85902702415042
0.75021763157327
0.6668493708911
0.59944876543995
0.54294301368685
0.49418503852077
0.4516612282895
0.41347608928106
0.37937777739151
0.34900320325626
0.32205032739975
0.29811560111948
0.27677682622647
0.25762850340324
0.24034046769953
0.22466991131584
0.21040510176296
0.19741371001378
0.18556083778153
0.17475872722539
0.16484210605915
0.155743451136
0.14737620328203
0.13967631152677
0.13258040235771
0.12602589841049
0.11993694656169
0.11427366549339
0.10900010294856
0.10409403034739
0.09950741650882
0.095221396779318