/*--------------------------------*- C++ -*----------------------------------*\
| =========                 |                                                 |
| \\      /  F ield         | OpenFOAM: The Open Source CFD Toolbox           |
|  \\    /   O peration     | Version:  2312                                  |
|   \\  /    A nd           | Website:  www.openfoam.com                      |
|    \\/     M anipulation  |                                                 |
\*---------------------------------------------------------------------------*/
FoamFile
{
    version     2.0;
    format      ascii;
    arch        "LSB;label=32;scalar=64";
    class       volScalarField;
    location    "4e-05";
    object      maxKappa;
}
// * * * * * * * * * * * * * * * * * * * * * * * * * * * * * * * * * * * * * //

dimensions      [0 0 0 0 0 0 0];

internalField   nonuniform List<scalar> 
109340
(
0.11369483429116
0.1138777224642
0.1142551159881
0.1147288278311
0.11526320566414
0.11583728778935
0.11645364267624
0.11712216875515
0.11784777573366
0.11866897690938
0.11962705582668
0.12076285814715
0.1221219932549
0.12375624977039
0.12572378758255
0.12808946458967
0.13092592887413
0.13431437511568
0.1383459129904
0.1431233310939
0.14876307324605
0.155396978219
0.16317489282885
0.1722691662199
0.18288067659643
0.19524830659824
0.20966318444465
0.22649122545359
0.2462092506398
0.26946501883495
0.29718139037295
0.33074748398823
0.37238264533692
0.42582794794204
0.49770489385737
0.59992347585493
0.11363893253725
0.11389273225038
0.1143265165301
0.11483574190825
0.11538808970648
0.11596650563832
0.11657940880373
0.11724491842872
0.11798788746576
0.11883967663117
0.1198373330633
0.12102259323445
0.12244276350088
0.12415134576435
0.12620837896277
0.12868090982693
0.13164342126082
0.13517951704625
0.13938319352771
0.14436058883644
0.15023195231424
0.15713354950809
0.16522052142458
0.17467180784231
0.18569688178253
0.19854615653737
0.21352694296424
0.23102871006493
0.25156389671986
0.27583664336058
0.30486383105358
0.34020551954924
0.38442129473719
0.44199328657918
0.52147437153769
0.63881978899414
0.11351489321327
0.11381585490724
0.1142965467918
0.11481495989564
0.11535948340992
0.11592743544619
0.11653480089572
0.11719893618211
0.11794146231545
0.11879246872994
0.11978862554687
0.12097187170282
0.12238973201242
0.12409583931542
0.12615015151461
0.12861950680552
0.13157845304026
0.13511056526085
0.1393099989997
0.14428306030953
0.15015050707307
0.15704906270172
0.1651345413107
0.17458649284971
0.18561531274587
0.19847237433881
0.21346605393167
0.23098688213611
0.25154840607028
0.27585614535082
0.30492927787517
0.34033829912612
0.38470458577067
0.44278482314434
0.52427673198249
0.65047742924054
0.11332863050399
0.11370800758894
0.11421292921826
0.11474745145766
0.11530266017126
0.11588133243141
0.11649540842088
0.11716264012957
0.11790615509525
0.11875627544626
0.11974966025684
0.12092853441842
0.12234082785934
0.12404054271771
0.12608814377559
0.12855106278584
0.13150444634329
0.13503262113564
0.13923092287929
0.1442069178982
0.15008359236325
0.15699996343925
0.16511472991116
0.17461079627373
0.18570255535331
0.19864621764532
0.21375581364972
0.23142847437554
0.25218567482991
0.27674314736505
0.30613414071654
0.34195110484433
0.38691360762918
0.44615523259427
0.53113407025554
0.67340892740972
0.11305593564611
0.11355958996835
0.11414141708982
0.11471345386666
0.11528325703171
0.11586501672157
0.11647685184221
0.11713767334542
0.11787324545448
0.11871489286417
0.11969972323082
0.12087093634011
0.12227789109596
0.12397668733537
0.12603061522234
0.12851077977143
0.13149701321841
0.13507991379384
0.13936475737411
0.14446678227211
0.15052244320108
0.15777181518167
0.16644051399113
0.17666422122065
0.18869331395082
0.20282402814944
0.21941502223
0.23891257749875
0.26189222137261
0.28912925198065
0.32173039078122
0.36132722161809
0.41078650328642
0.47555941254023
0.56893402831699
0.73452815414581
0.11261917553835
0.11348822140379
0.1141261524225
0.11470936617409
0.11528021144857
0.11586439468171
0.11648621437194
0.11717342795223
0.11796030758506
0.11889037173766
0.12001566821307
0.12139763703005
0.12310736370319
0.12522611630387
0.1278461588818
0.13107189485068
0.13502026289268
0.13981750738508
0.14560276303609
0.15256833133383
0.16090475653674
0.17083011249892
0.1825902699903
0.19646352731609
0.21276920840634
0.23188008011743
0.2542425116347
0.28040735779992
0.3110814798286
0.34721603919072
0.39015544200796
0.44194698065807
0.50614151916678
0.58975134574409
0.71111750898723
0.95676749856014
0.74873343243739
0.9484386620323
1
1
1
1
1
1
1
1
1
1
1
1
1
1
1
1
1
1
1
1
1
1
1
1
1
1
1
1
1
1
1
1
1
1
1
1
1
1
1
1
1
1
1
1
1
1
1
1
1
1
1
1
1
1
1
1
1
1
1
1
1
1
1
1
1
1
1
1
1
1
1
1
1
1
1
1
1
1
1
1
1
1
1
1
1
1
1
1
1
1
1
1
1
1
1
1
1
1
1
1
1
1
1
1
1
1
1
1
1
1
1
1
1
1
1
1
1
1
1
1
1
1
1
1
1
1
1
1
1
1
1
1
1
1
1
1
1
1
0.81781542648013
1
1
1
1
1
1
1
1
1
1
1
1
1
1
1
1
1
1
1
1
1
1
1
1
1
1
1
1
1
1
1
1
1
1
1
1
1
1
1
1
1
1
1
1
1
1
1
1
1
1
1
1
1
1
1
1
1
1
1
1
1
1
1
1
1
1
1
1
1
1
1
1
1
1
1
1
1
1
1
1
1
1
1
1
1
1
1
1
1
1
1
1
1
1
1
1
1
1
1
1
1
1
1
1
1
1
1
1
1
1
1
1
1
1
1
1
1
1
1
1
1
1
1
1
1
1
1
1
1
1
1
1
1
1
1
1
1
1
1
0.86231269979432
1
1
1
1
1
1
1
1
1
1
1
1
1
1
1
1
1
1
1
1
1
1
1
1
1
1
1
1
1
1
1
1
1
1
1
1
1
1
1
1
1
1
1
1
1
1
1
1
1
1
1
1
1
1
1
1
1
1
1
1
1
1
1
1
1
1
1
1
1
1
1
1
1
1
1
1
1
1
1
1
1
1
1
1
1
1
1
1
1
1
1
1
1
1
1
1
1
1
1
1
1
1
1
1
1
1
1
1
1
1
1
1
1
1
1
1
1
1
1
1
1
1
1
1
1
1
1
1
1
1
1
1
1
1
1
1
1
1
1
0.95917060587787
1
1
1
1
1
1
1
1
1
1
1
1
1
1
1
1
1
1
1
1
1
1
1
1
1
1
1
1
1
1
1
1
1
1
1
1
1
1
1
1
1
1
1
1
1
1
1
1
1
1
1
1
1
1
1
1
1
1
1
1
1
1
1
1
1
1
1
1
1
1
1
1
1
1
1
1
1
1
1
1
1
1
1
1
1
1
1
1
1
1
1
1
1
1
1
1
1
1
1
1
1
1
1
1
1
1
1
1
1
1
1
1
1
1
1
1
1
1
1
1
1
1
1
1
1
1
1
1
1
1
1
1
1
1
1
1
1
1
1
1
1
1
1
1
1
1
1
1
1
1
1
1
1
1
1
1
1
1
1
1
1
1
1
1
1
1
1
1
1
1
1
1
1
1
1
1
1
1
1
1
1
1
1
1
1
1
1
1
1
1
1
1
1
1
1
1
1
1
1
1
1
1
1
1
1
1
1
1
1
1
1
1
1
1
1
1
1
1
1
1
1
1
1
1
1
1
1
1
1
1
1
1
1
1
1
1
1
1
1
1
1
1
1
1
1
1
1
1
1
1
1
1
1
1
1
1
1
1
1
1
1
1
1
1
1
1
1
1
1
1
1
1
1
1
1
1
1
1
1
1
1
1
1
1
1
1
1
1
1
1
1
1
1
1
1
1
1
1
1
1
1
1
1
1
1
1
1
1
1
1
1
1
1
1
1
1
1
1
1
1
1
1
1
1
1
1
1
1
1
1
1
1
1
1
1
1
1
1
1
1
1
1
1
1
1
1
1
1
1
1
1
1
1
1
1
1
1
1
1
1
1
1
1
1
1
1
1
1
1
1
1
1
1
1
1
1
1
1
1
1
1
1
1
1
1
1
1
1
1
1
1
1
1
1
1
1
1
1
1
1
1
1
1
1
1
1
1
1
1
1
1
1
1
1
1
1
1
1
1
1
1
1
1
1
1
1
1
1
1
1
1
1
1
1
1
1
1
1
1
1
1
1
1
1
1
1
1
1
1
1
1
1
1
1
1
1
1
1
1
1
1
1
1
1
1
1
1
1
1
1
1
1
1
1
1
1
1
1
1
1
1
1
1
1
1
1
1
1
1
1
1
1
1
1
1
1
1
1
1
1
1
1
1
1
1
1
1
1
1
1
1
1
1
1
1
1
1
1
1
1
1
1
1
1
1
1
1
1
1
1
1
1
1
1
1
1
1
1
1
1
1
1
1
1
1
1
1
1
1
1
1
1
1
1
1
1
1
1
1
1
1
1
1
1
1
1
1
1
1
1
1
1
1
1
1
1
1
1
1
1
1
1
1
1
1
1
1
1
1
1
1
1
1
1
1
1
1
1
1
1
1
1
1
1
1
1
1
1
1
1
1
1
1
1
1
1
1
1
1
1
1
1
1
1
1
1
1
1
1
1
1
1
1
1
1
1
1
1
1
1
1
1
1
1
1
1
1
1
1
1
1
1
1
1
1
1
1
1
1
1
1
1
1
1
1
1
1
1
1
1
1
1
1
1
1
1
1
1
1
1
1
1
1
1
1
1
1
1
1
1
1
1
1
1
1
1
1
1
1
1
1
1
1
1
1
1
1
1
1
1
1
1
1
1
1
1
1
1
1
1
1
1
1
1
1
1
1
1
1
1
1
1
1
1
1
1
1
1
1
1
1
1
1
1
1
1
1
1
1
1
1
1
1
1
1
1
1
1
1
1
1
1
1
1
1
1
1
1
1
1
1
1
1
1
1
1
1
1
1
1
1
1
1
1
1
1
1
1
1
1
1
1
1
1
1
1
1
1
1
1
1
1
1
1
1
1
1
1
1
1
1
1
1
1
1
1
1
1
1
1
1
1
1
1
1
1
1
1
1
1
1
1
1
1
1
1
1
1
1
1
1
1
1
1
1
1
1
1
1
1
1
1
1
1
1
1
1
1
1
1
1
1
1
1
1
1
1
1
1
1
1
1
1
1
1
1
1
1
1
1
1
1
1
1
1
1
1
1
1
1
1
1
1
1
1
1
1
1
1
1
1
1
1
1
1
1
1
1
1
1
1
1
1
1
1
1
1
1
1
1
1
1
1
1
1
1
1
1
1
1
1
1
1
1
1
1
1
1
1
1
1
1
1
1
1
1
1
1
1
1
1
1
1
1
1
1
1
1
1
1
1
1
1
1
1
1
1
1
1
1
1
1
1
1
1
1
1
1
1
1
1
1
1
1
1
1
1
1
1
1
1
1
1
1
1
1
1
1
1
1
1
1
1
1
1
1
1
1
1
1
1
1
1
1
1
1
1
1
1
1
1
1
1
1
1
1
1
1
1
1
1
1
1
1
1
1
1
1
1
1
1
1
1
1
1
1
1
1
1
1
1
1
1
1
1
1
1
1
1
1
1
1
1
1
1
1
1
1
1
1
1
1
1
1
1
1
1
1
1
1
1
1
1
1
1
1
1
1
1
1
1
1
1
1
1
1
1
1
1
1
1
1
1
1
1
1
1
1
1
1
1
1
1
1
1
1
1
1
1
1
1
1
1
1
1
1
1
1
1
1
1
1
1
1
1
1
1
1
1
1
1
1
1
1
1
1
1
1
1
1
1
1
1
1
1
1
1
1
1
1
1
1
1
1
1
1
1
1
1
1
1
1
1
1
1
1
1
1
1
1
1
1
1
1
1
1
1
1
1
1
1
1
1
1
1
1
1
1
1
1
1
1
1
1
1
1
1
1
1
1
1
1
1
1
1
1
1
1
1
1
1
1
1
1
1
1
1
1
1
1
1
1
1
1
1
1
1
1
1
1
1
1
1
1
1
1
1
1
1
1
1
1
1
1
1
1
1
1
1
1
1
1
1
1
1
1
1
1
1
1
1
1
1
1
1
1
1
1
1
1
1
1
1
1
1
1
1
1
1
1
1
1
1
1
1
1
1
1
1
1
1
1
1
1
1
1
1
1
1
1
1
1
1
1
1
1
1
1
1
1
1
1
1
1
1
1
1
1
1
1
1
1
1
1
1
1
1
1
1
1
1
1
1
1
1
1
1
1
1
1
1
1
1
1
1
1
1
1
1
1
1
1
1
1
1
1
1
1
1
1
1
1
1
1
1
1
1
1
1
1
1
1
1
1
1
1
1
1
1
1
1
1
1
1
1
1
1
1
1
1
1
1
1
1
1
1
1
1
1
1
1
1
1
1
1
1
1
1
1
1
1
1
1
1
1
1
1
1
1
1
1
1
1
1
1
1
1
1
1
1
1
1
1
1
1
1
1
1
1
1
1
1
1
1
1
1
1
1
1
1
1
1
1
1
1
1
1
1
1
1
1
1
1
1
1
1
1
1
1
1
0.97208491777812
0.92439953783365
0.88067522594001
1
1
1
1
1
1
1
1
1
1
1
1
1
1
1
1
1
1
1
1
1
1
1
1
1
1
1
1
1
1
1
1
1
1
1
1
1
1
1
1
1
1
1
1
1
1
1
1
1
1
1
1
1
1
1
1
0.96973672434913
1
1
1
1
1
1
1
1
1
1
1
1
1
1
1
1
1
1
1
1
1
1
1
1
1
1
1
1
1
1
1
1
1
1
1
1
1
1
1
1
1
1
1
1
1
1
1
1
1
1
1
1
1
1
1
1
1
1
1
1
1
1
1
1
1
1
1
1
1
1
1
1
1
1
1
1
1
0.99255779334585
0.92818549093048
0.87091721080973
0.82135478817675
0.7784513314803
0.74091568246159
1
1
1
1
1
1
1
1
1
1
1
1
1
1
1
1
1
0.99008334525631
0.97629061970807
0.95548012179041
1
1
1
1
1
1
1
1
1
1
1
1
1
1
1
1
1
1
1
1
1
1
1
1
1
1
1
1
1
1
1
1
1
1
1
1
0.73929623666648
1
1
1
1
1
1
1
1
1
1
1
1
1
1
1
1
1
1
1
1
1
1
1
1
1
1
1
1
1
1
1
1
1
1
1
1
1
1
1
1
1
1
1
1
1
1
1
1
1
1
1
1
1
1
1
1
1
1
1
1
1
1
1
1
1
1
1
1
1
1
1
1
1
1
1
0.99825447603243
0.91657724457228
0.8456992469382
0.78700580611397
0.7382370768925
0.69673887678424
0.66091580749891
0.62954723344892
1
1
1
1
1
1
1
1
0.98723013425769
0.96957389579191
0.95410939107959
0.94035171024851
0.92787293464315
0.91638832797406
0.90565240857437
0.8954430094529
0.88558260395314
0.87597380875299
0.86653461624801
0.85673883163344
1
1
1
1
1
1
1
1
1
1
1
1
1
1
1
1
1
1
1
1
1
1
1
1
1
1
1
1
1
1
1
1
1
1
1
1
0.54595350848427
1
1
1
1
1
1
1
1
1
1
1
1
1
1
1
1
1
1
1
1
1
1
1
1
1
1
1
1
1
1
1
1
1
1
1
1
1
1
1
1
1
1
1
1
1
1
1
1
1
1
1
1
1
1
1
1
1
1
1
1
1
1
1
1
1
1
1
1
1
1
1
1
1
1
0.94442251912865
0.85471254907058
0.78113846963542
0.72202241842255
0.67334335514391
0.63260703293225
0.5975650493555
0.56700184778563
0.54013639300624
1
1
0.9937360021155
0.96124389887443
0.93360357760015
0.91682904910014
0.89671664972902
0.87978509240242
0.86545631887533
0.85320409648779
0.84257919146944
0.83319635586081
0.8247867962117
0.81708601014552
0.80990736156903
0.80309169549271
0.79650913830161
0.79007239912499
0.78371224022002
0.77705662977113
1
1
1
1
1
1
1
1
1
1
1
1
1
1
1
1
1
1
1
1
1
1
1
1
1
1
1
1
1
1
1
1
1
1
1
1
0.44014381965044
1
1
1
1
1
1
1
1
1
1
1
1
1
1
1
1
1
1
1
1
1
1
1
1
1
1
1
1
1
1
1
1
1
1
1
1
1
1
1
1
1
1
1
1
1
1
1
1
1
1
1
1
1
1
1
1
1
1
1
1
1
1
1
1
1
1
1
1
1
1
1
1
1
0.90006845272187
0.80626628938623
0.73175734504438
0.67213786544894
0.62347381463226
0.58247864528533
0.54724285630591
0.51664717594972
0.49009676582139
0.4672305518825
0.92912761985837
0.89400372001865
0.86474613614377
0.84578497594885
0.82559438702835
0.80927770822528
0.79595418688005
0.784941527832
0.7756971926781
0.76779387212052
0.76090940370742
0.75479944801384
0.74928035158047
0.74422132214882
0.73951241210477
0.73504941480027
0.73073998210663
0.72651184142856
0.72230308132638
0.71787199155618
1
1
1
1
1
1
1
1
1
1
1
1
1
1
1
1
1
1
1
1
1
1
1
1
1
1
1
1
1
1
1
1
1
1
1
1
0.35883473700771
0.92801854836903
1
1
1
1
1
1
1
1
1
1
1
1
1
1
1
1
1
1
1
1
1
1
1
1
1
1
1
1
1
1
1
1
1
1
1
1
1
1
1
1
1
1
1
1
1
1
1
1
1
1
1
1
1
1
1
1
1
1
1
1
1
1
1
1
1
1
1
1
1
1
0.98961899252848
0.86671674741443
0.76901638671878
0.69348293027775
0.63382422010602
0.58478072515571
0.54324969595812
0.50745592700723
0.47645409214991
0.44985186706381
0.42745624882659
0.40898501578323
0.8135764775351
0.79201583582558
0.77119958089258
0.75495122073458
0.74226772266021
0.73226466580905
0.72421760509767
0.71757246841099
0.71193325622668
0.70703546856442
0.70271045778739
0.69884587359317
0.69535818852951
0.69217822755696
0.68923611714277
0.68645694827437
0.68376976679931
0.68111736696572
0.67844585138536
0.67558892715827
1
1
1
1
1
1
1
1
1
1
1
1
1
1
1
1
1
1
1
1
1
1
1
1
1
1
1
1
1
1
1
1
1
1
1
1
0.32022349022033
0.56106499087262
1
1
1
1
1
1
1
1
1
1
1
1
1
1
1
1
1
1
1
1
1
1
1
1
1
1
1
1
1
1
1
1
1
1
1
1
1
1
1
1
1
1
1
1
1
1
1
1
1
1
1
1
1
1
1
1
1
1
1
1
1
1
1
1
1
1
1
1
1
0.99077583971394
0.85234588491417
0.74450181416405
0.66548316518679
0.60448536157267
0.55470385505273
0.51256031043522
0.47618961705584
0.44475201584406
0.41804865733433
0.39602792725999
0.37852525370192
0.36569106309328
0.73174217773898
0.71457742925669
0.70200380480025
0.69275684034944
0.68581058496313
0.6803968925176
0.67598250398516
0.67222777859385
0.66893835873351
0.66601818701932
0.66342230916122
0.66111970423492
0.6590746071033
0.65724020985081
0.65555848035296
0.65396780731088
0.65241462988715
0.65086487147744
0.64927481926759
0.64753254865383
1
1
1
1
1
1
1
1
1
1
1
1
1
1
1
1
1
1
1
1
1
1
1
1
1
1
1
1
1
1
1
1
1
1
1
1
0.30305725646258
0.40162561471168
1
1
1
1
1
1
1
1
1
1
1
1
1
1
1
1
1
1
1
1
1
1
1
1
1
1
1
1
1
1
1
1
1
1
1
1
1
1
1
1
1
1
1
1
1
1
1
1
1
1
1
1
1
1
1
1
1
1
1
1
1
1
1
1
1
1
1
1
0.99029639363382
0.84797277923862
0.73253679850151
0.6475638318647
0.58333621201328
0.53188915964954
0.48881765722971
0.45186473286179
0.42009655253885
0.39338045651925
0.37238081308721
0.35598324228853
0.34417072764928
0.33607983355553
0.65442739182427
0.66469132972803
0.65859905614332
0.65431535999529
0.65109068420617
0.64847378441736
0.64621449179899
0.64419749136503
0.64238376938622
0.6407739588384
0.63935154113705
0.63808695694411
0.6370010607845
0.63604926220135
0.6351800168979
0.63434501943374
0.63350611677333
0.63265427959441
0.63176517281383
0.63080208289438
1
1
1
1
1
1
1
1
1
1
1
1
1
1
1
1
1
1
1
1
1
1
1
1
1
1
1
1
1
1
1
1
1
1
1
1
0.29701044786559
0.33398190714742
0.69865130064386
1
1
1
1
1
1
1
1
1
1
1
1
1
1
1
1
1
1
1
1
1
1
1
1
1
1
1
1
1
1
1
1
1
1
1
1
1
1
1
1
1
1
1
1
1
1
1
1
1
1
1
1
1
1
1
1
1
1
1
1
1
1
1
1
1
1
0.9812153750185
0.83881349425107
0.72323552563975
0.63569731871314
0.56866048217604
0.51517783484892
0.47087805637804
0.43327085599543
0.4012562059718
0.37514342785209
0.3543315108813
0.33919113097654
0.32908252373836
0.32288336557462
0.31931933335534
0.64066002001659
0.63699356533056
0.6347282634252
0.63321464585455
0.63199519799427
0.63088197211763
0.6298574009452
0.62894399327141
0.62817415874209
0.62757462040527
0.62713643413875
0.62682991472539
0.62661455008435
0.62654812435843
0.62658740293924
0.62664445124424
0.62680433355397
0.6270892912835
0.62743073205961
0.6278190004379
1
1
1
1
1
1
1
1
1
1
1
1
1
1
1
1
1
1
1
1
1
1
1
1
1
1
1
1
1
1
1
1
1
1
1
1
0.2959242373031
0.3065995931938
0.44199171185166
1
1
1
1
1
1
1
1
1
1
1
1
1
1
1
1
1
1
1
1
1
1
1
1
1
1
1
1
1
1
1
1
1
1
1
1
1
1
1
1
1
1
1
1
1
1
1
1
1
1
1
1
1
1
1
1
1
1
1
1
1
1
1
1
1
0.96212950755819
0.82250952722005
0.71014111200598
0.6240347515837
0.55668312668719
0.50231987857991
0.4572398554034
0.41918789580864
0.38748398884847
0.36126995627188
0.34130039423481
0.32754748297994
0.31922422688402
0.31476459364828
0.31294243688051
0.31242753717574
0.62579554021333
0.6256872148855
0.62602129373089
0.62645651797228
0.62707552962181
0.62772803704666
0.62844474474212
0.62922537030363
0.63004807688308
0.63088200729266
0.63170455066259
0.6325027559605
0.6332797012326
0.63405326780803
0.63484715950173
0.63568261155335
0.6365736811252
0.63752333329068
0.63851720686835
0.63951647678026
1
1
1
1
1
1
1
1
1
1
1
1
1
1
1
1
1
1
1
1
1
1
1
1
1
1
1
1
1
1
1
1
1
1
1
1
0.29602306728984
0.29828325061802
0.34722103562273
0.72056080175529
1
1
1
1
1
1
1
1
1
1
1
1
1
1
1
1
1
1
1
1
1
1
1
1
1
1
1
1
1
1
1
1
1
1
1
1
1
1
1
1
1
1
1
1
1
1
1
1
1
1
1
1
1
1
1
1
1
1
1
1
1
1
1
0.93300190481223
0.79892318802588
0.69231836548929
0.60983525693734
0.54423637243796
0.4906284527664
0.44587286057711
0.4080756030475
0.37671055516226
0.35112284510796
0.33216564486235
0.31988606096871
0.31321374289991
0.31084658753438
0.31121393112837
0.31261448994542
0.31396353172384
0.62974477433329
0.6318382962885
0.63370910534068
0.63544256654019
0.63708562438066
0.63860806108914
0.63998651441654
0.64127423420518
0.64246198015636
0.64355178693572
0.6445582815926
0.64550125034275
0.64640456006616
0.64729104321416
0.6481773900095
0.64907220801396
0.64997478084644
0.65087437471105
0.65174627657547
0.65252853552839
1
1
1
1
1
1
1
1
1
1
1
1
1
1
1
1
1
1
1
1
1
1
1
1
1
1
1
1
1
1
1
1
1
1
1
1
0.29722790339471
0.2979908932961
0.31204622321569
0.44603673649352
1
1
1
1
1
1
1
1
1
1
1
1
1
1
1
1
1
1
1
1
1
1
1
1
1
1
1
1
1
1
1
1
1
1
1
1
1
1
1
1
1
1
1
1
1
1
1
1
1
1
1
1
1
1
1
1
1
1
1
1
1
1
0.89535127972686
0.76926883629385
0.67014829099508
0.59255348018964
0.52997969936002
0.47833071282698
0.43498017497139
0.3987308126428
0.36801232276064
0.34352387045145
0.32584115140174
0.31508685313403
0.31035583176809
0.31091409452546
0.31354799711061
0.31613017178452
0.31819410189919
0.31980511815917
0.63562993285523
0.64411829890985
0.64611600777119
0.64789783287835
0.64948418412985
0.65088222904039
0.65209927767784
0.65315177098218
0.65406347299216
0.65486210462588
0.65557534617193
0.65622847768717
0.65684060474765
0.657423872648
0.65798465274546
0.65852424751551
0.65903922996001
0.65952121109271
0.65995326682243
0.66029527150901
1
1
1
1
1
1
1
1
1
1
1
1
1
1
1
1
1
1
1
1
1
1
1
1
1
1
1
1
1
1
1
1
1
1
1
1
0.29823786132852
0.30088642693107
0.30239642974872
0.34790136445101
0.64492746442978
1
1
1
1
1
1
1
1
1
1
1
1
1
1
1
1
1
1
1
1
1
1
1
1
1
1
1
1
1
1
1
1
1
1
1
1
1
1
1
1
1
1
1
1
1
1
1
1
1
1
1
1
1
1
1
1
1
1
1
0.99082949549507
0.85112375452237
0.73519433492067
0.64442834421808
0.57244668108551
0.51366210576473
0.46473567900563
0.42405549759611
0.38917301718084
0.36021845188074
0.33739994054973
0.32135697414695
0.31219237281245
0.310117685984
0.31338426319054
0.31733628227642
0.32060488376072
0.32294483712649
0.32460377302788
0.32583535289934
0.65321260769332
0.65481949627434
0.65614799821084
0.65725409931384
0.65817254747777
0.65893342578385
0.65956533375706
0.66009444388552
0.66054438610575
0.66093529406804
0.6612831716946
0.66159976412315
0.6618929474437
0.66216736926698
0.66242526650922
0.6626670235607
0.66289102299345
0.66309351411218
0.6632669966093
0.66339487792992
1
1
1
1
1
1
1
1
1
1
1
1
1
1
1
1
1
1
1
1
1
1
1
1
1
1
1
1
1
1
1
1
1
1
1
1
0.29906968648203
0.30378639168253
0.30328225588062
0.31362029853383
0.41829388008568
0.88091209537984
1
1
1
1
1
1
1
1
1
1
1
1
1
1
1
1
1
1
1
1
1
1
1
1
1
1
1
1
1
1
1
1
1
1
1
1
1
1
1
1
1
1
1
1
1
1
1
1
1
1
1
1
1
1
1
1
1
0.93489169110329
0.8029743781839
0.69807296552521
0.61616358054603
0.5500969152923
0.49551727202714
0.45044729154206
0.41175076122952
0.37927350139749
0.3526123208918
0.33198381390574
0.31797538024402
0.31076347495062
0.31165003693733
0.31644755268015
0.32117072456176
0.32453629309531
0.3266481201171
0.32798889753877
0.3288970790406
0.32954947137521
0.65984558924648
0.66062612764225
0.66125514203086
0.66176982317369
0.66219117774251
0.66253691182953
0.66282258569257
0.6630625723558
0.663270238263
0.66345444431067
0.66362178830037
0.6637768024998
0.66392230474585
0.66405983064517
0.66418998172275
0.66431276021275
0.66442750948162
0.66453210846805
0.66462178633997
0.66469114708378
1
1
1
1
1
1
1
1
1
1
1
1
1
1
1
1
1
1
1
1
1
1
1
1
1
1
1
1
1
1
1
1
1
1
1
1
0.29957720785687
0.30618720362798
0.30752571789545
0.30530104900119
0.33790343830513
0.53557150745003
1
1
1
1
1
1
1
1
1
1
1
1
1
1
1
1
1
1
1
1
1
1
1
1
1
1
1
1
1
1
1
1
1
1
1
1
1
1
1
1
1
1
1
1
1
1
1
1
1
1
1
1
1
1
1
1
0.87423248867467
0.75387903409227
0.66014008187318
0.58639492434459
0.52732330608625
0.47687248180918
0.43441181738865
0.39866448437205
0.36893008579479
0.34494392363776
0.32689973503188
0.31515669855513
0.3103085256562
0.31378098012559
0.31940498541747
0.32422704291894
0.32723260097272
0.32893227090054
0.32991345807164
0.33052454268457
0.33093773214747
0.3312369690441
0.66286115187332
0.66327322774829
0.66361135216267
0.66388328935301
0.66410402334931
0.66428616646268
0.66443970808602
0.66457194942396
0.66468718477572
0.66478996730396
0.66488334913393
0.6649692498643
0.66504884810255
0.66512286010329
0.66519172284515
0.66525563970533
0.66531451885398
0.66536766177124
0.6654136698982
0.66544885068797
1
1
1
1
1
1
1
1
1
1
1
1
1
1
1
1
1
1
1
1
1
1
1
1
1
1
1
1
1
1
1
1
1
1
1
1
0.29984919362078
0.30790279325565
0.31144663246681
0.30816747914214
0.31191968727625
0.37857981084406
0.6735898299449
1
1
1
1
1
1
1
1
1
1
1
1
1
1
1
1
1
1
1
1
1
1
1
1
1
1
1
1
1
1
1
1
1
1
1
1
1
1
1
1
1
1
1
1
1
1
1
1
1
1
1
1
1
0.9499042941883
0.81277919293942
0.70520714567236
0.62429805827707
0.55755409746419
0.50263634900501
0.45658017138588
0.41771584541662
0.38512681016694
0.35836121822953
0.33730705357799
0.3221121171794
0.31289824069601
0.31119863872831
0.3160616850607
0.32197484210325
0.32638374063037
0.32889685076842
0.33023114286298
0.33095779912403
0.33140532312103
0.33173954807231
0.33200417658485
0.3322070597009
0.66463213372624
0.66485352265276
0.66501436551419
0.66513362605641
0.66522475929223
0.66529694617648
0.66535652442494
0.6654077485977
0.66545332036294
0.66549479448481
0.66553306478822
0.66556866065307
0.66560188500966
0.66563291404659
0.66566191475302
0.66568908020418
0.66571446949401
0.66573778928105
0.66575823048472
0.66577364720737
1
1
1
1
1
1
1
1
1
1
1
1
1
1
1
1
1
1
1
1
1
1
1
1
1
1
1
1
1
1
1
1
1
1
1
1
0.29997334961982
0.30905820401291
0.31425316449402
0.31308248824156
0.30767778717235
0.32421360491684
0.43215712938001
0.79028661804717
1
1
1
1
1
1
1
1
1
1
1
1
1
1
1
1
1
1
1
1
1
1
1
1
1
1
1
1
1
1
1
1
1
1
1
1
1
1
1
1
1
1
1
1
1
1
1
1
1
1
1
0.8871270027122
0.75666550495704
0.6623980525855
0.58772574412751
0.52769163414125
0.47795473166601
0.43612038083601
0.40086794238014
0.37156697668318
0.34795049697322
0.33000072878135
0.31780925869631
0.31137687222765
0.31281437530267
0.31844412210821
0.32412806155984
0.32788724066898
0.32992947245134
0.33100426470988
0.33166187679759
0.33209184023741
0.33235999979566
0.33252662726668
0.33263301868224
0.33270288140809
0.66545746328439
0.66552433458126
0.66557355589831
0.66561065709323
0.66563973608229
0.66566375489835
0.66568475809631
0.66570406129194
0.66572240834503
0.66574013820997
0.66575736434195
0.66577408541311
0.66579036385225
0.66580764889889
0.66582412685808
0.66583988054112
0.66585488686338
0.66586891721799
0.66588136154405
0.66589029302784
1
1
1
1
1
1
1
1
1
1
1
1
1
1
1
1
1
1
1
1
1
1
1
1
1
1
1
1
1
1
1
1
1
1
1
1
0.30001198893252
0.30950669933941
0.316578680016
0.31754672118881
0.31224874533798
0.30954455132617
0.34381627771501
0.49025487831446
0.86042244107034
1
1
1
1
1
1
1
1
1
1
1
1
1
1
1
1
1
1
1
1
1
1
1
1
1
1
1
1
1
1
1
1
1
1
1
1
1
1
1
1
1
1
1
1
1
1
1
1
1
0.84110195304114
0.71284286617805
0.6236186498199
0.55443488805462
0.49943405487227
0.45410633987839
0.41616247388535
0.38446419935095
0.35850670388663
0.33816131875941
0.32342081795199
0.31412017444831
0.31106769380454
0.31508094772561
0.32090040787961
0.3259293152584
0.32898325979372
0.33062945888442
0.33163477395909
0.33223092797675
0.33252979932422
0.33267752866123
0.33275624981634
0.33280204837925
0.33283081450234
0.33284997052999
0.66570458422293
0.6657243083335
0.66574293498615
0.66575825809829
0.6657714332122
0.66578338345212
0.66579479321561
0.66580608824004
0.66581748185737
0.66582902546057
0.66584064748026
0.66585221110337
0.66586358334175
0.66587468027077
0.66588551168346
0.66589611329366
0.66590648295307
0.66591652661823
0.66592598502527
0.6659341177739
1
1
1
1
1
1
1
1
1
1
1
1
1
1
1
1
1
1
1
1
1
1
1
1
1
1
1
1
1
1
1
1
1
1
1
1
0.30000325618733
0.30966844712194
0.31775869389183
0.32075065496795
0.3175533876153
0.31071356600487
0.31489689766376
0.36462793751234
0.53420909932819
0.88943380234705
1
1
1
1
1
1
1
1
1
1
1
1
1
1
1
1
1
1
1
1
1
1
1
1
1
1
1
1
1
1
1
1
1
1
1
1
1
1
1
1
1
1
1
1
1
1
0.95441113343728
0.79764443115617
0.67803853972026
0.59253784084659
0.52614010414671
0.47413579396534
0.43205935857901
0.39744521652302
0.3690909258584
0.34648010774266
0.32945673265001
0.31794481207585
0.31174823211832
0.31253387008735
0.31765513208706
0.32329438849835
0.32743374723043
0.3298255899004
0.33124534895288
0.33214245608875
0.33256560648959
0.33273782306768
0.33281036350495
0.33284483208775
0.332863567033
0.33287507239315
0.33288299806129
0.33288939786602
0.66578362097477
0.66579262626491
0.66580087410964
0.66580866414607
0.66581623175939
0.66582379153779
0.66583157871902
0.66583974802045
0.66584833872597
0.66585730265703
0.66586653522792
0.66587589107607
0.665885219947
0.66589446764473
0.66590362968094
0.66591272015959
0.6659217415231
0.66593065136496
0.66593937383392
0.66594762275398
1
1
1
1
1
1
1
1
1
1
1
1
1
1
1
1
1
1
1
1
1
1
1
1
1
1
1
1
1
1
1
1
1
1
1
1
0.2999694317285
0.30966547405763
0.3183092056623
0.32289301811078
0.32204983374006
0.31610829338618
0.30970083666399
0.32217015356155
0.3819826673014
0.5552456415129
0.8818378461564
1
1
1
1
1
1
1
1
1
1
1
1
1
1
1
1
1
1
1
1
1
1
1
1
1
1
1
1
1
1
1
1
1
1
1
1
1
1
1
1
1
1
1
1
0.89172907290732
0.75282723335775
0.64564738544413
0.56435411369783
0.50154061576921
0.45201298550419
0.41240289656577
0.38058400568449
0.35530485475291
0.33595141421416
0.32222742177839
0.31375341683434
0.3111889514463
0.31501819101751
0.32048120476004
0.32544596195541
0.32866702566322
0.3305370434516
0.33179578035047
0.33247119872121
0.33273681059778
0.33283015835598
0.3328643327219
0.33287867401064
0.33288589535138
0.33289129318743
0.33289487445048
0.33289786798258
0.33290060368324
0.66580514297437
0.66581068664479
0.66581637400779
0.66582225412396
0.6658283703056
0.66583480776985
0.66584166761567
0.66584901272371
0.66585684075975
0.66586508708792
0.66587363985431
0.66588236267888
0.66589114260877
0.66589991951081
0.66590868046148
0.66591742266096
0.66592613755218
0.6659348340972
0.66594348969958
0.66595194167116
1
1
1
1
1
1
1
1
1
1
1
1
1
1
1
1
1
1
1
1
1
1
1
1
1
1
1
1
1
1
1
1
1
1
1
1
0.29992350188852
0.3095726627148
0.31846971559083
0.32432750045747
0.32528056767479
0.32153351375297
0.31451438662357
0.31007073453799
0.32832428251833
0.39266694562702
0.5551189145507
0.84646501109897
1
1
1
1
1
1
1
1
1
1
1
1
1
1
1
1
1
1
1
1
1
1
1
1
1
1
1
1
1
1
1
1
1
1
1
1
1
1
1
1
1
0.97667286629485
0.8261415224772
0.70281847519926
0.60866558285964
0.53551895332383
0.47778035279045
0.43164932402098
0.39477930478967
0.36569309019295
0.34338695856209
0.32720795512189
0.31661966268402
0.31139820836268
0.31289446967943
0.31789270254971
0.3232368890867
0.3272365026699
0.32965500359778
0.3312107432071
0.33221707585272
0.33266705096859
0.33282316952962
0.33287197702662
0.33288739909947
0.33289333460858
0.33289593633982
0.33289716118796
0.33289886206994
0.33290026705979
0.33290185281868
0.33290364582451
0.66581088584941
0.66581553575613
0.6658205756004
0.66582596285425
0.66583168403806
0.66583779761061
0.66584437627718
0.66585146458641
0.66585905316495
0.66586707588714
0.66587542215481
0.6658839727931
0.66589263203794
0.66590134178371
0.66591006954231
0.66591879770944
0.66592754959542
0.6659363218092
0.66594507421812
0.66595369789277
1
1
1
1
1
1
1
1
1
1
1
1
1
1
1
1
1
1
1
1
1
1
1
1
1
1
1
1
1
1
1
1
1
1
1
1
0.29987214984223
0.30943459719692
0.31840715207247
0.32492777959404
0.32724217235261
0.3257007599613
0.32053933232593
0.31328253787116
0.31112643871479
0.33218991462596
0.39574932052696
0.53946441812484
0.7899729595031
1
1
1
1
1
1
1
1
1
1
1
1
1
1
1
1
1
1
1
1
1
1
1
1
1
1
1
1
1
1
1
1
1
1
1
1
1
1
1
0.88524942475923
0.7546604999601
0.65124654530089
0.56982573384425
0.50529673565279
0.45346054094995
0.411665631649
0.37831661907991
0.3524217048066
0.33328500438379
0.32031929146195
0.31280148308432
0.31147581637273
0.31563594185625
0.32095835857556
0.32561307316032
0.3286456037177
0.33049285944913
0.33179915598545
0.33250657031284
0.33278126352284
0.33286829190034
0.33289261108056
0.33289925093364
0.33290060895083
0.33290070945575
0.33290064454846
0.33290080310041
0.3329012993885
0.33290214750843
0.33290334439693
0.3329048610475
0.66581310841199
0.66581743981269
0.66582219382756
0.66582733400928
0.66583284921951
0.66583878941361
0.66584522254596
0.66585218760868
0.66585967020264
0.66586760207129
0.6658758789608
0.66588439032504
0.66589304703992
0.66590179053636
0.66591058941122
0.66591943519941
0.66592831310066
0.66593720497186
0.66594607736064
0.66595483912619
1
1
1
1
1
1
1
1
1
1
1
1
1
1
1
1
1
1
1
1
1
1
1
1
1
1
1
1
1
1
1
1
1
1
1
1
0.29981922144264
0.30927678427864
0.31822660056564
0.32507414063921
0.32848241614107
0.32855001221269
0.32545313564352
0.31970608720916
0.31253703672092
0.31174794880639
0.33301290848477
0.39121657087261
0.51196512524873
0.71676999072112
0.97284996506005
1
1
1
1
1
1
1
1
1
1
1
1
1
1
1
1
1
1
1
1
1
1
1
1
1
1
1
1
1
1
1
1
1
1
1
0.91680774404907
0.78925159821443
0.68346616228449
0.59844716277968
0.52976177136744
0.47396063996003
0.42847490671981
0.3916612464568
0.36252788046299
0.34043013771121
0.32483789218188
0.31503777479443
0.31092541464306
0.31359002071631
0.31869996139303
0.32381476052928
0.32749231066841
0.32972931019415
0.33125806863322
0.33224447903782
0.33269124165383
0.33284769942018
0.33289342939141
0.33290482319161
0.33290640857802
0.33290582353643
0.33290456233105
0.33290347776289
0.33290275804572
0.33290246107656
0.33290268047048
0.33290333609853
0.33290438261649
0.33290577946912
0.66581476605765
0.66581892764282
0.66582352170292
0.66582850214159
0.66583386134348
0.66583965544038
0.6658459537842
0.66585279949256
0.66586018210071
0.66586803567372
0.66587625948535
0.66588474850061
0.66589341752122
0.66590220538398
0.66591107888134
0.66592001982428
0.66592901434846
0.66593803324909
0.66594702818642
0.66595591127657
1
1
1
1
1
1
1
1
1
1
1
1
1
1
1
1
1
1
1
1
1
1
1
1
1
1
1
1
1
1
1
1
1
1
1
1
0.29976674869611
0.30911314306282
0.31799236568884
0.32497268903392
0.32899998855966
0.33010831538686
0.32900940530538
0.32519062545469
0.31934630476689
0.31238702998658
0.31158274649943
0.33060877442786
0.37999562576631
0.47613103485686
0.63346694708512
0.84628450235281
1
1
1
1
1
1
1
1
1
1
1
1
1
1
1
1
1
1
1
1
1
1
1
1
1
1
1
1
1
1
1
1
0.91733017442916
0.79828237937174
0.69730313487661
0.61473449579548
0.5461959368555
0.48934519798895
0.44214763272905
0.40327262844645
0.37193167497735
0.34756941499455
0.32976373285496
0.31803584185548
0.31173966414747
0.31198821839177
0.31658350786488
0.32186547625853
0.32617776596884
0.32891354870372
0.33064418518756
0.33188456355494
0.33254275470875
0.3328026781062
0.33288655937523
0.33290889964905
0.33291304628895
0.33291251069167
0.33291044454231
0.33290834010775