/*--------------------------------*- C++ -*----------------------------------*\
| =========                 |                                                 |
| \\      /  F ield         | OpenFOAM: The Open Source CFD Toolbox           |
|  \\    /   O peration     | Version:  2312                                  |
|   \\  /    A nd           | Website:  www.openfoam.com                      |
|    \\/     M anipulation  |                                                 |
\*---------------------------------------------------------------------------*/
FoamFile
{
    version     2.0;
    format      ascii;
    arch        "LSB;label=32;scalar=64";
    class       volScalarField;
    location    "4e-05";
    object      minKappa;
}
// * * * * * * * * * * * * * * * * * * * * * * * * * * * * * * * * * * * * * //

dimensions      [0 0 0 0 0 0 0];

internalField   nonuniform List<scalar> 
109340
(
0.090950989374919
0.091057351855971
0.091347015516953
0.091718817479463
0.092142441853654
0.09259840962759
0.09308671742624
0.093613075170184
0.094186469437339
0.094833100644606
0.095585431558357
0.096475638727418
0.097539738853541
0.098818600440126
0.1003580370375
0.10220921170276
0.10442950130947
0.1070829902483
0.11024156185503
0.11398620192959
0.11840876789449
0.12361317810143
0.12971747623075
0.13685718273762
0.14518999593426
0.15490295908827
0.16622332855351
0.17943564406398
0.19490909037414
0.21314280375574
0.23484400139895
0.26107097472943
0.29350621267485
0.33498461001447
0.39049452352087
0.46905325415642
0.11257051415133
0.11277998427735
0.11318626211563
0.11367777074957
0.11421906156308
0.11479167440137
0.11539762114963
0.11605222855891
0.11677795451089
0.11760720803823
0.11857650016644
0.11972652870964
0.12110334580931
0.12275916742085
0.12475252546592
0.12714885242866
0.13002102595067
0.13345069329095
0.13752977328565
0.14236187517083
0.14806422897687
0.15476974832866
0.16262963792611
0.17181805659274
0.18253845670193
0.19503341988464
0.20956233279654
0.22639151876929
0.2461113665592
0.26936936076629
0.29708846592655
0.33066146088169
0.37233633685699
0.42598495300021
0.49880335239559
0.6045881253366
0.11315841566145
0.11340332226398
0.11385875055382
0.11437148557041
0.11491266701593
0.11547795058147
0.11607736852468
0.11673170231546
0.11746096508687
0.11829442530292
0.11926805507786
0.12042303476415
0.12180609204
0.12346966785869
0.12547254404893
0.12788069021935
0.13076748520565
0.13416883599326
0.13819199785224
0.14296091834618
0.14859261798692
0.15521959595558
0.16299254518727
0.17208449867877
0.18269735417215
0.19507101736979
0.20949768374983
0.22634428845126
0.24608853890237
0.26937917836741
0.29714099675664
0.33077325841493
0.3725663642213
0.42657830438985
0.50083763680526
0.61276406692198
0.11311117797959
0.11345953488484
0.11397146341898
0.11449794583854
0.11504400738351
0.11561577219491
0.11622292366365
0.11688200068474
0.11761478630795
0.11845050476536
0.11942454077769
0.1205785849598
0.12195972144058
0.12358547475233
0.12554006534151
0.12789242691384
0.13071568612134
0.13409164983448
0.13811291796692
0.14288353401112
0.14852268915999
0.15516509329312
0.1629641547388
0.17209618211382
0.18276684117987
0.19522069676794
0.20975537420845
0.22674414930497
0.24667227373353
0.27019799941769
0.2982585531506
0.33227119449223
0.37459772853922
0.42955527517566
0.50635238972292
0.62897355713003
0.11283382688821
0.11334275686949
0.11393983373423
0.11451265544924
0.11507798287508
0.11565214521783
0.11625259343408
0.11689993368723
0.11761876143053
0.11844150182208
0.11940706193448
0.12055807165041
0.12190110225684
0.12352129509973
0.12548009232639
0.12784656955971
0.13069828824859
0.13412263835759
0.13822210019056
0.14310742619807
0.14891109389717
0.15578141530126
0.16388876911037
0.17342872954665
0.18463023303772
0.19776484043189
0.21316178784413
0.23123139867787
0.25250286801804
0.27768808449772
0.30779657262503
0.34431914861904
0.38980291559761
0.44897589228398
0.53272561974864
0.67608534061468
0.11238341711182
0.11330934322014
0.11396360899624
0.11454588172845
0.11511420805489
0.11569379946113
0.11630803160418
0.11698408954274
0.11775198341304
0.11864174582438
0.11971284155906
0.1210243620296
0.12264493903907
0.12465322418491
0.12713865546047
0.13020249626104
0.13395857999344
0.13853188889707
0.14405245465381
0.15070638021069
0.15868065041841
0.16818686520013
0.17946360309394
0.19278044232359
0.20844544457032
0.22681645787967
0.24831911701885
0.27347433088887
0.30294351727433
0.33760545225143
0.37870463597328
0.42800809349398
0.48864209730457
0.56637380723954
0.61250105572744
0.80592736751376
0.58378871978486
0.73979598863922
0.92443064902096
1
1
1
1
1
1
1
1
1
1
1
1
1
1
1
1
1
1
1
1
1
1
1
1
1
1
1
1
1
1
1
1
1
1
1
1
1
1
1
1
1
1
1
1
1
1
1
1
1
1
1
0.97348007487945
0.94856406242399
0.94818797313361
0.94888534465668
0.94976971056453
0.95032314417802
0.95184466058211
0.95170684887411
0.95158221900927
0.95155402375498
0.95155328401441
0.95161319399211
0.95169035441319
0.95178558368221
0.95188205973409
0.95196623477685
0.95203233332047
0.95207608917505
0.95209707955032
0.9520993351684
0.95209244203217
0.95207892080491
0.95205663120914
0.9520077486734
0.95192034004398
0.95183302724897
0.95172906350361
0.95160618641918
0.95146556655286
0.95129360903828
1
1
1
1
1
1
1
1
1
1
1
1
1
1
1
1
1
1
1
1
1
1
1
1
1
1
1
1
1
1
1
1
1
1
1
1
1
1
1
1
1
1
1
1
1
1
1
1
1
1
1
1
1
1
1
1
0.76678754909885
0.99041474028381
1
1
1
1
1
1
1
1
1
1
1
1
1
1
1
1
1
1
1
1
1
1
1
1
1
1
1
1
1
1
1
1
1
1
1
1
1
1
1
1
1
1
1
1
1
1
1
1
1
1
1
1
1
1
1
1
1
1
1
1
1
1
1
1
1
1
1
1
1
1
1
1
1
1
1
1
1
1
1
1
1
1
1
1
1
1
1
1
1
1
1
1
1
1
1
1
1
1
1
1
1
1
1
1
1
1
1
1
1
1
1
1
1
1
1
1
1
1
1
1
1
1
1
1
1
1
1
1
1
1
1
1
1
1
1
1
1
1
0.79976886289699
1
1
1
1
1
1
1
1
1
1
1
1
1
1
1
1
1
1
1
1
1
1
1
1
1
1
1
1
1
1
1
1
1
1
1
1
1
1
1
1
1
1
1
1
1
1
1
1
1
1
1
1
1
1
1
1
1
1
1
1
1
1
1
1
1
1
1
1
1
1
1
1
1
1
1
1
1
1
1
1
1
1
1
1
1
1
1
1
1
1
1
1
1
1
1
1
1
1
1
1
1
1
1
1
1
1
1
1
1
1
1
1
1
1
1
1
1
1
1
1
1
1
1
1
1
1
1
1
1
1
1
1
1
1
1
1
1
1
1
0.87029942031616
1
1
1
1
1
1
1
1
1
1
1
1
1
1
1
1
1
1
1
1
1
1
1
1
1
1
1
1
1
1
1
1
1
1
1
1
1
1
1
1
1
1
1
1
1
1
1
1
1
1
1
1
1
1
1
1
1
1
1
1
1
1
1
1
1
1
1
1
1
1
1
1
1
1
1
1
1
1
1
1
1
1
1
1
1
1
1
1
1
1
1
1
1
1
1
1
1
1
1
1
1
1
1
1
1
1
1
1
1
1
1
1
1
1
1
1
1
1
1
1
1
1
1
1
1
1
1
1
1
1
1
1
1
1
1
1
1
1
1
1
1
1
1
1
1
1
1
1
1
1
1
1
1
1
1
1
1
1
1
1
1
1
1
1
1
1
1
1
1
1
1
1
1
1
1
1
1
1
1
1
1
1
1
1
1
1
1
1
1
1
1
1
1
1
1
1
1
1
1
1
1
1
1
1
1
1
1
1
1
1
1
1
1
1
1
1
1
1
1
1
1
1
1
1
1
1
1
1
1
1
1
1
1
1
1
1
1
1
1
1
1
1
1
1
1
1
1
1
1
1
1
1
1
1
1
1
1
1
1
1
1
1
1
1
1
1
1
1
1
1
1
1
1
1
1
1
1
1
1
1
1
1
1
1
1
1
1
1
1
1
1
1
1
1
1
1
1
1
1
1
1
1
1
1
1
1
1
1
1
1
1
1
1
1
1
1
1
1
1
1
1
1
1
1
1
1
1
1
1
1
1
1
1
1
1
1
1
1
1
1
1
1
1
1
1
1
1
1
1
1
1
1
1
1
1
1
1
1
1
1
1
1
1
1
1
1
1
1
1
1
1
1
1
1
1
1
1
1
1
1
1
1
1
1
1
1
1
1
1
1
1
1
1
1
1
1
1
1
1
1
1
1
1
1
1
1
1
1
1
1
1
1
1
1
1
1
1
1
1
1
1
1
1
1
1
1
1
1
1
1
1
1
1
1
1
1
1
1
1
1
1
1
1
1
1
1
1
1
1
1
1
1
1
1
1
1
1
1
1
1
1
1
1
1
1
1
1
1
1
1
1
1
1
1
1
1
1
1
1
1
1
1
1
1
1
1
1
1
1
1
1
1
1
1
1
1
1
1
1
1
1
1
1
1
1
1
1
1
1
1
1
1
1
1
1
1
1
1
1
1
1
1
1
1
1
1
1
1
1
1
1
1
1
1
1
1
1
1
1
1
1
1
1
1
1
1
1
1
1
1
1
1
1
1
1
1
1
1
1
1
1
1
1
1
1
1
1
1
1
1
1
1
1
1
1
1
1
1
1
1
1
1
1
1
1
1
1
1
1
1
1
1
1
1
1
1
1
1
1
1
1
1
1
1
1
1
1
1
1
1
1
1
1
1
1
1
1
1
1
1
1
1
1
1
1
1
1
1
1
1
1
1
1
1
1
1
1
1
1
1
1
1
1
1
1
1
1
1
1
1
1
1
1
1
1
1
1
1
1
1
1
1
1
1
1
1
1
1
1
1
1
1
1
1
1
1
1
1
1
1
1
1
1
1
1
1
1
1
1
1
1
1
1
1
1
1
1
1
1
1
1
1
1
1
1
1
1
1
1
1
1
1
1
1
1
1
1
1
1
1
1
1
1
1
1
1
1
1
1
1
1
1
1
1
1
1
1
1
1
1
1
1
1
1
1
1
1
1
1
1
1
1
1
1
1
1
1
1
1
1
1
1
1
1
1
1
1
1
1
1
1
1
1
1
1
1
1
1
1
1
1
1
1
1
1
1
1
1
1
1
1
1
1
1
1
1
1
1
1
1
1
1
1
1
1
1
1
1
1
1
1
1
1
1
1
1
1
1
1
1
1
1
1
1
1
1
1
1
1
1
1
1
1
1
1
1
1
1
1
1
1
1
1
1
1
1
1
1
1
1
1
1
1
1
1
1
1
1
1
1
1
1
1
1
1
1
1
1
1
1
1
1
1
1
1
1
1
1
1
1
1
1
1
1
1
1
1
1
1
1
1
1
1
1
1
1
1
1
1
1
1
1
1
1
1
1
1
1
1
1
1
1
1
1
1
1
1
1
1
1
1
1
1
1
1
1
1
1
1
1
1
1
1
1
1
1
1
1
1
1
1
1
1
1
1
1
1
1
1
1
1
1
1
1
1
1
1
1
1
1
1
1
1
1
1
1
1
1
1
1
1
1
1
1
1
1
1
1
1
1
1
1
1
1
1
1
1
1
1
1
1
1
1
1
1
1
1
1
1
1
1
1
1
1
1
1
1
1
1
1
1
1
1
1
1
1
1
1
1
1
1
1
1
1
1
1
1
1
1
1
1
1
1
1
1
1
1
1
1
1
1
1
1
1
1
1
1
1
1
1
1
1
1
1
1
1
1
1
1
1
1
1
1
1
1
1
1
1
1
1
1
1
1
1
1
1
1
1
1
1
1
1
1
1
1
1
1
1
1
1
1
1
1
1
1
1
1
1
1
1
1
1
1
1
1
1
1
1
1
1
1
1
1
1
1
1
1
1
1
1
1
1
1
1
1
1
1
1
1
1
1
1
1
1
1
1
1
1
1
1
1
1
1
1
1
1
1
1
1
1
1
1
1
1
1
1
1
1
1
1
1
1
1
1
1
1
1
1
1
1
1
1
1
1
1
1
1
1
1
1
1
1
1
1
1
1
1
1
1
1
1
1
1
1
1
1
1
1
1
1
1
1
1
1
1
1
1
1
1
1
1
1
1
1
1
1
1
1
1
1
1
1
1
1
1
1
1
1
1
1
1
1
1
1
1
1
1
1
1
1
1
1
1
1
1
1
1
1
1
1
1
1
1
1
1
1
1
1
1
1
1
1
1
1
1
1
1
1
1
1
1
1
1
1
1
1
1
1
1
1
1
1
1
1
1
1
1
1
1
1
1
1
1
1
1
1
1
1
1
1
1
1
1
1
1
1
1
1
1
1
1
1
1
1
1
1
1
1
1
1
1
1
1
1
1
1
1
1
1
1
1
1
1
1
1
1
1
1
1
1
1
1
0.99910708776213
1
1
1
1
1
1
1
1
1
1
1
1
1
1
1
1
1
1
1
1
1
1
1
1
1
1
1
1
1
1
1
1
1
1
1
1
1
1
1
1
1
1
1
1
1
1
1
1
1
1
1
1
1
1
1
1
0.9007726286958
1
1
1
1
1
1
1
1
1
1
1
1
1
1
1
1
1
1
1
1
1
1
1
1
1
1
1
1
1
1
1
1
1
1
1
1
1
1
1
1
1
1
1
1
1
1
1
1
1
1
1
1
1
1
1
1
1
1
1
1
1
1
1
1
1
1
1
1
1
1
1
1
1
1
1
1
1
1
1
0.98516062971117
0.93311286029806
0.8855735819836
0.84275126115427
1
1
1
1
1
1
1
1
1
1
1
1
1
1
1
1
1
1
1
1
1
1
1
1
1
1
1
1
1
1
1
1
1
1
1
1
1
1
1
1
1
1
1
1
1
1
1
1
1
1
1
1
1
1
1
1
0.73283861240846
1
1
1
1
1
1
1
1
1
1
1
1
1
1
1
1
1
1
1
1
1
1
1
1
1
1
1
1
1
1
1
1
1
1
1
1
1
1
1
1
1
1
1
1
1
1
1
1
1
1
1
1
1
1
1
1
1
1
1
1
1
1
1
1
1
1
1
1
1
1
1
1
1
1
1
1
1
0.955225416408
0.89065359394038
0.83498716089184
0.7874659463485
0.74651154950003
0.71062493365414
1
1
1
1
1
1
1
1
1
1
1
1
0.99187339595457
0.97805279996224
0.9650666337548
0.9526735315372
0.94070907987329
0.92906000733577
0.91763403727919
0.90535603296068
1
1
1
1
1
1
1
1
1
1
1
1
1
1
1
1
1
1
1
1
1
1
1
1
1
1
1
1
1
1
1
1
1
1
1
1
0.57760515861994
1
1
1
1
1
1
1
1
1
1
1
1
1
1
1
1
1
1
1
1
1
1
1
1
1
1
1
1
1
1
1
1
1
1
1
1
1
1
1
1
1
1
1
1
1
1
1
1
1
1
1
1
1
1
1
1
1
1
1
1
1
1
1
1
1
1
1
1
1
1
1
1
1
1
1
0.96200010488741
0.88044472778114
0.81207187936993
0.75609953548705
0.70955090005792
0.66980064984608
0.63555806709259
0.6054605057152
0.95313298243315
1
1
1
1
0.97522738523018
0.9594822434589
0.93927337617549
0.92201704311176
0.90717398781529
0.89425689650434
0.88282563221628
0.87250488003423
0.86303724721653
0.8542086035989
0.84582443183491
0.83772832638067
0.82982488863326
0.82207918550866
0.81397722337607
1
1
1
1
1
1
1
1
1
1
1
1
1
1
1
1
1
1
1
1
1
1
1
1
1
1
1
1
1
1
1
1
1
1
1
1
0.4905144347923
1
1
1
1
1
1
1
1
1
1
1
1
1
1
1
1
1
1
1
1
1
1
1
1
1
1
1
1
1
1
1
1
1
1
1
1
1
1
1
1
1
1
1
1
1
1
1
1
1
1
1
1
1
1
1
1
1
1
1
1
1
1
1
1
1
1
1
1
1
1
1
1
1
1
0.90821486156435
0.82140308011336
0.75153069790373
0.69517624115147
0.64882895808617
0.60966516733717
0.57585317148699
0.5463446524804
0.5205160712881
0.81919187023572
0.9587476045551
0.92515495896656
0.89687497034237
0.87906310029752
0.85897159827622
0.84231290609938
0.82845358113624
0.81689265316336
0.80702504470584
0.79846006568627
0.7908821050842
0.78404590728991
0.77777895590943
0.77193971572099
0.76639922081902
0.76104857059631
0.75580842725174
0.75061361898241
0.74517559021878
1
1
1
1
1
1
1
1
1
1
1
1
1
1
1
1
1
1
1
1
1
1
1
1
1
1
1
1
1
1
1
1
1
1
1
1
0.39431309297251
1
1
1
1
1
1
1
1
1
1
1
1
1
1
1
1
1
1
1
1
1
1
1
1
1
1
1
1
1
1
1
1
1
1
1
1
1
1
1
1
1
1
1
1
1
1
1
1
1
1
1
1
1
1
1
1
1
1
1
1
1
1
1
1
1
1
1
1
1
1
1
1
0.97344488896989
0.86487334853282
0.77554811925847
0.70509460839164
0.64858214807586
0.60196888073424
0.5624272178948
0.52831375011035
0.49870485436566
0.47314385898047
0.45134955795765
0.71030769874014
0.83692047603721
0.84754278196883
0.79646721716069
0.78028434121446
0.76732324504265
0.75683328411835
0.74819381279379
0.74092327518184
0.734670058554
0.72918868761186
0.72430476633775
0.71989011575914
0.71584942772933
0.71209699042551
0.70854636416838
0.70511736911589
0.7017447117312
0.69837093378254
0.69480855970802
1
1
1
1
1
1
1
1
1
1
1
1
1
1
1
1
1
1
1
1
1
1
1
1
1
1
1
1
1
1
1
1
1
1
1
1
0.33896983082929
0.65217431454459
1
1
1
1
1
1
1
1
1
1
1
1
1
1
1
1
1
1
1
1
1
1
1
1
1
1
1
1
1
1
1
1
1
1
1
1
1
1
1
1
1
1
1
1
1
1
1
1
1
1
1
1
1
1
1
1
1
1
1
1
1
1
1
1
1
1
1
1
1
1
0.95349361335174
0.83351540874575
0.74070746436305
0.66931699814936
0.61255592576422
0.56549094143938
0.52537634370319
0.49070034126719
0.46071918164803
0.43518746079633
0.41394239962136
0.3966780227524
0.62486402181927
0.74964332374472
0.73309340593519
0.72055659667568
0.71097925536836
0.70350328130703
0.69747975806877
0.69245270813133
0.68812629188101
0.68432464937823
0.68094800219067
0.67793276558764
0.6752263045437
0.67277518661746
0.6705178266596
0.66838685556869
0.66631968590295
0.66426958138941
0.66218729768391
0.65994726823213
1
1
1
1
1
1
1
1
1
1
1
1
1
1
1
1
1
1
1
1
1
1
1
1
1
1
1
1
1
1
1
1
1
1
1
1
0.31218294411917
0.44250223935977
1
1
1
1
1
1
1
1
1
1
1
1
1
1
1
1
1
1
1
1
1
1
1
1
1
1
1
1
1
1
1
1
1
1
1
1
1
1
1
1
1
1
1
1
1
1
1
1
1
1
0.97001520877935
1
1
1
1
1
1
1
1
1
1
1
1
1
1
1
1
1
1
0.95422227025649
0.81967363974269
0.7182448927409
0.64330675305965
0.58503633181701
0.53714344767227
0.49639378626572
0.46117643870263
0.43084495417351
0.40534001780995
0.38460894908599
0.36903570571633
0.35697450018466
0.56258298514428
0.7021483666372
0.67739661663729
0.67091728204325
0.66608553408214
0.66227550464166
0.65909367666926
0.65631914453434
0.65384656742095
0.65164169899025
0.64969733979118
0.64799877308373
0.64651536960465
0.64520117586241
0.64400069043285
0.64285885822926
0.64173099619062
0.64059703697035
0.63942359427025
0.63808419280008
1
1
1
1
1
1
1
1
1
1
1
1
1
1
1
1
1
1
1
1
1
1
1
1
1
1
1
1
1
1
1
1
1
1
1
1
0.30062576803059
0.35339160325895
0.87961865481273
1
1
1
1
1
1
1
1
1
1
1
1
1
1
1
1
1
1
1
1
1
1
1
1
1
1
1
1
1
1
1
1
1
1
1
1
1
1
1
1
1
1
1
1
1
1
1
1
1
1
1
1
1
1
1
1
1
1
1
1
1
1
1
1
1
1
1
0.95213520959202
0.81403690742771
0.70627264326497
0.6264275077326
0.56518395499398
0.5156764034807
0.47402786857536
0.43828526246365
0.4077244249448
0.38234051992792
0.36283342352269
0.34797882898342
0.33762286136942
0.33078208828511
0.5223848717315
0.64860936063137
0.64483535987376
0.64212026655148
0.63995351885256
0.63812973355951
0.63649852108005
0.63501171215263
0.63366686732636
0.63247912304139
0.63151750380053
0.63077510947826
0.63017076172544
0.62965701645257
0.62918950056726
0.62873678541129
0.62829065059361
0.62784727618962
0.62739340830426
0.62690970833833
0.98935391761429
1
1
1
1
1
1
1
1
1
1
1
1
1
1
1
1
1
1
1
1
1
1
1
1
1
1
1
1
1
1
1
1
1
1
1
0.29634434795438
0.31440171097426
0.52352202650096
1
1
1
1
1
1
1
1
1
1
1
1
1
1
1
1
1
1
1
1
1
1
1
1
1
1
1
1
1
1
1
1
1
1
1
1
1
1
1
1
1
1
1
1
1
1
1
1
1
1
1
1
1
1
1
1
1
1
1
1
1
1
1
1
1
1
0.94056645936295
0.80378297656807
0.69608281852464
0.61451189761377
0.55103715628056
0.49982221783471
0.45712558692161
0.42085166758534
0.39014852617965
0.36555197535187
0.34641655652185
0.33298585818962
0.32442820302074
0.3194748551762
0.31671531817015
0.50089370470307
0.62945056187588
0.62862276906859
0.62799284783406
0.62741711670192
0.62687532511576
0.62640167708965
0.62603848193797
0.62581312180152
0.62572638072343
0.6257530138388
0.6258578845
0.6260074164746
0.62617861211075
0.62631151085997
0.62618389961898
0.62607170389792
0.62598126925758
0.62591363170288
0.62582454209469
0.99447590627695
1
1
1
1
1
1
1
1
1
1
1
1
1
1
1
1
1
1
1
1
1
1
1
1
1
1
1
1
1
1
1
1
1
1
1
0.29523855530399
0.30016595393848
0.37968254705857
0.93525200974023
1
1
1
1
1
1
1
1
1
1
1
1
1
1
1
1
1
1
1
1
1
1
1
1
1
1
1
1
1
1
1
1
1
1
1
1
1
1
1
1
1
1
1
1
1
1
1
1
1
1
1
1
1
1
1
1
1
1
1
1
1
1
1
1
0.91931664308404
0.78676616047486
0.68264906622367
0.60254019743706
0.53908723642718
0.48734285859028
0.444147711107
0.4076380169504
0.37742130330198
0.35288977414348
0.33476897743907
0.32286864034876
0.31611071117347
0.31291272185055
0.31194422871804
0.31196395883904
0.49350438043715
0.62506219766906
0.62574108037533
0.62578005719156
0.62579558715742
0.62583361837393
0.62594555281372
0.62616243615975
0.62648675104932
0.62689584289434
0.62735664806586
0.62783948280214
0.62832762441791
0.62881921619723
0.62932540143732
0.6298645341955
0.63045537053125
0.63111541819122
0.63185549946936
0.63268173161815
1
1
1
1
1
1
1
1
1
1
1
1
1
1
1
1
1
1
1
1
1
1
1
1
1
1
1
1
1
1
1
1
1
1
1
1
0.29583080270015
0.2963514469555
0.32352599868468
0.55631337686103
1
1
1
1
1
1
1
1
1
1
1
1
1
1
1
1
1
1
1
1
1
1
1
1
1
1
1
1
1
1
1
1
1
1
1
1
1
1
1
1
1
1
1
1
1
1
1
1
1
1
1
1
1
1
1
1
1
1
1
1
1
1
1
0.88892245958159
0.76330431195908
0.66495009456573
0.58824495475641
0.52660359799583
0.47580099651034
0.4331635206304
0.39752277959906
0.36745146548473
0.34371911463227
0.32676948904913
0.31646079197987
0.31146508140631
0.31038631463609
0.31086681967908
0.31183746009311
0.31296447219986
0.49584654978345
0.62725448105595
0.62860308326111
0.6298391271026
0.63105047695736
0.6322869946991
0.63353545147915
0.6347610594499
0.63593420522404
0.63703136231144
0.63804371952682
0.6389956269851
0.63987173904972
0.64073726486006
0.6416161217391
0.64252348733505
0.64346590506791
0.64443993516882
0.64542761648285
0.6463771854946
1
1
1
1
1
1
1
1
1
1
1
1
1
1
1
1
1
1
1
1
1
1
1
1
1
1
1
1
1
1
1
1
1
1
1
1
0.29639087820192
0.29747566189873
0.3043713666126
0.38656562409415
0.86900099507073
1
1
1
1
1
1
1
1
1
1
1
1
1
1
1
1
1
1
1
1
1
1
1
1
1
1
1
1
1
1
1
1
1
1
1
1
1
1
1
1
1
1
1
1
1
1
1
1
1
1
1
1
1
1
1
1
1
1
1
1
0.99175940591774
0.85129073756985
0.73454697307089
0.64330385579291
0.57116880317654
0.51245124365391
0.46365636838121
0.42303773470768
0.38820567254272
0.35938018732286
0.3369031616289
0.32136341702258
0.3125520929696
0.30978577894835
0.31017640795298
0.31214838234503
0.31453270115993
0.31658039323777
0.31819260145658
0.50390806004428
0.63791996324628
0.63990564120549
0.64172124611486
0.64340261680003
0.6449572127048
0.64636833352065
0.64763137214707
0.64875528115379
0.6497589605934
0.6506677260587
0.65150830584443
0.65230484134255
0.65307533062963
0.65383045696557
0.65457345154833
0.65530019668792
0.65599892250373
0.65664727007121
0.65719512495994
1
1
1
1
1
1
1
1
1
1
1
1
1
1
1
1
1
1
1
1
1
1
1
1
1
1
1
1
1
1
1
1
1
1
1
1
0.29687502742239
0.30010746016816
0.30062954729064
0.32641732746699
0.51865953718072
1
1
1
1
1
1
1
1
1
1
1
1
1
1
1
1
1
1
1
1
1
1
1
1
1
1
1
1
1
1
1
1
1
1
1
1
1
1
1
1
1
1
1
1
1
1
1
1
1
1
1
1
1
1
1
1
1
1
1
0.94153937433326
0.80841838112038
0.70175703710955
0.61850077654994
0.5515562205411
0.49643652174521
0.45094687919715
0.41191589538536
0.37908788620546
0.35214209239207
0.33145158351556
0.31764707315889
0.31066586672367
0.30969032597197
0.31176731009003
0.31544704553481
0.31877661762374
0.32129665488738
0.32408750850379
0.32449454597629
0.51374926429726
0.65000633274111
0.65174703007545
0.65324428364025
0.65452305080818
0.65560458518815
0.65651732389031
0.65728948541066
0.65794892913626
0.658522157171
0.65903206509767
0.65949657311298
0.65992821263922
0.66033469416436
0.66071991339801
0.66108469778767
0.66142688116784
0.66174083132102
0.66201465957226
0.66222303873767
1
1
1
1
1
1
1
1
1
1
1
1
1
1
1
1
1
1
1
1
1
1
1
1
1
1
1
1
1
1
1
1
1
1
1
1
0.29722358665242
0.3029644241849
0.30243809171558
0.30751840860337
0.37348943951113
0.72779652658344
1
1
1
1
1
1
1
1
1
1
1
1
1
1
1
1
1
1
1
1
1
1
1
1
1
1
1
1
1
1
1
1
1
1
1
1
1
1
1
1
1
1
1
1
1
1
1
1
1
1
1
1
1
1
1
1
1
0.88522036931846
0.76280343566812
0.6669395067541
0.59144434691701
0.52994797202429
0.47960178254466
0.43641058536769
0.40003277332078
0.36967632810479
0.34511601591531
0.32668845101316
0.31486002440515
0.31003342682915
0.31044462550658
0.31447587689467
0.31920131023577
0.32294111503147
0.32540132018824
0.32699037171837
0.32807410158996
0.32885780310397
0.52048511291712
0.65829229049274
0.65922659833166
0.65999046944281
0.66061527308505
0.66112682366894
0.66154773363375
0.66189846562146
0.66219839300173
0.66246113236089
0.66269693161484
0.66291304863299
0.66311416266642
0.66330290034751
0.66348034970203
0.66364648609823
0.66380004231055
0.6639383558986
0.6640561544027
0.6641443382557
1
1
1
1
1
1
1
1
1
1
1
1
1
1
1
1
1
1
1
1
1
1
1
1
1
1
1
1
1
1
1
1
1
1
1
1
0.29743724212238
0.30493299701105
0.30643150003355
0.30447319004418
0.32222430343837
0.45290238470571
0.92225351890835
1
1
1
1
1
1
1
1
1
1
1
1
1
1
1
1
1
1
1
1
1
1
1
1
1
1
1
1
1
1
1
1
1
1
1
1
1
1
1
1
1
1
1
1
1
1
1
1
1
1
1
1
1
1
0.96420150424024
0.82672967857585
0.71648667656031
0.63120933278302
0.56446309502191
0.50803558849492
0.46078516555795
0.42095274926168
0.3875143560502
0.35993884329175
0.33811502929235
0.32230742997869
0.31276578602371
0.31025213050839
0.3120244888791
0.31729614148354
0.32249815884482
0.32604050011271
0.32811197789478
0.32931836263108
0.33006857768947
0.33057437059718
0.33093564927636
0.52342927618443
0.66216550017891
0.66260334555331
0.66296381725358
0.66326118037856
0.66350844879577
0.66371719556457
0.66389706738679
0.66405380744075
0.66419358519197
0.66432100139815
0.66443906471326
0.66454960253165
0.66465363833901
0.66475166069325
0.66484377953342
0.66492965601246
0.66500784539943
0.66507539928177
0.66512839729325
1
1
1
1
1
1
1
1
1
1
1
1
1
1
1
1
1
1
1
1
1
1
1
1
1
1
1
1
1
1
1
1
1
1
1
1
0.29755078778402
0.30615526545742
0.31056181850491
0.30688152697267
0.30796821489503
0.35024761434904
0.56406680927677
1
1
1
1
1
1
1
1
1
1
1
1
1
1
1
1
1
1
1
1
1
1
1
1
1
1
1
1
1
1
1
1
1
1
1
1
1
1
1
1
1
1
1
1
1
1
1
1
1
1
1
1
1
0.90675176587587
0.77811097207597
0.67895016521503
0.60147224383315
0.53900447527685
0.48723048838256
0.44366466987272
0.40499183299655
0.37468610892214
0.35011710761699
0.3312643834233
0.31831205978762
0.31136401763417
0.31047536201931
0.31408675524467
0.31994216069653
0.32497822665183
0.32803850933986
0.32969451246963
0.33059413930599
0.33111877919
0.33147603099918
0.33176048225037
0.3319935020088
0.52497935181281
0.66417285201426
0.66442581162011
0.66462028229387
0.66477275725622
0.6648952014828
0.6649962262913
0.66508199273155
0.66515697778356
0.66522411435539
0.66528518129479
0.6653412906713
0.66539313996977
0.66544117726409
0.66548574068589
0.66552709767965
0.66556532591832
0.66560002695009
0.6656301550472
0.66565287586876
1
1
1
1
1
1
1
1
1
1
1
1
1
1
1
1
1
1
1
1
1
1
1
1
1
1
1
1
1
1
1
1
1
1
1
1
0.29760096633921
0.30682326639698
0.31365408520997
0.31174166357409
0.30717519612131
0.31556571710798
0.3891258944459
0.67259293834937
1
1
1
1
1
1
1
1
1
1
1
1
1
1
1
1
1
1
1
1
1
1
1
1
1
1
1
1
1
1
1
1
1
1
1
1
1
1
1
1
1
1
1
1
1
1
1
1
1
1
0.99642303509578
0.83770484181963
0.72029521323641
0.63199700730417
0.56322873518169
0.50745867386531
0.46101115956213
0.42189371962689
0.3890523906583
0.36200316453722
0.34060606421354
0.32487388786544
0.3147192469218
0.31072450328871
0.31143302051303
0.31633843816233
0.32230583569414
0.32677013697785
0.32929712750054
0.3306181898302
0.33135323126
0.33184101136808
0.33217086309279
0.33238779975904
0.33253060516277
0.33262584859049
0.52579042414744
0.66528228915885
0.66537306974676
0.66544002299692
0.66549121001899
0.66553220124407
0.66556676691514
0.66559733357764
0.66562533880739
0.66565153837538
0.6656763074494
0.66569982223444
0.66572213252206
0.66574323792922
0.66576319614478
0.66578212649054
0.66580005840811
0.66581678670392
0.66583173013096
0.66584347948573
1
1
1
1
1
1
1
1
1
1
1
1
1
1
1
1
1
1
1
1
1
1
1
1
1
1
1
1
1
1
1
1
1
1
1
1
0.29761434384153
0.30722152531858
0.31527278180572
0.31654073990426
0.3106044582237
0.30821724177051
0.32881062088328
0.43170513360964
0.75025567701242
1
1
1
1
1
1
1
1
1
1
1
1
1
1
1
1
1
1
1
1
1
1
1
1
1
1
1
1
1
1
1
1
1
1
1
1
1
1
1
1
1
1
1
1
1
1
1
1
0.95173285579524
0.79496733339522
0.67829101670745
0.59643246427245
0.53225028124742
0.480901501933
0.43849787588639
0.40306777307161
0.37369211039706
0.34998013799085
0.33185968668913
0.31932994338348
0.31219565836588
0.31077724293838
0.31317436910246
0.31877975049545
0.32438389637842
0.32810163048689
0.33013334323708
0.33126809762582
0.33198625562765
0.33238254349136
0.33258727430554
0.33269790338888
0.33276232771614
0.33280252891639
0.33282896959493
0.52604128541498
0.66565498230082
0.66568210965786
0.66570346679737
0.66572098721804
0.66573615928705
0.66575006398002
0.66576341031932
0.66577657901542
0.66578970511292
0.66580278128703
0.66581572443479
0.66582840253475
0.66584070705708
0.66585263517483
0.66586423668106
0.66587552531877
0.66588641987089
0.66589665343647
0.66590564468185
1
1
1
1
1
1
1
1
1
1
1
1
1
1
1
1
1
1
1
1
1
1
1
1
1
1
1
1
1
1
1
1
1
1
1
1
0.29760725608815
0.3072971228864
0.31606402455304
0.32007127878194
0.31592999409268
0.30941941340344
0.31094301207111
0.34511331413145
0.46783673074631
0.78563335339028
1
1
1
1
1
1
1
1
1
1
1
1
1
1
1
1
1
1
1
1
1
1
1
1
1
1
1
1
1
1
1
1
1
1
1
1
1
1
1
1
1
1
1
1
1
1
0.89814719406138
0.75366888549301
0.64797904246798
0.56735604718535
0.50577680393002
0.45717220091738
0.41780447719933
0.38559115083672
0.35950076402547
0.33912370870345
0.32431426178002
0.31480641559352
0.31094230538734
0.31134183070475
0.31560394666102
0.32133234913618
0.32617906860527
0.32913368311324
0.33078186147466
0.33184738049427
0.33241780465637
0.3326652943894
0.33277145401718
0.33282174529048
0.33284872154164
0.33286492701729
0.33287566633066
0.33288336520537
0.52611438232248
0.66576059996137
0.6657708587245
0.66578009197979
0.66578869255714
0.66579702008813
0.66580538486756
0.66581400867499
0.66582299057828
0.66583231922663
0.665841911217
0.66585163502587
0.66586134475863
0.66587094465902
0.66588042119345
0.66588979299308
0.66589907115936
0.6659082217497
0.66591714702229
0.66592563586255
1
1
1
1
1
1
1
1
1
1
1
1
1
1
1
1
1
1
1
1
1
1
1
1
1
1
1
1
1
1
1
1
1
1
1
1
0.29758935348227
0.30726215518608
0.31638513213256
0.32234263104808
0.32093835538385
0.31425465988171
0.3092492086542
0.31590015479401
0.3590400747367
0.48899813621887
0.78341690912219
1
1
1
1
1
1
1
1
1
1
1
1
1
1
1
1
1
1
1
1
1
1
1
1
1
1
1
1
1
1
1
1
1
1
1
1
1
1
1
1
1
1
1
0.99607987773686
0.84034614249942
0.71157344042276
0.61474419546991
0.54042231475158
0.48234672669078
0.43625523434883
0.39937300980857
0.36996181830131
0.34696456784134
0.32984447297135
0.31830445667056
0.31195758920256
0.31085868867029
0.31313018295883
0.31834572514192
0.32378755757087
0.32768621401655
0.32995902299052
0.3313921049762
0.33227166110468
0.33265477429083
0.33279555117176
0.33284776436173
0.33286956980268
0.33288032027236
0.33288661615925
0.33289095905029
0.33289440862735
0.33289742956615
0.52613890997669
0.66578962255973
0.66579572329543
0.66580189817618
0.66580821565055
0.6658147752383
0.66582169612991
0.66582906655225
0.66583690886989
0.66584517770803
0.66585377437515
0.66586256602286
0.66587142791049
0.66588028523701
0.66588911388058
0.66589791415758
0.66590668239371
0.66591541304982
0.66592409359451
0.66593261628475
1
1
1
1
1
1
1
1
1
1
1
1
1
1
1
1
1
1
1
1
1
1
1
1
1
1
1
1
1
1
1
1
1
1
1
1
0.29756618595877
0.30716844529961
0.31642618389843
0.32329356695889
0.32460368770348
0.31997344384308
0.31273727538607
0.30954526023709
0.32045084437536
0.36846968534386
0.49394649711579
0.75390373036207
1
1
1
1
1
1
1
1
1
1
1
1
1
1
1
1
1
1
1
1
1
1
1
1
1
1
1
1
1
1
1
1
1
1
1
1
1
1
1
1
1
0.91650601380404
0.77592728258059
0.66530588955337
0.57971279826761
0.51280100317622
0.45954273045234
0.41684614729058
0.38281931272118
0.35624681212494
0.33629516268383
0.32237242331722
0.31384399847706
0.31084770414436
0.31156785100649
0.31583028721826
0.32126230845944
0.32592931103569
0.32890538938327
0.33068786245766
0.33191478110879
0.3325431488106
0.33277863251214
0.33285533664045
0.33288007011025
0.33288881204193
0.33289253091731
0.33289462022109
0.33289622377485
0.3328977719931
0.33289943729751
0.33290127336407
0.52615088518637
0.66579806846072
0.66580313039733
0.66580852628624
0.66581423923499
0.6658203162969
0.66582683308129
0.6658338446002
0.66584135577292
0.66584931425149
0.66585761924843
0.66586615014176
0.665874801645
0.66588350640474
0.66589222978567
0.66590095172068
0.6659096776672
0.66591842176169
0.66592715939903
0.6659358144012
1
1
1
1
1
1
1
1
1
1
1
1
1
1
1
1
1
1
1
1
1
1
1
1
1
1
1
1
1
1
1
1
1
1
1
1
0.29754069558663
0.30704617667587
0.31631191915488
0.32363846256871
0.3268530575093
0.32472010325469
0.31879678711636
0.31163075139591
0.30990490415772
0.32320697690709
0.37204991733398
0.48572916028583
0.70436753022965
0.98449879510351
1
1
1
1
1
1
1
1
1
1
1
1
1
1
1
1
1
1
1
1
1
1
1
1
1
1
1
1
1
1
1
1
1
1
1
1
1
0.96769837291077
0.82777551571605
0.70959632173988
0.61677083781047
0.54299774118485
0.4839577676827
0.43627800092886
0.39784008516012
0.36739664842374
0.34413171268564
0.32743138993425
0.31664600195662
0.31136726419188
0.31084994754006
0.31368248911185
0.31883498076735
0.3239853210664
0.32765941452434
0.3298741422405
0.33137110715736
0.33230481863243
0.3327082200873
0.33284431664562
0.33288435512777
0.33289517626567
0.33289783141385
0.33289835868497
0.33289847768702
0.33289870734125
0.33289922414836
0.33290007179786
0.33290125774527
0.33290275760696
0.52615967187431
0.66580150754506
0.6658062071187
0.66581130511159
0.6658167750264
0.66582265233481
0.66582899948868
0.66583586328737
0.66584324334596
0.66585108433098
0.66585928991778
0.66586774994122
0.66587636881811
0.66588507931204
0.66589384164812
0.66590264492478
0.66591148441387
0.66592034488706
0.665929198028
0.66593798520707
1
1
1
1
1
1
1
1
1
1
1
1
1
1
1
1
1
1
1
1
1
1
1
1
1
1
1
1
1
1
1
1
1
1
1
1
0.29751450586663
0.30691237824619
0.31611869712688
0.32364762129022
0.32799094415973
0.3279631630163
0.32424077447023
0.31791724697208
0.3111038544501
0.31019808072941
0.32398689827148
0.36935006752462
0.46675816392052
0.64080587735611
0.8813011621231
1
1
1
1
1
1
1
1
1
1
1
1
1
1
1
1
1
1
1
1
1
1
1
1
1
1
1
1
1
1
1
1
1
1
0.98672714803602
0.85480753438132
0.73859504094733
0.64430903363323
0.56759091521845
0.50522389655985
0.45420908575399
0.41255174879018
0.37900821201812
0.35279787313464
0.33338394198061
0.3202620127074
0.31270088005351
0.31076555932769
0.31200826688462
0.31658869644815
0.32190599401944
0.32624442169361
0.3289899287099
0.33071794657422
0.33193861448395
0.33256763524939
0.33280637362854
0.33288063164247
0.33290010216413
0.33290380279571
0.33290349977091
0.33290241621538
0.33290144191682
0.33290081474262
0.33290060031405
0.33290080902716
0.33290143131877
0.33290244465233
0.33290380643168
0.52616756924304
0.66580397082119
0.66580848172989
0.66581339369418
0.66581868847284
0.6658244050093
0.66583060694563
0.66583734203135
0.66584461530891
0.66585237561559
0.6658605260234
0.66586895845114
0.66587758480568
0.66588634220706
0.66589518835613
0.66590409137291