/*--------------------------------*- C++ -*----------------------------------*\
| =========                 |                                                 |
| \\      /  F ield         | OpenFOAM: The Open Source CFD Toolbox           |
|  \\    /   O peration     | Version:  2312                                  |
|   \\  /    A nd           | Website:  www.openfoam.com                      |
|    \\/     M anipulation  |                                                 |
\*---------------------------------------------------------------------------*/
FoamFile
{
    version     2.0;
    format      ascii;
    arch        "LSB;label=32;scalar=64";
    class       volScalarField;
    location    "4e-05";
    object      nut;
}
// * * * * * * * * * * * * * * * * * * * * * * * * * * * * * * * * * * * * * //

dimensions      [0 2 -1 0 0 0 0];

internalField   nonuniform List<scalar> 
109340
(
0.00072699765060835
0.00050037515012956
0.00027044292197502
0.00022621461278791
0.00021935791846194
0.00022404814944671
0.00023276817920048
0.00024512995928656
0.00021386701733118
0.00019035371638839
0.00017172685418122
0.00015652651337207
0.00014385987782072
0.00013313238104435
0.00012392720410509
0.00011594092430748
0.00010894612902574
0.00010276873221747
9.7273318206856e-05
9.2353013705069e-05
8.7922283159729e-05
8.3911783303219e-05
8.0264653976822e-05
7.6933792086411e-05
7.3879810758924e-05
7.1069489836464e-05
6.8474587829199e-05
6.6070913507629e-05
6.3837583814204e-05
6.1756409607478e-05
5.9811358746403e-05
5.7988029235134e-05
5.627298224283e-05
5.4652514688868e-05
5.3109212012361e-05
5.1613014115992e-05
0.00071854053146956
0.00034981927550289
0.00025671077346727
0.00023502911795651
0.00023367988786784
0.00023864530882165
0.00021211264579041
0.0001845876732326
0.00016321280920819
0.00014629168170713
0.00013259271617027
0.00012128303949703
0.00011179110002791
0.00010371398411013
9.6759800281821e-05
9.0711438422533e-05
8.5403831634784e-05
8.0709421788131e-05
7.6528296744874e-05
7.2781108567316e-05
6.9403920041315e-05
6.6344537591889e-05
6.3559897010799e-05
6.1014156259959e-05
5.8677261915746e-05
5.6523855614731e-05
5.4532411608106e-05
5.2684539558242e-05
5.0964410705868e-05
4.9358279733713e-05
4.7854056083296e-05
4.6440892415708e-05
4.5108712239092e-05
4.3847618819795e-05
4.2646788545199e-05
4.1488751500985e-05
0.00042220929383264
0.00029864368289619
0.00025775093271733
0.00024086922840568
0.00019282061522515
0.00016078558180724
0.00013757487681805
0.0001200865079052
0.00010649887241461
9.5684035285761e-05
8.6898548696105e-05
7.9634338596653e-05
7.3535751432794e-05
6.8348315997377e-05
6.3885803468404e-05
6.0008718570714e-05
5.6610543782856e-05
5.3608791574038e-05
5.093864413211e-05
4.8548070850441e-05
4.6394510579673e-05
4.4442947663691e-05
4.2664608805114e-05
4.1035791960599e-05
3.9536970232111e-05
3.8151939063613e-05
3.6867233093678e-05
3.5671456681359e-05
3.4555000057933e-05
3.3509585221091e-05
3.2528010395225e-05
3.1603896750096e-05
3.0731344428943e-05
2.99053219429e-05
2.9123105561741e-05
2.8384951707048e-05
0.00024288713340964
0.00024515209329271
0.00015397567412184
0.00011214678047195
8.8258502578857e-05
7.2835637491999e-05
6.2088185449111e-05
5.4188792456396e-05
4.8150856436013e-05
4.3395438429567e-05
3.9560551395833e-05
3.6407921885626e-05
3.37743684069e-05
3.154469897877e-05
2.9635384938253e-05
2.7984288119531e-05
2.6544237062454e-05
2.5278881978505e-05
2.415630635886e-05
2.3148532632424e-05
2.2233881234729e-05
2.1396543645965e-05
2.0625076649245e-05
1.9911133819611e-05
1.9248451221085e-05
1.8631995300172e-05
1.8057291904182e-05
1.7521225617925e-05
1.7021098879931e-05
1.6554488584033e-05
1.6119090273167e-05
1.571223502777e-05
1.5329784150431e-05
1.4967599450397e-05
1.462519411759e-05
1.4312681583321e-05
0.00014649821852
4.7869110641496e-05
2.912684258134e-05
2.1134038390041e-05
1.6732482060853e-05
1.3970616649571e-05
1.2093111346156e-05
1.0745285170799e-05
9.7385566436891e-06
8.9643655491893e-06
8.3562872465726e-06
7.8722493623028e-06
7.4844789480994e-06
7.1742952900914e-06
6.9288738535362e-06
6.7391596398558e-06
6.598222939923e-06
6.4942017109857e-06
6.4071488057827e-06
6.3211758469316e-06
6.231615288947e-06
6.1414131906073e-06
6.0550611632354e-06
5.9759564947155e-06
5.9061599073183e-06
5.8468476357613e-06
5.798459493123e-06
5.7611735408661e-06
5.7357197787307e-06
5.7215979865833e-06
5.7178421618861e-06
5.7235692851186e-06
5.737675710044e-06
5.7585973947391e-06
5.78215992148e-06
5.7995751074698e-06
3.6766979992447e-07
5.4852924929525e-07
7.0571529221741e-07
8.284742564933e-07
9.1633128648084e-07
9.7436673428391e-07
1.0093436000116e-06
1.0276063248597e-06
1.034239510905e-06
1.0334047845746e-06
1.0275563590019e-06
1.0186163810639e-06
1.0079096280269e-06
9.9633318839731e-07
9.8448865257603e-07
9.7280894170512e-07
9.6157413891197e-07
9.5097205294853e-07
9.4120937439656e-07
9.3250086043292e-07
9.2463315435986e-07
9.1748758388444e-07
9.1100380437706e-07
9.0514411884422e-07
8.9987530406032e-07
8.9516361102145e-07
8.9097469892382e-07
8.8727115697724e-07
8.8400862904763e-07
8.8112959760591e-07
8.7855480289636e-07
8.7616965224772e-07
8.7375713688408e-07
8.707301891083e-07
8.6529199794605e-07
8.4791815665348e-07
4.8141723177762e-05
2.7475926969839e-05
1.5512212813965e-05
1.019887485825e-05
7.3796211871925e-06
5.5299164889973e-06
4.2531116959237e-06
3.3111837698413e-06
2.6589309458123e-06
2.3364294470782e-06
2.3450443028456e-06
2.8908400314814e-06
3.3922880240767e-06
3.9230175726706e-06
4.3788989636047e-06
4.7105964432535e-06
5.0107369699172e-06
5.2587570337925e-06
5.4519946907598e-06
5.6420893764186e-06
5.8429304917838e-06
6.0024821532363e-06
6.1068318028527e-06
5.8178540002912e-06
5.5528195432467e-06
5.3090708448634e-06
5.0842262666541e-06
4.8765142722973e-06
4.6838010260104e-06
4.5049080691774e-06
4.3382160310235e-06
4.1826551122692e-06
4.0367465287138e-06
3.8992805450773e-06
3.7700792268333e-06
3.6488582952989e-06
3.5347704190025e-06
3.4269133279937e-06
3.3246506251082e-06
3.2274217387457e-06
3.134761678248e-06
3.0464961240217e-06
2.9625090075085e-06
2.8825894805927e-06
2.8064932859162e-06
2.7339390374279e-06
2.6644917050749e-06
2.5977861857623e-06
2.5338123658709e-06
2.4722267657192e-06
2.4130782971623e-06
1.0972003697934e-05
0.00023755442132177
0.00022669926741786
0.00014411758953399
4.0812900405864e-05
2.7729136588437e-05
2.396007516422e-05
2.2629962823132e-05
1.8571009891491e-05
1.7268923198374e-05
1.788720542024e-05
1.8412584986169e-05
1.8895406740553e-05
1.9364557733542e-05
1.983949425083e-05
2.0345385540757e-05
2.0881080931846e-05
2.141046195294e-05
2.1887437308895e-05
2.228472854246e-05
2.2577040208584e-05
2.2718305381044e-05
2.2706958641023e-05
2.258389136943e-05
2.2377936317877e-05
2.2104479464394e-05
2.1778271483429e-05
2.1416839637855e-05
2.1031088248281e-05
2.0623507460207e-05
2.0206053284628e-05
1.9784839218001e-05
1.9363462546413e-05
1.8615311221801e-05
1.8235154519468e-05
1.7880879998224e-05
1.7545002265322e-05
1.721667555201e-05
1.6889364793842e-05
1.6567456083645e-05
1.6238208232901e-05
1.5906318828286e-05
1.5548732204015e-05
1.5173744036016e-05
1.4777034249865e-05
1.4364292803385e-05
1.3945053851524e-05
1.3545987215368e-05
1.3167152921952e-05
1.2832431443281e-05
1.2652123488552e-05
1.2630192831431e-05
1.2731143618276e-05
1.3038253910785e-05
1.3374240721228e-05
1.3492873363797e-05
1.3462758272355e-05
1.3386610376966e-05
1.3256597759449e-05
1.3059996233531e-05
1.2805900564073e-05
1.2514850113845e-05
1.2199744660002e-05
1.1894522997902e-05
1.1640772316318e-05
1.142693881994e-05
1.1288228064886e-05
1.1170478809829e-05
1.1079732461726e-05
1.1014335646838e-05
1.0966449225803e-05
1.0964125764614e-05
1.0960847905786e-05
1.0946253776603e-05
1.0927143835844e-05
1.0901162355605e-05
1.0844669076627e-05
1.0756604455585e-05
1.0642962131642e-05
1.0509961410953e-05
1.0366944508948e-05
1.0231366443113e-05
1.0096286552835e-05
9.9622224394391e-06
9.8384513394301e-06
9.7271144373476e-06
9.570877270045e-06
1.1107485361573e-05
8.8679257189155e-06
3.7409537797355e-05
2.1475057568263e-05
1.3389338179055e-05
9.4072363861948e-06
6.9472349051523e-06
5.2981082709792e-06
4.1039670865229e-06
3.2225928892545e-06
2.5785867463683e-06
2.1356653128241e-06
1.8687040759577e-06
1.7842095761411e-06
1.8343583302317e-06
1.9374173923363e-06
2.1081724247951e-06
2.3406035398751e-06
2.6127770534992e-06
2.9349807124528e-06
3.2932823485881e-06
3.653454849921e-06
4.0162755251188e-06
4.3844915685413e-06
4.7408255408054e-06
5.0796310404778e-06
5.397085046537e-06
5.1561382090364e-06
4.9355889964438e-06
4.7334795165338e-06
4.5477920831861e-06
4.3763508501071e-06
4.2170481362241e-06
4.0679714300224e-06
3.9278768737637e-06
3.7964965737585e-06
3.6734322636245e-06
3.5579177728469e-06
3.4491544126355e-06
3.3462887924695e-06
3.248589008521e-06
3.1555670726848e-06
3.0669427623754e-06
2.9825562958115e-06
2.9022734489672e-06
2.8258891427926e-06
2.7530832372628e-06
2.6835603985367e-06
2.616995874573e-06
2.5529041462659e-06
2.4912432058915e-06
2.4320701271138e-06
2.3651938445484e-06
3.8195893837568e-05
0.00024131783906144
0.00021338255729548
0.0001121900878126
3.2048186781193e-05
2.3927162543849e-05
2.0606172397806e-05
1.9314017033091e-05
1.5208456910116e-05
1.5094337517298e-05
1.5447438277119e-05
1.575442522276e-05
1.6032370047864e-05
1.6320588726644e-05
1.6649387243089e-05
1.7024545230131e-05
1.7437342750905e-05
1.7855419635755e-05
1.8236277523647e-05
1.8559329908896e-05
1.8804620420914e-05
1.8950775721722e-05
1.8976630729857e-05
1.8932414240861e-05
1.8821871228111e-05
1.8653935120355e-05
1.8446017116597e-05
1.8212652234505e-05
1.7954904056589e-05
1.7678963571014e-05
1.7395903833504e-05
1.7109881909096e-05
1.6821833830022e-05
1.7031032891497e-05
1.672060616781e-05
1.6432007327284e-05
1.6162982422542e-05
1.5909001029321e-05
1.5660991564215e-05
1.5417268817778e-05
1.5166952057886e-05
1.4905510276435e-05
1.4623720672901e-05
1.4325637481112e-05
1.4009479578766e-05
1.367206770853e-05
1.3319320745676e-05
1.2973628027327e-05
1.2638705656547e-05
1.234415162296e-05
1.2180252078901e-05
1.2150713713518e-05
1.2213777262267e-05
1.2378925406675e-05
1.2574376531553e-05
1.2639054067406e-05
1.2608179287743e-05
1.2537208353954e-05
1.241956939457e-05
1.2252015695508e-05
1.2052348377611e-05
1.1833456681595e-05
1.160104417581e-05
1.1377220586334e-05
1.1173541451345e-05
1.1018041957371e-05
1.0918787281637e-05
1.0844825486324e-05
1.0785563453263e-05
1.0746727920652e-05
1.0715826632449e-05
1.0702092454063e-05
1.068170880885e-05
1.0655145892384e-05
1.0617730069785e-05
1.0560985943487e-05
1.0486364060519e-05
1.0393500147882e-05
1.0285380418193e-05
1.0166253448788e-05
1.0041800476267e-05
9.9180724905286e-06
9.7932742790601e-06
9.6732274997178e-06
9.5503702624289e-06
9.4377647104099e-06
9.2711485215819e-06
1.0526820876739e-05
8.7587473196555e-06
2.7685607181013e-05
1.4588746556276e-05
9.3820879181689e-06
6.898731808762e-06
5.1950324941789e-06
4.0504519937601e-06
3.2326692702045e-06
2.6529410534532e-06
2.2492260619039e-06
1.9953398248085e-06
1.8795469994095e-06
1.8234905470323e-06
1.8515371653565e-06
1.9456254084479e-06
2.0788753900778e-06
2.2331045327822e-06
2.4130603021241e-06
2.6157780565433e-06
2.8285851543346e-06
3.0370129640342e-06
3.2566986199281e-06
3.4896146560059e-06
3.7171374629439e-06
3.9524074481287e-06
4.2039817349404e-06
4.4626905100011e-06
4.7258915040805e-06
4.69050019769e-06
4.5005245718017e-06
4.3258467692201e-06
4.1644069847739e-06
4.013813695218e-06
3.8719782372105e-06
3.7397632817358e-06
3.6172846335056e-06
3.503032213222e-06
3.3958769187442e-06
3.2952959107657e-06
3.2002433307431e-06
3.1097097499971e-06
3.0233599367984e-06
2.9411311968245e-06
2.8629878554354e-06
2.7887036939603e-06
2.7179332413952e-06
2.6503615732741e-06
2.5856091106988e-06
2.5232043961477e-06
2.4631189408426e-06
2.4054547309618e-06
2.341564248157e-06
3.2875603285348e-05
0.00023921497206635
0.00021335881339463
0.00011501729597648
2.9951815618632e-05
2.0987885067941e-05
1.7460117522813e-05
1.6000841676288e-05
1.2849471152496e-05
1.2729706317898e-05
1.2971700044895e-05
1.3170917639024e-05
1.3314473357825e-05
1.3454079860679e-05
1.3629189490251e-05
1.3857962553746e-05
1.4136333590252e-05
1.4444316024365e-05
1.4748630163691e-05
1.5030426299527e-05
1.5278527153774e-05
1.5471482810478e-05
1.55934642495e-05
1.5657398736077e-05
1.5660270776186e-05
1.5619170673682e-05
1.5533219534464e-05
1.5419416664071e-05
1.5271997510307e-05
1.5103325438267e-05
1.4924714421152e-05
1.4736784923785e-05
1.454295474138e-05
1.4872804365126e-05
1.4657344984985e-05
1.4462358760635e-05
1.4273868624565e-05
1.4100568812546e-05
1.3936764099454e-05
1.3775470475823e-05
1.3606953009378e-05
1.3425058551766e-05
1.3227813599816e-05
1.3015271129451e-05
1.2785775788678e-05
1.2536967367648e-05
1.2270327422267e-05
1.1997524602887e-05
1.1729359662902e-05
1.1490620901846e-05
1.1361940748231e-05
1.1340138052512e-05
1.1380766610927e-05
1.1516437656448e-05
1.1674041819666e-05
1.1801179696189e-05
1.1790343994223e-05
1.1752418729425e-05
1.1668252217132e-05
1.153995160196e-05
1.1389541625862e-05
1.122446261743e-05
1.1050731317584e-05
1.0873271108538e-05
1.0689737380964e-05
1.0561344394877e-05
1.0474910662136e-05
1.0419854071037e-05
1.0378935577375e-05
1.0351024074287e-05
1.033386948474e-05
1.0320545816544e-05
1.0305547623435e-05
1.0278945180793e-05
1.0249654882874e-05
1.0207021604789e-05
1.0147157603668e-05
1.0073466745781e-05
9.988294287414e-06
9.8928138251196e-06
9.7906549548971e-06
9.6844221281855e-06
9.5765332323302e-06
9.46869656577e-06
9.3576750089812e-06
9.2549443903891e-06
9.1009923023387e-06
1.0184497265451e-05
8.7333610823804e-06
1.4125219480525e-05
8.3061598703938e-06
5.6196873367659e-06
4.1462749299089e-06
3.3156158609057e-06
2.7923708360617e-06
2.4453616029229e-06
2.232004260076e-06
2.1116959864102e-06
2.0473415300784e-06
2.0190790075137e-06
2.0174409593341e-06
2.0407157921292e-06
2.0931955822596e-06
2.17766399693e-06
2.3035244949328e-06
2.4471862744487e-06
2.6087847518498e-06
2.7891528606688e-06
2.9587576652962e-06
3.1072468278603e-06
3.2511582099883e-06
3.4177656114655e-06
3.5781071462754e-06
3.7347194899049e-06
3.906260923538e-06
4.0945632685017e-06
4.2819447296066e-06
4.4692086152824e-06
4.2962288459336e-06
4.1355818702037e-06
3.9856123123666e-06
3.8446954038349e-06
3.7127058755097e-06
3.5895918238017e-06
3.4743350708977e-06
3.3657924125895e-06
3.2633429272719e-06
3.1666106783036e-06
3.0749993527485e-06
2.9879819683045e-06
2.9053070986022e-06
2.826954507752e-06
2.7528015419718e-06
2.6826025457331e-06
2.6159343555705e-06
2.5523041924586e-06
2.4912847011214e-06
2.4326588456781e-06
2.3763827027616e-06
2.3165457525277e-06
2.6404679746599e-05
0.00023561747834701
0.00021300897439172
0.00011913680226678
2.7770051751686e-05
1.7796165423397e-05
1.4127216041681e-05
1.2514866541452e-05
1.0426342304101e-05
1.0417598865281e-05
1.0610057368027e-05
1.0777841221558e-05
1.0884407824925e-05
1.0962457018475e-05
1.1039100088276e-05
1.1138469860323e-05
1.1271957754949e-05
1.1445391726615e-05
1.1653931500205e-05
1.189026601461e-05
1.2150078160396e-05
1.241445951606e-05
1.2654799917415e-05
1.2863610065715e-05
1.3023339223096e-05
1.3132147111027e-05
1.3194133561923e-05
1.3203685807854e-05
1.3165393614815e-05
1.3098867089435e-05
1.3004912651727e-05
1.2890310361887e-05
1.2761445654039e-05
1.3016857458311e-05
1.2870991958655e-05
1.2734135298946e-05
1.2606718554419e-05
1.2492712264279e-05
1.2388089685562e-05
1.2283669843928e-05
1.2171644401275e-05
1.2045546432945e-05
1.1905087893749e-05
1.1752295897e-05
1.1585535822498e-05
1.1402126919906e-05
1.1199796705627e-05
1.0986907082214e-05
1.0778235318551e-05
1.0593226085572e-05
1.0506956045444e-05
1.0481288744489e-05
1.0504731865624e-05
1.0621713250932e-05
1.0767622001108e-05
1.0936243879366e-05
1.1030820541674e-05
1.1008936840092e-05
1.0975978531658e-05
1.0903174213105e-05
1.0803834639257e-05
1.0683340755314e-05
1.0549667643354e-05
1.0405049013545e-05
1.0252911817728e-05
1.0132169013271e-05
1.004736199506e-05
9.9891032446918e-06
9.9506634925755e-06
9.9234206934865e-06
9.9139823154137e-06
9.9044663949495e-06
9.8984759762766e-06
9.8844761456725e-06
9.8621641303521e-06
9.8411632156221e-06
9.801727827909e-06
9.7469006237327e-06
9.6791795225211e-06
9.6031972020967e-06
9.5219543562832e-06
9.4390900171145e-06
9.3559405678391e-06
9.279518563613e-06
9.1963013010034e-06
9.1422710001942e-06
9.0768275336722e-06
1.0329755826578e-05
9.1301850307288e-06
5.7717927841682e-06
4.7351683791073e-06
3.8042816251999e-06
3.4316817674387e-06
3.1320436683293e-06
2.878364277382e-06
2.6865596147544e-06
2.5792567200938e-06
2.5005867106011e-06
2.4165649937914e-06
2.3644871012705e-06
2.3516205921551e-06
2.3548773367703e-06
2.3806289837497e-06
2.4250706777178e-06
2.4856336397989e-06
2.5826606610298e-06
2.7085216379646e-06
2.8369522543444e-06
2.9682315172466e-06
3.1048902509093e-06
3.2359117319311e-06
3.3454020580725e-06
3.4745449164412e-06
3.603025702326e-06
3.7282622045641e-06
3.8511732341945e-06
3.992939090136e-06
4.1339321643425e-06
4.2607257655242e-06
4.1039097893477e-06
3.9570550444965e-06
3.8190105157475e-06
3.6892797728695e-06
3.5675965634501e-06
3.4532453674474e-06
3.3453864105269e-06
3.2435590027047e-06
3.147269158423e-06
3.0559239384639e-06
2.9690469012964e-06
2.8864865061685e-06
2.8081770529242e-06
2.7339191148457e-06
2.6633877443282e-06
2.5962595533944e-06
2.5320785634514e-06
2.4704172505393e-06
2.4112874389152e-06
2.3546357821874e-06
2.2984246499564e-06
1.9934792692234e-05
0.0002298434742958
0.00021222694884905
0.0001243594936325
2.5962867241986e-05
1.4057317681991e-05
1.0874702408528e-05
9.3886691678409e-06
8.0273007455161e-06
7.9626789207566e-06
8.140712631312e-06
8.3207911587581e-06
8.490540919439e-06
8.6442302199895e-06
8.7649345531536e-06
8.8529756917512e-06
8.9300136514614e-06
9.0246949792316e-06
9.1632554380809e-06
9.3634151850309e-06
9.6350807474493e-06
9.9853029699171e-06
1.0383466292185e-05
1.0767617263223e-05
1.1107236700709e-05
1.1380087722868e-05
1.159101323323e-05
1.1719721012138e-05
1.1787331642901e-05
1.1800410104957e-05
1.1766451723395e-05
1.1701013510049e-05
1.1614712075072e-05
1.1764927028861e-05
1.1663778119243e-05
1.1561360272262e-05
1.1468223739912e-05
1.1383987560313e-05
1.1305765799463e-05
1.1227894556408e-05
1.1141945962357e-05
1.1040762424891e-05
1.092531307746e-05
1.0799548679881e-05
1.0662810973741e-05
1.0512021722674e-05
1.0344933724919e-05
1.0167647110092e-05
9.9986119946569e-06
9.8548043853716e-06
9.7829242757315e-06
9.757719611278e-06
9.7674842845003e-06
9.8588190804916e-06
9.9938539653638e-06
1.0148830259651e-05
1.0289680907709e-05
1.0389723463361e-05
1.0396067656925e-05
1.0374866909626e-05
1.032839799681e-05
1.0253271916397e-05
1.0152496770649e-05
1.0031774371658e-05
9.9015424583229e-06
9.7910091329299e-06
9.7026726987491e-06
9.6469044890933e-06
9.6057723919539e-06
9.593147081247e-06
9.5873573874228e-06
9.5856989747372e-06
9.588244080804e-06
9.592896126913e-06
9.5984521106503e-06
9.6077084316933e-06
9.621491386825e-06
9.6276543887491e-06
9.6332962276777e-06
9.639871374202e-06
9.6538218349904e-06
9.6820025146988e-06
9.7321498009788e-06
9.7988143463149e-06
9.8961678504996e-06
1.0036484822614e-05
1.0224372070153e-05
1.2211628216388e-05
1.2092587056056e-05
2.4781518790443e-06
3.0298669144241e-06
3.7825781473244e-06
4.4985462303405e-06
5.2937672483846e-06
5.0943112827112e-06
4.3965766470798e-06
3.8218246551868e-06
3.3666644717857e-06
3.1163176970164e-06
2.9521297856836e-06
2.8507618379168e-06
2.79215754436e-06
2.764589144682e-06
2.7645255010526e-06
2.788226749609e-06
2.8298674400352e-06
2.8925354283549e-06
2.9705784182617e-06
3.0594226868028e-06
3.1535070787165e-06
3.2553399681701e-06
3.3693574480896e-06
3.466255141849e-06
3.574519200585e-06
3.6821417737071e-06
3.7900895279966e-06
3.8849265380434e-06
3.9978494331247e-06
4.1134216105241e-06
4.0652111846161e-06
3.9229340850466e-06
3.7890557925111e-06
3.6627067058111e-06
3.5436557098177e-06
3.4314972609187e-06
3.3256148670604e-06
3.2253084677708e-06
3.1302198827889e-06
3.0400136268176e-06
2.954174524959e-06
2.8724456959862e-06
2.7947187021144e-06
2.7208366459529e-06
2.6505283136587e-06
2.5835246960668e-06
2.5193885973854e-06
2.4577966593915e-06
2.3987747581455e-06
2.3421720111411e-06
2.2876131516878e-06
1.4396612724328e-05
0.00022200333803162
0.00021089582963337
0.00013046259329606
2.4548352855052e-05
1.0949854677656e-05
9.0479003562791e-06
8.3759032199087e-06
7.4010724591337e-06
7.3358347542299e-06
7.4806237336759e-06
7.5450927106627e-06
7.5498198892747e-06
7.5664161445798e-06
7.6169930661306e-06
7.6678884880766e-06
7.701555546934e-06
7.7428297739952e-06
7.8231292867458e-06
7.962479837298e-06
8.1727034577836e-06
8.4638086071732e-06
8.8490830231211e-06
9.3305670942515e-06
9.8220810310662e-06
1.023402566782e-05
1.0545130078697e-05
1.0761848975015e-05
1.0890158129322e-05
1.0945812735514e-05
1.0943066667816e-05
1.0902356143537e-05
1.0838401046858e-05
1.0942278312503e-05
1.0858400671739e-05
1.0775509425418e-05
1.070133400685e-05
1.0632956600545e-05
1.0568144228941e-05
1.0503387465246e-05
1.0430036215842e-05
1.0340107543111e-05
1.0235412964385e-05
1.0119503690063e-05
9.9913902055437e-06
9.8496282605615e-06
9.6932384442338e-06
9.5301016809539e-06
9.3769160613246e-06
9.2828952769835e-06
9.2178597160427e-06
9.1984611096769e-06
9.1978605703776e-06
9.2705635897806e-06
9.3907887738927e-06
9.5376751041308e-06
9.6969908559387e-06
9.8753355680293e-06
9.9687536401888e-06
9.9716044675927e-06
9.9529301732727e-06
9.9081926828523e-06
9.8372520544181e-06
9.744762877346e-06
9.6375831874078e-06
9.5605024300945e-06
9.4838637546923e-06
9.4583543540849e-06
9.4659686323858e-06
9.4934835811726e-06
9.5444948887121e-06
9.6198869238356e-06
9.722327099587e-06
9.8494013260072e-06
9.9999956798041e-06
1.0171168168478e-05
1.0372722263608e-05
1.0599463943229e-05
1.0853948954058e-05
1.1143865508967e-05
1.1477645687046e-05
1.1869575314825e-05
1.233413490637e-05
1.2894812166759e-05
1.3565532527347e-05
1.4362888386652e-05
1.5297044090637e-05
1.8894433957681e-05
2.2222441191891e-05
9.4205333673459e-07
1.931776078339e-06
2.2802175358896e-06
2.8909571729257e-06
3.5301357650296e-06
4.2466117572535e-06
5.1011548356749e-06
5.9422479588473e-06
5.0404424258463e-06
4.3663040044478e-06
3.9218184164845e-06
3.6214997155019e-06
3.4255798266033e-06
3.2914181509729e-06
3.2053118905532e-06
3.1593930545288e-06
3.1420024579241e-06
3.1461675270024e-06
3.1668157130138e-06
3.2025100982309e-06
3.2551355509261e-06
3.3192248209946e-06
3.3932009042901e-06
3.4851371250553e-06
3.5698550484611e-06
3.6543764555544e-06
3.7545956922031e-06
3.8536240721249e-06
3.9383080765163e-06
4.0236255792712e-06
4.0565881574764e-06
3.9169407663167e-06
3.7855825391554e-06
3.661559337045e-06
3.5441842408754e-06
3.4332258149175e-06
3.3283652648171e-06
3.2290348358725e-06
3.1348009065213e-06
3.0451681263199e-06
2.9597199028564e-06
2.8783241574364e-06
2.8008146293941e-06
2.727010773107e-06
2.6566452790735e-06
2.589422365103e-06
2.525118095004e-06
2.4634669022823e-06
2.4041106936607e-06
2.3472254399172e-06
2.2929014744417e-06
2.8847218491062e-06
0.00017117130044209
0.00021532695251182
0.0001629120736255
4.1193487725987e-05
1.0692090275277e-05
1.0059118701436e-05
1.048585262568e-05
1.012758348689e-05
9.7796887019086e-06
9.671025554102e-06
9.0206465308555e-06
8.1668221989992e-06
7.6623873367442e-06
7.40280983399e-06
7.2384188628556e-06
7.1954483921052e-06
7.172566319374e-06
7.1665412601055e-06
7.2164996941024e-06
7.346053152905e-06
7.5656925895032e-06
7.8845632144988e-06
8.3066161273489e-06
8.8324396727079e-06
9.3608863625158e-06
9.7641975380965e-06
1.0046819877193e-05
1.0220482498841e-05
1.030905811542e-05
1.0334679864564e-05
1.032056596239e-05
1.0281982464879e-05
1.033478144197e-05
1.0261600559478e-05
1.0188808095414e-05
1.0118608195494e-05
1.0047804935164e-05
9.9755079042876e-06
9.9040024139116e-06
9.8283465444877e-06
9.7381219506838e-06
9.6349509274117e-06
9.5226687883402e-06
9.4024771759271e-06
9.2736914740743e-06
9.1366794483835e-06
8.9913766560689e-06
8.8725231489075e-06
8.8064427114769e-06
8.7514711581421e-06
8.7286034263495e-06
8.7056297465967e-06
8.6202343712977e-06
8.7636977834073e-06
8.9475348835667e-06
9.1627104150843e-06
9.3942265487673e-06
9.5532040495446e-06
9.7116960843277e-06
9.7756923644406e-06
9.7809170913077e-06
9.7748684672269e-06
9.7499617945291e-06
9.7428743788942e-06
9.81002818151e-06
9.8898349917094e-06
1.0032033537747e-05
1.0247746920931e-05
1.0544755102837e-05
1.093193495521e-05
1.1412691914852e-05
1.1994644422749e-05
1.2674348465856e-05
1.3457204857518e-05
1.4337614607092e-05
1.531780504023e-05
1.640323863501e-05
1.7596347826773e-05
1.8915781856799e-05
2.038232237356e-05
2.2029840764669e-05
2.3895171968756e-05
2.6013583343728e-05
2.8413827544143e-05
3.1089754937873e-05
3.4253764688422e-05
5.2008298923951e-05
5.2193528923925e-05
4.8254952993088e-07
1.2618777918879e-06
1.5273199293679e-06
1.8202351367355e-06
2.2190877171507e-06
2.7320588064209e-06
3.3163186303628e-06
4.0015874703488e-06
4.7953297467102e-06
5.51049347243e-06
6.0375365027561e-06
5.524203242049e-06
4.9473267888804e-06
4.5403311547857e-06
4.250079636471e-06
4.044209019003e-06
3.8877102516807e-06
3.7765978373895e-06
3.7047127980297e-06
3.6609669635968e-06
3.6405918804908e-06
3.6391959982497e-06
3.6533316298368e-06
3.6800830113175e-06
3.7223854329212e-06
3.7842107770171e-06
3.8428718749183e-06
3.8984940768455e-06
3.9772109595959e-06
4.0601032233519e-06
3.9287223131181e-06
3.7979593485539e-06
3.674945857375e-06
3.5596818034086e-06
3.4506089553942e-06
3.3473164996735e-06
3.2492175752244e-06
3.1561440615663e-06
3.0676664884789e-06
2.9832554872475e-06
2.9026540020285e-06
2.8257164066786e-06
2.7521721231613e-06
2.6819490365475e-06
2.6148015334418e-06
2.5504922872742e-06
2.4887770098279e-06
2.4295503407472e-06
2.3725649846007e-06
2.3176852835327e-06
2.2651404443824e-06
4.1427710045238e-06
0.00017907588132872
0.00020107302169455
0.00015028704375376
3.4552902161247e-05
1.7604872420303e-05
2.9072156274922e-05
3.5482144808205e-05
3.3974437478225e-05
3.5879746703081e-05
3.6542556977952e-05
3.2967775689192e-05
2.5238863840706e-05
1.6707419312279e-05
1.0647789274962e-05
7.7288049636229e-06
6.9451660555598e-06
6.6559070128531e-06
6.5540687800905e-06
6.4919527724081e-06
6.5504118337391e-06
6.7541249268935e-06
7.0907168177275e-06
7.5450343591688e-06
8.1196582771642e-06
8.7073369814453e-06
9.1159818101173e-06
9.3767032121586e-06
9.5390086730092e-06
9.6331734844753e-06
9.6879900333769e-06
9.6784669426163e-06
9.6086715269483e-06
9.5769205627811e-06
9.4611750280347e-06
9.3461339984853e-06
9.2336171570304e-06
9.1286191247203e-06
9.0342616309099e-06
8.9464133288996e-06
8.8535106384671e-06
8.7487634504655e-06
8.6387809197466e-06
8.5276378659324e-06
8.4153323900602e-06
8.3054400557884e-06
8.2068899848815e-06
8.1352579901459e-06
8.1027727025605e-06
8.0951140305333e-06
8.0998775452555e-06
8.1295272752051e-06
8.2207023925958e-06
8.7207911081546e-06
9.1281836078628e-06
9.6279469072883e-06
1.0200669337331e-05
1.0793706682147e-05
1.1368267833014e-05
1.1847776905305e-05
1.2324320324317e-05
1.2668000891323e-05
1.299293258299e-05
1.3360048430358e-05
1.3787514492395e-05
1.4369146757331e-05
1.5165089609422e-05
1.6219415629423e-05
1.757269546774e-05
1.9262222434989e-05
2.1302314902659e-05
2.3696114300449e-05
2.6446136968029e-05
2.953058035343e-05
3.2940385247394e-05
3.6666933845644e-05
4.0707782915803e-05
4.5086115533634e-05
4.9828237923733e-05
5.5017583466929e-05
6.0691502034221e-05
6.6879714047224e-05
7.3587138115429e-05
8.0848056446304e-05
8.8488186875422e-05
9.6607937388887e-05
0.00010622028801911
0.00014545638047838
0.00012306390335182
5.4879619983227e-07
9.591799364319e-07
1.1569456432981e-06
1.3328484356057e-06
1.590093585592e-06
1.9172692536309e-06
2.3264340823523e-06
2.8196366723471e-06
3.4024659541032e-06
4.077199225934e-06
4.7479698773371e-06
5.2968503696348e-06
5.6557784022983e-06
5.7495130891313e-06
5.504108883023e-06
5.0672893224127e-06
4.7592170872594e-06
4.5262109879364e-06
4.3482776024757e-06
4.2146145275931e-06
4.118491156048e-06
4.0557192645575e-06
4.0170163806502e-06
3.9962272953961e-06
3.9895858359406e-06
3.996627335697e-06
4.0159463900076e-06
4.0501919733358e-06
4.097179350422e-06
3.9772918620467e-06
3.845562795928e-06
3.7206670091156e-06
3.6019936129236e-06
3.4900351532682e-06
3.3841513267282e-06
3.2841916639198e-06
3.190077526763e-06
3.1011404134393e-06
3.0164849500195e-06
2.9358941476447e-06
2.8591314233865e-06
2.7856904599204e-06
2.715416782195e-06
2.648104977532e-06
2.5835577997727e-06
2.5217322443467e-06
2.462457324977e-06
2.4054441418595e-06
2.350512196887e-06
2.2977775158084e-06
2.2470501965227e-06
2.3300073516207e-06
0.00012098061398901
0.0001878377804327
0.00015987081808102
5.9631733392297e-05
4.0873538895947e-05
6.4096001461791e-05
7.2848893801918e-05
6.9704377438267e-05
7.2936352197476e-05
7.6822695445334e-05
7.6185415251394e-05
6.9268521524927e-05
5.508910238907e-05
3.4115734239587e-05
1.8314000715994e-05
9.8957647052145e-06
6.9034861115195e-06
6.3245297951523e-06
6.1613003506901e-06
6.1245216095197e-06
6.3051644646545e-06
6.6745077601266e-06
7.1902008009356e-06
7.7895754499738e-06
8.3377079365125e-06
8.7167604177391e-06
8.9577760900861e-06
9.0588974771696e-06
9.0773790707408e-06
9.0280420848173e-06
8.9334711249763e-06
8.8170444720301e-06
8.8260589848746e-06
8.710273162216e-06
8.6152999627658e-06
8.5413714599207e-06
8.4949905551524e-06
8.4625056145503e-06
8.4432075645804e-06
8.4291974499343e-06
8.4105589354518e-06
8.3884977934279e-06
8.3629780372951e-06
8.3362804125741e-06
8.3180923251292e-06
8.3472339490937e-06
8.4189083811827e-06
8.5344180403003e-06
8.697230896159e-06
8.9264719367098e-06
9.2543898878965e-06
9.8442011781272e-06
1.2367891320913e-05
1.3691010797982e-05
1.5238693309399e-05
1.6978418384348e-05
1.8856508474372e-05
2.0785767513139e-05
2.2605019667322e-05
2.433763654357e-05
2.6046963728699e-05
2.7863010975322e-05
2.9896809948162e-05
3.2287434680483e-05
3.5163761363575e-05
3.8637394546927e-05
4.2770756740414e-05
4.7624328440549e-05
5.3217818300448e-05
5.951540432903e-05
6.6441853892114e-05
7.3902879893882e-05
8.1855509073264e-05
9.0228418485551e-05