/*--------------------------------*- C++ -*----------------------------------*\
| =========                 |                                                 |
| \\      /  F ield         | OpenFOAM: The Open Source CFD Toolbox           |
|  \\    /   O peration     | Version:  2312                                  |
|   \\  /    A nd           | Website:  www.openfoam.com                      |
|    \\/     M anipulation  |                                                 |
\*---------------------------------------------------------------------------*/
FoamFile
{
    version     2.0;
    format      ascii;
    arch        "LSB;label=32;scalar=64";
    class       volScalarField;
    location    "4e-05";
    object      omega;
}
// * * * * * * * * * * * * * * * * * * * * * * * * * * * * * * * * * * * * * //

dimensions      [0 0 -1 0 0 0 0];

internalField   nonuniform List<scalar> 
109340
(
9721.5621300281
10020.952470188
10847.234212118
12624.534729527
15582.814695796
19603.274338669
24275.274395385
28960.311575012
33164.108430823
37211.568100919
41176.465440083
45079.66691017
48927.793882803
52722.032652475
56460.77997343
60141.05879822
63759.62133746
67313.594356099
70800.655178414
74218.960531257
77567.035098995
80843.703157982
84048.045472273
87179.37980589
90237.235936681
93221.28517031
96131.235092077
98966.683061821
101726.90948255
104410.58389763
107015.3025314
109536.80366524
111967.35733978
114291.84299408
116477.13878539
118439.60701712
9831.5839685882
10957.443160485
13863.613557077
18243.995387629
23336.319395107
28486.387693716
33421.232856061
38367.221839642
43325.782183792
48240.100177186
53093.455133918
57877.980215121
62588.127766357
67218.674922473
71764.090634356
76218.961581987
80578.754312289
84840.173358978
89001.085349773
93060.330083775
97017.636133821
100873.53877149
104629.28240756
108286.66548461
111847.83679029
115315.03477061
118690.32386115
121975.31015124
125170.80831079
128276.39036743
131289.66078636
134204.94400168
137010.16057382
139678.0549072
142140.24552736
144219.78831271
10078.446690228
14149.419948404
21676.38132545
29383.830515095
36708.011020977
43995.168557456
51350.595914019
58711.586426028
66027.106511341
73251.382087869
80351.264493912
87304.924779216
94097.73144299
100718.73673333
107158.83032475
113410.91778229
119470.72516192
125337.11299113
131012.12555524
136501.36178994
141814.13994368
146962.26007122
151958.59983026
156815.82101782
161545.54786364
166157.79895774
170660.69547633
175060.13465608
179359.54420722
183559.40969533
187656.21785376
191640.28012524
195489.86311947
199151.17962444
202476.1568821
205046.46496615
12067.972674704
28798.89353449
45888.185646438
62983.996577284
79919.877496551
96600.928062048
112917.94567607
128785.02493601
144132.95477596
158908.71661649
173075.1278339
186611.82578986
199513.17495319
211783.11449898
223431.86130799
234476.33539599
244942.33826921
254872.64016186
264348.30725276
273488.33152197
282406.02280699
291187.29500512
299889.67720503
308547.77447763
317179.55091245
325790.75004072
334378.27792613
342932.89643274
351439.7811043
359877.93373167
368219.04470241
376432.73777296
384491.28100372
392288.37551555
399347.62652901
403862.14962409
47190.691963401
147686.19544141
243233.84581719
334901.72311206
421364.44814746
501290.10080216
573850.95973745
638752.55927016
696169.74644094
746568.96975277
790579.53939831
828880.39104025
862136.19673191
890952.46919656
915865.1348072
937380.71958925
956128.00209089
973658.46044536
992930.8077408
1015964.7245558
1043073.5033671
1073386.7372782
1105759.6466176
1139205.599682
1172958.2479043
1206407.3069888
1239085.7163545
1270618.2313719
1300664.6567014
1328910.5254613
1355073.1276997
1378812.7114297
1399691.4218499
1416793.7668396
1427732.3200897
1421783.6596033
4754677.3091001
5586956.7317953
6209498.7126625
6644846.4963948
6929673.1878139
7101715.2652153
7193262.3338304
7229372.7444148
7228199.1883968
7203696.1640015
7163893.0633982
7114953.9150317
7061096.5605672
7005179.0614544
6949134.6188483
6894375.4228712
6841840.0039413
6792180.1653277
6746073.6671875
6704103.6619842
6665599.7830245
6630198.041601
6597730.6252659
6568112.0044914
6541288.6256222
6517224.9319053
6495911.9165704
6477371.004872
6461663.0731061
6448904.952997
6439318.8574201
6433307.7002284
6431485.9300792
6434847.9166399
6445099.2851077
6460942.8048734
119987.83233205
120357.79325766
119645.39529631
118924.35532458
119082.37701114
120652.81933076
124257.47803615
130121.31787631
137614.32069512
147443.75279076
159497.64505376
172165.66624861
181786.0736359
186063.19685098
185484.07221166
181894.82610557
176394.94010257
169930.15535337
163085.26525228
156205.95815608
149513.99217272
143071.47756565
136947.02124656
131310.42884417
126187.2497995
121501.46354859
117214.61152585
113278.1731181
109619.78442168
106212.07491432
103031.35744204
100055.41064212
97250.592598691
94591.895069693
92079.682302209
89717.521863892
87500.693563741
85419.558561554
83457.750384554
81589.493667127
79791.542705885
78056.919912414
76390.302912337
74798.210534824
73284.611946078
71847.822396838
70478.653736185
69164.540989439
67895.376958489
66660.756589828
65455.757460326
102622.36020249
2430354.6189056
2164503.277555
1852709.3552667
1056603.9212692
815729.06041502
737028.85508264
709489.36387619
607832.29405743
574287.70843548
589748.26651112
602502.48523285
613816.16056047
624399.15188504
634736.36319151
645542.51679642
656810.66579595
667642.21935696
677110.53291047
684596.40275196
689406.30395322
690578.08527728
688989.40556063
684281.04914588
677738.36141927
669725.49367472
660503.99811135
650507.68590066
640001.16304286
629051.91518068
617896.64235468
606682.60941073
595486.52948325
577310.05245636
566989.63637574
557342.70188362
548196.09245339
539265.57039825
530434.38609013
521685.40750983
512882.45891928
503990.51904305
494571.97253183
484785.223243
474503.79490977
463868.87974925
453183.44849369
442914.24603532
433207.4255984
424690.65393076
420083.80146709
419828.32466737
422665.90361793
430865.5058848
439754.45366973
442929.27886763
442191.18910721
440287.22037806
437012.67604284
432019.34765102
425534.7874425
418077.21187426
410133.28792291
402250.57195619
395704.70392882
390141.15204507
386639.9795385
383718.75416922
381587.63521323
380163.23813232
379594.42326093
379967.43697944
380553.29561776
381232.10417194
381501.8911469
381710.76187345
381210.25496193
379948.72818519
377959.83421503
375427.07473863
372647.96794914
370090.32746254
367594.11727533
365107.28412721
362935.14629488
361200.24066297
358925.0979556
399194.19751837
321061.53838053
145472.35419324
144425.79650759
141408.36127069
137347.16826692
132892.62147648
128499.14379696
124608.24317365
121445.51166249
119131.19839505
117758.7353316
117140.39658952
117144.46492573
117202.90027756
116964.42122314
116615.97728338
116368.1182124
116129.96540978
115951.8786507
115587.73093953
114661.15313963
113315.90099003
111624.06990689
109629.76879485
107422.72519518
105133.971822
102905.45979641
100748.68384801
98608.74630791
96472.255429757
94368.757735102
92327.11024995
90343.586012442
88400.336801084
86490.506898742
84636.221115829
82864.764477025
81186.494778839
79591.169814892
78058.431840522
76569.763619789
75113.744552188
73689.124680969
72304.731119955
70972.063579174
69697.892284532
68482.029759298
67316.491029293
66188.295907595
65087.677128379
64008.428730204
62926.044905797
320781.37958163
2390021.0448605
2081898.6400158
1740063.4812177
902468.43589276
744405.70011297
669286.10272903
638937.86387032
529599.42992499
526471.24123267
535731.01703105
543568.59837238
550439.24014609
557280.1242608
564865.92309049
573389.50544536
582662.92240478
591777.51884513
599793.35048037
606151.39024704
610338.8846744
611627.72654144
610617.4052507
607545.91985952
602862.76460459
596846.2808539
589955.36365604
582565.23268211
574705.97836708
566515.98679378
558199.84357726
549864.62906139
541531.24780862
544215.92279464
535448.3022611
527222.42596967
519507.72163168
512178.40376366
505056.57204315
498042.90146336
490936.2674117
483621.48073663
475859.41817657
467759.27464317
459270.44357138
450296.65660395
441029.75937523
431892.26426893
423135.73572968
415425.99889395
411137.80545689
410707.13812601
412623.97164715
417279.6025468
422585.43469532
424486.11836432
423745.71601268
422007.15091642
419116.31235846
414960.91801044
409969.0676454
404429.86396844
398570.81897864
392799.44859984
387595.85613084
383617.56117014
381306.68947715
379661.79476089
378553.14140957
378051.47294464
378065.71386246
378305.97124947
378690.69046154
378876.83224234
378764.64690583
378254.05121575
377272.65002365
375767.15368914
373833.95020737
371611.37384893
369277.93935483
367002.13723756
364733.35658028
362633.14352332
360493.12203359
358660.16889541
355952.20493978
390532.70432554
329822.79130926
205543.12594142
201481.09840339
192877.32244713
182047.30037416
170846.46679321
160408.4566177
151211.08531808
143444.18493146
137106.3770454
131769.79162735
127567.78296154
123926.94331817
120919.85768827
118365.98632981
116032.37739099
113844.70852886
111552.96715438
109191.42020447
106866.78961397
104332.70888796
101748.3631323
99259.037742911
96843.228836357
94507.805540483
92302.906557121
90263.12415975
88347.828524434
86532.918133646
84838.883798899
83256.596936013
81792.849124352
80421.903942157
79112.578591188
77820.87012087
76548.666580028
75331.332769466
74176.938636005
73059.766826898
71960.164252915
70867.39396719
69775.831288971
68684.485572237
67603.702401497
66549.535723474
65533.592168632
64558.220632613
63616.402842927
62696.57020933
61789.322223679
60888.550027696
59979.554656123
282226.76770856
2370593.7474994
2076093.7255724
1750186.4461074
871854.0872806
680035.78911651
587151.88115636
543105.2108933
452946.76756317
446927.98773774
450858.4003981
454180.50553222
456727.21358747
459602.45574055
463704.54781027
469353.36045575
476342.20571445
484069.1600005
491591.1914967
498383.62797588
504128.12167139
508304.83971355
510575.87035907
511323.76079902
510738.11994638
508978.96289109
506259.14599802
502994.87369931
499048.13948634
494679.2225188
490119.11089958
485371.75846723
480512.42322067
489457.36086019
483531.11299031
478182.50505787
473033.16578545
468293.39167772
463802.73139192
459359.05642553
454748.27659055
449810.16319722
444489.73988959
438785.79216967
432639.19944964
425975.55304774
418842.37867143
411531.89168445
404409.10330628
398128.16123724
394708.02298628
394690.47657613
396270.67057575
400783.86966231
405542.31244394
410101.65953213
410883.36046411
410364.00525102
408814.06939416
406092.71065677
402664.48096143
398687.82830502
394345.23117754
389862.06690077
385225.99596939
381895.34361109
379943.25883676
378829.11613743
378254.25512074
378386.4499777
378763.6089788
379310.70123211
379942.25812955
380614.4754671
380692.0899045
380543.98079403
379987.01367878
379029.63445951
377719.09200092
376091.98759129
374283.14084077
372387.72279366
370487.28414747
368599.50530002
366636.57413802
364877.26960761
362206.67884361
393538.15513551
343325.91463301
398449.25787499
376176.90552853
337645.43666758
295724.24965837
257743.45709419
226402.10031693
201923.00073249
182531.43298254
167478.88467852
155180.57875259
145625.79825593
137655.62924536
130899.3215613
125193.9848238
120340.98545494
116123.66436075
112468.19651845
109311.36899304
106217.67801852
102870.76636407
99419.481332491
96047.861594559
92856.374767121
89874.007188263
87099.123027834
84541.204221404
82212.433695743
80071.561217211
78079.521484748
76261.409652697
74634.66670188
73167.888196417
71817.079577038
70540.565439355
69336.689142516
68226.634300001
67211.782437508
66274.965925191
65392.851213897
64543.817652396
63712.297605866
62891.035593591
62082.607974621
61295.079159191
60537.469603056
59810.774961311
59105.714155191
58407.50521262
57708.524489278
57004.122642355
56285.20553186
232684.28200413
2342024.1605978
2066582.3695218
1761414.3822701
832302.69336906
588703.92949917
475321.95053823
417371.69133481
353496.59278594
348918.56853617
350414.25057054
352463.04466272
353896.9306076
355587.4547545
357918.13548312
361258.75053271
365771.42462562
371588.28605305
378614.25918368
386641.61083321
395483.89841434
404551.37571575
412952.06171834
420409.40869262
426414.70434897
431001.75428573
434313.76658637
436233.1180664
437021.58115556
436930.67021825
436188.93569121
434793.98245576
432927.12399862
440164.21064657
437272.51622921
434544.24589047
431995.05926154
429747.95274585
427581.9229499
425339.15533835
422806.03769705
419819.7798429
416365.01964851
412477.50800231
408098.82638954
403157.73025808
397614.99178576
391728.24113735
386085.29914
381286.3369177
379167.27260424
379573.83507476
381492.32722601
386973.8945692
393051.03604806
399506.23871677
404219.6060943
405774.5312693
405431.10439963
404032.43154982
401784.80645711
398779.27298372
395243.99283542
391320.15039654
387207.98779125
383956.8828595
381973.92882199
380825.3609372
380372.39728333
380552.76406277
381052.89046439
381758.20918007
382576.41618044
383447.31906626
384144.47719703
384155.35986028
383843.97126817
383217.62443268
382250.90752365
381006.51049099
379548.45326505
377960.13658424
376275.00104614
374735.02185967
373109.70908253
371881.59785094
370171.36572694
405123.88018117
356933.54226977
1327408.4113588
1082497.9359172
817129.26400624
608233.44258935
459834.04338595
359164.84577662
290876.13932891
243959.40114736
210755.32692762
187003.95325326
169232.23282511
155661.31914828
144698.55838626
135593.08583232
127996.0078064
121595.19325021
116115.08900857
111428.35846904
107176.74457078
103160.52102236
99325.151974931
95621.787109644
92040.057289776
88650.085290647
85485.213019595
82539.068693098
79815.624166091
77308.826364467
74998.557383511
72872.87948767
70948.047141908
69213.453853364
67635.932983651
66176.495193722
64825.113972565
63591.520066096
62472.794061444
61454.870109113
60517.306582767
59641.946761675
58813.282672946
58018.824657748
57254.043634321
56525.370777457
55841.406290357
55203.110972851
54601.42976242
54022.650402611
53453.173972211
52884.052667167
52309.005162139
179279.883925
2303718.8462197
2053661.9306688
1770877.5206651
791191.17957224
460958.26412419
344812.39560811
292387.33747128
253212.86114125
249282.26928453
252539.19111429
257105.78822194
262062.67441288
266907.36784676
271326.6258118
275406.9951697
279624.82765212
284778.1503299
291630.96032566
300662.89444416
312016.52953651
325709.85154671
340803.07173771
355474.34809741
368667.80005753
379828.77366516
389195.65634596
396278.96496937
401645.23882908
405409.09943081
407778.44411259
408988.38153051
409401.28158269
413336.10196646
412655.69679404
411798.29667834
411006.90056253
410277.41286788
409461.93285979
408451.2118532
407030.2613
405008.32854483
402390.90417037
399275.906779
395629.39144692
391371.25272873
386485.71421806
381220.69630977
376095.8426094
372510.81641728
371527.17541223
372318.16626705
374794.47882259
381020.12552538
387949.04515528
395992.26586162
401710.34043826
406118.60515575
407396.87770339
406966.98821547
405759.39369609
403633.20623561
400685.63527115
397139.92847945
393429.97126406
390202.46850871
388320.15250706
387104.12305145
387114.509543
387432.62370997
388070.24257476
388883.83922819
389773.42453095
390602.93393518
391558.00696909
392034.91679928
392030.97835239
391838.32557905
391328.56336179
390652.07872127
389863.84930035
389036.30669497
388058.47920033
387706.33588629
387777.82695731
388083.62632476
388761.3857791
434449.58297995
398173.64653475
4768856.4267393
2615755.730953
1625118.5488508
1084242.033664
757046.8476973
551490.76287692
416725.60312852
328171.12770057
268403.32941752
227667.00506969
198807.26551078
177533.7153581
161285.2432158
148298.87748427
137716.46236511
128978.42268329
121681.12045462
115366.57003548
109704.38715376
104629.98992978
100054.15941979
95891.248771241
92077.265627997
88527.745998889
85164.737531675
81991.071203046
79036.39468712
76299.208024601
73759.046040759
71414.442286248
69259.577860798
67297.07121362
65504.403478722
63852.618235648
62324.678669659
60921.864484739
59642.472457023
58473.897958006
57402.128859302
56414.678506726
55495.843555753
54629.699128804
53807.615603514
53033.680781327
52315.583690492
51654.250575364
51041.151890167
50463.308472658
49906.595723751
49360.052626609
48820.938931851
128831.63524836
2256271.267621
2037365.197261
1777101.776411
754100.7451806
330130.31068009
256838.50186186
229067.98578324
204886.44447485
203070.54516588
207034.91747724
211074.40768213
215771.7951577
220845.24788136
225173.35756485
228781.84135623
232543.71791167
237368.31008796
243931.34309671
252694.43190423
263855.7050493
277514.37473806
293860.40738272
312815.52493282
331938.70639358
348710.78763326
362690.49528205
373945.46364042
382608.45796565
389090.75299232
393778.10528865
397076.38472382
399390.50062583
402414.35122029
403483.51668513
404058.44729126
404558.93746904
404710.36039674
404621.90634799
404228.03247928
403297.17698584
401640.85036208
399318.52594681
396442.24905624
392967.73950567
388848.99426725
384138.27635469
379209.50073521
374616.25447029
372175.51294179
371995.30447075
372956.24554399
375389.53279331
381486.44871322
388557.86683828
396798.97924653
404104.08999948
410066.03230431
414088.18548045
414639.89047658
414117.71978412
412730.8867112
410412.7899234
407374.82544218
403927.37576383
401432.38483798
399271.70291122
398549.61877609
398736.02075605
399345.87018994
400325.62568716
401539.46565749
402927.52276696
404342.49154545
405809.79657529
407169.73801481
407953.53012862
408765.32111617
409574.6075626
410543.63860142
411819.1777003
413604.35315512
416086.66625803
419498.84519288
423970.85347657
429553.5664751
436468.00480412
510548.86487198
487390.09021528
7059888.6072814
3629397.7035117
2354422.8318082
1612050.3343886
1136507.6135035
818280.21047863
597549.87296333
453275.17956411
356259.73732709
289148.64054825
242800.26013023
209689.00191533
185311.30687397
166762.39754696
152108.37573574
140267.86995499
130472.91946788
122177.17920731
114961.16110156
108634.1462073
103043.01117207
98072.325352677
93653.13323684
89692.047374798
86092.914814097
82756.562234598
79637.980681854
76716.551968206
73996.861964551
71462.285099639
69112.173401346
66952.09382735
64964.890562385
63134.749867128
61439.765722254
59868.141782754
58416.736305947
57081.875865264
55854.367615505
54721.123521374
53670.064028224
52688.583529978
51763.865081886
50893.604304621
50083.600508591
49336.975122315
48649.722141848
48010.629446711
47405.104131712
46823.091114412
46259.957012291
47814.854640553
1934714.9710148
2080177.314192
1844747.1819656
1218341.1987105
285650.52692818
246550.80172469
247678.99802065
242491.27221304
236236.66477947
230087.68202012
214893.44238755
203040.91583742
199844.69188262
201090.74805492
204091.92250284
206794.06966868
210229.85249954
215487.1286795
223099.61290384
233388.4660698
246485.56530831
262539.17892593
281539.0846407
303409.43536487
325502.019925
343959.21792498
358795.42026223
370510.22817723
379629.61032214
386565.64365782
391859.0832341
395782.89978921
399217.31961786
401388.61578886
402959.43258852
404164.9617816
404998.05272584
405610.22437564
405878.33703256
405457.87799118
404163.61182124
402075.28929907
399287.68946436
395814.86389466
391671.92308446
387036.47646623
382174.36852274
378444.74998172
376865.73638065
377142.73242263
378499.1518659
381864.31218876
393640.51557807
401015.24268242
409050.22221128
417630.43773688
425002.65977983
431655.99885696
434214.03140165
434126.19478366
433177.45645309
431391.67562617
429127.05570688
426545.78361324
424514.02745788
424258.43897065
424725.90652359
425789.31148518
427448.26879799
429690.69817575
432423.43704953
435691.64607775
439392.08761014
443537.40693499
448163.83568617
453347.43889187
459286.45572213
466160.70776887
474280.58166681
483844.41043221
495030.01504233
507946.62308542
522647.23145981
539032.37907179
556620.55692546
576363.17730656
700885.23975727
618500.7541043
5979612.530046
2778632.2055023
2144681.2445465
1682394.0419941
1331521.245645
1025072.2352732
792107.03841763
613099.99037801
474219.48208069
378653.01708554
311194.19365752
259273.82426754
221972.07166828
194249.11892927
173047.04233994
156322.00042978
142713.43130831
131467.85120915
122003.80811541
113933.7792335
106952.60039517
100850.13835972
95480.064864272
90728.887118904
86495.867632405
82702.018164752
79283.855148686
76174.743848808
73335.745008043
70717.25926475
68289.781648682
66029.940136991
63919.471443145
61959.005075539
60132.678329101
58429.003631337
56835.71585836
55352.079398867
53970.737928871
52680.497425488
51473.575602764
50341.414369309
49272.556026002
48264.881245696
47320.127997706
46439.283909322
45619.209983127
44853.998360519
44132.033029729
43444.948576344
42790.807252227
48897.280452071
1974900.3871424
1962045.7990075
1770050.3657257
1066724.5300738
378251.34779598
692602.06523507
825414.96316842
783716.66480941
821160.9685447
851064.00386345
824512.36932594
700009.81389972
433593.13549426
225423.72309549
185313.83887503
181242.85632266
182396.1821892
186234.2442142
194029.73520303
206070.61125828
222132.95600894
242006.00943815
265639.06024696
293092.46827713
320302.40007726
343087.34318577
362149.10924689
378054.22334349
391449.51534358
402797.11116787
411798.81383152
418257.57394294
417826.40026664
420714.16924685
422698.57842434
423865.82600783
424456.89385293
424775.14399703
424616.81596354
423735.65414996
421805.76664525
419011.23046845
415525.83749798
411470.80952148
407131.06396431
402964.07944624
399971.30369212
398950.21443161
399444.02598153
400924.94806014
403716.53025397
409256.4411525
429901.31122115
438069.60027639
446721.80563629
455817.28167428
464457.52811926
470405.78037888
473528.27168702
474045.68591098
473576.03792081
472606.67151315
471412.70191064
471507.63350702
472536.45177878
474957.46604657
478934.73894383
484554.60833148
492010.94119298
501389.40430668
512689.61667363
525830.87083336
540504.39450135
556436.87217063
573341.81868449
590931.51286369
609082.0728279
627600.6205487
646416.2905566
665405.46828366
684451.30147016
703646.76625365
722208.10782682
741290.5538972
757645.74377935
778036.29483983
898112.22704756
713481.35780945
5486323.4755686
2165103.7984763
1860914.1294549
1570862.9201139
1316046.4331413
1091928.1613619
894904.10001391
725384.96823268
586790.72329995
470035.98392663
381898.80479967
318078.19794153
266445.91909917
226511.55420367
197337.66762661
175080.58066859
157569.53488249
143413.76051143
131650.44472747
121716.45836832
113240.40823142
105965.97046556
99648.965321939
94091.207915985
89158.008540774
84755.406686533
80811.447251012
77269.401446222
74081.225986361
71192.995986044
68570.545140719
66177.632621559
63981.199225061
61952.657828076
60065.148039207
58290.857448656
56618.873566359
55049.112159784
53572.498883879
52186.004586689
50883.995977771
49655.688069443
48495.041867425
47396.240319831
46355.792226946
45375.185701082
44453.572193074
43584.30280756
42762.038697261
41983.764141255
41241.80564749
40914.76218344
1415446.9853685
1878941.6182985
1741261.208997
1377987.8116762
872791.83978738
1086338.629897
1100571.8165486
1031186.2378494
1063747.3541761
1118040.0266876
1142852.5647452
1123427.5735161
1036126.393836
817480.43021781
409415.94448904
198055.26580453
171671.0441663
171071.33842483
177325.54097025
191113.05579863
211234.02968758
236252.22113875
265563.48436712
300615.45138899
334174.87192627
362536.02857285
387048.60479906
407493.63090257
423131.63211072
434649.62092663
442968.24307321
448947.1561442
449663.90532854
452340.20824562
454567.48888024
456746.90478584
458565.82082511
460075.12279507
460890.5110312
460502.81875872
459037.0401314
456481.80408823
453072.83960496
449272.6117304
445566.5211151
443176.20375517
443025.00564002
444270.87479752
446468.97527218
449831.83235658
454735.68923391
463092.88878103
485023.81487303
492806.38701124
500957.58955485
509403.6003337
517748.98117529
526226.627325
531461.21958512
536228.00343594
540866.87183619
545975.30477507
552158.57383295
560126.36422667
570411.93151406
583272.88579157
598493.71320825
615820.06851201
634692.84150395
654313.51264414
674074.6501255
693801.13565196
712521.21848396
729960.08850728
746121.53013036
761312.45783701
776016.69908658
790232.16206201
804110.94164136
817403.64270289
830217.38989871
842799.97024707
855036.96654049
867506.97141547
878343.54145468
897435.81570692
993255.0038495
790498.94846082
5511801.9930654
1849993.042878
1587867.9016902
1409642.3514582
1234311.9971772
1067100.9043939
911721.66865293
769620.01914492
644166.24738692
537412.0339818
443579.36703349
365191.0014166
309915.39603218
264695.32367416
225155.73781646
195395.7960144
172949.44025395
155507.76522495
141522.97087751
129918.09387322
120062.56679817
111626.79425002
104364.30194328
98047.680800779
92490.63783275
87555.181861084
83144.805025706
79193.636697726
75643.094242252
72440.382516528
69541.19560518
66905.232862941
64504.060464778
62312.908692268
60300.148436774
58434.925506742
56697.483273771
55080.584612825
53567.924799089
52144.396512512
50798.620130642
49520.270526537
48303.698133873
47148.679613128
46053.510738279
45015.887308275
44032.764420314
43100.811854037
42218.6974489
41378.365459912
40578.456786528
39718.462372519
582860.98940637
1753291.854442
1686959.5536387
1521566.6020999
1143848.6713783
1258084.0929222
1226725.4897717
1157590.9445828
1191160.8836182
1256042.3995593
1291746.2617003
1287817.9969042
1236080.0764091
1115676.5574123
858858.60261776
422904.14821793
204642.78454282
169083.88564242
170236.40984315
183538.2985352
208499.93319852
240836.34843208
279681.12963963
322370.33530118
360429.31543265
391465.97312088
414920.80565524
432536.18944778
446213.69636181
457207.88355699
466091.91816895
473465.05068337
475336.05451662
480697.69973636
485931.8460963
491364.72439872
496470.99536127
500977.59222456
503880.51063282
505718.72210993
505395.52901745
503768.1659248
501241.9214424
498651.01197195
497243.120219
497348.60567421
498130.01120344
499753.62100187
502189.13156599
505382.13012129
510105.70127381
519653.23772748
547574.36841979
559495.55473513
574322.48839536
591518.40187123
609877.54373383
628386.37881387
642970.7137823
655764.45545773
667037.98731257
678317.9999536
690132.31443657
703065.10252045
717249.4809803
732561.27137556
748641.70425082
765151.90605358
781279.2875486
796192.03813388
810134.00803229
823304.98820958
835543.38126526
846967.20755305
857723.34072096
868065.75537215
878228.29827844
888220.65294867
898125.4013906
907902.02105105
917625.43304684
927332.19685899
937033.78043304
946727.97150531
956473.96032104
974660.82205767
1039819.6314737
852838.97620572
6452513.3915072
1700949.3164974
1393399.0653279
1258586.2422992
1136195.75625
1011928.6275064
890691.3882435
774976.35020464
667393.60359312
570128.41533302
485865.72635187
409479.44910814
342463.49732532
294957.44463059
255822.00367108
220598.25723497
191685.52447277
169552.26668649
152352.52162756
138611.94451247
127284.70222365
117704.3715488
109495.20925121
102403.87127004
96221.916620146
90777.816853732
85944.187718799
81627.828825911
77751.6009779
74250.990023543
71077.2377322
68193.749222951
65568.139906996
63171.409225523
60978.20809403
58959.148862533
57096.58778574
55370.878299235
53768.082215247
52274.246227752
50875.313712284
49560.634029969
48318.811539434
47142.001080653
46023.934640872
44958.661484374
43941.29503957
42973.311554203
42050.123477817
41169.628280277
40332.60375062
39528.646748261
124392.30899765
1570200.6735809
1596328.6802314
1539630.3991713
1288447.0053004
1367948.4228128
1325001.925881
1225894.7127638
1276052.1671662
1360327.5977651
1396699.8698117
1386645.4828157
1336542.7666612
1237225.0933058
1046144.7595807
661481.20577971
285395.04302419
177439.27375035
169572.06995926
182439.09933557
214023.61812788
256601.55448072
306672.0247717
351527.17443955
387495.5489919
415311.89076979
438339.85416535
459174.24491571
478230.34019846
495079.01547859
509798.60093876
522664.68595208
524797.80296214
534463.29473316
542090.31764433
548078.55782252
552610.65859747
555471.2914672
557163.38662463
557016.3401168
555875.80578781
553683.98213225
551108.45015583
549191.04540579
548549.98266234
549166.16989285
550987.15239068
554400.55731414
559822.19250141
567610.47693777
579220.24705463
599048.85084961
647659.62226391
668465.73472711
691445.62935775
715160.38181091
736342.57348031
752824.22110143
765656.081388
776356.50993072
786244.27749655
796189.3375493
806430.4980204
817307.92615481
828887.11564932
840880.15133021
852986.36193449
864792.2813482
876020.31148141
886614.83875509
896647.79071832
906184.29913473
915230.0443647
923884.89060166
932257.36150853
940461.1432472
948601.28117018
956687.93693098
964758.92589416
972827.78494213
980924.71672714
989089.4084342
997347.39816008
1005727.3963009
1014527.6750846
1029061.841195
1064642.2627013
913205.0942933
9199362.2309918
1602498.5689504
1279009.5218082
1135200.6533337
1042104.7933403
948175.18896745
853739.61352974
760147.91811708
669053.65185462
584460.72102782
507395.34469884
438661.85029267
375456.72748352
317902.8911009
277888.34610875
244024.50516611
213480.40670915
186771.88197686
165515.16151428
148861.10028931
135520.45795513
124522.62930981
115245.07283855
107304.60177223
100439.97497197
94434.684408285
89130.984652178
84419.797401236
80206.560820972
76412.372685367
72979.66100681
69864.958855382
67028.132284219
64433.085834701
62054.123239326
59869.611577534
57858.009910782
55996.111754579
54270.033445191
52667.178857736
51175.812768013
49784.886790817
48482.232852111
47255.929635091
46098.322833693
45002.613293502
43965.09696923
42977.955681457
42039.132148428
41143.835036495
40285.085046223
39463.781953299
41397.094356634
1223004.5818899
1461075.4513178
1478900.2735962
1358662.1551174
1391234.9459814
1392296.0597095
1212138.5726688
1255821.2746371
1391629.668521
1447949.2793813
1436659.0638396
1385984.2209772
1293591.5370531
1113722.1282086
748353.10277551
314167.99138347
178463.98650034
169778.15511748
190122.20858439
232776.61156954
286210.18274156
337455.61607002