/*--------------------------------*- C++ -*----------------------------------*\
| =========                 |                                                 |
| \\      /  F ield         | OpenFOAM: The Open Source CFD Toolbox           |
|  \\    /   O peration     | Version:  2312                                  |
|   \\  /    A nd           | Website:  www.openfoam.com                      |
|    \\/     M anipulation  |                                                 |
\*---------------------------------------------------------------------------*/
FoamFile
{
    version     2.0;
    format      ascii;
    arch        "LSB;label=32;scalar=64";
    class       volScalarField;
    location    "4e-05";
    object      p;
}
// * * * * * * * * * * * * * * * * * * * * * * * * * * * * * * * * * * * * * //

dimensions      [1 -1 -2 0 0 0 0];

internalField   nonuniform List<scalar> 
109340
(
375812.67620682
374843.50611336
372443.57050133
369443.33313383
366104.74660187
362641.59858147
359136.66442482
355640.74744576
352250.48423318
348942.501955
345666.38099757
342418.92547665
339203.65544226
336023.1741105
332879.16793191
329773.13778344
326704.24291263
323669.76861862
320664.5056274
317680.54615407
314707.16257377
311732.56167969
308743.71628962
305724.20178728
302653.21168762
299503.58414947
296239.71378477
292814.03937528
289161.75659631
285192.42369107
280776.02761017
275718.88914098
269725.24649466
262352.25191129
252977.67968794
240756.69704062
376207.531897
374783.43117484
372019.92623106
368783.17487194
365340.45401652
361875.57542964
358438.82767538
355039.93777134
351677.64052657
348352.94263749
345060.49336765
341801.27138224
338577.75625329
335391.50982427
332243.3913245
329133.0697039
326060.36251368
323021.85911807
320011.3774893
317020.14813683
314037.08116003
311050.13940139
308045.87922663
305007.12058839
301911.76667772
298730.9397461
295426.50329106
291947.1531235
288222.53311115
284153.50777155
279596.07243684
274330.45375385
268010.11401065
260091.61513544
249676.37017062
235741.78484531
377097.77231653
375347.44013351
372242.40722436
368915.00198193
365505.76435727
362094.69215112
358673.93309527
355257.13643467
351869.19671935
348517.02162898
345199.40255121
341916.9271724
338671.47590632
335464.59181674
332297.86259167
329172.33058047
326087.54105521
323040.16269884
320023.44059405
317028.25898098
314042.69083192
311054.56711568
308050.14161028
305012.30087702
301918.55536475
298739.85201371
295437.91956856
291961.43940331
288239.93026088
284173.8070739
279618.05025813
274347.54227407
267990.09255774
259920.27722564
248993.58961518
233349.94546483
378343.16313126
376099.08891884
372802.01836748
369357.35428652
365864.90827889
362365.93619269
358875.29754641
355407.22473622
351977.88499898
348592.50097174
345250.35543385
341950.84471774
338694.1319045
335480.52491628
332310.25619738
329183.25123542
326098.65176091
323052.67075144
320037.70883122
317044.66238702
314060.30697918
311073.05187824
308069.38247828
305032.51924574
301940.17349527
298763.32906688
295463.79412304
291990.31275575
288272.28163227
284209.39438675
279654.8704222
274380.64544627
267979.95883617
259724.17597229
248087.52543739
229586.54403982
380315.33291618
377197.58424154
373319.77372105
369594.99569059
365989.16372105
362448.93358467
358944.36521337
355477.73231863
352051.56306746
348666.285265
345323.25677002
342022.84053459
338765.37982487
335551.32552956
332381.14025025
329255.27298702
326174.01037038
323134.55723494
320122.64565479
317135.61316072
314155.22859473
311171.47660598
308170.25140286
305136.62653158
302047.636284
298874.69997862
295579.48653084
292110.73382061
288397.61107853
284338.76496041
279780.21576256
274508.71499841
268068.5660069
259636.47109563
247204.68287107
224443.06336023
384014.18289926
377778.72128653
373440.13103887
369623.85258057
366012.53566548
362481.14170217
358987.43450391
355523.43272927
352095.07417001
348703.59977704
345351.51668062
342039.58246328
338768.35028203
335538.34036305
332350.25594382
329204.72617881
326103.0393582
323052.95463604
320065.52558589
317072.07048745
314083.98577702
311093.19150948
308086.63296569
305047.72382017
301954.11234018
298776.81231278
295477.55283829
292005.10710205
288288.61987658
284226.40287218
279669.51246068
274387.18803442
267926.69996633
259413.47705178
246492.6629498
219347.54703906
225736.3899547
210443.02895398
197731.2470345
187507.56135131
178393.05456443
168732.78120737
158150.04354259
146507.9472775
133858.22331623
120493.7216082
106414.75311827
92905.770609001
80543.269566834
68908.620850207
58669.963724707
49739.412438203
42117.99313523
35724.044213578
30366.685511752
25898.574089534
22200.388911433
19128.412325405
16558.803020069
14411.048266112
12608.293447327
11082.815814421
9787.2249498865
8684.0625939552
7737.005007285
6921.0948343744
6214.3236335513
5600.2420740856
5063.828782853
4592.5716989554
4177.7033453471
3811.1833301813
3485.6658883654
3195.5688758639
2936.6312845243
2704.7805622029
2496.3045828435
2308.4023697192
2138.7195491118
1985.1123305829
1845.7134093369
1718.9169019383
1603.3257390056
1497.707302491
1400.9880131656
1312.1408009336
1230.878149307
1163.6973121816
4710.5750912252
6156.6374198986
6346.2237252334
6284.5946673916
5939.993474002
5528.2686479764
5275.8023367908
3984.0731873083
3732.3584850877
4214.4931938791
4654.5509396537
5057.3120663775
5417.9503840759
5729.7280254013
5994.4446530796
6216.8121074915
6404.6074226707
6563.68388411
6696.2613311355
6801.8547880032
6878.4998469839
6925.8992671672
6946.4359881831
6942.6193059091
6921.3126385763
6886.397590537
6840.6951363271
6786.0209204713
6730.0852513837
6674.9967234282
6623.2964849044
6581.6829561538
6553.494444479
6557.6410886896
6589.3505079828
6646.7100525242
6708.6112355423
6756.6536581954
6787.1936554211
6786.247402734
6749.6509820927
6623.9768913253
6439.8780732496
6193.2705805327
5898.0363380821
5583.7845440635
5275.2089752025
5000.8203713023
4782.5912561913
4734.7227105048
4844.8643536482
5111.8559223951
5635.7501124796
6040.0705430523
6397.2063452348
6593.7141078564
6746.149468282
6864.3731165633
6811.6377235196
6670.3366167747
6460.2160452429
6202.9010806436
5945.0539337498
5751.6601826299
5624.7740749271
5591.2774367651
5581.3971580606
5597.8754768983
5654.569071764
5755.316891912
5885.2625427493
6019.0451296457
6147.5221035397
6257.2892577247
6352.9947581267
6414.085586408
6424.6808449891
6420.8026171975
6394.727167126
6366.8535718783
6348.4876144603
6333.1708091691
6328.8845766802
6329.0813046651
6336.3336348852
6355.8728949299
6328.4089704544
6552.6341195228
218049.47506993
201861.7863323
189852.8091606
180575.88060957
171242.77119504
161143.07165967
150202.68282174
138395.10656318
125895.04141616
112942.42386543
99877.574621031
87089.986077154
75461.963848818
64855.800761338
55304.025488944
47030.857481549
39945.071999309
33952.498586668
28937.182733444
24752.447955068
21261.481790996
18352.059725917
15924.171123715
13885.355360209
12166.432651857
10713.404504406
9476.9871927682
8418.8795817757
7510.6196879793
6726.7521301669
6046.9292317185
5454.6874012393
4936.5273981246
4481.4182644193
4079.9822397384
3724.4534485096
3408.7247472441
3127.3900139044
2875.767227663
2650.0622351479
2447.1141313149
2264.1636034806
2098.7951627167
1948.9422127416
1812.8264343556
1688.9172046002
1575.8887071277
1472.5347290138
1377.8511841152
1290.8469859954
1210.9447991756
1206.2926935064
5459.2532810904
6157.1629131791
6318.200761
6182.7035387139
5813.1733525511
5406.392564085
5129.6178403954
3709.8123733919
3823.4662591461
4313.1882519683
4744.1771936703
5137.9655928019
5487.3552284523
5788.5125061133
6043.3965468408
6257.8207573942
6439.1782347167
6592.2396006827
6718.4772593374
6816.7403703783
6885.8455919109
6926.4632294841
6940.7718390199
6933.4674987412
6908.4247536889
6870.6967963001
6821.3122769248
6766.4434791349
6710.6320299742
6655.8878092722
6606.7535325335
6568.8067831788
6550.5181606391
6544.7085373408
6570.3599766561
6628.7701774733
6690.9472929162
6739.7807875841
6770.1548884146
6768.4685121607
6725.8819676404
6596.1671067277
6413.1448175205
6178.4326560837
5892.7701229823
5582.4122270102
5276.1539673471
5003.2833214595
4794.3415655946
4743.3062017539
4855.4833520264
5110.7977111556
5556.6002720152
5947.0502425086
6332.6814561228
6557.6106587421
6729.4058271832
6843.4651620297
6793.8508171104
6662.3346641359
6460.2364514673
6212.437707487
5964.2072919086
5766.680834913
5644.221515617
5611.5686481048
5601.4289759455
5620.0612358772
5678.5346661553
5777.714270215
5895.5433052343
6013.8130081272
6125.7092710596
6221.250241198
6283.5904113042
6326.6730492824
6329.7030043831
6328.6721188304
6311.5331582055
6293.2517091457
6281.5045230666
6271.8073221937
6271.4630640171
6273.7489282144
6286.8873184241
6306.8224692955
6290.817519966
6517.4346433801
211531.26847851
192466.60899901
181405.9867618
170625.62124164
161298.65570848
151521.27663487
140763.65334267
129479.63541149
117823.59490002
105530.83226274
94354.489683204
83051.640929771
72337.897301586
62493.011897039
53628.951980566
45816.066616152
39059.476011455
33312.715936849
28477.981298228
24413.678680323
21005.238027769
18159.968146713
15777.115065882
13770.525037209
12077.148975589
10643.44571639
9420.6351489654
8374.2199137615
7474.4979646289
6697.1610177234
6022.5747457159
5434.335516188
4919.4446721173
4467.0252520135
4067.7479383131
3714.0573507304
3399.8963664996
3119.8266721213
2869.215515656
2644.412782573
2442.2567996727
2259.9447452889
2095.0953397025
1945.6777877164
1809.9376218496
1686.3571121321
1573.6084936571
1470.4982198953
1375.9993155724
1289.2064292622
1209.4968327007
1193.3245379756
5391.8116577935
6113.9277808984
6270.3256151514
6142.7298659197
5773.6822084916
5359.2939759831
5064.3424878522
3710.6672074429
3798.3859001141
4288.7370042736
4724.6058407596
5122.246543478
5474.6246909652
5777.6550062445
6033.5582922061
6248.963713584
6431.1452072805
6584.7860297524
6711.3324750257
6809.6052859536
6879.1452598934
6920.0927966284
6935.0384470121
6928.671352144
6904.1731432431
6866.0361756568
6816.6138331262
6763.3476789504
6707.6538342791
6653.249492571
6604.5379736595
6567.1024790781
6545.412882063
6554.5074279048
6591.0082976403
6646.9477636761
6703.6506955726
6747.4799726089
6773.0326851307
6766.8855018602
6709.2550447891
6570.2237057151
6382.8755864946
6145.758919962
5865.8028232182
5564.4474751465
5265.9320285699
5003.3827240453
4813.6865093623
4766.5873856276
4891.1768122514
5132.7320518708
5568.8044876574
5961.814150254
6358.3907591901
6592.2108533578
6770.32836658
6871.7156881539
6803.4698686432
6659.0185436097
6456.7958098364
6223.898663882
5997.0700297689
5800.6513600399
5683.5692799498
5652.4176009682
5638.9107911163
5666.222572268
5728.6520668157
5825.2505429477
5926.3946047632
6027.8811772208
6125.2192189669
6201.7267899466
6258.5893551014
6288.4632248857
6291.6388334757
6294.7955920546
6283.5983510095
6272.3330959628
6265.1170374935
6258.3884852283
6259.9825112251
6262.9212936925
6276.8505944527
6291.6575903835
6247.6216175266
6523.6623585312
199180.48550362
176462.51307262
166073.21984665
154814.34688426
145690.80019376
136333.16597235
126590.21032865
116704.36110368
106735.5166968
96667.655967025
87153.512589589
77599.20063095
68235.222619099
59440.738372282
51349.696816943
44143.686806021
37859.278406233
32436.187436575
27822.311440496
23933.893361644
20662.459028304
17896.269886971
15569.894284197
13614.202939795
11957.237431454
10544.973411637
9342.8238599009
8312.6673571134
7424.4006903809
6656.021878092
5988.5446568808
5406.2832194597
4896.0200976953
4447.0471183017
4050.8277890997
3699.9560417666
3387.8292130311
3109.3312647774
2860.2945600499
2636.826557043
2435.6862477829
2254.1820695231
2090.0478166471
1941.254348479
1806.0431738083
1682.9120085128
1570.5437312341
1467.7654881508
1373.548021768
1287.0289658674
1207.5808159222
1178.4674358655
5293.5587324941
6052.2628066399
6200.4941417742
6085.7931009756
5719.4520478028
5297.3901979456
4974.4793866281
3707.6698168246
3764.7870511888
4252.3726025224
4696.4637681656
5101.1524565818
5458.8027045266
5764.4035838343
6020.620287158
6236.1299262944
6418.8881531779
6573.3320029661
6700.459432274
6799.1430001772
6869.4857453881
6910.8154241663
6927.191971311
6921.4248894495
6897.2646594794
6859.9756401428
6811.8695999631
6759.307288682
6703.1707404711
6648.6996268245
6600.2568161573
6562.7611778861
6538.9092246055
6552.5704850558
6587.7629157171
6635.6979740127
6687.1104611603
6728.6574134174
6751.7728247184
6741.6367156446
6671.3056805115
6526.0631069311
6333.7607396275
6096.4676517517
5824.7891160157
5533.741840549
5250.0196297148
5007.6641667232
4846.8994294492
4828.8879659007
4934.9846707218
5148.0667205298
5552.6368657682
5932.32777959
6339.9876843287
6592.5224148635
6779.2821444168
6864.0242512405
6788.6156332393
6644.450393859
6454.6665900854
6244.169616983
6037.5125564581
5850.0267825992
5738.3795788784
5703.7769803784
5689.4617354007
5720.5752516882
5777.7036038211
5860.042280117
5942.8810942628
6024.5073027339
6102.6587272398
6165.1290657556
6211.4745273968
6230.3734801046
6233.9130415866
6232.3432555785
6222.3815066995
6213.0147859256
6207.3670739511
6203.1643753075
6207.2556618396
6214.188669183
6231.0774089927
6250.3085188065
6210.388005553
6661.6092362061
172274.59005791
147542.07844909
140146.37535939
130326.8868718
122965.97355777
115645.55342074
108650.96425991
101808.21874687
94458.421893983
87196.61972177
79339.997055882
71333.398593586
63390.428379621
55761.52553786
48648.252814017
42154.928095809
36378.169725235
31353.318961511
27027.895173391
23336.732313604
20205.897809547
17561.994842719
15318.209895572
13411.549251251
11797.360587017
10422.889549796
9244.6738028325
8232.1641430312
7359.7363975181
6603.4991634403
5945.2400599255
5369.918166006
4865.593817216
4421.5341693096
4029.2244099867
3681.5640482158
3372.12475419
3096.0524986238
2848.9250733665
2626.9518526007
2427.0669052953
2246.7277565843
2083.5685585773
1935.5786724086
1801.0408766807
1678.484064805
1566.5997817303
1464.2340724445
1370.3956792767
1284.2162908317
1205.0605837519
1162.0842545404
5163.6828653587
5974.3055133129
6110.8029123687
6012.4456758338
5651.3023443494
5221.6854290061
4862.2219200415
3692.0327642713
3724.3292590586
4205.2000572483
4659.9156183967
5074.1775566378
5439.2017355779
5748.981929035
6005.744612549
6220.2759864199
6402.4803066615
6557.1872975271
6684.9322623819
6784.6304759507
6855.8751217429
6898.1739495086
6916.6404257886
6911.6185120394
6887.981811362
6852.8556312651
6806.5342276444
6753.5279914154
6696.8095448615
6641.5026336669
6592.8280890988
6554.0855486802
6529.1755763031
6543.3049043774
6575.2574257914
6615.8043538877
6661.5512096208
6700.8777438295
6721.2190900101
6707.397797006
6627.5065187476
6477.7620759843
6282.5070765328
6046.8263593666
5780.1496460779
5498.0106534542
5237.2771229506
5020.7525658934
4901.5034157811
4903.9384527885
4991.4419832614
5177.4298709915
5546.2557510583
5910.9959806572
6306.8151872011
6583.7567030908
6777.396510813
6847.1795007685
6771.1002870786
6634.6930843994
6460.5489288213
6267.3840132142
6076.1272765926
5899.210085394
5793.006328108
5754.5314607447
5741.2979921972
5773.0112416784
5825.3161646041
5893.9011007872
5961.0826872728
6023.6425785884
6079.3316238801
6125.684347969
6163.6565406741
6183.797371506
6193.2350440524
6187.7434762956
6180.5197280955
6174.6707404769
6167.693472148
6165.5379533102
6169.4401434352
6178.3141734074
6196.5539431992
6191.0689795634
6152.7111729985
6853.5506639233
102628.32072772
98462.416002874
97800.88336813
97927.396181707
96714.596474076
94331.846707105
91068.422410393
87276.585276439
82502.265389986
77022.372477926
71034.92519175
64685.891231556
58197.54760696
51757.334112583
45599.961989804
39888.495902767
34702.692861736
30103.219854607
26092.262252591
22637.064403831
19678.519146318
17153.974204889
15006.314681322
13176.67452214
11609.463298677
10271.43868466
9125.1416908459
8137.0329847618
7280.6679830685
6538.4505851187
5891.6669009782
5325.7562729237
4828.8393902897
4390.5313820635
4002.854528995
3659.161175529
3353.3289794595
3079.8499945076
2834.7435816868
2614.7703031419
2416.661879008
2237.7106097386
2075.6312646977
1928.5710113438
1794.8531133708
1673.0165988897
1561.7385208526
1459.9028886381
1366.538078365
1280.781896148
1201.9471237925
1145.8314901546
5000.8800000786
5883.497651408
6004.7600776413
5924.0525606429
5570.7269412532
5132.9921403196
4735.9696472355
3658.5644414905
3676.2300236476
4147.5427837494
4614.3841935074
5041.0195219678
5415.8277170801
5731.4467287019
5989.4623045512
6202.3555756011
6382.9171382176
6536.9560210688
6664.8322914645
6765.3642368336
6837.1701060912
6881.8138598287
6901.7329368066
6899.0542606506
6877.5897731386
6844.3434931944
6799.3250241864
6745.9278986472
6687.8144076041
6630.5929294464
6580.7000735551
6539.8904825797
6516.0266162198
6526.1433058775
6551.0905475437
6586.7552524393
6627.4252265614
6663.5221342508
6680.5803215473
6661.8915580478
6571.8419888022
6418.4398481064
6221.9246372254
5986.9640580076
5724.4933905138
5458.5384730994
5229.8496961817
5046.1135449265
4974.134350831
4985.247113918
5066.9909427056
5227.2058929029
5551.9251823163
5885.3278525033
6246.1890386874
6540.6069873312
6745.0794270815
6806.4172877145
6733.9818048641
6611.3893499455
6458.239424221
6285.2516870063
6113.8732374196
5951.8734026462
5856.2923290718
5814.4417449944
5802.7313675836
5824.0073343007
5869.6702112922
5923.2198911115
5978.0951882057
6029.0314193188
6081.331900028
6116.0946938503
6151.3007793559
6142.7834015316
6147.2478494213
6141.9284963929
6134.0554068679
6130.3777070264
6124.2740175675
6125.4432091557
6127.8886321244
6137.1124398556
6148.3678678204
6140.4492269061
6082.8025798716
7261.1485630526
9616.2968890838
45110.809716142
59605.566932696
67899.359649113
73124.84824537
75363.355396727
75333.012162831
73928.102006186
71420.36085811
68018.294792812
63907.795032656
59243.358585195
54184.161248079
48932.302893146
43688.844538578
38659.759564794
33972.706895668
29714.432775559
25927.109086021
22608.358586287
19732.568153836
17257.259002562
15131.316163285
13308.610232377
11750.249715831
10405.638562352
9247.8148568307
8250.3830090687
7388.3098531066
6636.0791897087
5979.6229670006
5405.8344827943
4901.5277792839
4456.9087814187
4063.3294771938
3714.0736689038
3403.1722639343
3125.4122188606
2876.6454226604
2653.0488195352
2451.4448918286
2269.490278507
2104.8643359811
1955.4911735876
1819.637037333
1695.8196153084
1582.7512014201
1479.3047525492
1384.4498517065
1297.3442225173
1217.1574413659
1140.4959891102
3407.3266073111
5722.2415063406
5870.0165686782
5870.0244723622
5580.9801124122
5149.1535715292
4712.2124853728
3872.5650346768
3544.4693425747
3954.8256021919
4441.3285348385
4894.9513908581
5298.6127867767
5638.9500793417
5912.9632951812
6133.8513888643
6318.9135310311
6477.5558588203
6611.7126775775
6719.6502420641
6799.354421099
6852.4390018761
6879.90009481
6883.7922782545
6871.0556688098
6842.2662544642
6801.8907188787
6750.0109859732
6690.8038362285
6631.2360155059
6576.324188752
6529.3362672786
6495.6033049648
6499.1865788133
6515.5488400594
6548.2000678967
6585.6481792812
6617.9905202867
6632.2614034963
6607.8819856318
6509.202552418
6353.5217250346
6155.0470638042
5922.1239854174
5670.7050980062
5437.7553944811
5234.0485411254
5100.2718795202
5064.3466219176
5070.2133130817
5156.5486582148
5289.7559854489
5580.8676129673
5851.8518848678
6142.2112483421
6417.0545019071
6642.3815032339
6717.4433669506
6655.9054750882
6550.4954496478
6411.0502950574
6268.8438987487
6130.963128382
6007.0009050988
5931.2237162183
5896.1931181144
5897.7042372922
5914.2231525733
5944.8389633943
5975.8138562008
6009.7693052255
6042.5189292185
6079.164586705
6098.4401837778
6114.3326782706
6112.4962358485
6109.8646689673
6105.0697139847
6096.5547960979
6094.7794637234
6090.3040786159
6089.6985859166
6092.6733140142
6094.7723216619
6099.6456986507
6069.5037309056
5998.99324783
7742.9631413946
7430.7288472153
14278.76473553
24540.610878937
33027.169969639
39705.925709494
44573.324368442
47837.725262566
49795.595881128
49987.297220327
49287.197504815
47774.868684404
45510.345227061
42670.441634701
39422.89892278
35942.651859497
32410.763393774
28974.4844971
25733.440867841
22760.757281945
20088.380897716
17719.166382438
15640.653767228
13826.992334415
12248.762884775
10877.30987985
9687.8519525944
8657.1926791652
7756.0819856598
6968.791457575
6281.7940298275
5679.8337065989
5150.3112789566
4680.7561568562
4266.017171218
3897.612970878
3569.9591618366
3276.8796480381
3014.3413402503
2778.5207480771
2565.9140594246
2373.9296414954
2200.440728316
2043.0626241993
1900.0648467695
1769.7495737626
1650.7856354196
1541.9586986818
1442.2730605986
1350.7950494644
1266.6681602698
1189.0956143332
1113.8808563041
4112.9322915734
5547.4536032167
5623.1305610226
5586.9509673069
5264.8840645608
4777.5009267737
4287.3080348586
3437.1129871638
3452.4880296328
3897.2665424425
4405.0861664863
4894.6704161449
5327.2263251798
5676.9125986693
5940.9886202395
6143.960217289
6313.7408309968
6461.3193768419
6587.5495882297
6688.5555759984
6764.0606598642
6813.0013820652
6840.185375351
6845.9819209029
6834.1431135427
6805.739498384
6760.6275086506
6700.9456702415
6634.8179355013
6567.0146025001
6505.4227764569
6453.9680327387
6429.7435315069
6407.8892426345
6409.833901142
6444.8392536775
6478.7878209687
6506.1371310689
6516.2310005245
6474.2629675395
6363.2482847722
6208.6057093458
6021.1359384088
5811.3755602183
5611.3773066866
5439.3210730586
5326.6843053611
5280.9664093835
5274.4476964519
5303.4815501898
5365.0679529578
5449.8044835526
5669.0628826563
5871.6575692943
6078.6439912357
6278.0212508704
6462.512889344
6535.9066012274
6504.8974136099
6447.1088015155
6359.8096942585
6258.1430411579
6163.2404655987
6078.9551559998
6031.7652184133
6002.8887052941
6004.3315874409
6003.977757217
6016.7418661041
6028.6567299319
6042.2557137731
6053.2356399913
6067.5228648503
6077.9378539488
6085.8625192061
6084.8704391851
6081.1048047099
6075.8470676393
6069.3371818185
6066.0887294926
6063.3731041123
6060.107878323
6060.1359804806
6059.9296589462
6059.6903340243
5996.8202215226
5929.0159907172
8352.8341788766
7269.7907491438
8017.1572917332
12582.135819707
17969.373880361
22947.906277622
27182.322986455
30584.651129292
33146.539612343
34914.717038918
35796.898681072
35724.691143171
35071.401203707
33808.35805614
32031.229951445
29894.241242177
27533.667498202
25085.853646958
22665.398536133
20349.852106106
18195.014349582
16230.601593872
14465.458864271
12895.815159146
11508.326536737
10285.820621136
9210.9780706319
8267.2482707164
7438.2654398233
6710.6232380517
6068.9606672908
5500.8208854198
4999.6126425745
4555.1486824712
4160.2114389876
3808.0295338956
3493.0507146173
3211.0848066194
2957.9682647131
2729.3367142692
2523.0332288102
2336.8500840691
2168.0048131717
2014.7041395262
1875.1046814423
1747.5617410552
1631.0666448025
1524.4806757711
1426.6862186922
1336.8305152696
1254.1131672928
1177.9420626512
1105.4542049628
2824.5716930124
5275.9517017532
5328.6896734378
5291.9841397708
4962.6550366837
4424.6115371244
3901.4002360637
3231.0034444922
3233.2763748969
3651.2601661091
4180.4001260887
4723.2406392912
5221.0775268326
5625.5722177535
5912.2558742556
6110.9529428722
6269.4970047298
6408.8475657739
6530.209698224
6630.9191849807
6704.5382079648
6757.188756776
6790.7280205078
6798.8719799042
6790.9786960137
6759.7156878565
6708.466179572
6640.0154624617
6564.4197569363
6488.6175347776
6418.0511454017
6360.0717246776
6335.4833698248
6298.5731188188
6289.2333110404
6318.4664930638
6348.9684300964
6376.329380288
6368.7378794844
6321.1438000399
6231.7387103186
6100.3068691697
5934.8600920506
5768.9987398072
5624.5122465933
5527.3027483471
5491.4402509375
5490.5298701438
5495.0661081003
5516.41068446
5572.048503842
5681.6879474752
5879.2312726034
5961.232028026
6054.2702956171
6167.0212582323
6272.7100877712
6386.8260776611
6368.284104788
6339.0847318129
6284.3621640681
6213.4760028656
6151.8819344289
6103.2444924453
6071.8233890433
6054.4779531872
6048.3493684658
6049.8002327578
6052.7026142239
6055.9363849037
6059.6400714364
6061.7388605175
6065.0056551837
6065.6929976407
6063.5494027435
6058.5224981252
6052.1693725092
6045.7433230934
6039.0752365
6034.3634796931
6031.1119365638
6027.9089573154
6026.5370163448
6025.6487288402
6024.7046032577
5952.3201610693
5945.9887408462
8481.2874568414
6666.7172127598
6575.1430480297
8072.1783455159
11222.227915069
14644.923251325
17861.862113221
20709.132914849
23110.6991773
25009.080251004
26334.186488008
27085.140733419
27117.338982197
26708.191387078
25865.422806131
24649.763249154
23155.012549459
21477.996085218
19730.559235952
17983.396382771
16294.892979714
14707.506308785
13244.437252268
11913.687524456
10715.795803356
9644.1502351619
8688.8447423197
7839.9859509794
7086.9620961512
6419.075043737
5826.074154201
5299.1164362641
4830.787947
4412.6137337398
4038.9787597959
3704.3783743235
3404.3268020329
3134.2802118165
2891.158952946
2671.7586427878
2473.3055582442
2293.499901097
2130.2205810763
1981.2457793493
1845.3383476164
1721.3341405505
1607.8627084808
1503.80895937
1408.2342522825
1320.3811602175
1239.3894450101
1164.6975744285
1095.0796584082
1536.7922315304
4957.8068338938
5005.9343886177
4914.5767336335
4566.1248262813
4001.7555576813
3485.6722178235
2994.2517937089
2983.0660048723
3370.886266269
3923.8968953942
4526.2795700818
5095.0325250816
5559.886083636
5883.4850157779
6085.9200557032
6236.8089875361
6367.1506849154
6479.4839493662
6574.2412704764
6637.2895334201
6692.6611344719
6732.3346913939
6740.5624126625
6730.1099758834
6692.7051365858
6631.4449578171
6555.1218840429
6470.0521063436
6387.3047425024
6314.0491215256
6253.7281286102
6228.0954057229
6197.2608915855
6187.2123411095
6195.6318831765
6214.071681272
6229.3461314284
6220.6347098238
6191.5964834659
6131.7416911155
6028.5909222001
5909.2442885143
5807.3802217436
5748.0555481143
5726.8545355965
5719.5603812261
5727.2186314132
5744.6977838049
5743.8647090068
5777.9619693612
5843.5309980053
6030.1887243297
5967.2241971157
6005.2325024299
6079.2237981487
6164.7058564262
6257.5797541253
6237.2780852138
6221.9098734453
6193.2801856748
6157.3445670253
6124.2719694383
6096.3068093051
6077.7466759793
6065.8327611143
6058.9286736455
6056.3963774257
6054.4052790249
6052.4513385218
6050.8247549668
6048.5993096391
6046.212218182
6043.5237086563
6040.5839373654
6037.5093239077
6033.7551998674
6029.7374841097
6025.4521116895
6021.5088215804
6018.6622939028
6015.9788191753
6014.1608779282
6012.0303937978
6007.8078037378
5956.0080200567
5963.0772016569
8016.1174977016
6140.0969172744
6027.0567925808
6218.9471737483
7827.446132134
10118.87923901
12469.232845814
14700.931826884
16718.547489201
18419.445640319
19754.923511202
20744.639922772
21229.334057644
21253.84403925
20942.41362501
20323.139387717
19415.48711139
18307.896888002
17071.658691788
15779.634035271
14483.503753386
13224.290237262
12032.198159085
10923.200240415
9904.9270240942
8978.7991862163
8141.7476673861
7388.2754065465
6712.1453491658
6106.4510580133
5564.2432786819
5078.7737526381
4643.6638477754
4253.4578545449
3903.1585077065
3588.4086983957
3305.0900073265
3049.2281834794
2817.5041140201
2607.6712498847
2417.4783665325
2244.2340934515
2086.6134589783
1942.9465186352
1811.678772718
1691.5484673882
1581.4988427117
1480.3293532683
1387.3030503145
1301.5964129467
1222.4353146016
1149.2637318334
1081.8990260306
1087.472023897
4577.6065790367
4662.281009076
4495.3328641846
4129.2653050874
3572.9730547739
3083.4141625387
2721.943332003
2717.7103530084
3090.0187209793
3674.6559438799
4346.576321316
4996.1555404524
5519.6879039697
5872.0218006341
6081.0178741604
6227.4979242402
6345.2996223085
6443.9231524111
6519.6124584216
6563.7001818616
6627.7302287764
6647.9284276228
6675.1172250644
6651.7106411124
6608.8396738375
6542.1938131054
6459.2749038274
6366.7753331603
6285.3962472197
6212.3892907541
6154.5013838309
6126.9525350256
6106.7535580603
6093.8393983247
6095.1633257944
6108.8463484901
6118.6251833895
6116.9794601849
6101.6130141186
6067.6266877672
6008.6650120547
5951.3818239547
5908.5035082782
5886.6373576773
5883.3641103523
5884.9826221955
5890.5331103298
5901.320722356
5896.6466626214
5923.0214157397
5938.3763080925
6101.3508516363
5998.8714808821
6024.7726991708
6070.3290991503
6117.6508262959
6152.7149965525
6150.7512977478
6141.8780808869
6127.8697743273
6111.6382880557
6096.0791181682
6080.2366206019
6068.9907232871
6061.2277483627
6055.0273467978
6051.3467075535
6048.0568446711
6045.5357051597
6042.9296023329
6040.1524272065
6037.1513996567
6033.8539087346
6030.3403706885
6026.8293025712
6023.2702799361
6019.7615652481
6016.3267454593
6013.1187286408
6010.6380299875
6008.3684955774
6006.6503353833
6004.5946522615
6000.634165332
5967.5884574105
5988.9306135906
7398.0006872412
5819.1104558176
5585.1482726259
5425.8753646216
6024.4184545245
7469.9446611342
9174.8865976844
10888.06464281
12511.728105711
13947.955016395
15172.768127099
16118.226811166
16832.230498242
17131.035461332
17032.978095622
16779.850588282
16279.09986044
15572.78230608
14723.918803227
13785.610256872
12806.943820526
11824.491315058
10866.878567285
9955.1674608474
9101.0549437028
8310.7014123807
7585.7355438401
6924.3569554621
6323.6549179151
5779.8255905278
5288.5218348377
4845.1748033239
4445.1674643408
4084.0353588966
3757.913270909
3463.2439875423
3196.5335438333
2955.3485320844
2735.7028401472
2536.3612933765
2354.9919961431
2189.6950286196
2038.810515463
1900.9867648409
1774.5966993608
1658.4731621829
1551.7751373694
1453.7479491295
1363.4972841421
1280.258390437
1203.3131078165
1132.2896619514
1066.3827294178
1005.5193225552
3996.2768212805
4318.9462128291
4093.7439252901
3716.0056103586
3200.2732453884
2740.9859705574
2454.8801860133
2477.5102680518
2856.7137725349
3483.6762114345
4239.5169343506
4974.6657891651
5541.3172842178
5902.3729087013
6109.642707447
6250.5531475951
6350.0833918326
6428.0306521511
6474.0862674512
6500.0517888487
6543.7305850778
6567.4639203694