/*--------------------------------*- C++ -*----------------------------------*\
| =========                 |                                                 |
| \\      /  F ield         | OpenFOAM: The Open Source CFD Toolbox           |
|  \\    /   O peration     | Version:  2312                                  |
|   \\  /    A nd           | Website:  www.openfoam.com                      |
|    \\/     M anipulation  |                                                 |
\*---------------------------------------------------------------------------*/
FoamFile
{
    version     2.0;
    format      ascii;
    arch        "LSB;label=32;scalar=64";
    class       volScalarField;
    location    "4e-05";
    object      pTsat;
}
// * * * * * * * * * * * * * * * * * * * * * * * * * * * * * * * * * * * * * //

dimensions      [1 -1 -2 0 0 0 0];

internalField   nonuniform List<scalar> 
109340
(
375812.06800143
374844.13241453
372443.74542211
369443.37842477
366104.7499898
362641.58314687
359136.63703521
355640.77152744
352250.52297675
348942.53304676
345666.40532767
342418.94443585
339203.66974127
336023.185117
332879.17626429
329773.14388843
326704.24709903
323669.77109846
320664.50678687
317680.54622819
314707.16176671
311732.56015268
308743.71428007
305724.19929642
302653.20900693
299503.58140668
296239.71111895
292814.03680799
289161.75416549
285192.42134249
280776.02542172
275718.88709494
269725.24458553
262352.25011169
252977.67808768
240756.69561116
376207.64362844
374783.70123171
372019.997004
368783.19645476
365340.45579709
361875.57883148
358438.85375261
355039.9635505
351677.66021579
348352.95745878
345060.50418028
341801.28018416
338577.76276647
335391.51437017
332243.39388371
329133.07090831
326060.36253298
323021.85822492
320011.37573317
317020.14568787
314037.07814815
311050.13598872
308045.87538886
305007.1165412
301911.76253025
298730.93549512
295426.49915209
291947.14915945
288222.5293678
284153.5044118
279596.06931222
274330.45084738
268010.11129607
260091.61262562
249676.36841048
235741.78412925
377097.77078267
375347.55631455
372242.45860925
368915.03805998
365505.79834917
362094.71889302
358673.95333683
355257.15154
351869.2076629
348517.03019802
345199.40965596
341916.93308177
338671.48111033
335464.59646401
332297.86668403
329172.3340693
326087.54389537
323040.1648904
320023.44217467
317028.26003505
314042.69145567
311054.56739483
308050.14158212
305012.30064057
301918.55497755
298739.85150598
295437.91896032
291961.43870808
288239.92947926
284173.80620406
279618.04929122
274347.54118485
267990.09129988
259920.27576245
248993.58792764
233349.94337621
378343.02416089
376099.15571416
372802.08201979
369357.38537699
365864.9273159
362365.95008269
358875.30884679
355407.2344705
351977.8925917
348592.50638994
345250.35891934
341950.84674375
338694.13295592
335480.52539473
332310.25633282
329183.25117628
326098.6515662
323052.67046883
320037.70849301
317044.66201418
314060.30657923
311073.05146023
308069.38205953
305032.51877157
301940.17297935
298763.32853119
295463.79356515
291990.31216994
288272.28100493
284209.39370435
279654.86965301
274380.64457248
267979.95780025
259724.1746278
248087.52365206
229586.54183426
380315.20480572
377197.62551086
373319.7861342
369594.9977406
365989.16302049
362448.93292884
358944.36546909
355477.73288826
352051.56361349
348666.28552469
345323.25694266
342022.84067638
338765.37993862
335551.3256066
332381.14030046
329255.27303524
326174.01043329
323134.55732796
320122.64578254
317135.61332356
314155.22881496
311171.47688589
308170.2516804
305136.62693153
302047.63650335
298874.69997673
295579.48656559
292110.73392614
288397.61122033
284338.76507361
279780.2144021
274508.71506032
268068.56558868
259636.470427
247204.6813607
224443.06135281
384014.06699147
377778.73016107
373440.13323112
369623.85332219
366012.53596822
362481.14179202
358987.43100036
355523.43358729
352095.07461188
348703.59976518
345351.51645536
342039.58208991
338768.34981417
335538.33984045
332350.25538856
329204.72556859
326103.03868859
323052.95405378
320065.52492974
317072.06977564
314083.98501991
311093.19068804
308086.63207225
305047.72283962
301954.11125401
298776.81111943
295477.5515346
292005.10568468
288288.61833907
284226.40117348
279669.49374971
274387.18749782
267926.69786809
259413.47441634
246492.6587766
219347.54447416
225736.38950088
210443.02756743
197731.24585142
187507.56170069
178393.05787717
168732.78166002
158150.04383908
146507.9481815
133858.22455855
120493.72367073
106414.76010271
92905.775542961
80543.274256172
68908.627220563
58669.970969418
49739.420807497
42118.002129835
35724.053599433
30366.6951986
25898.584103559
22200.399205802
19128.42264036
16558.813327367
14411.058596058
12608.303482155
11082.825739563
9787.2345922429
8684.0721313095
7737.0142523984
6921.1039280266
6214.3324913563
5600.2505874027
5063.837220205
4592.5798875112
4177.7113259274
3811.191070871
3485.6733987271
3195.5761705407
2936.6383731906
2704.7874565463
2496.3112836656
2308.4088690408
2138.7258579789
1985.1184398282
1845.7193463602
1718.9226705577
1603.3313382847
1497.7127351019
1400.9932530334
1312.1459866664
1230.8833349986
1163.6911335079
4710.4896700694
6156.6348635126
6346.224179098
6284.5966015322
5939.9927909719
5528.2687320563
5275.8056126812
3984.0761440737
3732.3560346734
4214.4921808804
4654.5506169812
5057.3120458122
5417.9504192456
5729.728236418
5994.4447329111
6216.8119948329
6404.6071012674
6563.6833555708
6696.2606097669
6801.8539140892
6878.4989135153
6925.898423825
6946.4354347862
6942.6191701698
6921.3130753809
6886.3987627795
6840.6969502157
6786.0234345175
6730.0883871311
6675.000451082
6623.3005027375
6581.6870952899
6553.4981087423
6557.6448837183
6589.3535941718
6646.7127266815
6708.6137895307
6756.6561543401
6787.1959239426
6786.2501835287
6749.6547182924
6623.9817573162
6439.8825761645
6193.2768754917
5898.0441964404
5583.7934395624
5275.2188251992
5000.8321324048
4782.5967436628
4734.7194627215
4844.8526885723
5111.8363281067
5635.7248550738
6040.0457266052
6397.1892515449
6593.7019618786
6746.1396906243
6864.3692380576
6811.6427658716
6670.346160903
6460.2293869987
6202.9183309991
5945.0713564384
5751.6760457452
5624.7835998928
5591.2856707366
5581.405628685
5597.8846703996
5654.5792186906
5755.3282423183
5885.2760895261
6019.0605206662
6147.5393734038
6257.3076525682
6353.0169037703
6414.107255044
6424.6991336148
6420.8155613607
6394.7381281652
6366.8608234393
6348.4920345552
6333.1733004836
6328.8850002691
6329.0803379424
6336.3304406678
6355.868148019
6328.4022571707
6552.6127739784
218049.47409067
201861.78442
189852.79483121
180575.81175376
171242.7424321
161143.07643485
150202.6836873
138395.10734888
125895.04277342
112942.4258773
99877.577371223
87089.990175373
75461.969217732
64855.807097837
55304.032970635
47030.865823915
39945.081058538
33952.508176288
28937.192575448
24752.458062755
21261.492138918
18352.07014468
15924.181471174
13885.365644191
12166.44276981
10713.41443299
9476.9969271695
8418.8890811889
7510.6289622231
6726.761171605
6046.9380326699
5454.6959831135
4936.5357607274
4481.4263939484
4079.9901634114
3724.4611601149
3408.7322231441
3127.3972727036
2875.7742784709
2650.0690865644
2447.120790197
2264.170076207
2098.8014493533
1948.948311124
1812.8323499645
1688.9229532692
1575.8942929809
1472.5401497616
1377.8564422363
1290.8521103193
1210.949954226
1206.2694898686
5459.3262143105
6157.1646238073
6318.2057320712
6182.7039529644
5813.1733581566
5406.3921427152
5129.6219986507
3709.8126666725
3823.4642631463
4313.1875897289
4744.1770117972
5137.9656522212
5487.3555023053
5788.5126885994
6043.396594377
6257.8206268277
6439.1779151036
6592.2390906737
6718.4765839736
6816.7395889074
6885.8448101905
6926.4626064165
6940.7715467682
6933.4677140858
6908.4255956806
6870.6982934304
6821.3145529288
6766.4463898941
6710.6356588015
6655.8920055209
6606.7580952027
6568.8112087848
6550.522297663
6544.7122616199
6570.362969882
6628.7728057054
6690.9495395909
6739.7826363015
6770.1564174808
6768.4703723268
6725.8850648443
6596.1714786844
6413.1502838492
6178.4391256133
5892.7782026167
5582.4215510785
5276.1639278221
5003.2943750341
4794.3467483202
4743.3029360525
4855.4719729074
5110.7796627287
5556.5789991455
5947.0265335976
6332.6651022572
6557.5996416856
6729.3972665177
6843.4637328151
6793.8557653986
6662.3435517539
6460.2499561697
6212.4546451237
5964.2248183325
5766.6963767295
5644.2314498879
5611.5772542448
5601.4374201106
5620.0697946306
5678.5436361891
5777.724248502
5895.5547053446
6013.8256320596
6125.7225593458
6221.2656580046
6283.6049196726
6326.6886355123
6329.7183236122
6328.685175015
6311.545644148
6293.2619198195
6281.5125321515
6271.813468916
6271.4677741066
6273.7514199819
6286.8875156329
6306.8205502193
6290.8144086636
6517.4202188601
211531.26635277
192466.60645054
181405.98569146
170625.60156803
161298.65614999
151521.26924033
140763.65355173
129479.63609802
117823.5961048
105530.83409059
94354.492769667
83051.644862202
72337.902393805
62493.018128959
53628.95934383
45816.074735679
39059.484813683
33312.725459146
28477.991308419
24413.688776337
21005.248337544
18159.97853005
15777.12535417
13770.535248998
12077.159062154
10643.45561565
9420.6448734369
8374.2293744769
7474.5072393393
6697.170042159
6022.5835387818
5434.344088355
4919.4530254553
4467.0333683193
4067.7558269501
3714.0650416431
3399.9038262795
3119.8339134349
2869.2225515465
2644.419619314
2442.263444328
2259.9512041693
2095.1016082843
1945.6838693285
1809.9435264452
1686.3628554263
1573.6140713857
1470.5036331625
1376.004559729
1289.2115536827
1209.5017604479
1193.3056650716
5391.8280135335
6113.9286711489
6270.3290555852
6142.7301271102
5773.6819498
5359.2935385815
5064.3457017722
3710.66903177
3798.3840949585
4288.7363012548
4724.6055965452
5122.2465073869
5474.6246751159
5777.6550436709
6033.558176513
6248.9634234481
6431.1447306431
6584.7853631283
6711.3316408619
6809.6043499516
6879.1443438884
6920.0920639547
6935.038069131
6928.6714401986
6904.1739069561
6866.0376626887
6816.6161533375
6763.3507231152
6707.65756053
6653.2537858106
6604.5426695848
6567.1071611148
6545.4171264022
6554.511240273
6591.0117090139
6646.9501999621
6703.6524713411
6747.4811582087
6773.033453652
6766.8863583102
6709.2575058907
6570.2270880894
6382.8799689874
6145.7650421537
5865.8108105834
5564.4567367194
5265.9415336487
5003.3928076406
4813.6908443202
4766.5832624417
4891.16607343
5132.7160862102
5568.7847054584
5961.7942774733
6358.3744907506
6592.2010915047
6770.3213323027
6871.716789596
6803.4766033305
6659.0296323718
6456.8101761567
6223.9159788373
5997.0876003511
5800.6666612613
5683.5792492294
5652.426180973
5638.9186795826
5666.2295037352
5728.6583275831
5825.2576539892
5926.4029209359
6027.8913456495
6125.2297808325
6201.7382582369
6258.6022698668
6288.477171856
6291.6535917901
6294.8094520483
6283.6112716721
6272.3442506023
6265.1260897046
6258.3954864625
6259.9875634343
6262.9243430954
6276.8515816022
6291.6514694333
6247.618963841
6523.6432768153
199180.48413468
176462.52166969
166073.20142279
154814.34513775
145690.79811722
136333.16634872
126590.21046404
116704.36168478
106735.52114523
96667.658776842
87153.515585756
77599.204350171
68235.227624061
59440.744481828
51349.703955909
44143.694751079
37859.287115471
32436.196962576
27822.321234124
23933.903651408
20662.469270062
17896.280279643
15569.904508737
13614.213064357
11957.247469778
10544.98327179
9342.8335183758
8312.6768028085
7424.4099193186
6656.0308806616
5988.5534405321
5406.2917870595
4896.0284104143
4447.0552407751
4050.8356441964
3699.9636722274
3387.8366484824
3109.3384895264
2860.3015827795
2636.8333808949
2435.6928774969
2254.1885072723
2090.0540658764
1941.2604163086
1806.0490713642
1682.9177469137
1570.5493025303
1467.7708926168
1373.5532688899
1287.0340895745
1207.5860457794
1178.4524617211
5293.5656762187
6052.2631055316
6200.4960827495
6085.7934429197
5719.4518668163
5297.3897523055
4974.4816504535
3707.6720977822
3764.785546915
4252.3718887012
4696.4635408885
5101.1524223481
5458.8028098349
5764.4035765218
6020.6201060313
6236.1295553881
6418.8875874986
6573.3312489922
6700.458520864
6799.1420078166
6869.4848057076
6910.8146973494
6927.191628348
6921.424995895
6897.265473807
6859.9773539845
6811.8721517727
6759.3106250897
6703.1747605074
6648.7041834416
6600.2617427356
6562.7661307205
6538.9140202449
6552.5742134999
6587.7660261437
6635.6998718476
6687.1115735237
6728.6577680554
6751.7728092161
6741.6367578785
6671.3073135619
6526.0657109848
6333.764715613
6096.4734783488
5824.7968176349
5533.75097763
5250.0283055788
5007.6732191123
4846.902045266
4828.8841795106
4934.9767255567
5148.0536359351
5552.6197332941
5932.3105406519
6339.972604424
6592.5154883978
6779.2753176581
6864.0274829696
6788.6238253675
6644.4627600592
6454.681711766
6244.1869641159
6037.5294239871
5850.0413199583
5738.3886728672
5703.7839256227
5689.4674605325
5720.5795306589
5777.7071824509
5860.0466763531
5942.886461172
6024.5134053126
6102.6660763954
6165.1377846731
6211.4862872128
6230.385787632
6233.926849269
6232.3559291145
6222.3939252799
6213.0260081455
6207.3766398109
6203.17246167
6207.2616577554
6214.1926949673
6231.0801775432
6250.312661794
6210.3864014212
6661.5862496457
172274.58512878
147542.08296968
140146.31776905
130326.89211
122965.97136923
115645.55288689
108650.96459528
101808.21995892
94458.423233861
87196.623210158
79340.000036641
71333.402517252
63390.433258404
55761.53141126
48648.259544059
42154.93584759
36378.178252205
31353.328186486
27027.904824502
23336.742248654
20205.907873177
17562.004926327
15318.219997251
13411.559281599
11797.370570417
10422.899319384
9244.6834493922
8232.173552028
7359.7456348445
6603.5081704868
5945.2487885824
5369.9266776256
4865.6020659362
4421.5423487513
4029.2322558731
3681.5716227845
3372.132182809
3096.0597159002
2848.932084795
2626.9586581919
2427.0735202968
2246.7341846829
2083.5748007593
1935.5847336201
1801.0467712395
1678.4897977137
1566.6053464562
1464.2394703216
1370.4009282891
1284.2214273857
1205.0656382165
1162.0621043222
5163.676865819
5974.3058024189
6110.8034903311
6012.4462293824
5651.3021638044
5221.6821579776
4862.2236201162
3692.0362473308
3724.3280659253
4205.1993309392
4659.9154155145
5074.1774252053
5439.2018067388
5748.9818534393
6005.7443477809
6220.2755187735
6402.4796369699
6557.1864388205
6684.9312473912
6784.6293887631
6855.8741122128
6898.1732090527
6916.6400873128
6911.6186849037
6887.9827493249
6852.857587405
6806.5369774155
6753.5316217428
6696.8138671221
6641.5074694926
6592.833169754
6554.0905645427
6529.1801185481
6543.3082451186
6575.2600203108
6615.8055849427
6661.5515061423
6700.8772230048
6721.2181841276
6707.3970934401
6627.5076111021
6477.7643387241
6282.5107755812
6046.8318578143
5780.1570070278
5498.0191415129
5237.2853148011
5020.7601878329
4901.5055843591
4903.935830228
4991.4358330227
5177.4196240748
5546.241412209
5910.9818485018
6306.8014540775
6583.7495044959
6777.3914879096
6847.1837877865
6771.110047423
6634.7067273243
6460.5646196017
6267.4010872997
6076.1430105702
5899.2232647005
5793.014471663
5754.5368512296
5741.3018192184
5773.0133244524
5825.3174821548
5893.9028414879
5961.0846415215
6023.6578097644
6079.3353661844
6125.6897414291
6163.66397705
6183.80699363
6193.2465932441
6187.7533132007
6180.5300814397
6174.6806044981
6167.7029111707
6165.5465059679
6169.4479911933
6178.3211924052
6196.5598467224
6191.0725790004
6152.7135017643
6853.5207618
102628.31794185
98462.402944555
97800.89173781
97927.394812785
96714.596855779
94331.848297645
91068.42337885
87276.585258283
82502.266861546
77022.374893189
71034.928066169
64685.895113676
58197.552417913
51757.339909215
45599.96868116
39888.503417552
34702.701269102
30103.228882868
26092.271769857
22637.074202665
19678.529096823
17153.984240458
15006.324716834
13176.684508834
11609.47313655
10271.448444519
9125.1511469282
8137.0423526663
7280.6772083872
6538.4595417219
5891.6756366064
5325.7649112847
4828.8475408448
4390.5396633835
4002.8623602519
3659.168652805
3353.3363296286
3079.8571765556
2834.7505685331
2614.7770977458
2416.6684857637
2237.7170237825
2075.6374798584
1928.5770447009
1794.8589825512
1673.0223001286
1561.7440551232
1459.9082624356
1366.5433177135
1280.7870232008
1201.9519732982
1145.8244981903
5000.8742136169
5883.4989346415
6004.760026969
5924.0536159596
5570.7268709871
5132.9931518711
4735.9708994934
3658.569258059
3676.2283941213
4147.542139788
4614.3840299389
5041.0197697307
5415.8277604933
5731.4465673476
5989.4619400297
6202.3550145449
6382.9163685196
6536.9550589662
6664.8311741745
6765.3630518188
6837.1689992218
6881.8130537841
6901.7325440363
6899.0545554634
6877.5908082717
6844.3456319191
6799.3280088234
6745.9317811737
6687.8189825878
6630.5979466036
6580.7052109877
6539.8957401514
6516.0312599013
6526.1465347153
6551.0922870122
6586.7557419102
6627.4246093838
6663.5206909523
6680.5784695243
6661.8900288965
6571.8424774602
6418.4418340101
6221.9281689972
5986.9694241156
5724.500341613
5458.5461605405
5229.8576508848
5046.119527562
4974.1363436877
4985.2460312778
5066.9878399262
5227.2001783227
5551.9148293182
5885.3184108951
6246.1765617246
6540.6014467701
6745.0754936293
6806.4224344195
6733.9927135955
6611.4081758907
6458.2545942858
6285.2682975326
6113.8884076667
5951.8856950312
5856.2997631066
5814.4463055764
5802.7339827872
5824.0082480777
5869.6701779569
5923.2204363693
5978.0955324666
6029.0210887079
6081.3336899605
6116.0976073437
6151.3065709258
6142.7904461835
6147.2560677399
6141.9368553158
6134.0642907356
6130.386898113
6124.2834181237
6125.4527071297
6127.8981226259
6137.1217068728
6148.3769630671
6140.4567266867
6082.8084586401
7261.0960459468
9616.3007260231
45110.808745416
59605.567545717
67899.359788139
73124.848508144
75363.356078298
75333.013061217
73928.103406038
71420.362677416
68018.297126935
63907.797908238
59243.36220301
54184.165734956
48932.308334314
43688.850831906
38659.766722219
33972.714884848
29714.441428516
25927.118280022
22608.368156097
19732.5779441
17257.268902117
15131.32611897
13308.620163791
11750.259560657
10405.648181783
9247.8243564407
8250.3923626025
7388.3190648896
6636.088084047
5979.6316873685
5405.8430600971
4901.5358367622
4456.9171516586
4063.3373316559
3714.0811738103
3403.1796897662
3125.4194740064
2876.6524757403
2653.0556553174
2451.451518491
2269.4967239085
2104.8705953876
1955.497260992
1819.6429532898
1695.8253659487
1582.7567988344
1479.3101964805
1384.4551316145
1297.3493315836
1217.1624309703
1140.5038379925
3407.1864277745
5722.2389263728
5870.015927594
5870.0327585114
5580.9802288289
5149.1533432127
4712.2131155171
3872.5646745001
3544.4688306945
3954.8251740111
4441.3283299463
4894.9516609544
5298.6128111362
5638.9498437234
5912.962853726
6133.8507275219
6318.9126818298
6477.5548154738
6611.7114761409
6719.6489595517
6799.3531877562
6852.4380285513
6879.8995458623
6883.7924649402
6871.0567455052
6842.2681409754
6801.8935448922
6750.0147787996
6690.8083831534
6631.2410042541
6576.3292427575
6529.341032821
6495.6076952145
6499.1887998086
6515.5498084793
6548.199764658
6585.6467155458
6617.9882437045
6632.2588061858
6607.8800057306
6509.2025831001
6353.5234761031
6155.0503093065
5922.1292815703
5670.712411781
5437.7633432376
5234.0564580342
5100.2764792686
5064.3488658206
5070.2136504909
5156.5478339135
5289.7528008953
5580.8621990069
5851.8459769858
6142.2028613768
6417.0478729194
6642.3772705195
6717.4507059231
6655.9166460765
6550.506826812
6411.0647507769
6268.8585203412
6130.9776282342
6007.0122522528
5931.2320537807
5896.1969836793
5897.7067544696
5914.2239359945
5944.8381265606
5975.8135980202
6009.7686790442
6042.5187077247
6079.1645495652
6098.4414743714
6114.3366973722
6112.5012643393
6109.8709311818
6105.0769994345
6096.5629599202
6094.788314999
6090.3139060483
6089.7086489871
6092.684140911
6094.7835720877
6099.6563081479
6069.5132494259
5999.0014483686
7742.9656795597
7430.7288719095
14278.765160933
24540.611466483
33027.170904956
39705.926824558
44573.326038931
47837.726977223
49795.597808251
49987.29945332
49287.200440259
47774.872555743
45510.34902469
42670.446110516
39422.904324218
35942.658016477
32410.770371471
28974.492217916
25733.449239125
22760.766197977
20088.390159712
17719.175872484
15640.663404983
13827.002014915
12248.772557421
10877.319480553
9687.861473236
8657.2020363665
7756.0913764504
6968.8004508083
6281.8027897649
5679.8424481645
5150.3196613738
4680.7646767007
4266.0252116904
3897.6207324706
3569.9665825419
3276.8869829636
3014.3485242718
2778.5277552018
2565.9208135073
2373.9361881483
2200.4470946998
2043.0688072151
1900.0708689275
1769.7554313811
1650.7913147101
1541.9642009397
1442.2784186282
1350.8002290527
1266.6732455741
1189.1005410108
1113.8898679436
4112.8391224614
5547.4537270372
5623.1302096287
5586.957523178
5264.8850535093
4777.5013284994
4287.3100775533
3437.1132067843
3452.4868582476
3897.2666133559
4405.0863308049
4894.6709043381
5327.2264027952
5676.9120928345
5940.9877541112
6143.9591927643
6313.7396184731
6461.3179931375
6587.5480929493
6688.5540911796
6764.0593418042
6813.0004851777
6840.1850186501
6845.9824157408
6834.1444574729
6805.7416040419
6760.6306496269
6700.9495147869
6634.8223093988
6567.0191456327
6505.4269808262
6453.9718213334
6429.7467167224
6407.8907288937
6409.8336093101
6444.8376040977
6478.7851600751
6506.1337336761
6516.2277329384
6474.26132765
6363.2483422354
6208.6084842709
6021.1412935983
5811.3828731371
5611.3854274109
5439.328809699
5326.690152872
5280.9712614854
5274.4515413446
5303.48659037
5365.0690595592
5449.8049379609
5669.0616776601
5871.6531467924
6078.6384961478
6278.0170490115
6462.5052937842
6535.9183147869
6504.904633605
6447.118867196
6359.8206910909
6258.1536417659
6163.2518568162
6078.9637997121
6031.771431412
6002.8929583459
6004.3346671845
6003.9799621812
6016.7439700839
6028.6582223529
6042.2570228142
6053.237068071
6067.5241513071
6077.9389687159
6085.8653303256
6084.8740488174
6081.1091293609
6075.8521025122
6069.3427049749
6066.0944457649
6063.3792746989
6060.1143623516
6060.1426898778
6059.9365404698
6059.6981408384
5996.8283568009
5929.025332962
8344.3567675776
7269.7912032025
8017.157993751
12582.136578345
17969.374712119
22947.907414422
27182.324356072
30584.652760625
33146.541502445
34914.719162895
35796.90129894
35724.694385516
35071.405271542
33808.362567146
32031.235185563
29894.246961516
27533.674115019
25085.860972974
22665.406441197
20349.86053446
18195.023201114
16230.610759323
14465.468225236
12895.824586254
11508.335961338
10285.829996819
9210.9873576452
8267.2574320745
7438.2744806335
6710.6320570073
6068.9693485844
5500.8293809806
4999.6209097264
4555.156989127
4160.21868122
3808.0371024321
3493.0581446632
3211.0917842303
2957.9752582675
2729.343720167
2523.039904202
2336.8565867153
2168.0111329412
2014.7103019601
1875.110648787
1747.5675466481
1631.0722050201
1524.4861260588
1426.6915730068
1336.8356993657
1254.1182227127
1177.9470222985
1105.4613419944
2824.4550539828
5275.9513745256
5328.690037794
5291.9925704647
4962.658727392
4424.6140289032
3901.4025641734
3231.0009080112
3233.2751013746
3651.2599366237
4180.4000346919
4723.2414269527
5221.077723877
5625.5715588086
5912.2545643262
6110.9515903023
6269.4954530596
6408.8458830269
6530.2079171467
6630.9175054505
6704.5367352628
6757.1877805223
6790.7276030783
6798.8723577769
6790.9797883094
6759.7175958143
6708.468776509
6640.0187674004
6564.4234030603
6488.6211802406
6418.0544259878
6360.0744131325
6335.4850352542
6298.5743596317
6289.2325890997
6318.464320311
6348.9654217188
6376.3258944894
6368.7354372331
6321.143035504
6231.7399843281
6100.3111629204
5934.8671080769
5769.0067288025
5624.5200440244
5527.3098622702
5491.447338778
5490.5354506781
5495.0708731106
5516.4153110885
5572.0491794588
5681.6901185484
5879.2318829526
5961.2320910502
6054.269374406
6167.0175177714
6272.7076619666
6386.8299705162
6368.2877830411
6339.0911710128
6284.3702597333
6213.4847149345
6151.8901648755
6103.2525498007
6071.8300327816
6054.4835731492
6048.3537267507
6049.8041566595
6052.7058878681
6055.9385162582
6059.6414116612
6061.7398004672
6065.0063400468
6065.693845567
6063.5505334352
6058.5239092918
6052.170910045
6045.7451806233
6039.0773676726
6034.3657549395
6031.1146125764
6027.9120125886
6026.5403367944
6025.6523201518
6024.7084273795
5952.3238835761
5945.9907429197
8481.249221218
6666.7178796668
6575.143878908
8072.1791672521
11222.228797782
14644.924379389
17861.863473566
20709.134458461
23110.700972405
25009.082265193
26334.188738032
27085.143891406
27117.33563105
26708.199416899
25865.427475462
24649.77038756
23155.016074811
21478.002986441
19730.566741928
17983.404387648
16294.901481308
14707.515081503
13244.446268721
11913.696665328
10715.805001846
9644.1594254064
8688.8538508069
7839.9949109889
7086.9709074606
6419.0837064034
5826.0826395681
5299.1247976621
4830.7961193832
4412.6215991422
4038.98649883
3704.3859334209
3404.3342814666
3134.287635087
2891.1660993896
2671.7654812573
2473.3121868234
2293.5063549027
2130.2268483292
1981.2518493529
1845.3442686388
1721.3399316155
1607.8683234968
1503.8144320803
1408.2395168599
1320.3863418701
1239.3945623526
1164.7024059118
1095.0859824633
1536.6093871657
4957.7901604532
5005.9354309731
4914.5824737436
4566.1307684774
4001.7597014075
3485.6740617502
2994.2490447133
2983.0649240013
3370.8858850575
3923.8969937857
4526.2797596186
5095.0317314143
5559.8844567342
5883.4830385621
6085.9180248867
6236.8070991986
6367.1487255761
6479.481938787
6574.2392069472
6637.2876863552
6692.6598627117
6732.3341044194
6740.5623194922
6730.1104381069
6692.7063847069
6631.4468603684
6555.1244452649
6470.0548957886
6387.3075503834
6314.0518221759
6253.7301041569
6228.0965885387
6197.2613463862
6187.2116225516
6195.6303154382
6214.0700377644
6229.3441743542
6220.6337808752
6191.5962965439
6131.7442569499
6028.596658355
5909.251558322
5807.3871828067
5748.0619657575
5726.8599981053
5719.5650504682
5727.2233315043
5744.7024480226
5743.8695488779
5777.9669046257
5843.5342780976
6030.1907000236
5967.2261936069
6005.2334562243
6079.2227090305
6164.7040466629
6257.5817037283
6237.2787187012
6221.9133138673
6193.2858134818
6157.3504444996
6124.2774557298
6096.3130099954
6077.7524707614
6065.8378130172
6058.9325338823
6056.3988552049
6054.4072510693
6052.4522964265
6050.8250850578
6048.5993650601
6046.2118454305
6043.5233830714
6040.5835603312
6037.5089743483
6033.7551138295
6029.737651792
6025.4524982538
6021.5093330581
6018.6630792506
6015.9798770966
6014.1621567597
6012.0318959101
6007.8095910264
5956.0097105614
5963.077492028
8016.1021041977
6140.0987051881
6027.0575059343
6218.9481374384
7827.4470942698
10118.88033916
12469.234220607
14700.933282638
16718.549255715
18419.448123705
19754.927124956
20744.642059917
21229.343089588
21253.846006318
20942.419330415
20323.145078013
19415.49282863
18307.903257161
17071.665974168
15779.641658363
14483.511831817
13224.298668344
12032.206835697
10923.209094502
9904.9359577061
8978.808115748
8141.7565367041
7388.2841689038
6712.1539909426
6106.4595665446
5564.2516408658
5078.7819410429
4643.6718726861
4253.4657044858
3903.1661519704
3588.4161015665
3305.0972685653
3049.2351669021
2817.5114393434
2607.678128149
2417.4848825715
2244.2404635276
2086.6196931018
1942.9525507849
1811.6846760995
1691.5542042719
1581.5044051953
1480.3347693973
1387.308236142
1301.6015886404
1222.4403429231
1149.2684555868
1081.903401449
1087.4327848299
4577.5851533843
4662.2836037382
4495.3378393399
4129.274161691
3572.9797423918
3083.4169638102
2721.942351227
2717.7094540477
3090.0184648325
3674.6560990961
4346.574971097
4996.1527131953
5519.6843899944
5872.0186714254
6081.0154022704
6227.495481978
6345.2971743125
6443.9206018884
6519.61004902
6563.6978394306
6627.7284553101
6647.9265845598
6675.1163032268
6651.7101600662
6608.8396368043
6542.195147352
6459.2768735997
6366.7775240214
6285.398564251
6212.3910853937
6154.5027644075
6126.9534224073
6106.75407317
6093.8393219522
6095.1623033477
6108.8451352017
6118.6240829727
6116.9788361483
6101.6129361761
6067.6279911744
6008.6682622593
5951.3859840151
5908.5079740451
5886.6414654904
5883.368279806
5884.9872904406
5890.5379927564
5901.3260222968
5896.6519725599
5923.0269362712
5938.379975984
6101.3526284799
5998.873254196
6024.7735379909
6070.3290233315
6117.6492817444
6152.715252615
6150.7513043857
6141.8794593299
6127.8716661331
6111.640835933
6096.0821720764
6080.2403341613
6068.9942153812
6061.2308896857
6055.0298745196
6051.3486660631
6048.0582022219
6045.5364793905
6042.9299591346
6040.1524903286
6037.1512821188
6033.8537243284
6030.3401270644
6026.8290615301
6023.2701349238
6019.7615423645
6016.3268525043
6013.1189120854
6010.6383548752
6008.3689669867
6006.6509177059
6004.5953386246
6000.6349657147
5967.5892146578
5988.9308054925
7398.0113787838
5819.1131459329
5585.1487705828
5425.8763305141
6024.4195142119
7469.9458133867
9174.8878946417
10888.066069351
12511.729795785
13947.956831928
15172.770595115
16118.227906382
16832.242759616
17131.032752232
17032.980156401
16779.851839345
16279.104300646
15572.788431497
14723.926054221
13785.617602678
12806.951462914
11824.499315266
10866.886888151
9955.1759651108
9101.0635527118
8310.7100515025
7585.7441639798
6924.3655226642
6323.6633871958
5779.8339424028
5288.5300576147
4845.1828693596
4445.1753519588
4084.0430722076
3757.9207920192
3463.2513531155
3196.540581563
2955.3555856847
2735.7096555566
2536.3679071232
2354.998470587
2189.7013250307
2038.816718079
1900.9928072551
1774.6024700402
1658.4788881155
1551.7806310136
1453.7533598849
1363.5025365401
1280.2634840017
1203.3181213911
1132.2945660323
1066.3873454209
1005.5164987865
3996.2877261772
4318.9522008154
4093.7507980043
3716.0182099168
3200.2833259075
2740.9907069801
2454.8809084635
2477.5101229931
2856.7132176574
3483.6740118007
4239.5117506455
4974.65922915
5541.3112156543
5902.3686789283
6109.6396433639
6250.5504144014
6350.0806907897
6428.0277156529
6474.0835490221
6500.0493305385
6543.7279523883
6567.4617952732
6588.4437547253