/*--------------------------------*- C++ -*----------------------------------*\
| =========                 |                                                 |
| \\      /  F ield         | OpenFOAM: The Open Source CFD Toolbox           |
|  \\    /   O peration     | Version:  2312                                  |
|   \\  /    A nd           | Website:  www.openfoam.com                      |
|    \\/     M anipulation  |                                                 |
\*---------------------------------------------------------------------------*/
FoamFile
{
    version     2.0;
    format      ascii;
    arch        "LSB;label=32;scalar=64";
    class       volScalarField;
    location    "4e-05";
    object      rho;
}
// * * * * * * * * * * * * * * * * * * * * * * * * * * * * * * * * * * * * * //

dimensions      [1 -3 0 0 0 0 0];

internalField   nonuniform List<scalar> 
109340
(
662.43802711877
662.43478104937
662.42669641695
662.41651522159
662.40505053855
662.39286345616
662.37995599712
662.36615013615
662.35131664293
662.33475755209
662.31558739858
662.2929579807
662.26591107938
662.23333220488
662.19392264146
662.1461653226
662.08826358388
662.01807271544
661.93300299237
661.82989368427
661.70484874911
661.55304070785
661.36844740431
661.1434859444
660.86851484568
660.53112124825
660.11508146913
659.59877929157
658.95270518918
658.13531561897
657.08579576177
655.71057057572
653.85642561606
651.25407894147
647.39304779564
641.22003201309
662.43935113871
662.43457856965
662.425264462
662.41426255424
662.4023968882
662.39011425627
662.37730380773
662.36360311482
662.34849208797
662.33134583375
662.31140120272
662.28779278103
662.25952250193
662.22542977475
662.18416239099
662.13413313964
662.07347112767
661.99993157575
661.91079483029
661.80273304191
661.6716381636
661.51240989548
661.3186731453
661.08238196805
660.79327610963
660.43810103781
659.99945759898
659.45403652324
658.76979823588
657.90123862235
656.78098294824
655.30370243605
653.29293304042
650.42799666218
646.06234361659
638.79133099903
662.44232582879
662.43647124638
662.42601759421
662.41471457367
662.40297997525
662.39092515862
662.37823613837
662.36455432458
662.34944778256
662.33231075102
662.31239266267
662.28882485296
662.26060529392
662.22657163127
662.18537324731
662.13542868833
662.07486672555
662.00144468297
661.91244164698
661.80452817275
661.67358774399
661.51450988173
661.32090231123
661.08469869522
660.79560581313
660.4403249407
660.00139665204
659.45543179138
658.77028542361
657.90030868903
656.77791576073
655.29729685669
653.27973834471
650.39381241713
645.93995486105
638.22106680966
662.44647589388
662.43898981284
662.42790940832
662.41622637475
662.40423696686
662.3919325092
662.37907947646
662.36531879626
662.35018441494
662.3330614911
662.31319925844
662.28972328506
662.26162344402
662.22773044365
662.18668453591
662.13689334902
662.07647390215
662.00316853975
661.91423037707
661.80629911877
661.67520071638
661.51575159479
661.3214565994
661.08410756671
660.79321700648
660.4352146058
659.99226707047
659.44047000178
658.74695973156
657.86505830018
656.72565127569
655.22059691277
653.16533674538
650.20968157104
645.5683559873
636.99841654736
662.453021584
662.44266268454
662.42965905916
662.41704121157
662.4046855923
662.39228671523
662.37946715929
662.36582928616
662.35085664141
662.33390704523
662.31422116685
662.2909059264
662.26292287827
662.22906025628
662.18789861469
662.13776351249
662.07665936355
662.00217221683
661.91129258087
661.80040655395
661.66490386688
661.49904863908
661.29558219584
661.04528178364
660.73626842496
660.35309243441
659.87535945002
659.27566276766
658.51629346221
657.54374124366
656.27878724936
654.59903492955
652.29335581843
648.95668813054
643.6250778481
632.92977502652
662.46520155057
662.44456116128
662.42999067051
662.41703115825
662.40461394205
662.39214258181
662.37910521009
662.36492853496
662.34891487668
662.33017436807
662.30763539276
662.28001232934
662.24577858844
662.20312117991
662.14987253097
662.0834142608
662.00056385782
661.89748059807
661.76953227742
661.61012981016
661.41142049962
661.16339140776
660.8532666737
660.46467986992
659.9765219682
659.36134390927
658.58303765549
657.59339180503
656.32667315712
654.69063428798
652.55058952442
649.70078838295
645.79112593104
640.15239992419
631.14555055665
612.06514151872
630.7220882958
613.19626805419
586.40735243697
550.06311737895
505.75913701274
455.11612742716
400.32633423042
343.91093085329
288.39367147372
236.23382506028
188.85315363065
148.46457916859
115.93027175657
89.709648169472
69.455988057921
53.923623605776
42.131156027042
33.223574587604
26.448490388359
21.266794181699
17.290891010997
14.206888749512
11.783496222173
9.8667129893585
8.3357019462341
7.0979661552876
6.0891400629474
5.2613878218325
4.574804808845
4.0015817999973
3.5192292320237
3.1111084421824
2.7633407417468
2.4648243888638
2.2075952573623
1.9848245980621
1.7906765478788
1.6206952055485
1.4714463804996
1.3398645373788
1.2232865014107
1.119671443775
1.027328355821
0.94477151420414
0.87073328998304
0.80414210085895
0.74408367710498
0.68976724330926
0.64051196025461
0.59569857311035
0.55505909811391
0.52089593666204
2.0127425885988
2.5122335655159
2.4192451468299
2.2768671861578
2.1510560109891
2.0048076602631
1.9149272361507
1.4547078832576
1.3588792897296
1.534258837266
1.6949228860456
1.8420882751909
1.9740648580587
2.0883900404128
2.1856658108224
2.2675299744593
2.3367632161032
2.3954623023095
2.4444150432718
2.4834179390636
2.5117272846133
2.5292265044492
2.5368431859164
2.5355060843501
2.5276560151007
2.514695193158
2.4976636788354
2.4772521714798
2.4562780312791
2.4355116049034
2.4158782536859
2.3998157251384
2.3889589991926
2.3893652560043
2.3996867855266
2.419275200757
2.4405020405868
2.456699773408
2.4665554257313
2.4650987648531
2.4508233478686
2.4044285937584
2.3369105882321
2.2469549371414
2.139487257392
2.0251387761248
1.9128164450489
1.812854178412
1.73282737435
1.7140541694413
1.752073656762
1.8464399261175
2.0326920841675
2.1764679502633
2.3036620105537
2.3732562892094
2.4268469365082
2.4685571016057
2.4491941702439
2.3979597604833
2.3221586245305
2.2293922930631
2.1363003397365
2.0661251275363
2.0195089341624
2.0064155209994
2.0018195017995
2.0066335954521
2.025792976809
2.0606259825819
2.1058745764518
2.1524813276533
2.1972113762468
2.2352713085367
2.2684371273085
2.2891682909831
2.291874164383
2.2894311081248
2.279227540142
2.2683798488893
2.260948938657
2.2546310950447
2.2522457437501
2.2514884429595
2.2532403508228
2.2595071558395
2.2585207789672
4.8331813628969
625.64037217403
603.23548940967
570.12311981501
527.83396280373
478.33127785519
424.10159723827
367.90306463113
312.3115124943
259.62197460742
211.57744856212
169.30792983953
133.43698036522
104.56216650088
81.606942991365
63.558094182081
49.685566507896
39.069979489914
30.965624485631
24.776906520218
20.023241566759
16.34251827252
13.47200075213
11.214595216588
9.4187244150181
7.9767082257357
6.8099626031692
5.8561236872461
5.0692605695952
4.4159513358658
3.869163330614
3.4081981712019
3.0170039418396
2.6829651858458
2.3961245294088
2.1484013016364
1.9333044279018
1.7457726846067
1.581536082308
1.437025270087
1.3093800343472
1.196257997735
1.0956735389253
1.0059330252926
0.92561133454171
0.85350448562713
0.7885931534409
0.73000698657092
0.67697768892701
0.62886858655643
0.58507757364012
0.54522255179673
0.53722530356298
2.3137009468666
2.4772093498576
2.3682150718767
2.2385718981877
2.1080926552342
1.9636836332019
1.8663141197007
1.3552368858527
1.3943337514983
1.5733868449206
1.7312296617936
1.8756316801132
2.0039985738024
2.1148933647576
2.2089778432544
2.288310074914
2.3555151201632
2.4122880066016
2.4591373478623
2.4956087880628
2.5212397944313
2.5362739449513
2.5416160146761
2.5389005136
2.5295371912322
2.5153651388044
2.4968151189453
2.4761391723252
2.4550130081442
2.4341824121186
2.4153081034373
2.400410437521
2.3915871217238
2.3882527398074
2.3962792680305
2.4161780357818
2.4374203610922
2.4538179595727
2.4635430838863
2.4617303047365
2.4452209753092
2.3972584720948
2.3300302128841
2.2441855298943
2.1399821917081
2.0268490592242
1.9151769801312
1.8155866799119
1.7388003477574
1.7188637451524
1.7577049729815
1.8480775436426
2.0066963572971
2.1455611987099
2.2830613827308
2.3629277624579
2.4236124648581
2.463944328643
2.4455699623858
2.3977699890338
2.3247634955334
2.2352947763269
2.1455487309621
2.0738189366404
2.0287768510199
2.0159893176863
2.0113057955359
2.0169166299083
2.0367696827422
2.0711503997556
2.1122269663673
2.1534790585119
2.1924517626433
2.2256811732539
2.2469954187017
2.2615630272331
2.2618443637756
2.2606380638628
2.2537675133042
2.2464698043627
2.2415223022914
2.2373283537214
2.2365078931982
2.2366267498163
2.2406414071857
2.2471675210171
2.2490227144185
4.2892686337776
622.84876570115
594.62301669739
554.20899112965
503.51567323319
448.461718327
391.74196563636
335.70976788998
282.82536688228
234.51532095099
190.97990386126
154.59192269074
123.42747412176
97.710183551572
77.002574791313
60.592385449917
47.751821344271
37.798102436544
30.127382499868
24.221799436722
19.644948894487
16.077383294797
13.285507403309
11.080153582888
9.3194803142823
7.903142222016
6.7547012224672
5.8134763237972
5.0366385472785
4.3904841471026
3.8489910629787
3.3921082454624
3.0039655907586
2.6723270652176
2.3873952154991
2.1411654652272
1.9272989555824
1.740782460348
1.5773493154283
1.4334719851027
1.3063730505776
1.1937170326426
1.0935031425192
1.0040596318318
0.92398335137493
0.85208453679459
0.78735171664296
0.72891498242945
0.67601387983467
0.62800195434951
0.58431739295426
0.54455511009273
0.53180838084057
2.2873226683385
2.4641696261568
2.3558123400731
2.2262248243182
2.0966773655437
1.9501174186696
1.8462959759778
1.3585746720744
1.3884581798342
1.5682369541399
1.7284266267857
1.8747808228456
2.0047572877327
2.1168178844361
2.2117207760678
2.2918291810335
2.3597134267865
2.4170181624261
2.4642338481543
2.5008944709668
2.5267950945677
2.5420046902826
2.547564047859
2.545083609695
2.5357692031566
2.5212839273592
2.5025411498031
2.4822631651884
2.4609958505996
2.4401150259129
2.4212382283247
2.4063885923361
2.3958791529117
2.3978560358593
2.4097927876571
2.4287221857332
2.4479205505249
2.4624359597042
2.4703316826356
2.4667774286046
2.4446977818645
2.3931457301409
2.3241113451008
2.2371270792668
2.1346648219661
2.0244454892899
1.9152297025669
1.8190619011459
1.749010587354
1.7304878834806
1.7739775020089
1.8597175042109
2.0152415634613
2.1554505728199
2.297175376919
2.3805792234022
2.4437451901179
2.4796776862432
2.4545687788259
2.4020536589792
2.3287648978494
2.2443938832832
2.1620857595387
2.0905617682183
2.0473544081568
2.0351028347998
2.0292481001417
2.0380128244674
2.0593982611741
2.0930698345295
2.1284393807974
2.1639586129544
2.1979877474017
2.2245838889198
2.2442262593996
2.2542088229462
2.2546767808433
2.2551162253087
2.2504720893557
2.2458369417754
2.2426840115968
2.2397540386264
2.239833964581
2.2404399204384
2.2450130355982
2.2499716249531
2.2415608277887
4.0137596158375
616.48875284692
574.64432280581
519.41931168661
456.38161931231
395.54802262329
338.69272140459
287.08933772976
241.23542191475
200.96682400439
165.81559197153
136.17997125988
110.68828808767
89.081366289583
71.248164319794
56.755583249381
45.214064785791
36.132753037969
29.014116592111
23.458214445407
19.124251020419
15.725394456139
13.032279817632
10.893268707938
9.1846988998121
7.8040191297938
6.6773041326748
5.7545029378902
4.9914433971777
4.3548854414404
3.8206595517215
3.3693432650531
2.985671447536
2.6574210732462
2.3750019548532
2.1308937686737
1.9188891262914
1.7337289658279
1.5713391345963
1.4284466439688
1.3021651652323
1.1901320521931
1.0904105590719
1.0013920232006
0.92167900877996
0.85008392283606
0.78560549915127
0.72738154355728
0.67466358090167
0.62680586597944
0.58326555425575
0.54363340270767
0.52556795905931
2.2488144775643
2.4452732604759
2.337456157111
2.208227082422
2.0802792270518
1.9313828763433
1.8173792801173
1.360454105176
1.379376504717
1.5585329003389
1.7222144510278
1.8716190058883
2.0039932752588
2.1174651481109
2.2129266097098
2.2934766518588
2.3619368606652
2.4198425485308
2.4675078126635
2.5044855444527
2.5307697200883
2.5461754980285
2.5521961817282
2.5497975579929
2.5404436226522
2.5261175716969
2.5076938326223
2.487519825947
2.4659497465152
2.4449178604787
2.42603139023
2.4110745877383
2.3998354108334
2.4034037815857
2.4148310551674
2.4308258934552
2.4480871308963
2.4617467353883
2.4687260871753
2.4636540750314
2.4368645658873
2.3828766976353
2.3118360980884
2.2245171340063
2.1247438700408
2.017935261749
1.9137213899478
1.8245847820015
1.764773012839
1.7567913740804
1.7938577152113
1.8695947542214
2.0141863773923
2.1500844141494
2.2961783305491
2.3866511734051
2.4531275047683
2.4832241389275
2.455457482944
2.4028928273382
2.3338434508356
2.2572770246072
2.1819702384724
2.1135014831721
2.072155822478
2.0586460579817
2.0525261335069
2.0627232297228
2.0823045103497
2.1109813506675
2.1398972124414
2.1684233302313
2.1957201330541
2.2174313645821
2.2333941640565
2.239528297704
2.2401484870217
2.2388391002696
2.234524025715
2.2303546252376
2.2274329199456
2.224939741797
2.2252513958136
2.2263984895707
2.2308419488954
2.2359031273608
2.2273755244693
4.2088862337948
594.6303176153
514.72273304942
437.06493267884
366.79182469495
311.32642119537
265.15869560103
226.63817812957
193.8504521815
164.79466214789
139.59348634385
116.86255963118
96.826527071053
79.432961772283
64.649286262229
52.347887684811
42.266811141095
34.138124322574
27.670824012655
22.544447846754
18.486431718393
15.27056942836
12.715650517978
10.666607596787
9.0125646798983
7.6743732419062
6.5815959757378
5.6805108231188
4.9330125784192
4.3093285787055
3.7846645320091
3.3404574652094
2.962061576849
2.6381279859932
2.3591642137944
2.1177523316009
1.9079120481894
1.7245237918223
1.5636728557606
1.4219844276241
1.2966430072547
1.1853869239607
1.0863614970937
0.99791797066708
0.91867485904459
0.84746970620678
0.78331961588667
0.72537019228527
0.67288447531542
0.6252356385263
0.58187901408664
0.54240099855997
0.51850230125041
2.1973773285117
2.421188564972
2.3135643084894
2.1844323646586
2.0586118579031
1.9072655611646
1.7799300520125
1.3573688282391
1.3674430156858
1.5444300807331
1.7123621140597
1.86560381427
2.001021660681
2.1164146042679
2.2124986555689
2.293073303549
2.3616665564282
2.4199500062282
2.4680531049977
2.5055440300122
2.5322352002583
2.5480327160718
2.5547033288977
2.5524131951277
2.5430905251649
2.5294060955644
2.5114921151301
2.4910366260168
2.4691502042716
2.4477182948032
2.4286615179368
2.4131820648022
2.4017237659076
2.4054302117395
2.4156641894745
2.4289797909181
2.4441976307431
2.4570672988296
2.4630382792798
2.4566103362199
2.4262750740269
2.3705115867698
2.2982200646743
2.2112675614897
2.1130580756291
2.0092079495837
1.9131032915114
1.8331051501901
1.7882576574768
1.7877473183924
1.8182558000086
1.8844262923537
2.016522905446
2.1474785498285
2.2896401888278
2.3890672436843
2.4581081889565
2.4827583158873
2.4546121665957
2.4046463113993
2.3410181225262
2.2704680748674
2.2005137346809
2.1356696150672
2.0962258677304
2.0812985344932
2.0755383049325
2.085928305845
2.1037191984711
2.1273141731819
2.1502897487396
2.1714174442951
2.1898233418752
2.2046169948203
2.2161255286216
2.2208681957089
2.2214670836367
2.2162784880711
2.2101529314878
2.2040132553738
2.1968093492913
2.1904888717671
2.1852844989129
2.1806463614147
2.1778542564996
2.1653506375094
2.1486760927908
4.3688125426941
440.71889803652
319.16648927137
268.93718671371
238.24575725603
212.66851825966
189.83291759075
168.93016508769
149.85156309144
131.53903038699
114.19456544295
98.001336281518
83.095511800864
69.662790213475
57.79995797505
47.600747221095
39.028470607174
31.934307190558
26.154412025334
21.49162419291
17.750309207791
14.748965787283
12.335941584991
10.390709148925
8.8132072325557
7.5224138515573
6.4643683098811
5.5911156081274
4.8640921796608
4.254030846976
3.7404897008671
3.3050183051404
2.9335276060699
2.6148960802128
2.3399986555855
2.1017786894856
1.894585603607
1.7135080264134
1.5543389050905
1.4139578621301
1.2898443547076
1.1796494586113
1.0814510690269
0.99365189384591
0.91495583715867
0.84422465500529
0.78048378340814
0.7228766332307
0.67068700399811
0.6232981072939
0.58017015734833
0.54086940978258
0.51163306007564
2.132702784962
2.3930561320027
2.2850377398465
2.1551914740698
2.0321813376177
1.8784244286875
1.7376663409244
1.348057819733
1.353004980304
1.5267382388143
1.699319490506
1.8572340786946
1.9963647028498
2.1140675222898
2.2108696843734
2.2911535596843
2.3594363415598
2.4177454881246
2.4661147633725
2.5040619293908
2.5310352864884
2.5476991510339
2.5547585869875
2.5531624131576
2.5444625327989
2.5313192795844
2.5137658389298
2.4930762756888
2.4705942682674
2.448379666447
2.42879975461
2.412498285292
2.4015410731761
2.4037586927645
2.4114187382935
2.4229730396417
2.4363512931861
2.4480615842427
2.4528376802729
2.4446279966866
2.4105348710156
2.3533321905841
2.2804371708458
2.1935639422394
2.0966872324722
1.998514603449
1.9139146038794
1.8456335067308
1.8179745581354
1.8207311624272
1.8493042815735
1.9063842877382
2.0227722894976
2.1425376958533
2.2719340422335
2.3775259084978
2.4503286046868
2.4717422189358
2.4446041557952
2.3992704853973
2.3428777129919
2.2792810324874
2.2161765773103
2.1563590217524
2.1203643677689
2.1036722899163
2.0976220281582
2.1030212410006
2.1166133586713
2.1322545108082
2.147375866092
2.1599355244868
2.1717620710214
2.1761420660918
2.1795556553085
2.1662910307624
2.1563800111179
2.141723863727
2.1247301166783
2.1073825524887
2.0870744533065
2.0668985753264
2.0444668776974
2.0215890021761
1.996459041869
1.9627443032996
1.9206029110845
4.210163111759
14.491177852191
101.29726008973
125.68603306042
134.39106081586
136.17420317641
132.24053595282
124.69964895529
115.43439484425
105.16874288565
94.442958381877
83.587707141718
72.927609498097
62.744951079007
53.302798151139
44.796589122815
37.365141007969
31.018835209715
25.701203576818
21.312539091248
17.723439845889
14.804013043177
12.43267521752
10.502024775973
8.9255814866649
7.6357734476066
6.5685446869095
5.6835747210062
4.9468249617432
4.3298073394838
3.8074008111009
3.3638502761845
2.9857779169237
2.6612584216952
2.3814158079305
2.1387477352137
1.9275287547487
1.7428987499275
1.580745568381
1.4378364048732
1.3113363705284
1.1989212541688
1.0988301692955
1.0094304595359
0.92930699432717
0.85728418772652
0.79237098318369
0.73371973437666
0.68059990995787
0.63236325193759
0.58847854635737
0.54844076335234
0.5106796022103
1.4601199255855
2.3684490339589
2.2860298437137
2.148562834803
2.0366905693803
1.8872500121739
1.7331584840821
1.432602824011
1.3094439818081
1.4607657539248
1.640598057102
1.8080848296714
1.9573346585945
2.0837562253041
2.186274351407
2.2695728487295
2.3397737646134
2.4001047539976
2.4511139028374
2.4920474289137
2.5220979439873
2.5419351408703
2.5517077547869
2.5524092672751
2.5467778048317
2.5351552285791
2.5192345961832
2.4990434585372
2.4761047431564
2.4529760274318
2.4314993328553
2.4128827803011
2.3980402564031
2.3978456954182
2.4023539350178
2.4128194371169
2.4250406063972
2.4354057081568
2.4391789228793
2.4288931601172
2.3915839412511
2.3334553343472
2.2597283957271
2.173479692694
2.0804968711999
1.9941911745122
1.9185852293329
1.8683633731052
1.8539332320391
1.8549549478714
1.8852310264913
1.9326893031175
2.0380877316767
2.1344278132526
2.2368811160632
2.3331694457781
2.4109401955985
2.4346470143209
2.4087490737597
2.3674641277451
2.3143520323562
2.2602254455502
2.2074245247795
2.1590101435104
2.1267968139938
2.1076724049422
2.0995724788718
2.0940914270496
2.0903307294021
2.0832015938961
2.0733238474864
2.059306334956
2.0430879819886
2.017719040964
1.9884455547561
1.9509082209558
1.9111731123179
1.8691800439717
1.8245648343304
1.7806326381186
1.7345958777139
1.6884212650715
1.6422176123577
1.5952886668513
1.5486038324773
1.4941322927119
1.4443088628368
3.6055756601488
6.348050791024
17.640906477786
31.659344335417
43.336746458396
52.232136357136
58.177280654795
61.36524529971
62.246510513345
60.612552029416
57.701845991142
53.795782977779
49.150430995998
44.104822385678
38.932653170322
33.880356155645
29.154603796914
24.886769450122
21.131987578852
17.90148449873
15.165610086779
12.871391802516
10.959383731337
9.3687519731858
8.0445710371136
6.9401023709643
6.017475203004
5.244972335071
4.5915574500013
4.0376393479358
3.567329715356
3.1657058371022
2.8207960410881
2.5219783056837
2.2634538217538
2.0383357151234
1.8417675592767
1.669031319711
1.5168280903285
1.3822306820998
1.2626783341681
1.1562286028019
1.0612855084325
0.97623924757714
0.8998835869367
0.83109428665331
0.76897858520992
0.71274686746036
0.66174784244685
0.61538853633998
0.57314583208559
0.53453665748694
0.49758860937556
1.7627627171433
2.2866792222234
2.1807922260169
2.0461587677834
1.9321607387184
1.7643445970848
1.5899470000678
1.2799501445849
1.2855852895332
1.4520031134955
1.6418171628632
1.8235382883505
1.9820224174949
2.1088711449379
2.2059639533351
2.2820063380859
2.3466334009217
2.403224522764
2.4514709366255
2.4897345077185
2.5179529358726
2.5354898409904
2.5444457133181
2.5454447054546
2.5399866469773
2.528408230606
2.5106340239946
2.4874281719037
2.4617984859156
2.4354907860206
2.4114090522588
2.3910122058607
2.3801660366975
2.3705895609729
2.3697537134898
2.3809933709068
2.3918859697604
2.4003664098245
2.4025932305116
2.3859002783202
2.3440123441666
2.2861971207355
2.2163931474887
2.1383962149295
2.0639300064876
1.9996480550904
1.9570524847894
1.9390207967517
1.9353512340337
1.9446533819921
1.9654320611815
1.9938130947942
2.0592094572524
2.1191904207832
2.1768185639175
2.2281048970182
2.2712023794706
2.2751536802115
2.2420562471226
2.2016161661272
2.1520373261798
2.0980568186122
2.0453434726857
1.9936294424011
1.9496097341159
1.9057414035724
1.864884760029
1.8168313541033
1.7667543243354
1.7116514770237
1.6534033340317
1.5925858308517
1.5329238438799
1.4735878744354
1.4151860388203
1.3569700501311
1.3015868728709
1.2493883099759
1.2000687554954
1.1544069745607
1.1117365137971
1.0716884271989
1.0351618770589
1.0013941103658
0.97050116881476
0.93232666723416
0.91885823663521
2.1677299867484
5.1189015618021
7.5982924977869
12.534268426012
18.402399472696
23.925757402489
28.633891081986
32.28800686421
34.818237249933
36.246029131603
36.489133060202
35.61205334079
34.046723374784
31.840202126933
29.184024248327
26.29890431024
23.356000508642
20.505067270681
17.852904526538
15.456042886921
13.340004927267
11.503582618554
9.9279244046183
8.5857891906455
7.4462773308043
6.479453001133
5.6588071072521
4.9614303757641
4.3672468220501
3.8601502049621
3.4247669541009
3.0488988044145
2.7247947872925
2.4435804304647
2.1986762030902
1.9845088943204
1.7964209584692
1.6308681706673
1.4846356873042
1.3546005833676
1.2389408980681
1.135960304388
1.043784124478
0.96112058460043
0.88672977448202
0.81953861229984
0.75881866108814
0.70383117325186
0.65387455662217
0.60840318691813
0.56692280153599
0.52905132756694
0.49347374422921
1.2106385098127
2.1969336296897
2.0975154611761
1.9581489246705
1.8250889221275
1.6339174189203
1.444635892858
1.2008019010018
1.2031640400604
1.3614058500533
1.5623471469907
1.7685860738068
1.9562019853311
2.1057976419891
2.2081952111849
2.2794772239616
2.3389508773138
2.3922636246125
2.4385979167755
2.4764863645347
2.5031133403389
2.5211223158263
2.5320974973831
2.5338989058984
2.5298317724565
2.517084054043
2.4968851961191
2.470226227275
2.4407988798904
2.4111764634389
2.3834155904813
2.360305615586
2.3493541652623
2.3339499002549
2.3285321644926
2.337140867872
2.3460704357395
2.3537008510905
2.3484522267639
2.3285284035628
2.2932872095471
2.2427065997158
2.1797232748048
2.116574806982
2.0611713298509
2.0228497554317
2.0064774940219
2.0019094232666
1.9977386305474
1.9972646877672
2.0053687197888
2.0231393696044
1.979951783208
1.9522997794741
1.9210553049919
1.8917375660054
1.8594567187496
1.8306020314989
1.7677048860876
1.707322136296
1.6443235304737
1.579360290179
1.5167096550471
1.4554044973193
1.3963616745259
1.338746310372
1.2821849857172
1.2265432672125
1.1716310736013
1.118585804315
1.0685890119598
1.0219284126591
0.97931217981484
0.94023036613876
0.90461495063372
0.87218915412091
0.84249480365648
0.81541277301333
0.7905931487515
0.76829001191678
0.748190512217
0.72955966928894
0.71255720597187
0.69666288846027
0.6819564729601
0.65953838711924
0.67007402377254
1.4791475982527
4.1089898059552
5.3369426033166
6.8715894003381
9.8128326880752
13.063697491506
16.161612049357
18.915775678446
21.180754961151
22.871771411099
23.9239963142
24.300024873559
23.934066373244
23.120714932907
21.877979955856
20.314461077314
18.556050722147
16.715046615021
14.89936284346
13.174481616953
11.584577783379
10.15386481121
8.8881836772818
7.7809576082746
6.8199832704091
5.9893641260435
5.2725970337297
4.6547861221718
4.1221143700869
3.662126827012
3.2638848825184
2.918250878571
2.6177395101357
2.3550311617965
2.1248879710892
1.9225723692905
1.7443002502943
1.5865357206951
1.4466949734012
1.32235169185
1.2114542522054
1.1123119183363
1.0234196676557
0.94331760755489
0.87108906830072
0.80590321443018
0.74688034392247
0.69330256646504
0.64456584685462
0.60018226291009
0.55963037167946
0.52254414766413
0.4883112381549
0.66673714630339
2.0865627104177
2.002572111778
1.8478057130383
1.6775110840141
1.4689773736247
1.2789736371179
1.1015630113381
1.1005162723905
1.248868481296
1.4617664626045
1.6951743229838
1.9149173602298
2.0914743392173
2.2105800563028
2.2809479995638
2.335360866868
2.38477787444
2.4275497718818
2.4625363487321
2.484116549511
2.5025557313459
2.5156756759248
2.5173425384149
2.5120690470163
2.4966754789348
2.4721968524333
2.4420413898257
2.4084017076508
2.3750779727471
2.3445964816065
2.3181228297608
2.3058473619804
2.2890496319063
2.278627154924
2.2735010738068
2.2704549726051
2.2646841396967
2.2490446280615
2.2252724909006
2.1902275230533
2.1397718840761
2.0837471840909
2.0337923089927
1.9977610843681
1.9725629869382
1.9481394261706
1.9229080002462
1.8933835105894
1.8488867625422
1.8047101118811
1.7422479177916
1.5475289331386
1.4515646331596
1.3800777518707
1.3190304486687
1.26500413684
1.2182583128857
1.1585192130121
1.1076009925544
1.060164497944
1.0165812520649
0.97619489518595
0.93811437727413
0.90206543241335
0.86735200358664
0.83399440479489
0.80235836607445
0.7723788989985
0.74427705122771
0.71834733752886
0.69450262029809
0.67269782787658
0.65284289186387
0.63470435614346
0.61812831227851
0.6027001829302
0.58835282744672
0.57500878634871
0.56276748093276
0.55164026546547
0.54128390188125
0.53166467648826
0.52249563960322
0.51368246053104
0.50083697463272
0.51556638835601
0.99270661189495
3.3545395083132
4.3958510318318
4.7506157219158
6.1317044605795
8.077535929996
10.10132375002
12.040929121296
13.789885424092
15.234270513907
16.316641931962
17.048478488583
17.27571329472
17.069251380479
16.561099370906
15.773624930977
14.752054087659
13.593229229276
12.371533092451
11.153030701067
9.9811752196534
8.8868579190047
7.8882533899049
6.9909928162039
6.1940080263386
5.4914734654149
4.8750473043421
4.3355509796432
3.8641149616691
3.4522462895336
3.0921704778705
2.7769086981891
2.5002685425819
2.2570798888126
2.0428528424095
1.853741695118
1.6863370261494
1.5375768485835
1.4049458709279
1.2865413987912
1.1806716490393
1.0855235392428
1.0000223413183
0.92300217104894
0.85342563509905
0.79043834044654
0.73332796101767
0.68135252624651
0.63401279215458
0.59080190936847
0.55123935157729
0.51497843850578
0.48186097959406
0.47943127073718
1.947073056364
1.8971916551247
1.7251919503596
1.5191316387479
1.3022384719908
1.1171032685213
0.98525220569816
0.98706346636342
1.1303935220561
1.3581652686463
1.6237915022449
1.8808474416435
2.0839976800507
2.2156952978303
2.2883052742547
2.3396425277874
2.3840420077778
2.4212983904834
2.4479678048287
2.4613757016068
2.4829657065919
2.4885739851698
2.4968550993222
2.4860485508485
2.4677022455016
2.4394448044506
2.4034557617096
2.361668062975
2.3211062556856
2.2800092761432
2.2400506177988
2.2205530677574
2.1876167607791
2.1514071948744
2.1139517111534
2.0749860628375
2.0302195020242
1.9793553550664
1.924150291224
1.8654924153831
1.8029831949518
1.7436606444243
1.689371515067
1.6396840695581
1.5916533182211
1.5400115743157
1.48397842193
1.4237489156894
1.3551956624877
1.2894668778529
1.2045920377784
1.0374172596857
0.96373825780285
0.9132684898098
0.86937902430821
0.83001887047708
0.79554116522411
0.76249130057882
0.73321212988638
0.70753350734914
0.68487785620409
0.66383986708834
0.64358738775597
0.62418930030993
0.60541364240001
0.58716928513262
0.56975358007155
0.55314545330824
0.5375901023611
0.52317238105055
0.50979664657331
0.49739102036093
0.48588268139241
0.4751963736539
0.46528886506699
0.4560648255965
0.44750136946919
0.43957701884467
0.43227692703127
0.42557960746222
0.4193046048463
0.41340609668508
0.40771431530637
0.4021342693467
0.39470858235627
0.40793418470535
0.65408146877997
2.7536950172202
3.7597773988161
3.8211331639978
4.3473562679388
5.4848739184084
6.8323759061546
8.1969114322424
9.4975986258469
10.641462380127
11.593784125566
12.299222012647
12.786871252595
12.896507772948
12.682055103883
12.331959851043
11.776571052853
11.064679958712
10.259286562845
9.410090964182
8.5592226356156
7.7348756193726
6.9576929889916
6.2406152716124
5.5885287104225
5.0020643457506
4.4784913249177
4.0130526208316
3.600588145545
3.2357949006084
2.9134570630037
2.6286402498519
2.3767456408946
2.1536110530761
1.9557059682422
1.7799215663602
1.6233786845894
1.4839466687387
1.3588756458077
1.2469318882345
1.146429896873
1.0559907740759
0.97443542730354
0.90078667974216
0.83399889770405
0.7733047426711
0.7180996308242
0.66787076764806
0.62205331912436
0.58017168838813
0.54179746499306
0.50665946779187
0.47431300647927
0.44447695482048
1.714359422571
1.7875722618085
1.6083157661011
1.3832554806409
1.163573896169
0.98352097018165
0.87388382299273
0.88355013269575
1.0297829254846