/*--------------------------------*- C++ -*----------------------------------*\
| =========                 |                                                 |
| \\      /  F ield         | OpenFOAM: The Open Source CFD Toolbox           |
|  \\    /   O peration     | Version:  2312                                  |
|   \\  /    A nd           | Website:  www.openfoam.com                      |
|    \\/     M anipulation  |                                                 |
\*---------------------------------------------------------------------------*/
FoamFile
{
    version     2.0;
    format      ascii;
    arch        "LSB;label=32;scalar=64";
    class       volScalarField;
    location    "4e-05";
    object      rhoHat;
}
// * * * * * * * * * * * * * * * * * * * * * * * * * * * * * * * * * * * * * //

dimensions      [1 -3 0 0 0 0 0];

internalField   nonuniform List<scalar> 
109340
(
661.17925105241
661.1760413855
661.16800942429
661.1578177307
661.14620573599
661.13357048385
661.11963387786
661.10386539584
661.0856765
661.06374687952
661.03647289996
661.00216500956
660.95889058085
660.90440737394
660.8361077588
660.75094817154
660.64533422928
660.51498271201
660.35473046687
660.15828431992
659.91789483293
659.62396126352
659.26451074963
658.82448173701
658.28474487748
657.62070594167
656.80027048281
655.78075504634
654.50401515448
652.88839981734
650.8147318184
648.10027041255
644.44705556831
639.33419233944
631.78175999393
619.79309053729
661.18055849677
661.17584107372
661.16658135515
661.15554977453
661.14348887409
661.13066818448
661.1166937787
661.10080559952
661.08196476842
661.05891464492
661.03014330624
660.99391252181
660.94821343433
660.89071509212
660.81870568122
660.72900761746
660.61787598403
660.48083008638
660.31245075871
660.10611444645
659.85365050266
659.54491597541
659.16723782263
658.70463793636
658.13676522411
657.43736671575
656.57203691984
655.49477225398
654.14248028423
652.42578834731
650.21277332308
647.29795056057
643.33857701869
637.71533356676
629.18985905639
615.10949776158
661.18349030231
661.17771442917
661.16733280255
661.15600629139
661.14409409225
661.13154686435
661.11776150427
661.10197218771
661.08322770983
661.06028971349
661.03165737137
660.9955872613
660.95006460852
660.89275498267
660.82094726262
660.73147070481
660.62058062234
660.48380023335
660.31570975702
660.10968356765
659.85753683982
659.54910660557
659.17168637135
658.70925691724
658.14140251979
657.44178254693
656.57587189029
655.49750837743
654.14339168767
652.42386606323
650.20659943075
647.2851865528
643.31256269563
637.64867472529
628.95316381694
614.01710286536
661.18756882867
661.18020288597
661.16921828347
661.15752915332
661.14538945355
661.13264112455
661.11876502201
661.10299233566
661.08433317351
661.0615367111
661.03310003124
660.99727218944
660.95202800884
660.89502333759
660.8235333459
660.7343691836
660.62376395518
660.48721238545
660.3192455148
660.11317587462
659.86070788895
659.55153040746
659.17273057256
658.7080049903
658.13655016968
657.43148522898
656.5575430736
655.46754232844
654.09676728334
652.35354741087
650.10257853586
647.13295926331
643.08643951489
637.28703931453
628.23046503918
611.67322747193
661.19397395805
661.18382282137
661.17095952511
661.15834964911
661.14586153984
661.1330642278
661.11930265845
661.10377144522
661.08542609971
661.0629772816
661.03489780248
660.99939600683
660.95438929865
660.89744785022
660.82572634883
660.73586966472
660.62388138561
660.48493983465
660.3130730689
660.10106446896
659.83976340181
659.51775030397
659.12059109975
658.62995489953
658.02227313772
657.26693392016
656.32360210547
655.13818911641
653.63646643977
651.71342729907
649.21419647378
645.90048827382
641.36360977682
634.82434446258
624.44367020612
603.87828967847
661.2058022917
661.18569027194
661.17128953259
661.15833920866
661.14577684739
661.13283192396
661.11862143813
661.10202255548
661.08161579256
661.05561246627
661.02185550322
660.97776521992
660.92028022616
660.84576614695
660.74987887536
660.62737347935
660.47187597927
660.2756769833
660.02947877677
659.72034937599
659.33257449053
658.84621507433
658.23587302387
657.46906485477
656.50398167865
655.28639231387
653.74517625016
651.78572953571
649.27965707111
646.04777344335
641.83018685558
636.23310116083
628.5925145204
617.65310520309
600.38033952423
564.61405763211
599.65353967265
566.74646185709
518.21350025243
455.82661230495
385.18724251515
311.73192536346
241.02006159091
177.72016904078
124.84283206061
83.665393227947
53.394873335513
32.94705903989
20.055300765373
11.987640645376
7.1725803855424
4.3152669377255
2.6294212817775
1.6321898775794
1.032599145357
0.66652612740369
0.43991097070051
0.29653823528198
0.20371344313177
0.14263886938151
0.10167973137214
0.073637966146075
0.054132802578308
0.040372597877818
0.030492716474623
0.023307682321591
0.018010993567543
0.01406374982723
0.011086137525282
0.0088134406326725
0.0070646071459253
0.0057066870837172
0.004641709302972
0.0037998143738198
0.0031302283801946
0.0025938623616131
0.0021608754567088
0.001809309238501
0.0015223591479561
0.0012868477928825
0.0010925136382911
0.00093134940797557
0.00079705493521753
0.00068462729003704
0.00059008663326721
0.00051018534679403
0.00044276840318458
0.00039027249974688
0.0058794499645112
0.00903646806798
0.0083368738343204
0.0073481540082798
0.0065546181604703
0.0056940140738935
0.0051976487801706
0.0029795808133803
0.0026225124807422
0.0033443839568068
0.0040804732891422
0.0048190806623694
0.0055334707812991
0.006191967325091
0.0067812796959501
0.0072980897181658
0.0077500788767737
0.0081439548806244
0.0084798073796462
0.0087520798353911
0.0089521083287369
0.0090764278214244
0.0091302302390655
0.0091196532249587
0.0090623037056021
0.0089687306391677
0.0088469508893079
0.0087023129572943
0.008554985661863
0.0084104682951187
0.0082751281315394
0.0081653380841282
0.0080918223878061
0.0080945935137384
0.0081648534022225
0.0082986590780543
0.0084447070591769
0.0085569216649009
0.0086255213280744
0.0086147390663527
0.0085144756671007
0.0081943314706772
0.0077402877660373
0.0071550486091967
0.0064861320469194
0.0058106694337732
0.0051835029457743
0.0046553772667324
0.0042545770544431
0.0041645564107156
0.0043530576413673
0.004836331336534
0.0058621691116478
0.0067200303329091
0.0075251653803785
0.0079840500212294
0.0083479306600798
0.0086343599139136
0.008495991695832
0.0081425176980305
0.0076340780930382
0.0070351170999743
0.0064595094361737
0.0060423364520217
0.0057740045587482
0.0056994644126105
0.0056730579934876
0.0056999518325589
0.0058088890515924
0.0060098242987943
0.0062759174009437
0.0065561360841366
0.0068307682016053
0.0070689572668647
0.0072792388061544
0.0074128511102267
0.0074310762407661
0.0074162244741949
0.0073506341424183
0.0072813521320914
0.0072340576305607
0.0071938733014547
0.0071788119534477
0.0071740059481633
0.0071853684952741
0.0072253974528032
0.007219122061517
0.033102063114073
590.02828318526
548.46214536555
489.78003862232
419.65027187876
344.44803965346
270.59593196129
203.46926141394
146.48495091877
101.11504276075
67.068383134092
42.885766447949
26.596653241523
16.303824309948
9.9135450897386
6.0024771936564
3.6615031819772
2.2599793911493
1.4171534598806
0.90576999611618
0.59059519907226
0.39281637918589
0.2665515682938
0.18445252851546
0.12993739340735
0.093081149640931
0.067763766528374
0.050055236095205
0.037468388070155
0.028404970713926
0.021785713569208
0.01688883661739
0.013223088743453
0.010448625057007
0.008327466206147
0.0066896638075384
0.0054133662620426
0.0044111268499276
0.0036178569224257
0.002985054232346
0.0024768262584143
0.0020661621573741
0.001732355121604
0.0014594243917143
0.0012350321348038
0.0010495853286426
0.0008955796243586
0.00076709862722391
0.00065940411067578
0.00056876772567049
0.00049210580833181
0.00042715426814721
0.00041674686847537
0.0077160212944354
0.0087762126231197
0.007977419930258
0.0071012575617062
0.00629595961004
0.0054645529896575
0.0049332941147036
0.0025965811496227
0.0027629393597153
0.0035173641717969
0.0042576867602873
0.0049968160288625
0.0057032764691749
0.0063510300869449
0.0069278732623661
0.0074338116482182
0.0078764416262609
0.0082603233628777
0.0085838633947226
0.008839830805603
0.0090216188193675
0.0091286451960406
0.0091661499553748
0.0091456541617148
0.0090773493892953
0.0089751004945442
0.0088424219157273
0.0086958845918974
0.0085475290520436
0.0084026108843935
0.0082724750450462
0.0081705913527905
0.0081104359038564
0.0080879369063598
0.0081425900729641
0.0082783083126423
0.0084244173286954
0.0085380248813332
0.0086056462282067
0.0085924678012823
0.0084767148683729
0.0081464814167438
0.0076953139600247
0.0071379530252833
0.0064896074651819
0.0058208968955262
0.0051966994474673
0.0046698474740552
0.0042843167780469
0.0041882455771063
0.0043812484725325
0.0048448188274566
0.0057124016036809
0.0065305271088048
0.0073914608444672
0.0079151030996538
0.0083257718874536
0.0086018679654076
0.0084714853307246
0.0081420052153782
0.0076518958836624
0.0070730432811588
0.0065160788498373
0.006087961882181
0.0058274689716686
0.005754334217086
0.0057274031676222
0.0057591270363369
0.0058727615576175
0.0060722284373309
0.0063149232715025
0.0065634320435408
0.0068027984887467
0.0070098976356752
0.0071448524406383
0.0072373384281454
0.0072389730710727
0.0072315268674799
0.0071876135218423
0.0071413746479179
0.0071101430911304
0.0070837242650219
0.0070785523063432
0.0070794972238724
0.0071050848731682
0.0071467244739272
0.0071584218530445
0.026064245681752
584.78396766923
532.90631567378
462.77671041018
381.8084748837
302.6912358877
230.7948583848
169.3441137849
120.07071164961
82.459731562271
54.615234540668
35.735277120112
22.744626997606
14.230622654464
8.8228703369304
5.4534572645187
3.3810268029923
2.1146964975485
1.3411772452207
0.86547911025499
0.56840282595806
0.38012457347684
0.25919449091041
0.18003967006299
0.12720340914828
0.091365737480396
0.066664367890001
0.049326145294101
0.036985988489158
0.028077098411068
0.021558367338725
0.016729216654911
0.013108667933549
0.010365674966205
0.0082667175566478
0.0066445556615209
0.0053796978558682
0.0043858798317793
0.0035986806804229
0.0029702761441692
0.0024654384196789
0.002057375824831
0.0017254853594737
0.0014539843138708
0.0012306847176431
0.001046090447953
0.00089275759104779
0.0007648021773865
0.00065752546395637
0.00056719992817222
0.00049082635137387
0.00042611194262532
0.00040808307274076
0.0075444953305097
0.0086848450741654
0.0078957616941717
0.0070236582155734
0.0062284741219898
0.0053893676171164
0.0048291858939975
0.0026093657908868
0.002739918696568
0.0034951582334264
0.0042448062424192
0.0049933031612592
0.0057087671956415
0.0063639779973848
0.0069467074402327
0.0074584962818109
0.0079064780263933
0.0082947819825883
0.0086215929117497
0.0088794684202864
0.0090635796854142
0.0091721275702903
0.0092112940688898
0.0091924506643477
0.0091242962914153
0.0090194336901299
0.008884952089292
0.0087407920871976
0.0085910320647238
0.008445365192725
0.0083148148790895
0.0082129263326811
0.0081409212155452
0.0081546497857885
0.0082360517741393
0.0083660935432901
0.0084989234167105
0.0085999625606874
0.0086550257757358
0.0086296798709142
0.0084747978192539
0.0081202753372249
0.0076577876832027
0.0070943292464829
0.0064584025314645
0.0058079724185518
0.0051978449708034
0.004688591708895
0.0043355147575612
0.0042458544528845
0.0044631861330653
0.0049060397328926
0.0057614152179322
0.0065908347476595
0.0074838374262689
0.008034289304367
0.008465231571309
0.0087124632740196
0.0085346187711686
0.0081716408205632
0.0076791928923612
0.0071318128680815
0.0066179465163287
0.0061876928890263
0.0059355562016403
0.0058648266079939
0.0058310542232398
0.0058814867217283
0.0060054990777836
0.0062030308472463
0.0064139541952297
0.0066292143243292
0.0068388884654378
0.0070049675248893
0.0071285197884245
0.0071916259661919
0.0071941742642667
0.0071968904452286
0.0071672779723704
0.0071378642084503
0.0071179783914381
0.0070995153250362
0.0071001261899961
0.0071040220217564
0.0071329389101411
0.0071645022753812
0.0071109900308053
0.022817913193239
572.91599506337
497.6661204174
406.41214674013
313.55450877189
235.35129539591
172.40467558713
123.75067075528
87.282839103438
60.504394787098
41.138301297267
27.70872469093
18.27914400923
11.820791274229
7.5493749059414
4.7824628244933
3.0300078560153
1.931807300631
1.2435344634554
0.81157739011905
0.53855879488694
0.36359955338881
0.24937044957978
0.17399532297356
0.12353691150976
0.08907968186042
0.065139865116327
0.048326890449012
0.036322730522609
0.027622021473153
0.021241028368083
0.016504628396222
0.012948929436055
0.010249974784522
0.0081808118124269
0.0065807546864471
0.0053327099108695
0.0043502985025647
0.0035712248274506
0.002949423318835
0.0024495339262682
0.0020450014925963
0.0017157133316259
0.0014462486330105
0.0012245380294621
0.0010411710939947
0.00088879180365908
0.00076157986210978
0.00065489541793595
0.00056503597410018
0.00048905695650259
0.00042467610397601
0.00039822045269111
0.0072957801049807
0.008553236378265
0.0077753183176346
0.0069112583931163
0.0061320262511551
0.0052863894707929
0.0046801163588952
0.0026167679347262
0.0027043494227745
0.0034528533824167
0.0042152622556124
0.0049775428423695
0.0057056672844362
0.006369276375854
0.0069558727825441
0.0074710192262311
0.0079233315258329
0.0083162151304079
0.0086466131604355
0.0089070987101336
0.0090942373349567
0.0092043797030343
0.0092469590698969
0.0092286280260385
0.0091600181992568
0.0090559260575134
0.0089233528365518
0.0087795640305464
0.0086273283180476
0.0084802977211518
0.0083493951643385
0.0082465463862285
0.0081694142236488
0.0081941302145121
0.0082723299617684
0.0083824980217915
0.0085020471402375
0.008597189286629
0.0086457766033945
0.0086098463653936
0.0084224522395675
0.0080525003209355
0.0075786126980351
0.0070158912661129
0.0063996561890027
0.0057716703548452
0.0051907199849675
0.0047181147130699
0.0044150785806871
0.0043764550671528
0.0045639760069083
0.0049583073431503
0.0057555324972398
0.0065580556519342
0.007478186908886
0.008076136797087
0.008531289412443
0.0087381201293129
0.0085417337867657
0.0081783263646567
0.0077138469051232
0.0072151227451922
0.0067415664345529
0.006325422269406
0.0060814088236203
0.0060026093220729
0.0059670076892329
0.0060264863336559
0.0061413188152741
0.0063111562983065
0.0064847066220421
0.0066581524459397
0.0068262766538534
0.0069612418665081
0.0070610318596054
0.0070990514556706
0.007102198115017
0.0070936381598221
0.0070659302453304
0.007039293311641
0.0070206255640946
0.0070045799533265
0.0070062185629594
0.0070130125371133
0.0070404705053084
0.0070718131375993
0.0070169872748926
0.025052935205172
533.00998470105
399.1671831289
287.57984217707
202.35191672274
145.64464461988
105.54813086517
77.031366634231
56.295303203861
40.638153469321
29.124325680134
20.385327155452
13.97522253307
9.3915660730794
6.2115299870216
4.0661368291384
2.6465589440146
1.7236913932665
1.1306557729864
0.74935654027164
0.50310781340751
0.34279639139647
0.23735715402313
0.16680309917247
0.11893342098192
0.086134011333834
0.063279240407364
0.047087609053911
0.035474332739771
0.027045083967666
0.020841261242237
0.016221896439981
0.012744266573955
0.010101197491383
0.0080716962259713
0.006499566638873
0.0052716800187542
0.0043040730620529
0.0035363498924563
0.00292271250327
0.00242873818154
0.0020286771934341
0.0017029559427368
0.0014362005920726
0.0012165443750286
0.0010347579850344
0.00088361209917276
0.00075736203247023
0.00065143665548395
0.00056220034931354
0.00048672730995081
0.0004227524839624
0.00038738583661568
0.0069705831533096
0.0083866822487657
0.0076194429735992
0.0067639685206395
0.0060054847033388
0.0051552581409076
0.0044898302251397
0.0026053501853656
0.0026578502975296
0.0033914279442833
0.0041681103110813
0.0049467095499185
0.0056899955208134
0.0063642722279189
0.0069545360836605
0.007469866029302
0.0079231540773108
0.008318729130226
0.0086523091863779
0.0089165389793155
0.0091067080078937
0.0092196748615363
0.0092669771592391
0.0092493436371801
0.0091807778795383
0.0090810779743693
0.0089519096410156
0.0088058537865243
0.0086511352996195
0.0085011250815676
0.008368933339356
0.0082624184729427
0.0081837193072456
0.008209545769712
0.0082797821746334
0.0083716051358307
0.0084769187196843
0.0085664053782457
0.0086078311125055
0.0085624054609266
0.0083509786424107
0.0079705807617474
0.0074908922667536
0.0069337342770068
0.0063305558691722
0.005722944271227
0.0051883036767053
0.0047633260924875
0.0045341434012756
0.0045324044775368
0.0046889933698688
0.005037166131943
0.0057688729592025
0.0065420006869088
0.0074364421823212
0.0080933941815244
0.0085667049576355
0.0087356209844076
0.0085364852450955
0.0081909700981382
0.0077621554130203
0.0073007274329666
0.006857747668318
0.0064599019340039
0.006224367288437
0.0061363530967058
0.0061024498447524
0.0061637015776195
0.0062690302841353
0.0064098886221347
0.0065484224491557
0.0066769266638707
0.0067896397258873
0.0068803729446816
0.0069507044549253
0.0069790634624423
0.0069812194810228
0.0069475661820526
0.0069076581797298
0.0068676577778937
0.0068210080908875
0.0067797897726178
0.0067452446818272
0.006713926403473
0.0066936438623886
0.0066135643768677
0.0065078852725851
0.026823841196349
292.63396086992
153.23858075772
108.67939932887
85.215747023152
67.841023580311
54.006306467865
42.728958122467
33.590517768412
25.856239052708
19.465911683889
14.319904224088
10.282163778208
7.2168624075096
4.9611873131207
3.3598241673441
2.2552469044543
1.5075810736756
1.0097043619871
0.68075780649789
0.46369708911944
0.31969507859353
0.22334273476782
0.15825525073126
0.11371081846438
0.082744795241399
0.061037190300131
0.045612303617975
0.034486568445604
0.026353085663065
0.020355988807548
0.015878351420389
0.012499032978143
0.00992351258872
0.0079406307132297
0.0064015683236276
0.0051980761143824
0.0042491021103404
0.0034941275965676
0.0028897089961377
0.0024032564656589
0.0020090246934439
0.001687548455511
0.0014239119462405
0.0012066869613765
0.0010268268968581
0.00087720893472754
0.00075215047372268
0.00064717753998345
0.00055871162412158
0.00048386462204641
0.00042036204923135
0.0003767137534979
0.006570206469994
0.0081940661598572
0.0074351117771543
0.0065850635985196
0.0058527526119017
0.0050007380302817
0.0042794651224944
0.002570446414405
0.0026022447535936
0.0033150067835779
0.0041059167574731
0.0049036026921434
0.0056647846891482
0.0063513938108994
0.0069455181598692
0.0074586481382473
0.0079095954230382
0.0083050920638819
0.0086403208419803
0.0089076412005631
0.0090997778729243
0.0092189305213437
0.0092689900307157
0.0092562311642053
0.0091920809582979
0.0090961637281914
0.008969431153659
0.0088215311091617
0.0086624903193857
0.0085069548044254
0.0083711648758169
0.0082590607656128
0.0081837236447799
0.008199595372302
0.0082522862478385
0.008331843188718
0.008424209652528
0.0085053372038555
0.0085382840128854
0.0084805695733854
0.0082443266341188
0.0078566620634009
0.0073764937528802
0.0068241996871414
0.0062338104132964
0.0056630994134064
0.0051934443370651
0.0048297022099364
0.0046867114776086
0.0047014331087534
0.0048505664547314
0.0051551284092317
0.0058043652412487
0.0065113265879049
0.0073218525381376
0.0080156975698333
0.0085126152704746
0.0086578971400697
0.0084666684193637
0.0081542691591445
0.0077745273412027
0.0073575647715063
0.0069556443374803
0.0065854976510042
0.0063681168840866
0.0062683713145026
0.006232092782088
0.0062638190364646
0.0063441414198357
0.0064369260872321
0.0065269320463757
0.0066014071297937
0.0066714258332947
0.0066953651124591
0.0067126622053792
0.006627481953593
0.0065629644998473
0.0064698267916361
0.0063628812036312
0.006254302027803
0.0061287143979194
0.006004560277955
0.0058679980316629
0.0057297288676543
0.0055797049699491
0.0053837329075588
0.0051442944594424
0.024488755098221
0.31302006305902
15.375160408515
23.665322284413
27.045526451391
27.754203842705
26.158120766865
23.244058916967
19.903135311263
16.506644082048
13.299225168185
10.407201478368
7.9132393473922
5.850724365833
4.2169385450154
2.9744162111403
2.0665047162088
1.4221046434206
0.97490154159689
0.66942490211519
0.46229261508141
0.32209689734061
0.22687357931961
0.16167770463616
0.11664070025603
0.08526678313457
0.06302795891038
0.047138964782346
0.035674244331421
0.02730376014035
0.021093489744126
0.01645079996046
0.012949938763442
0.010279814038336
0.0082251978568411
0.0066295428556948
0.0053810579355391
0.004396606220177
0.0036142523988023
0.0029884553164841
0.0024842753072156
0.002075421046263
0.0017423990178309
0.0014696358538206
0.0012449545071765
0.0010589385688859
0.00090421411499031
0.00077495063592381
0.00066650515265809
0.00057512987569908
0.0004978667129617
0.00043224829475996
0.0003745826086039
0.003148166034785
0.008039381447281
0.0074539112428709
0.0065499796140327
0.0058793205893211
0.0050481818178016
0.0042586835504628
0.00289598667612
0.0024363079264378
0.003035773554531
0.0038285178881428
0.0046491244528699
0.0054470752539137
0.0061720485068788
0.0067931881062586
0.0073200465559626
0.007779597551326
0.0081857422908254
0.0085370346628229
0.0088239674639281
0.0090372890522783
0.0091789716716391
0.0092485544254437
0.009252265222941
0.0092102474898876
0.0091252144691949
0.0090099116475484
0.0088651538754592
0.008702450060535
0.0085401517806987
0.0083910117534485
0.0082629291085397
0.0081611746806081
0.0081606604895175
0.0081917066134647
0.0082635289223041
0.0083475364451804
0.0084189529408776
0.0084447384669826
0.0083728797677738
0.0081162995442323
0.0077254897848373
0.0072440176712929
0.0067005002821476
0.0061384689751947
0.0056392652985118
0.0052194145169617
0.0049503119802492
0.0048743992145954
0.0048799300484463
0.0050407519297089
0.0052978704371049
0.0058915538554882
0.0064609337296648
0.0070960653998826
0.0077181720158257
0.0082389589161367
0.0083966733711125
0.0082162820149998
0.0079351119091431
0.0075816301502312
0.0072301106997843
0.0068951422704706
0.0065954825678016
0.0063993333398926
0.0062837278875305
0.0062332840668993
0.0061977843437315
0.0061716896850004
0.006124351325886
0.0060603960135261
0.0059715640356242
0.0058697924243614
0.0057159081962972
0.0055413010905141
0.0053238035092633
0.0050983209614672
0.0048654684542024
0.0046242977825921
0.004392137393374
0.004155276904819
0.0039238451402976
0.0036983196614895
0.0034758877392342
0.0032610802163489
0.0030214325197522
0.0028066349755187
0.017156005616398
0.05943558468037
0.46255208309757
1.4912248516747
2.7954893022675
4.0617153373181
5.0389204253295
5.605216207535
5.7652328520979
5.4637642573886
4.9484895459922
4.2979870505577
3.5846932998225
2.8837355613794
2.2446841417229
1.6979786360057
1.2558286114153
0.91392988926144
0.6581197682819
0.47167951652987
0.3380942386761
0.24323617597218
0.17612544916806
0.12855913682846
0.094678875528587
0.070389252069192
0.052862703156308
0.040121176092733
0.030717780651832
0.023731772686184
0.01850897611999
0.014563690381309
0.011553845503146
0.0092284782220653
0.0074280754526512
0.0060197720208208
0.0049114051014345
0.0040307019793495
0.0033269936918894
0.0027610812671404
0.0023027900229433
0.0019298109133201
0.0016250186862226
0.0013742987896083
0.0011671410485262
0.00099504102385317
0.00085146358182775
0.00073115890608677
0.00062999178670808
0.00054458371440802
0.0004721884556923
0.00041055142416913
0.00035564677597927
0.0045333954772353
0.0074870730237659
0.0067800035081418
0.0059397023384702
0.0052920797171772
0.0044128331178721
0.0035832656578556
0.002320869761417
0.0023510694201117
0.0030015467058377
0.0038374472604745
0.0047328330930632
0.0055891219599806
0.0063246892400755
0.0069183976191787
0.0074025738672079
0.0078274641777178
0.0082093364830542
0.0085418331801406
0.0088098410518702
0.0090096663823576
0.0091343436013145
0.0091977245990269
0.009203480303249
0.0091628435670841
0.0090784281845684
0.0089502458639563
0.0087847764822602
0.008604078679157
0.0084207977834425
0.0082549527608116
0.0081158756397346
0.0080421474690979
0.0079780899172004
0.0079727685899376
0.008048790808949
0.0081225225570831
0.0081799830470866
0.0081946137056335
0.0080799752779117
0.0077974708306883
0.0074161425883048
0.0069688154811907
0.0064859543229909
0.0060414440406342
0.0056706939166016
0.0054318850357669
0.0053321293971882
0.0053118358875734
0.0053623666869067
0.0054780833051509
0.0056366473228615
0.0060085409003401
0.0063609026840501
0.0067068016311218
0.0070203617663291
0.0072887797305743
0.0073023878637275
0.0070862368604883
0.0068264777030653
0.0065167580654735
0.006188395944021
0.0058756805307238
0.0055764534529821
0.0053260263774459
0.0050803355484137
0.0048543125167959
0.0045950197323257
0.0043311094540399
0.0040497389398464
0.0037623163097666
0.0034734947977955
0.0032007384789758
0.0029404352465596
0.0026948557563995
0.0024612112566946
0.0022485627692603
0.002056725218603
0.0018831845838105
0.0017289841906687
0.001590655662743
0.0014659865336404
0.0013564449579235
0.0012588662946849
0.0011726935589471
0.0010736889876606
0.0010334473324771
0.0056473844684124
0.038439771074185
0.085355669179172
0.2325578784276
0.50164474811274
0.84837977595548
1.2155012825505
1.545726223085
1.7974127471681
1.9474691130858
1.972972826443
1.878368681812
1.7158199035386
1.4995671211231
1.2587766535423
1.0212623094563
0.80468535593666
0.61957495792463
0.46915085269912
0.35123941349064
0.26135203721824
0.19412850886512
0.14442967698483
0.10790149733027
0.081074814078113
0.061325254566771
0.046728624101651
0.035886704909001
0.02778034949665
0.021684529040394
0.017054408714336
0.013505453083335
0.010778414603604
0.008661891478424
0.0070078295383427
0.005705065851914
0.0046717839356942
0.0038479873077035
0.0031868706988236
0.0026514706546092
0.0022167724394904
0.0018625487328499
0.001571710502801
0.0013319383731435
0.0011331746333878
0.00096748707033734
0.00082905500594888
0.00071293133506656
0.00061504914939792
0.00053225720238925
0.00046196369979523
0.00040214250921722
0.00034967391794738
0.0021750011560926
0.006916946992034
0.0062774104832966
0.0054444460542373
0.0047209709606024
0.0037830659903733
0.0029567508800314
0.0020433544955367
0.0020588333156142
0.002639052704535
0.0034764954325939
0.004454854013668
0.0054487424254674
0.0063110457788529
0.0069359828058357
0.0073886736590651
0.0077784862470072
0.0081367846328999
0.0084545571797592
0.008718328687872
0.0089056736278383
0.0090327959393401
0.0091102351364314
0.009121976383037
0.0090914475643662
0.0089990569445866
0.0088542982661206
0.0086654290475185
0.0084595410749757
0.008254999659715
0.0080657091067513
0.0079098693830892
0.0078364687504582
0.0077338234891333
0.0076981454256755
0.0077550231951991
0.0078139854054311
0.0078641955416616
0.0078277877995787
0.0076939186949287
0.007461050825885
0.0071336805219344
0.0067368943199151
0.0063510438535235
0.0060221878352031
0.005799762380454
0.0057054102665894
0.0056785906334238
0.0056536454784488
0.0056488114450644
0.0056923319307838
0.0057879747777916
0.0055171855316813
0.0053508786651051
0.0051661007529913
0.0049937951731915
0.0048076442402436
0.0046420317060001
0.0043128857817543
0.0040086590532771
0.0037047683720091
0.0034049035306527
0.0031272915208367
0.0028664398726945
0.0026248071348252
0.0023981880811634
0.0021847912275137
0.0019838712755056
0.0017947799489779
0.0016209023462901
0.0014648937354431
0.001326310369242
0.0012055483611488
0.0010998494719523
0.0010077916240784
0.00092754592595745
0.00085697417285235
0.00079499762145108
0.00074020388636475
0.00069247611102585
0.00065067872997915
0.00061303911435739
0.00057957998047153
0.00054910527435426
0.00052163964291396
0.00048363862540191
0.00049455299367807
0.0023937256091271
0.024659284516425
0.041946784887848
0.069630105911056
0.14210380250865
0.25199914436976
0.38585132694936
0.52872242243807
0.66301367917477
0.77310359283691
0.84576590462223
0.87230217683011
0.84598500742496
0.7889526798787
0.70601269705221
0.60826850972182
0.50710052298036
0.41110815882031
0.32633891383056
0.25490369091076
0.19689463525678
0.15111144803937
0.1156702831524
0.088558111683811
0.067967826828756
0.052370028262985
0.040547797361536
0.031573843882114
0.024739485540237
0.019509796030021
0.015484757148291
0.012369182715001
0.0099454124978537
0.0080436179651464
0.0065437640479797
0.0053534035236045
0.0044037627905849
0.0036409028740119
0.0030255645694905
0.0025263677917791
0.0021192126596488
0.0017855809040241
0.0015108029371811
0.0012829149404833
0.0010934398397733
0.00093546906828168
0.00080309573040238
0.00069170260928508
0.00059761770097577
0.00051792939599837
0.00045011985123933
0.00039229023343257
0.00034241981267191
0.00065604195310809
0.0062452910763993
0.0057269492991492
0.0048530050020263
0.0039868049311209
0.0030554860682583
0.0023156405820191
0.0017188825025261
0.0017211437326381
0.002220079131612
0.0030435794339221
0.004094261137914
0.005224039766583
0.0062291502716461
0.0069549075246389
0.0074010993983697
0.0077569363616075
0.0080879288468951
0.0083800352012107
0.008622381210686
0.008772738268565
0.0089018636772682
0.0089942634381996
0.0090047667584434
0.0089659503010084
0.0088551855303356
0.0086813067052525
0.0084697497569648
0.0082370907943643
0.0080097699286275
0.0078045397834519
0.0076282363306088
0.0075471114534653
0.0074362887325474
0.0073671072826227
0.0073319029297889
0.0073094425213927
0.0072690727780071
0.0071649484745131
0.007010202580306
0.0067864603487515
0.0064727054808698
0.006134239143595
0.0058399854930262
0.0056312889881316
0.0054860593969281
0.0053458724530802
0.0052016781882493
0.0050348465314454
0.0047905035352775
0.0045514002343106
0.0042228823047166
0.0032775821598261
0.0028641064685901
0.0025688573390719
0.0023267010113126
0.0021207948328055
0.0019487036501504
0.0017468703492682
0.0015831414987377
0.0014385229990248
0.0013122240712504
0.0012003459024648
0.0010992113776902
0.0010071962660987
0.00092208573567354
0.00084361865823435
0.00077221846179032
0.00070739113616269
0.00064915760627537
0.00059759318654584
0.00055205823936322
0.00051200348908287
0.00047682523372072
0.00044577518165057
0.00041830792703779
0.00039355290040421
0.00037122633828623