/*--------------------------------*- C++ -*----------------------------------*\
| =========                 |                                                 |
| \\      /  F ield         | OpenFOAM: The Open Source CFD Toolbox           |
|  \\    /   O peration     | Version:  2312                                  |
|   \\  /    A nd           | Website:  www.openfoam.com                      |
|    \\/     M anipulation  |                                                 |
\*---------------------------------------------------------------------------*/
FoamFile
{
    version     2.0;
    format      ascii;
    arch        "LSB;label=32;scalar=64";
    class       volScalarField;
    location    "4e-05";
    object      T;
}
// * * * * * * * * * * * * * * * * * * * * * * * * * * * * * * * * * * * * * //

dimensions      [0 0 0 1 0 0 0];

internalField   nonuniform List<scalar> 
109340
(
372.99999814064
372.99940094921
372.99796365508
372.99598824409
372.99383644072
372.99169748683
372.98964134118
372.98769498497
372.98582610936
372.98397067996
372.98213015172
372.98030643304
372.97849600256
372.97668815605
372.97486487123
372.97300084945
372.97106675871
372.96903072579
372.96685645969
372.96450196797
372.96191778724
372.95904495098
372.95581118808
372.95212699866
372.94787953964
372.94292496257
372.93707755598
372.93009339361
372.92164523288
372.91128187262
372.89835939568
372.88191727318
372.86044472081
372.83142339606
372.7903490001
372.72867992849
372.99996705984
372.99900068703
372.99724878449
372.99520968873
372.99311667256
372.99106265546
372.98906356832
372.98711379416
372.98520889901
372.98333613017
372.98148803693
372.97966065893
372.97784739985
372.97603549141
372.97420435433
372.97232681605
372.97037342907
372.96831128874
372.96610292121
372.96370501842
372.96106608092
372.9581244289
372.9548041656
372.95101079582
372.94662467747
372.94149274076
372.93541649989
372.92813396228
372.91929155424
372.9083979776
372.89474488192
372.87725998181
372.8542205723
372.82266736063
372.7770225869
372.70613459629
373.00001598313
372.99877894982
372.99691523491
372.99490570595
372.99285625876
372.9908180499
372.98879935182
372.9868134948
372.98487226142
372.98297195069
372.98110461914
372.97926459215
372.97744468865
372.97563178122
372.97380474164
372.97193602795
372.96999559851
372.96795120733
372.96576591849
372.96339693669
372.9607929486
372.95789292188
372.95462147326
372.9508838689
372.94656007497
372.94149658343
372.93549420833
372.92828999822
372.91952904731
372.90871827601
372.89514690327
372.87773654647
372.85473673313
372.82307777121
372.77672591426
372.70237769531
372.99999311339
372.998448563
372.9964388677
372.99433385193
372.99222118532
372.99012152396
372.98804825348
372.98601257646
372.98402419134
372.98208642815
372.98019595531
372.97834876088
372.97653877701
372.97475388589
372.97297340832
372.97116892823
372.96931078798
372.9673679432
372.96530461446
372.96308068777
372.96064538686
372.95793752016
372.95488021877
372.95137662414
372.94730315737
372.94250215724
372.93676931064
372.92983528869
372.92133683416
372.91076940538
372.89740609158
372.88014425945
372.8571680499
372.82521743564
372.77750758556
372.69671314858
372.99978442877
372.99747973793
372.99485825559
372.9923381481
372.9899248458
372.98761483501
372.9854164759
372.98335752473
372.98145557829
372.97970463302
372.97810869742
372.97667083968
372.97539147162
372.97425846375
372.97324788215
372.97232951134
372.97147555907
372.97065750321
372.96984079702
372.96898429557
372.96799644679
372.96678926177
372.9652615251
372.963295524
372.96074481818
372.95742577156
372.95310108681
372.94745884557
372.94008244549
372.93039288576
372.91755626034
372.90032868935
372.87662943572
372.84268368746
372.79014909366
372.69345756677
373.00374089662
373.01909244914
373.03558949848
373.05200150008
373.06789324162
373.08302090203
373.09724873685
373.11052226813
373.12282274019
373.13415906997
373.14455687781
373.15405383377
373.16266962916
373.17039110828
373.1772107207
373.18312733667
373.18815749862
373.19226592986
373.19551824059
373.19803860574
373.19978314573
373.20067285067
373.20060565691
373.19944633878
373.19699169973
373.19303027696
373.18722522534
373.17912482699
373.16812237063
373.15336502814
373.13361930248
373.10702392906
373.07046128082
373.01819359853
372.93702035873
372.77942179913
372.63111762858
372.47754799568
372.24294227786
371.90772423309
371.46109466432
370.89157791974
370.18563987925
369.33083134234
368.31568423338
367.13373610321
365.78324739111
364.27290273335
362.65161944931
360.94401482544
359.18954276269
357.42278673491
355.67318192652
353.96545156485
352.31513661808
350.73168954545
349.22107430965
347.78509293872
346.42237881712
345.13130525834
343.90806738936
342.74847089011
341.6486014164
340.60464275156
339.61242844264
338.66840813619
337.76903743752
336.9111848209
336.09177650793
335.30806648736
334.55771844322
333.83842642936
333.14789888464
332.48420521608
331.84571881417
331.23081108552
330.6379226648
330.06579318024
329.5132975498
328.97931822746
328.46276705071
327.96260921869
327.47785385129
327.00768074823
326.55146629971
326.10826821112
325.67776294449
325.30227863063
325.88491476616
323.51878699221
319.78755472204
315.40595898295
314.92873983451
314.87845242072
314.85283538635
314.5413854367
314.45797105423
314.65815458495
314.82931782638
314.97625326685
315.10222158282
315.20857487917
315.29769803404
315.3716714607
315.43247837599
315.48143401501
315.51921566696
315.545919161
315.56137766829
315.5661674082
315.56186950852
315.54622455374
315.52252464764
315.49266666657
315.45704819855
315.4166045488
315.3729088071
315.32667016074
315.27881987497
315.2309973057
315.18704088867
315.14526083672
315.10705711909
315.07304247217
315.03863128599
315.00126174223
314.95955624652
314.91127558622
314.853439972
314.77993995758
314.69168582061
314.58823036704
314.47141523017
314.34577996136
314.21608465364
314.08836133189
313.97044568516
313.89801573359
313.87686277288
313.89033619245
313.94369418719
313.97900986882
314.00274976597
313.99207677389
313.97150158387
313.93828812462
313.88557287922
313.81468976323
313.7280406997
313.63020103369
313.52582168298
313.42974894526
313.34664820073
313.28344715902
313.22427750617
313.17077929676
313.12484942998
313.09081101956
313.06177935293
313.03016935809
312.9953548213
312.95554336947
312.91035730466
312.85606375075
312.7923124377
312.72129415815
312.64488134057
312.56546305709
312.48459170224
312.40262666261
312.31938928983
312.23407535551
312.14662451583
312.04309169332
310.5958218204
149.87285267263
372.58834465979
372.39705744158
372.10596283371
371.70280062185
371.1796093117
370.52857439632
369.74080933602
368.80900550512
367.72795382608
366.49655194989
365.11776141572
363.60730624873
361.99332785233
360.30916372723
358.58365987975
356.84822851153
355.13137513457
353.45476659288
351.83419192987
350.27941946489
348.79530785782
347.38376275589
346.04428957549
344.77434716845
343.57064040132
342.42974723509
341.34700166842
340.31854649287
339.34077559226
338.41008991432
337.52307050962
336.67656383715
335.86769735476
335.09390410481
334.3527529073
333.64195242035
332.95948163499
332.30343900091
331.67206107732
331.06378456388
330.47722188125
329.91111091565
329.36427771273
328.83561617232
328.32405654408
327.82859787043
327.34832575954
326.88233860544
326.43011101495
325.99076543899
325.56340002336
325.32179188293
325.47801809358
322.76905942911
318.68440626438
315.12072501069
314.9728717843
314.93807255297
314.92236799854
314.5402725628
314.61450671772
314.82036240079
314.98959854926
315.13478744942
315.25848756706
315.36280113572
315.45007574739
315.52243956226
315.58154327958
315.62826097604
315.66299365198
315.68560527816
315.69622904461
315.69627820086
315.68533385073
315.66292828347
315.63287054449
315.59681161179
315.55463939521
315.50857112857
315.45935587107
315.40788424597
315.35530549958
315.30305703397
315.24151058217
315.19363668027
315.15110970283
315.11494404178
315.07818512915
315.03829112971
314.99372846298
314.9424180274
314.88090117268
314.80416785085
314.71391931258
314.60993265644
314.49230636804
314.36510078558
314.23358607149
314.10534915601
313.98753050052
313.91270680631
313.89014730607
313.9002434062
313.94126047523
313.97758426098
314.01202096733
314.00509568579
313.98408965647
313.94980852214
313.89508467117
313.82181711212
313.73313954309
313.633279593
313.52718147251
313.42696454717
313.34146499607
313.2757712246
313.21276661226
313.15566961247
313.10633438898
313.06728618027
313.02901806977
312.98773331964
312.94164120657
312.88888605774
312.82766782335
312.75794328795
312.68052702307
312.59580742303
312.50491026345
312.40948815313
312.31058986646
312.20808875659
312.10163698312
311.99047124219
311.8743796588
311.74096236757
310.44701597167
168.20780207926
372.56912955873
372.33678683212
371.98151863324
371.4950230423
370.88642942027
370.15245414303
369.29338332133
368.30804451783
367.19547444527
365.9542200691
364.59263350587
363.12244470587
361.55710198445
359.92227566117
358.24755131082
356.56030724279
354.88630102509
353.24716079991
351.65868070842
350.13061684619
348.66841340056
347.27492148304
345.95017524633
344.69221122947
343.49839472649
342.36545417484
341.28949804558
340.26711011235
339.29449030768
338.36821062356
337.48502187725
336.64182904707
335.83585197373
335.06457816849
334.3256450855
333.61684927421
332.93620672327
332.28180339333
331.65188922611
331.04496011529
330.45963466725
329.89463214941
329.34879771554
328.82104744662
328.31033366334
327.81567291535
327.3361117086
326.87081525227
326.41923633767
325.98047269205
325.55380894939
325.28020189162
325.51132466065
322.84474548721
318.83019923055
315.1860588123
315.06202018679
315.05606309159
315.05811429802
314.71062696511
314.78607492947
315.00063958345
315.17775213547
315.32857932056
315.45649623786
315.56411062201
315.65409051264
315.72871010155
315.78932271286
315.83640818663
315.87014487959
315.89036423167
315.89752789128
315.89281642299
315.87587460188
315.84718691269
315.81029255018
315.76696901065
315.71768230127
315.66466981393
315.60829059315
315.54980737903
315.4904770039
315.43179958423
315.35047171066
315.29915263723
315.25270034831
315.21111121324
315.16757470641
315.12111177847
315.07028965376
315.01385442637
314.94609896013
314.86169727391
314.7659037625
314.65717066482
314.53578808764
314.40558692559
314.27139197839
314.14357969182
314.03045918688
313.94420498228
313.9244323684
313.93269345425
313.96920019321
314.00533849218
314.03523196352
314.02337228608
313.99974079737
313.96490086706
313.90453276489
313.82390344716
313.72759407903
313.62150876739
313.5132137723
313.40857912368
313.31819142088
313.24675665502
313.17105993615
313.10563335803
313.04619420922
312.99391279102
312.93245624906
312.8644801708
312.78801260797
312.70148843778
312.6037499026
312.494721311
312.37488812294
312.24534619521
312.10468618284
311.95474893376
311.79495121002
311.62443956075
311.44270378722
311.24782071239
311.03898507089
310.80439823167
309.51279291776
179.49835474104
372.52977649664
372.2013216541
371.70843199523
371.07033011924
370.32046398745
369.46989799736
368.52903955916
367.49843720734
366.37532321953
365.15691077376
363.84725066063
362.44545242826
360.95801296294
359.40178899248
357.80039342186
356.17954058295
354.56318846599
352.97312746959
351.42572238846
349.93226528556
348.49939943591
347.1296837329
345.82406595786
344.58251318144
343.40230076733
342.28028432216
341.21372607591
340.19921178492
339.23327585155
338.31292272203
337.43486521713
336.59619664167
335.79415997578
335.02625711685
334.29031446271
333.58423291777
332.90595930995
332.25366853691
331.62574886451
331.02063398764
330.43691306986
329.87333637396
329.32880100724
328.80223425412
328.29260282049
327.79893975162
327.32028653858
326.85587169706
326.40504840689
325.96703997447
325.54120289049
325.23007791434
325.56083190406
322.94959541995
319.03557930041
315.28707061169
315.19153677269
315.22593590008
315.24910455321
314.94331150181
315.01857054221
315.23970737116
315.42372326826
315.57869113401
315.70912905596
315.81841741169
315.90953743702
315.98482733454
316.04530324289
316.09085929015
316.12138195189
316.13692208569
316.13866346676
316.12641577906
316.10196114512
316.06545248324
316.02033070204
315.96876462218
315.91158237397
315.8504947498
315.78596757736
315.71958921952
315.65252537265
315.58602270182
315.49262808238
315.43630616457
315.38255209393
315.33327442486
315.28227815559
315.22877595184
315.17116609132
315.10745030155
315.03075472889
314.93867606371
314.83577856005
314.7211332046
314.59577244643
314.46212865304
314.32687464506
314.19879464805
314.09151543877
314.01581448499
313.97725605228
313.97556061552
314.00212698333
314.03341583504
314.05606553852
314.0389117435
314.00790386433
313.96269499677
313.89025209993
313.7982209292
313.6925894079
313.57911566016
313.46320494905
313.34629636531
313.24253959096
313.15036373297
313.05210794287
312.96014110061
312.86485389067
312.76554098935
312.65081706054
312.52134316768
312.3757793628
312.21182818478
312.02683223668
311.82198384476
311.59711308962
311.35129472084
311.08295389671
310.79170048945
310.47517797261
310.13101474656
309.75743241451
309.35173239
308.90808331979
308.41811689841
306.78046667549
170.64527424383
372.42095571904
371.80916950364
371.01667803565
370.13943223096
369.24318317437
368.31571003737
367.35458505767
366.34647459371
365.2742179568
364.13255897482
362.90888717368
361.60080310828
360.21163868377
358.75255820399
357.24297390663
355.70494286218
354.16081806615
352.63229502905
351.1364695909
349.68563072337
348.2879487951
346.94821969686
345.66762813014
344.44583794419
343.28240015295
342.17481696908
341.12024016875
340.11567546746
339.15842253233
338.24534003353
337.37365907108
336.54045986501
335.74318830324
334.97956144384
334.24730492344
333.54445630015
332.86907734689
332.2194827254
331.59396923689
330.99099265946
330.40920987833
329.84743077281
329.30450836487
328.77938667553
328.27106874829
327.77860293145
327.30106971583
326.8377080816
326.38781661979
325.95068783119
325.52574105681
325.17901254986
325.62261590106
323.08141612848
319.2916089625
315.42548507172
315.35272753576
315.43497994271
315.47887282514
315.21478892029
315.28815399062
315.50922619736
315.69425680266
315.84666112294
315.97310103317
316.07852711551
316.16629769385
316.23839240665
316.29525692751
316.33632259028
316.36108244745
316.37014632568
316.36344000961
316.34259944598
316.30944470399
316.26433332319
316.21043453382
316.15075436255
316.08586786036
316.01677366537
315.94461692545
315.87080501309
315.79652230342
315.72282468504
315.62866855864
315.56544867026
315.50422863055
315.44592745171
315.38734444542
315.32697552834
315.26303083639
315.19284199031
315.10863793703
315.01003527138
314.90096944704
314.78116039481
314.65153983084
314.51487668618
314.38061165747
314.25422132291
314.15396866108
314.08189674914
314.0302538634
314.01330073999
314.02220316668
314.04447158169
314.03512892442
314.00733594705
313.9588919505
313.89025910953
313.79300958735
313.67820345162
313.55152208806
313.41624414738
313.27642033962
313.13512743774
312.99717386695
312.85665737405
312.7044179154
312.54338807959
312.36428078029
312.16286491929
311.92889538017
311.66079137955
311.35554632895
311.0103591653
310.62200354778
310.1929900857
309.71977480691
309.1991170623
308.62844547637
308.00633127037
307.33019835237
306.59756989021
305.80184869392
304.93914189456
303.9948362642
302.96081346205
300.49078266679
154.37319062747
371.78665891209
370.24180128891
369.18904053662
368.3195254207
367.48680252725
366.65407096756
365.79804376463
364.90540661443
363.95267109905
362.92569192333
361.81680585338
360.62332114904
359.34783025161
357.9985086316
356.5911781247
355.14660625603
353.6853119588
352.22765671249
350.79185496558
349.39135039937
348.03569614599
346.73059485653
345.47932128826
344.28244773808
343.13910967256
342.04838903539
341.0083268937
340.01623297021
339.06918507033
338.16497821262
337.30097658664
336.47452218177
335.68308921296
334.92446904101
334.1967239817
333.49778168271
332.82595932224
332.17942555635
331.55663772373
330.95625425952
330.37684841242
329.81715675495
329.27607289588
328.75262425544
328.24584176192
327.75479362691
327.27858044949
326.81643190156
326.36765848823
325.93154874054
325.50757452457
325.13128044695
325.68974437157
323.23719687896
319.58805018267
315.60437606308
315.53394825589
315.66774602808
315.7325866937
315.50881266303
315.58108839823
315.79643581984
315.97524212163
316.11621853682
316.22992440612
316.32412193436
316.40295917959
316.46796991853
316.51839449652
316.55282238799
316.5703496594
316.57098673471
316.55469231762
316.5245377794
316.4815125279
316.42717778868
316.36431169674
316.29621447589
316.22324911386
316.14615163847
316.06605255019
315.98462650648
315.90306582263
315.82213256511
315.7322961071
315.65989350605
315.59157296151
315.52547162852
315.4606624401
315.39453241993
315.32508967488
315.24871055736
315.15696442
315.05204275492
314.93715101173
314.81197440173
314.67836397682
314.54152290926
314.40956629075
314.28708819127
314.1951655565
314.11740765752
314.05238652629
314.01206823771
313.98648400735
313.95690597817
313.90544870292
313.83263591033
313.73533758191
313.61190707523
313.45917163845
313.29228993925
313.1157368014
312.92931392673
312.73453773801
312.5307198704
312.31364472313
312.0742639442
311.79898700127
311.48234165725
311.11444924767
310.68779095085
310.19623508011
309.63701206553
309.001392252
308.27446820743
307.45850411085
306.54989873391
305.56401446719
304.50198111095
303.37135713312
302.18338218544
300.92889689219
299.597315155
298.16362732961
296.6237986583
294.96415027088
293.17354580233
289.17114875457
138.5485634761
363.02470797536
366.59549482217
366.3160680556
365.89391161621
365.41086731482
364.84363042889
364.19548748259
363.47341199574
362.68067891642
361.81568375042
360.86360582512
359.82114429125
358.69033993958
357.4775369669
356.19432073313
354.858816451
353.49136966455
352.11148304037
350.73769048269
349.38588245106
348.06749832738
346.79094004552
345.56050973789
344.3790093284
343.24757609757
342.16452274227
341.12924125403
340.14020707677
339.19524802874
338.29148477812
337.42682125199
336.59934001577
335.80643193412
335.04609222888
334.31630525881
333.61512397592
332.94087009369
332.29192647142
331.66677480651
331.0639491218
330.48204099209
329.91994543858
329.37655677628
328.85083396642
328.34181124963
327.8485737861
327.37025961954
326.90607902842
326.4553030931
326.01726931381
325.5913571887
325.15872502061
326.07455658854
324.11363562874
320.9036213122
316.52687028359
315.64836954406
315.86842019373
315.97714177081
315.88302821625
315.84661811732
316.05382332057
316.24041728718
316.37313615708
316.46799744833
316.54324937665
316.60768533685
316.66299605651
316.70750916474
316.73756824518
316.75095053757
316.74593050991
316.72334997737
316.68626584885
316.63550059194
316.573603452
316.50313274964
316.42722086793
316.34664154523
316.26164470736
316.17341194279
316.08368397821
315.99381427646
315.90511655427
315.7962327381
315.71604962241
315.64088491225
315.56697037248
315.49467558559
315.42055542872
315.3432674225
315.25841498451
315.15749214252
315.04488799369
314.92278973152
314.79162630311
314.65427940226
314.51928626855
314.3886938426
314.27263729776
314.17877444846
314.07997184346
314.01121335996
313.92533719308
313.62347896796
313.44316408841
313.22312578984
312.96459150051
312.68456643159
312.38443717585
312.05613122603
311.72842594395
311.39971532114
311.06664111557
310.71088107873
310.3174077473
309.85406933994
309.2986531149
308.61978979363
307.80922711287
306.86192858619
305.77594706635
304.56737101919
303.24219394021
301.81499974004
300.28207262853
298.68005931173
297.0019243347
295.24049652627
293.38630904773
291.42095275068
289.32104333363
287.06200666707
284.63335556523
282.0320724904
279.24013711322
276.38208125562
273.34232856647
265.81574242713
116.94125460236
353.94787361876
359.03799903159
359.86137901769
360.24444732583
360.40179262841
360.37865466111
360.1780429422
359.82349246297
359.3364892426
358.73566176843
358.02802885926
357.22172456091
356.32086812381
355.32778584428
354.25299838457
353.11270046554
351.92546690077
350.70997080821
349.48364760012
348.26225953961
347.0586330019
345.88261643583
344.73987269172
343.63512695815
342.57016450253
341.54597884753
340.56264861456
339.61890742161
338.71311996088
337.84486128601
337.01194618307
336.2126663256
335.44464004336
334.70679813566
333.99726426496
333.31457012918
332.6569637616
332.02308475953
331.41163831016
330.82133377199
330.2509110882
329.69946928073
329.16587056335
328.64918421623
328.14848613952
327.66301848164
327.19193870626
326.73448904111
326.29002750774
325.8579536911
325.43756564785
325.0093474156
325.9061472481
323.80774585002
320.60843734427
316.51294727961
316.00592433756
316.24072928888
316.34912223556
316.24672738815
316.36632268599
316.62405763302
316.8509590704
317.00285748347
317.06453390495
317.06192066197
317.05163883618
317.05440255104
317.06410036701
317.06605082992
317.05090535314
317.01727557627
316.96757711608
316.9019717944
316.82455819404
316.73845691686
316.64450430204
316.54578604269
316.44331934297
316.33704747796
316.22721484682
316.11502199499
316.00201790539
315.88923517493
315.80165752743
315.69353484471
315.58692327792
315.49001354777
315.38823683989
315.28325774843
315.17383930081
315.05377812932
314.91792839448
314.77468592463
314.62321026745
314.46683126744
314.31165271563
314.16104314112
314.01731778205
313.87965488206
313.72908866456
313.5584170378
313.34408846058
313.01091231808
311.61498802641
310.80468420004
309.88576792981
308.8865488145
307.95157711442
306.99333531691
306.08670557134
305.19650647277
304.30505984696
303.39145297273
302.41365121116
301.32234246892
300.06221144299
298.59700647506
296.90077266276
294.944493283
292.71590117503
290.21132008663
287.54200708024
284.7066047828
281.66644073451
278.47749347934
275.35309544238
272.31890069795
269.24356620042
266.17853426407
263.18234857294
260.30151194683
257.56423228058
254.97734851853
252.56866897581
250.32282739369
248.25179557368
246.5849866841
237.63746464852
130.72163250751
349.58447357795
354.02163144273
355.05628589798
355.69001978967
356.1082429679
356.36796630368
356.46356530203
356.41623344219
356.2175147781
355.88188214956
355.42168142381
354.85367615489
354.17279681261
353.39286646238
352.52591591957
351.58220381706
350.5760451562
349.52496906312
348.4459656242
347.35417352191
346.26290636693
345.18365719898
344.12499805949
343.09207931486
342.08897317783
341.11799376971
340.180442433
339.27647975422
338.40591658798
337.56800793823
336.76097045717
335.98446945925
335.23705811809
334.51717043478
333.82343034305
333.15464652432
332.50966513526
331.88704793242
331.28557634096
330.70406352462
330.14185585907
329.59776318258
329.07083124385
328.56015285911
328.06481437472
327.58425204972
327.1176515695
326.6643308673
326.22381557673
325.79519879989
325.37799759066
324.96315747431
326.00214510099
324.23879010003
321.31769913283
317.50792214364
316.09052890678
316.30272307594
316.42586628433
316.40629646377
316.55871536776
316.85573371243
317.14657580853
317.38003317721
317.52667682899
317.56494799361
317.50865118857
317.43662855015
317.38472154871
317.34619293802
317.29922683468
317.23741107595
317.15672362256
317.06068239629
316.95567119307
316.84215911784
316.72274722346
316.59537883174
316.46006290479
316.31643676139
316.16555181605
316.00719869955
315.84165508551
315.669662945
315.56436290172
315.38857551145
315.20321682329
315.01709728882
314.81668570157
314.60254943126
314.37280440118
314.12993503873
313.87711447147
313.61332046196
313.344303238
313.07485194222
312.80698818217
312.53247664563
312.23291121273
311.87192980424
311.41118006185
310.82930876128
310.08402372017
308.89318512008
304.73729316399
303.03899799132
301.25129259157
299.31897212187
297.27833451685
295.1777558701
293.04046023194
290.91302462427
288.740619481
286.44991400042
284.20611992283
282.00754653552
279.65984374436
277.08846366273
274.33529669142
271.45930329095
268.53744375728
265.64711576072
262.86026776593
260.22731335361
257.77424207314
255.52751503414
253.5040947206
251.69069245928
250.01584161957
248.46773313869
247.02645668849
245.63499835441
244.28680594832
243.00055043722
241.81632749386
240.70372652882
239.70359637535
238.84748546839
228.84452732053
144.85507844281
346.91764442938
350.4221865197
351.43319904559
352.11446104996
352.62041904106
352.9970446551
353.24047542503
353.35432356382
353.34529904052
353.20526262564
352.93439153979
352.54723590309
352.06184638171
351.46842664913
350.77786889321
350.00640436043
349.16497844001
348.26711349946
347.32867850169
346.36417282156
345.38671410865
344.40732813354
343.43574010099
342.47915224548
341.54239329358
340.62917233026
339.74177217292
338.88154821132
338.04930869941
337.24476723147
336.46764089688
335.71752333595
334.99325638423
334.29400402057
333.61822004119
332.96554234677
332.33480164163
331.72530249111
331.13567078617
330.56500538142
330.01236836924
329.47695863126
328.95775619304
328.4540712105
327.96531185532
327.49071469784
327.02953845084
326.58135685639
326.14535407137
325.7208514985
325.30803616759
324.90320401481
325.49055268605
324.67671213493
322.02842941905
318.57537141026
316.14262638761
316.21739998289
316.3740979879
316.44176100641
316.63943206102
316.97959284054
317.32985416872
317.62304666789
317.82781794929
317.92268884394
317.89952770768
317.79750518096
317.69625652692
317.60811290946
317.52032894653
317.42147063635
317.29933070017
317.16731696417
317.02854087815
316.8774521132
316.7126340197
316.53145597611
316.33004992037
316.10537498003
315.85238430667
315.56810551587
315.24988810489
314.89291303451
314.71628738776
314.3163507237
313.86662803954
313.36309896302
312.80541207422
312.19570075631
311.54451595002
310.87885198405
310.21402961004
309.55726720396
308.91063531576
308.26456898401
307.58657707555
306.82099640499
305.91327358209
304.817913942
303.50504788105
301.93665427462
300.11266958711
297.62671392487
290.24716711439
287.36892341848
284.2387303638
281.03321310482
277.8863802528
274.87778057783
272.18341552494
269.78789793538
267.64142354078
265.77737156665
264.04060150909
262.37961607987
260.75152019598
259.14872399352
257.59126502808
256.09947131987
254.68990138664
253.36762351989
252.16039602865
251.08772687815
250.15821672308
249.31799961162
248.56528379188
247.89360996421
247.31156194885
246.81106282312
246.37449550309
245.96579378656
245.56448545467
245.19093503461
244.85019451035
244.57235969647
244.24260609035
243.74379528591
234.27615493795
165.81532946345
345.40882777039
347.56865714926
348.57750446583
349.22552310873
349.75078463345
350.16632562214
350.47672073316
350.68726609961
350.77570568217
350.76410930538
350.63779169991
350.39266962616
350.03845463397
349.60055326588
349.06778379635
348.44142344073
347.74156422999
346.98140070274
346.1722093278
345.32650953144
344.45732916933
343.57584964597
342.6913930643
341.81192550391
340.9434951773
340.09045630575
339.25596208699
338.44227685242
337.6506809497
336.88221157533
336.13704479855
335.4150193407
334.71591080224
334.03900799781
333.38380341699
332.74937807907
332.13479401687
331.53982615701
330.96352572803
330.40492734931
329.8629176846
329.33709716214
328.82695159519
328.33157529772
327.85032813436
327.38258752997
326.92779362825
326.48530471598
326.05439972681
325.63518567186
325.22637234597
324.82779367624
324.63066394929
325.08083519016
322.74636659514
319.6341748708
316.52477768937
316.0664152517
316.2439070882
316.38497600968
316.63845830464
317.04258468188
317.47347882357
317.83826122458
318.09230472632
318.21744447251
318.21094785165
318.10005171032
317.96524985191
317.83791526378
317.70432511128
317.55701299527
317.3837762201
317.21445032906
317.01984099835
316.80569338526
316.55242396126
316.25106229276
315.8809723381
315.42601663683
314.87220150704
314.21126945402
313.43043256696
312.51889114468
312.11028301583
311.03621942872
309.8169908309
308.50641883831
307.12488568358
305.68607266881
304.21587917319
302.74732579087
301.28780855255
299.87361356049
298.50610026215
297.16494996414
295.7650034975
294.21514500578
292.46631240542
290.47845281196
288.24491389442
285.77055233559
283.05927339437
279.78778388699
273.09839630518
270.34695110139
267.77182745893
265.44545196285
263.32560065734
261.73014644687
260.48218813135
259.55707573448
258.78555202895
258.06919105691
257.41942639271
256.82009169219
256.30089957461
255.87613192131
255.54637152211
255.30120635005
255.11742919597
255.01598895943
254.94536825886
254.91825077336
254.94202118588
255.0086512255
255.11331002621
255.24715472452
255.40506583088
255.57118011559
255.72683166349
255.85831956439
255.96242875821
256.06428134486
256.16937161991
256.30132303894
256.36127083194
256.12603054749
248.73343656025
196.24283975791
344.88672236091
345.16224335244
346.23139020722
346.82947856731
347.33499373023
347.75746564112
348.0956239336
348.35308245542
348.50574378368
348.56268295082
348.53538030865
348.40122340509
348.16105592652
347.82125821964
347.41364536339
346.91698621298
346.34026920281
345.69681801811
345.0017389472
344.26562411434
343.49752427353
342.7084355073
341.90819113926
341.1043940038
340.30375885921
339.51141761306
338.73091176867
337.96518092703
337.21631808439
336.48566565228
335.7740186432
335.08199340252
334.40955000817
333.7566212699
333.12302971015
332.50839197016
331.91144494638
331.3320161697
330.76989738281
330.22433327062
329.69450308409
329.17969124395
328.67953762237
328.19327114653
327.72023810382
327.25998946739
326.81217032956
326.37599122453
325.95146517234
325.53745262362
325.13388724003
324.740659173
324.35705812061
325.38313376392
323.45621594786
320.68938797634
317.49744995011
316.05448101723
316.02691913471
316.22051105825
316.52837969036
317.02136102001
317.58211090741
318.06205138423
318.37078260323
318.50630000038
318.48686539394
318.34890612317
318.18053382813
318.00721500858
317.82923112632
317.62154533974
317.40006364556
317.1580143493
316.87625363165