/*--------------------------------*- C++ -*----------------------------------*\
| =========                 |                                                 |
| \\      /  F ield         | OpenFOAM: The Open Source CFD Toolbox           |
|  \\    /   O peration     | Version:  2312                                  |
|   \\  /    A nd           | Website:  www.openfoam.com                      |
|    \\/     M anipulation  |                                                 |
\*---------------------------------------------------------------------------*/
FoamFile
{
    version     2.0;
    format      ascii;
    arch        "LSB;label=32;scalar=64";
    class       volScalarField;
    location    "4e-05";
    object      TpSat;
}
// * * * * * * * * * * * * * * * * * * * * * * * * * * * * * * * * * * * * * //

dimensions      [0 0 0 1 0 0 0];

internalField   nonuniform List<scalar> 
109340
(
372.99999655606
372.99940050157
372.99796319076
372.99598772717
372.99383589433
372.99169691613
372.98964074565
372.98769444199
372.98582562418
372.98397022605
372.98212972494
372.98030602997
372.97849562014
372.97668779112
372.97486452136
372.97300051263
372.97106643319
372.96903040994
372.96685615211
372.96450166756
372.96191749298
372.95904466186
372.95581090318
372.95212671715
372.94787926068
372.94292468531
372.93707727946
372.93009311663
372.92164495394
372.9112815897
372.89835910615
372.88191697327
372.86044440529
372.83142305754
372.7903486294
372.72867951401
372.99996626659
372.99900030406
372.99724834307
372.99520921845
372.99311618682
372.99106218131
372.98906316912
372.98711343602
372.98520856835
372.9833358228
372.98148774947
372.97966038763
372.97784714273
372.97603524642
372.97420411996
372.97232659044
372.97037321085
372.96831107672
372.96610271435
372.9637048158
372.96106588176
372.9581242325
372.95480397101
372.9510106025
372.94662448475
372.9414925479
372.935416306
372.92813376623
372.91929135454
372.90839777227
372.89474466812
372.87725975557
372.85422032803
372.8226670902
372.77702228309
372.70613423926
373.00001528109
372.99877850263
372.99691479262
372.99490529598
372.99285590961
372.99081774963
372.98879908241
372.98681324945
372.98487203649
372.98297174229
372.98110442436
372.97926440877
372.97744451462
372.97563161492
372.97380458178
372.97193587345
372.96999544844
372.96795106088
372.96576577491
372.96339679532
372.96079280885
372.95789278322
372.95462133498
372.95088373049
372.94655993592
372.94149644313
372.93549406602
372.9282898529
372.9195288976
372.90871812
372.89514673821
372.87773636829
372.854736536
372.82307754597
372.77672564944
372.70237736974
372.99999244334
372.99844822667
372.99643865081
372.99433366811
372.99222102487
372.99012138119
372.98804812438
372.98601245928
372.98402408429
372.98208632983
372.98019586428
372.97834867571
372.97653869641
372.97475380871
372.97297333364
372.97116885525
372.96931071603
372.96736787171
372.96530454299
372.96308061594
372.96064531436
372.95793744676
372.95488014423
372.95137654787
372.94730307891
372.94250207617
372.93676922631
372.92983520018
372.92133674018
372.91076930408
372.89740598035
372.88014413381
372.85716790362
372.82521725772
372.77750735924
372.69671284126
372.99978403565
372.99747971936
372.99485822366
372.99233811917
372.98992482012
372.98761481193
372.9854164435
372.98335750984
372.98145556295
372.97970461801
372.97810868281
372.97667082522
372.97539145701
372.97425844863
372.97324786616
372.97232949411
372.97147554026
372.97065748283
372.96984077453
372.96898427102
372.96799642012
372.96678923289
372.96526149424
372.96329549051
372.96074478079
372.95742572661
372.95310103451
372.94745878622
372.94008237912
372.93039281151
372.91755617764
372.90032859141
372.87662931696
372.84268353536
372.79014888277
372.69345723355
373.00374077461
373.01909246676
373.03558949848
373.05200150008
373.06789324162
373.08302090203
373.09724872842
373.11052226813
373.12282274019
373.13415906997
373.14455687781
373.15405383377
373.16266962916
373.17039110828
373.1772107207
373.18312733667
373.18815749862
373.19226592421
373.19551823365
373.19803859765
373.19978313674
373.20067284101
373.2006056468
373.19944632845
373.19699168924
373.19303026623
373.18722521406
373.17912481455
373.1681223561
373.15336500996
373.13361922597
373.10702387114
373.07046121608
373.01819350872
372.93702022574
372.77942148396
372.63111718794
372.47754766133
372.24294204475
371.90772461899
371.46109483877
370.89157803782
370.1856411932
369.33083431653
368.31568865518
367.13374360113
365.78326213959
364.27292025151
362.65164287895
360.94405094901
359.18959058326
357.42285038614
355.67326166836
353.96554866015
352.31525349993
350.7318298963
349.22124152508
347.78528860604
346.42260338487
345.13156179154
343.90834987719
342.7487875729
341.64894765641
340.6050271948
339.6128446328
338.66886332347
337.76952907327
336.91170811158
336.09234819339
335.30867222173
334.558365189
333.83911231329
333.1486247118
332.48497223356
331.84652792455
331.231663582
330.63881852019
330.06673074581
329.51427795732
328.98034324721
328.46383680333
327.96372339505
327.47901168178
327.00888187474
326.55270288117
326.10956234722
325.67908872376
325.30092308732
325.88278677784
323.51879252193
319.78759700669
315.40590519667
314.9287483448
314.87844172965
314.85284825237
314.54150031894
314.45784517306
314.65808518678
314.82929105253
314.97624675625
315.10222185876
315.20857504132
315.29769216553
315.37165805825
315.43245651499
315.48140324758
315.5191764749
315.54587344737
315.56132940085
315.5661238375
315.56183865372
315.54621426875
315.52254299473
315.49271786666
315.45713126952
315.41672079243
315.37305826108
315.32684940721
315.27901710248
315.23119824349
315.18723508406
315.14544201058
315.10720420096
315.07316895927
315.03875138644
315.00137693493
314.95966025035
314.91140525915
314.85361438544
314.78017086509
314.6919293095
314.58855033962
314.47183629411
314.34629760099
314.21667979361
314.08906135312
313.97080410338
313.89779808424
313.87610715242
313.88910902006
313.942265646
313.9777110148
314.00190270357
313.99153791013
313.97101923187
313.93811994315
313.885804724
313.81511382685
313.72872104107
313.63107494563
313.52674558778
313.4306150439
313.34718314869
313.28390182113
313.22474990755
313.17129514106
313.12540374647
313.0914306312
313.0625028069
313.03096971617
312.99624150222
312.95648318216
312.91146649494
312.85714144456
312.79321540739
312.72194612181
312.64541700321
312.56582506683
312.48482138397
312.40275055884
312.31941188994
312.23402715292
312.1464593753
312.04285373818
310.59548631849
180
372.58834429832
372.39705722464
372.10596313508
371.70280287751
371.17961100316
370.52857536253
369.74081155347
368.80900891314
367.7279595399
366.49656118836
365.11777406666
363.60732597385
361.9933567714
360.30920221353
358.58371191005
356.8482955836
355.13145991613
353.45487091503
351.83431696106
350.27956818368
348.79548327496
347.38396598675
346.04452042182
344.77460842709
343.57093224656
342.43007105357
341.34735884223
340.31893720736
339.34120156543
338.41055231416
337.52356944728
336.67710041763
335.86827429626
335.09451934483
334.35340930145
333.64265057405
332.96021939187
332.30421793178
331.67288195196
331.06464820582
330.47812889838
329.91206188633
329.36527215587
328.83665303573
328.32513603562
327.82972202695
327.34949444405
326.88355066257
326.43136581124
325.99207013753
325.56482514386
325.31278299848
325.47690102875
322.76908131184
318.68437924136
315.12072017763
314.97287796806
314.93806132176
314.92240686777
314.54038318919
314.61437223808
314.82030861583
314.98957914392
315.13478357847
315.25848754761
315.36279907961
315.45006731635
315.52242348309
315.58151891164
315.62822817613
315.66295342042
315.68556010814
315.69618403149
315.69624073101
315.68531307034
315.66292902723
315.63290206902
315.59687379286
315.55473848349
315.50870484443
315.45952348349
315.40808062473
315.35552103394
315.30327531487
315.24171638848
315.19382068759
315.15125457181
315.11506926445
315.07829086491
315.03837826754
314.99380121888
314.94250574711
314.88104260582
314.8043755043
314.71417378692
314.61025803851
314.49273515774
314.36562636342
314.23418190539
314.10603605659
313.987866783
313.91250098599
313.88942787608
313.89911376325
313.94005408175
313.97634311409
314.0112005063
314.00458691987
313.98367206922
313.94975031977
313.89532046987
313.82222750626
313.73380939697
313.63414116288
313.52810461507
313.4278105925
313.34202171021
313.2762483191
313.21323879848
313.15614942539
313.10682461552
313.0678257174
313.0296216547
312.98840204738
312.94232388154
312.88966217357
312.82838335184
312.75871118029
312.68128367603
312.59645557024
312.50551940674
312.4099863939
312.3109884764
312.20838824927
312.10186862502
311.99058973897
311.87439508934
311.74085815847
310.44684724999
180
372.5691292158
372.33678662273
371.98151883065
371.49502330844
370.88643203045
370.15245570016
369.29338587843
368.30804878293
367.19548133102
365.95423203613
364.59264724733
363.1224656272
361.55713033515
359.92231510413
358.24760466444
356.56037472616
354.88638579852
353.24726666947
351.658808829
350.13076736527
348.66859047103
347.27512559052
345.95040712298
344.69247244041
343.49868804961
342.36577905285
341.28985713444
340.26750098223
339.29491852709
338.36867359343
337.48552178092
336.64236746507
335.83642964152
335.06519470997
334.32630097351
333.6175475521
332.93694492233
332.28258258323
331.65271053539
331.04582408398
330.46054194627
329.89558332424
329.34979145517
328.82208355962
328.31141310362
327.81679790964
327.3372804473
326.87202718095
326.42048892316
325.98177768203
325.55521651024
325.27249625408
325.51023770273
322.84476091221
318.83018549866
315.18605253039
315.06202837169
315.05605400813
315.05814926394
314.71073964148
314.78594969732
315.00058837015
315.17773459863
315.32857597059
315.45649683443
315.56410711773
315.6540801778
315.72869194456
315.78929617999
315.83637329896
315.8701028062
315.89031789911
315.8974829228
315.89277994946
315.87585543436
315.84718883477
315.81032578213
315.7670363745
315.71778860716
315.664813084
315.60846760778
315.55001232252
315.49070265807
315.43203111899
315.35069725895
315.29933527067
315.25285946084
315.21122968598
315.16765921369
315.12116802663
315.07032635348
315.01389625038
314.94621191276
314.861863412
314.76612310661
314.65748181537
314.53621246009
314.40610927983
314.27196312076
314.14421457827
314.03074876794
313.94391366813
313.9237489111
313.93171442098
313.96808605733
314.00423529932
314.03445556583
314.02293246394
313.99940392692
313.96495431718
313.90484695112
313.82441818517
313.72830471627
313.62237726846
313.51413698933
313.40939984605
313.31874743174
313.24723268456
313.17149623815
313.10602010383
313.04653738864
312.99430295424
312.93289342531
312.86498804826
312.78856277312
312.70206803524
312.60441969847
312.49542394804
312.37562835697
312.24604433536
312.1053254208
311.95530627807
311.79540740799
311.62479607507
311.4429551594
311.247977219
311.03908009864
310.80438157854
309.51268388535
180
372.5297761515
372.2013227416
371.70843236701
371.07032913913
370.3204656256
369.46989996991
368.52904279871
367.49844306315
366.37533159252
365.15691351258
363.8472657226
362.44547254143
360.95804319112
359.40182967103
357.80044691214
356.17960908495
354.56327467895
352.97323549286
351.42585040115
349.9324193458
348.49957673155
347.12989054484
345.824299033
344.58277650202
343.40259490341
342.28061100024
341.2140856441
340.19960541163
339.23370436916
338.31338723733
337.43536732373
336.59673717088
335.79473751107
335.02687778427
334.29097051717
333.58492884073
332.90669758766
332.25444846413
331.62657116844
331.02149870271
330.43782058176
329.87428668235
329.32979391327
328.80327030886
328.29368326519
327.80006604725
327.32145614049
326.85708377482
326.40630393212
325.96834617159
325.54256601333
325.22387136234
325.55955134503
322.94960149501
319.03558126397
315.28706170909
315.19154850621
315.22593090558
315.24913566567
314.94341702598
315.01845754687
315.23965921946
315.42370818261
315.57868858107
315.70912906322
315.81841183256
315.90952410003
315.98480568867
316.04527306353
316.09082093211
316.12133683093
316.13687370752
316.13861772854
316.12637983077
316.10194304
316.0654568382
316.02036702941
315.9688413267
315.91170078051
315.8506518947
315.78615842536
315.71980696812
315.65276289727
315.58626492616
315.49286276953
315.43648672423
315.38269754451
315.33336852168
315.28233215404
315.22879369528
315.17116645987
315.1074511883
315.03083214035
314.93880766342
314.83597812116
314.72143242623
314.59619026504
314.46264825865
314.32740473889
314.19936525
314.09168593499
314.0155601478
313.97670256774
313.97475448624
314.00114911751
314.03247498502
314.05533273487
314.03854414735
314.00761422876
313.96284399873
313.89063522112
313.79879807417
313.69333007457
313.5799888561
313.46408739779
313.34708234975
313.24304340234
313.15074917278
313.05242179635
312.96037423032
312.86504861103
312.76577573749
312.65109374632
312.52167489101
312.37615063584
312.21226783835
312.02734906479
311.82259135694
311.59779977904
311.35193055556
311.08356949827
310.79225468686
310.47564395884
310.13139933613
309.75770898147
309.35190698141
308.90815945831
308.41806661962
306.78033934654
180
372.42095565846
371.8091736148
371.01667439145
370.13943405378
369.24318530035
368.31571452945
367.35458947683
366.34648154308
365.27422817609
364.13257142368
362.90890447683
361.60082661378
360.21167012673
358.75259982157
357.24302729183
355.70501255998
354.16090595698
352.63240351505
351.13659984319
349.68578432096
348.28812796342
346.94842454608
345.66786288576
344.44610182703
343.28269738216
342.17514413496
341.12060318229
340.11607160011
339.15885466601
338.24580855477
337.37416146565
336.54100130792
335.74376579779
334.98018619664
334.24796377484
333.54515191938
332.86981876089
332.22026482532
331.59479307263
330.99185808883
330.41011839692
329.84838258721
329.3055031839
328.7804245768
328.27215151073
327.77973087303
327.30224072506
326.83892146062
326.38907542663
325.95200021961
325.52708913609
325.17361127582
325.62104759424
323.0814156992
319.29162614746
315.42547016019
315.352744727
315.43497781045
315.47889993106
315.21488213037
315.28805486508
315.50918152306
315.69424418023
315.84665895396
315.97309945806
316.07851836484
316.16628048784
316.23836659358
316.29522234966
316.33627967864
316.36103276592
316.37009413749
316.36339123511
316.34256312463
316.30942738681
316.26433990394
316.21047672665
316.15084108797
316.085996759
316.01694419462
315.94482280937
315.8710367221
315.79676835226
315.72307066939
315.62890869892
315.56562147541
315.50434852252
315.44598606093
315.38735785513
315.32695091192
315.26298853694
315.19280889259
315.10869162617
315.01014996925
314.90115856058
314.78145329142
314.65194550807
314.51536212118
314.38110860556
314.2547086597
314.15410609716
314.08172130784
314.02987635168
314.01269630289
314.02138922331
314.04373144576
314.03442150709
314.00700126819
313.9586580234
313.89046089872
313.79346506206
313.6788367241
313.55229421667
313.41709314396
313.27724089088
313.13582728373
312.99761594262
312.85695146589
312.70462645671
312.54350011797
312.36435563967
312.16295478329
311.92900676296
311.66093066169
311.3557291724
311.01063255026
310.62242806493
310.19347119302
309.72033733983
309.19959382477
308.62892723875
308.00678905493
307.33061931283
306.59793685863
305.80216628546
304.93940669721
303.99503013556
302.96090468141
300.49081117876
180
371.78665897352
370.24180168837
369.18905523058
368.3195271696
367.48680640216
366.65407699735
365.79805015244
364.90541558369
363.95268166477
362.92570628281
361.81682429078
360.62334653877
359.34786364889
357.99855252302
356.59123439593
355.14667761649
353.68540229621
352.22776717466
350.79198810316
349.391506798
348.03587760184
346.73080367614
345.47955836284
344.28271536988
343.13940734911
342.04872077262
341.00868654005
340.01663150426
339.06962040423
338.16544729015
337.30148402306
336.47507430495
335.68366552902
334.92510151422
334.19738636838
333.4984746454
332.82669676397
332.18020765697
331.55746330175
330.9571223331
330.37775975599
329.81811031539
329.27706715879
328.75366080985
328.24692297294
327.75591893085
327.27974880246
326.81764409347
326.36891868344
325.93286233952
325.50892494963
325.12827042477
325.6879511885
323.23719682484
319.58808057296
315.60434821348
315.53397274364
315.66775330175
315.73261173833
315.50888658429
315.58100204097
315.79639444055
315.97523161504
316.11621569054
316.22991968384
316.32410831046
316.40293671544
316.46793888218
316.51835468973
316.55277425785
316.57029486515
316.57093002388
316.55463917645
316.52449901948
316.48149440801
316.42718858764
316.36435904004
316.29630956677
316.22338752738
316.14633383575
316.0662695833
315.98486685136
315.90331445084
315.82237355356
315.7325411142
315.66004381288
315.59165788985
315.52549309046
315.46063288988
315.39446405962
315.32500218854
315.24864003661
315.15698981848
315.0521419752
314.93733044121
314.81225027528
314.67874949733
314.54198235641
314.410051606
314.28746909255
314.19529339917
314.11732686178
314.05213836783
314.01163532152
313.98587084511
313.95639641021
313.90482630187
313.83234519937
313.73516097788
313.61221787298
313.45971769206
313.29296031478
313.11650893149
312.93013308267
312.73532167029
312.53136679543
312.31404559399
312.0745074371
311.79913735708
311.4823806886
311.11446088212
310.68780553117
310.19624913889
309.63706514745
309.00146499063
308.27459846794
307.45877841265
306.55022435567
305.56437562604
304.50233531886
303.37171617816
302.1837309926
300.92922864172
299.59762443209
298.16390591001
296.62404143538
294.96433702834
293.17366739921
289.1711621932
180
363.02471261248
366.59549969808
366.31606834699
365.89391675305
365.41087205165
364.84363783755
364.19549592755
363.47342184617
362.68069161474
361.8156991904
360.86362539067
359.82116972767
358.69037324283
357.47758036974
356.19437596599
354.85888635658
353.49145726918
352.11159037579
350.737819941
349.38603574749
348.06767659669
346.79114484797
345.56074322157
344.37927258573
343.24787036091
342.16484630377
341.12959961915
340.14059878384
339.19567813481
338.29194583822
337.4273195773
336.59987833907
335.80699905722
335.04672079334
334.31695987948
333.61580559848
332.94160455844
332.2927058607
331.66759534845
331.06481002624
330.48294204554
329.92089049446
329.37754452514
328.85186629932
328.34288717608
327.84969427734
327.37142608276
326.90729029881
326.45655589155
326.01856120214
325.59270145455
325.16048723294
326.06155564193
324.11349173656
320.90365580787
316.5267144402
315.64840714478
315.86844182444
315.97715626292
315.88315207202
315.84656149011
316.05377095627
316.24040344694
316.37313172433
316.46799050013
316.54323165573
316.60765786629
316.66296045434
316.70746514238
316.73751576303
316.75089118902
316.74586873919
316.72329109912
316.68622021557
316.63547506753
316.5736117506
316.50317964947
316.42730928104
316.34677426647
316.26182263424
316.17362726524
316.08392253341
315.99405813787
315.90534857695
315.79646079764
315.71616704192
315.64093450611
315.56695220159
315.49460432714
315.42044646078
315.34314210222
315.25832063257
315.15749270823
315.04496883678
314.92295426862
314.79190510496
314.65468213633
314.51973722616
314.38917092328
314.27291835308
314.17891817362
314.07998801694
314.01111855093
313.92514068868
313.6231645967
313.442888221
313.22267491506
312.96428183212
312.6843797415
312.38477616855
312.05666540146
311.72908272344
311.4004427335
311.06736947539
310.71162266967
310.31799518491
309.85448808218
309.2988455249
308.61989072243
307.80924590664
306.86185191289
305.77591338694
304.56730069641
303.2421454089
301.81497124028
300.28208572158
298.68018017976
297.00206871708
295.24067409227
293.38651167307
291.42115662476
289.32124274003
287.06220768693
284.63352959298
282.03224887055
279.2402986287
276.38222642115
273.34244271684
265.81565571842
180
353.94788928971
359.03801112124
359.86138868076
360.24445805155
360.40180418038
360.37866896507
360.17805755797
359.82350771298
359.33650707457
358.73568290608
358.02805481135
357.2217569793
356.32090856247
355.32783768362
354.25306267863
353.11278050333
351.92556515094
350.71008963265
349.4837893564
348.26242554508
347.05882442368
345.88283542283
344.74012010113
343.63540458178
342.5704732006
341.54632115734
340.56302296504
339.61932339552
338.71356431129
337.84534073669
337.01247039466
336.21322451682
335.44525319093
334.70743063817
333.99793153214
333.31527257336
332.65771668305
332.02388483904
331.41248225487
330.82221194678
330.25182972835
329.70043124915
329.1668753152
328.65023418174
328.14957999512
327.66415365481
327.19311506199
326.73571192895
326.29128974725
325.85926876942
325.43891747895
325.01047036301
325.89989563295
323.80770629218
320.60848620235
316.5128464625
316.00599296896
316.24076808071
316.34915637148
316.24678193559
316.36625313818
316.62401736845
316.85094588363
317.00284748274
317.06450682824
317.0618782949
317.05158957138
317.05434836622
317.06403903561
317.06598198633
317.05083196867
317.01720339654
316.96751509463
316.9019294247
316.82453963692
316.73847854622
316.64456563644
316.54588579106
316.4434657027
316.33722964851
316.22742385084
316.11524088459
316.00222436806
315.88941173043
315.80181805678
315.69360466813
315.58691108299
315.48992900393
315.38810613525
315.28309470648
315.17367644691
315.05369419482
314.91793172914
314.77481658838
314.62348626699
314.46722000934
314.31210962995
314.16149980803
314.01766207554
313.87994811238
313.72932385101
313.55872158953
313.34415592818
313.01094816727
311.61491371155
310.80443365802
309.88552379018
308.88638929054
307.95132053602
306.99397352086
306.08714228842
305.19706029389
304.30561254421
303.39201721444
302.41417637155
301.32272194983
300.06238972787
298.59707941797
296.9007616834
294.94443480513
292.71583597798
290.21123428335
287.54192503038
284.70653011856
281.66637203682
278.47740864891
275.35307249912
272.31889690748
269.24358905634
266.17857343656
263.1823920218
260.30155359265
257.56428130776
254.97740595978
252.56873533692
250.322899709
248.251868554
246.58507231931
237.63825680538
180
349.58448853411
354.02166166015
355.05630752015
355.69003735011
356.10826205258
356.36798565089
356.46358565636
356.41625517302
356.21753804223
355.88190964268
355.42171489206
354.85372652046
354.17284682847
353.39292429154
352.52598582087
351.58229241997
350.5761515251
349.52509537377
348.44611458766
347.35434771955
346.26310751235
345.18388638654
344.12525561086
343.09236651945
342.08929127014
341.11834431878
340.18082632742
339.276898399
338.40636795564
337.56849775394
336.76149701206
335.98503020827
335.23766800564
334.51777481346
333.82410179781
333.15536216491
332.51039889298
331.88784168847
331.28642992347
330.70494677445
330.14278267716
329.59873247016
329.07184578739
328.56120696112
328.06591210561
327.58538178142
327.11883289136
326.66556201325
326.22508693373
325.79651864267
325.37937626585
324.96499516638
325.97938691173
324.23861144744
321.3177635069
317.50786692755
316.09067797131
316.30281850987
316.42591496293
316.40632812942
316.55866492235
316.85569875412
317.14655409905
317.38000030543
317.52661616781
317.56486734287
317.5085693592
317.4365519791
317.38464304423
317.34610874138
317.29913855493
317.23733008623
317.15665334099
317.06063563559
316.95565164068
316.84217253681
316.72280030213
316.59546786056
316.46018676873
316.31659334729
316.16572827676
316.00737697664
315.84181679323
315.6697910422
315.5644582849
315.38863481004
315.20317819247
315.01699346594
314.81653476408
314.60237628763
314.37268363957
314.12990047682
313.87718593159
313.61353655318
313.34466854397
313.07529312522
312.80742865417
312.53287381514
312.23329017044
311.87224778516
311.41143927575
310.82955529901
310.08412087262
308.89328199654
304.73727872443
303.03898262694
301.25126025297
299.31886471213
297.27839446484
295.17804404067
293.04076343354
290.91340169482
288.74100403564
286.45023791546
284.2063691268
282.00768842894
279.65990953844
277.08847125208
274.33524813014
271.45923633372
268.5373773166
265.64704163882
262.8601972116
260.22725436849
257.77419906307
255.52750037961
253.50410093927
251.69071141563
250.01586768715
248.46776521968
247.02649321429
245.6350390293
244.28685912477
243.00061783487
241.81640849078
240.70381995623
239.70370226701
238.84758855865
228.84459152526
180
346.91765890399
350.42223555668
351.4332362354
352.11449024045
352.62044742768
352.99707283703
353.24050317452
353.35435244719
353.34532944953
353.20529581243
352.93443655795
352.54721210588
352.06193717198
351.46848221851
350.77793365511
350.00650399154
349.16509439315
348.26724987321
347.32883750371
346.36435833933
345.38692547329
344.40756825749
343.43600969366
342.47945233785
341.54272520391
340.62953595229
339.74216709097
338.88197629281
338.04977203861
337.24526609851
336.46817892682
335.71809898621
334.99386425023
334.29465278863
333.61890885665
332.96628186557
332.33559145946
331.72612261938
331.13652457708
330.56589954919
330.01330479954
329.47793621469
328.95877350001
328.45513375894
327.96642353345
327.49186962001
327.03073246353
326.58258504016
326.14664231854
325.72220124782
325.30939185031
324.90469494918
325.44856146443
324.67626290869
322.02852912296
318.57549427042
316.14294647532
316.21762937753
316.3741812183
316.44177464253
316.63940783512
316.97957007457
317.32981464415
317.62296321332
317.8276867173
317.92254224959
317.89939741272
317.79739852634
317.69615479357
317.60801275879
317.52022668049
317.42137051882
317.29924367267
317.16725426418
317.02849465379
316.87744502765
316.71265634761
316.53151696265
316.3301421358
316.10550051296
315.85252527422
315.56825177167
315.25001792718
314.89301262928
314.71635862069
314.31637689529
313.86660333716
313.36303072459
312.80533625568
312.19561815143
311.54449587243
310.87887948995
310.21418696984
309.55758720233
308.9110254285
308.26498117216
307.586946216
306.82129608374
305.91353119248
304.81814210845
303.50523387412
301.9368289684
300.11282473521
297.62680126245
290.24715923709
287.36894348898
284.23874062137
281.03320703316
277.88641152782
274.87798108304
272.18356643478
269.78811375431
267.64163822437
265.77755397637
264.04071654425
262.37968550584
260.75154950484
259.14874048969
257.59126480087
256.09945971791
254.68989944063
253.36761959622
252.1603955534
251.08773210319
250.15822117145
249.31800894565
248.56529527658
247.89362329574
247.31157921014
246.81108531556
246.37452458544
245.96582865151
245.56452985483
245.19098871265
244.85025647702
244.57242759587
244.24268212348
243.74387575169
234.2762313205
180
345.40883770304
347.5686983983
348.57756011828
349.22556761367
349.75082322335
350.16636556143
350.4767566464
350.68730263521
350.7757553485
350.76417077432
350.63782790777
350.3928047351
350.03849613003
349.60063961628
349.06790353196
348.44153066566
347.74169096321
346.9815494718
346.17238088918
345.3267068752
344.45755384844
343.57610288593
342.69167663489
341.81223996497
340.94384060625
340.09083332823
339.25637111662
338.44271942911
337.65115842984
336.88272514835
336.1375937331
335.4156059498
334.71653520498
334.03967058822
333.38449825376
332.75011701409
332.13556823203
331.54069113864
330.96440512428
330.40582672009
329.86386260106
329.33808795699
328.82798263949
328.33265355771
327.85144887902
327.38374892185
326.92899846369
326.48653926489
326.05570658882
325.63652229557
325.22772830006
324.82922562155
324.61845477
325.07964947301
322.74655062104
319.63451557683
316.52536014997
316.06692915991
316.24412442843
316.38499986011
316.6384484819
317.04255494522
317.47337632445
317.83805771642
318.09204168969
318.21719819089
318.21075935592
318.09991643359
317.96512333737
317.83778812579
317.7041978759
317.55689561886
317.3836604505
317.21436416483
317.01975689933
316.80565009594
316.55240645336
316.25108341102
315.88104010837
315.42611871205
314.87231794358
314.21139581243
313.43053814483
312.51898099636
312.11035121946
311.03626310912
309.8170058486
308.50639838935
307.12486939685
305.68608616003
304.21594543062
302.74744763515
301.28804366085
299.87393659335
298.50644591195
297.16527593941
295.76525165359
294.21537573861
292.46650906205
290.47861749921
288.24504839747
285.77066673934
283.05934896815
279.78787935325
273.09841021525
270.34698280412
267.77185298601
265.44548642021
263.32564184917
261.73026460629
260.48231310868
259.55720834606
258.78567015393
258.06929226821
257.41951517032
256.82016853778
256.30096327889
255.87619316789
255.54642411937
255.30125207821
255.11747082893
255.01602480364
254.94539943487
254.91827773988
254.94204539257
255.00867426132
255.11333215398
255.24717684502
255.40509021502
255.57120854832
255.72686526409
255.8583572665
255.96247189099
256.06432969964
256.16942394665
256.30137734005
256.36132694012
256.12610274865
248.73351213698
196.2432080023
344.8867198508
345.16226920692
346.2314548697
346.82954183543
347.33504945096
347.75751584862
348.09567102494
348.35313289238
348.50578112952
348.56273974656
348.53540646897
348.40153624291
348.16095356523
347.82131231
347.41374895885
346.91708415599
346.34041419984
345.69698511085
345.0019251647
344.26583397689
343.49776167604
342.70870328286
341.90848884579
341.10472254596
340.30411875005
339.51180982911
338.73133747639
337.96564033077
337.21681234237
336.48619600586
335.77458500372
335.0825957439
334.41018954035
333.7572974495
333.12374479895
332.50913795898
331.91224072602
331.33284795137
330.77076653388
330.22524613973
329.69545850895
329.18069985142
328.68059049873
328.19434870714
327.72137555767
327.26115537471
326.81339408498
326.37725493414
325.95276175312
325.53881135899
325.13527860906
324.74205255999
324.35660612126
325.37909457299
323.45653770171
320.68997033337
317.4983512398
316.05546813606
316.02745389455
316.22062776158
316.52835013989
317.02119935709
317.58176052998
318.06157237998
318.3703032048
318.50593005271
318.48662738049
318.34874037375
318.18038820201
318.00706797872
317.82908509984
317.62141283277
317.39994001115
317.15789325133
316.87615794287
316.52896069065
316.06302565302
315.42986060176
314.57938886442
313.47730721829
312.10359871885
310.46811824607