/*--------------------------------*- C++ -*----------------------------------*\
| =========                 |                                                 |
| \\      /  F ield         | OpenFOAM: The Open Source CFD Toolbox           |
|  \\    /   O peration     | Version:  2312                                  |
|   \\  /    A nd           | Website:  www.openfoam.com                      |
|    \\/     M anipulation  |                                                 |
\*---------------------------------------------------------------------------*/
FoamFile
{
    version     2.0;
    format      ascii;
    arch        "LSB;label=32;scalar=64";
    class       volScalarField;
    location    "4e-05";
    object      Y.Liq;
}
// * * * * * * * * * * * * * * * * * * * * * * * * * * * * * * * * * * * * * //

dimensions      [0 0 0 0 0 0 0];

internalField   nonuniform List<scalar> 
109340
(
0.99998999999998
0.99998999999958
0.99998999999577
0.99998999994376
0.99998999929426
0.99998999578029
0.99998998526896
0.9999899625962
0.99998992093696
0.9999898514742
0.99998974447277
0.99998958866381
0.99998937124703
0.99998907769592
0.99998869144408
0.99998819345838
0.9999875616247
0.99998676993543
0.99998578740941
0.99998457668272
0.99998309219848
0.99998127798099
0.99997906482051
0.99997636655562
0.99997307499787
0.99996905284729
0.99996412351747
0.99995805601383
0.99995054157159
0.99994115595045
0.99992929537314
0.99991406081716
0.9998940342804
0.99986682006446
0.99982804703826
0.99976903901831
0.99998999999994
0.99998999999937
0.99998999999308
0.99998999990177
0.99998999891617
0.99998999441769
0.99998998214881
0.99998995626492
0.99998990932978
0.99998983249954
0.99998971556489
0.99998954687525
0.99998931321283
0.99998899956685
0.99998858879622
0.99998806115005
0.99998739363637
0.99998655913685
0.99998552523562
0.99998425271563
0.99998269365076
0.99998078902919
0.99997846576287
0.99997563268293
0.99997217503304
0.99996794673274
0.99996275918792
0.99995636451263
0.99994842935205
0.99993849212219
0.99992588925179
0.9999096191307
0.99988807044294
0.99985844150793
0.99981536918399
0.99974757967709
0.99998999999996
0.99998999999952
0.99998999999483
0.99998999992681
0.99998999912152
0.99998999516799
0.999989983778
0.99998995899868
0.99998991335761
0.99998983798624
0.99998972263634
0.99998955562655
0.99998932371353
0.99998901186531
0.9999886029266
0.99998807714863
0.99998741154401
0.9999865790078
0.99998554712705
0.99998427666685
0.99998271962601
0.99998081684853
0.99997849502451
0.99997566269119
0.99997220468065
0.99996797434815
0.99996278234037
0.9999563797664
0.9999484319921
0.99993847579522
0.99992584546892
0.9999095359639
0.9998879230027
0.99985814240538
0.999814511814
0.99974403745607
0.99998999999998
0.99998999999971
0.99998999999732
0.99998999996626
0.99998999943043
0.99998999615452
0.9999899858609
0.9999899625199
0.99998991857939
0.99998984510599
0.99998973180474
0.99998956695621
0.99998933727632
0.99998902768609
0.99998862096223
0.9999880972548
0.99998743342744
0.99998660218925
0.99998557082343
0.99998429968259
0.99998274010476
0.99998083196189
0.99997850063009
0.99997565285104
0.99997217104515
0.99996790525927
0.99996266164831
0.99995618523526
0.99994813308748
0.99993803049565
0.99992519545293
0.99990859945638
0.99988657183008
0.99985612018711
0.99981103622644
0.99973522550278
0.99998999999999
0.99998999999991
0.99998999999936
0.99998999999438
0.99998999969997
0.99998999711286
0.99998998803429
0.99998996643314
0.99998992469117
0.99998985370661
0.99998974293849
0.99998958033729
0.99998935220063
0.99998904284303
0.99998863420407
0.99998810528975
0.99998743138601
0.9999865830634
0.99998552457766
0.99998421264038
0.99998259336998
0.99998059961452
0.9999781473433
0.99997513072236
0.99997141539368
0.99996682891795
0.99996114731892
0.99995407506222
0.99994521418339
0.99993401425266
0.9999196858494
0.999901048195
0.99987618123373
0.99984162539583
0.99978991823158
0.99969855226945
0.99999
0.99999
0.99998999999999
0.99998999999833
0.99998999954002
0.99998999582689
0.99998998324908
0.99998995370579
0.99998989679055
0.99998979986187
0.99998964800065
0.99998942381149
0.99998910707319
0.99998867421198
0.99998809747475
0.99998734377355
0.99998637328854
0.999985138031
0.99998358040209
0.99998162418708
0.99997917369411
0.99997610943289
0.99997228059243
0.99996749596877
0.9999615118607
0.99995401538959
0.99994460081016
0.99993273506771
0.99991770492237
0.99989853150918
0.9998738220967
0.99984151850977
0.99979828428712
0.99973812140703
0.99964778352506
0.99948282374328
0.99967317737411
0.99951564000528
0.99926695146474
0.99890559793411
0.99842094008825
0.99780208416486
0.9970351842647
0.99610778920018
0.99500881538131
0.99373299653367
0.99228200092133
0.99066301315086
0.9889323953338
0.98712004529345
0.98526775636204
0.98341379136596
0.98158954814797
0.97982006784366
0.97812143251293
0.97650235823192
0.97496712868982
0.97351662663484
0.97214874540819
0.97086004546659
0.96964580348752
0.96850128021156
0.96742158342094
0.96640186143043
0.96543763485679
0.964524671478
0.96365905539367
0.96283718473069
0.96205578296013
0.9613119233945
0.96060283637805
0.95992593630766
0.95927891401275
0.95865965995596
0.95806620597283
0.95749678672464
0.95694988234896
0.95642416446013
0.95591837920767
0.9554312814918
0.95496165278264
0.9545083786924
0.95407051130854
0.95364718356611
0.95323754544323
0.95284091641762
0.95245685935117
0.95207645876019
0.95026529435279
0.94730234792809
0.94291034160967
0.93905587233899
0.93891156336106
0.93897586132071
0.93903078365678
0.93908739929256
0.93914916863334
0.93920652001349
0.93926083466106
0.93931215826936
0.93936048584047
0.93940566786334
0.93944753001748
0.93948571612831
0.93951952329638
0.93954830996844
0.939571642384
0.93958898817769
0.93959970171157
0.93960371412309
0.93960320714096
0.93959842338151
0.93958863761562
0.93957424855406
0.93955583339931
0.93953385903555
0.93950870710914
0.93948079908385
0.93945054058045
0.93941825380085
0.9393956546297
0.93936080282158
0.93932501410121
0.93928858563344
0.93925176079402
0.93921461466304
0.9391771684278
0.93913935079634
0.93910098251642
0.93906156265284
0.93902065770566
0.93897798565504
0.93893317362415
0.93888605463056
0.93883674467169
0.93878560117036
0.93873324042228
0.93868048234275
0.93862864359338
0.93857961931678
0.93852316194748
0.93848259200165
0.93844623466387
0.93841077621676
0.93837733336021
0.93834435469689
0.93831072677837
0.93827574110704
0.93823887148823
0.93819975714711
0.93815850166405
0.93811556423125
0.93807150028722
0.93802687194687
0.93798192049799
0.93793702292017
0.93789311426282
0.93785002688368
0.93780827219122
0.93776784872323
0.93772865791803
0.93769048011343
0.9376530481147
0.93761564571846
0.93757807319861
0.93754023525734
0.93750207348868
0.93746361489102
0.93742496250492
0.93738614764883
0.93734732114443
0.93730849735094
0.93727018706182
0.93723230085276
0.93718634085652
0.93724935954295
0.99963148642149
0.99943297489118
0.99912161974402
0.99868459700621
0.9981162861715
0.99740899629072
0.99655406029382
0.99554475117067
0.99437697654469
0.99305137209761
0.991572828298
0.98996046319304
0.98824446938723
0.98646319670923
0.98464893342757
0.98283446424821
0.98105067348561
0.97931958302108
0.97765664531648
0.97607107895196
0.97456691068604
0.97314466312279
0.97180257566371
0.97053737480934
0.96934479695946
0.96822027921063
0.96715862104092
0.96615528120476
0.96520595088671
0.96430658124027
0.96345335313421
0.96264275262998
0.96187162541898
0.96113712145443
0.96043656925104
0.95976748299798
0.95912762429737
0.95851492935842
0.9579275062729
0.95736366850161
0.95682194977111
0.95630105908439
0.9557997522595
0.95531678092989
0.95485098811974
0.95440132788905
0.95396680425197
0.95354657111182
0.95314000058012
0.95274626343224
0.95236448509702
0.95193444327191
0.94965878415057
0.94641989084815
0.94172683294699
0.93895525366115
0.93900198624495
0.93908554251336
0.93915763275628
0.93922821623416
0.93929713425997
0.93936169949813
0.93942215899698
0.93947881486479
0.93953197192303
0.93958167642471
0.93962781888644
0.93966993007114
0.9397069473235
0.93973795748501
0.93976241574437
0.93977967774315
0.9397891150075
0.93979126562069
0.93978887868484
0.93978062251208
0.93976668241682
0.93974783841448
0.93972485658935
0.93969826778378
0.93966858257446
0.93963631214539
0.93960186018146
0.93956538060048
0.93950007119555
0.93946146992357
0.9394222889005
0.93938284755389
0.93934321721354
0.93930339578575
0.93926341182966
0.93922321787597
0.93918262841454
0.93914096163501
0.93909781067558
0.9390528736087
0.93900578707496
0.93895639754367
0.93890491306661
0.93885182521268
0.93879800867559
0.93874450294299
0.93869330757894
0.93864604150196
0.93859205769272
0.93855218913274
0.93851617008773
0.9384811435187
0.9384483833129
0.93841566357613
0.93838210331628
0.93834691580089
0.93830954851859
0.93826975147195
0.93822796597678
0.93818475422673
0.93814062967125
0.93809626427363
0.93805160230408
0.93800759985802
0.93796494400658
0.93792346217478
0.93788393685605
0.93784564622693
0.93780850293236
0.93777216181992
0.93773593471191
0.93769947607096
0.93766249015466
0.93762482101514
0.93758650999048
0.93754772798716
0.93750863648368
0.93746928717039
0.93742979103952
0.93739020375357
0.93735054556191
0.93731036151386
0.93726180662471
0.93728698265481
0.9996140663071
0.99937237709281
0.99898825763492
0.99846186079453
0.99779989099459
0.9970026040709
0.99607078633276
0.99500435066193
0.99380364230493
0.99246909351134
0.99100938132649
0.98944091962385
0.98777921260826
0.98605282237929
0.98429400275918
0.98253229215232
0.9807954750155
0.97910514421299
0.97747673032098
0.97591993029024
0.97443946666296
0.97303668995009
0.97171058610823
0.97045845899902
0.96927666027841
0.96816090202518
0.96710676830335
0.96611001443725
0.96516634641695
0.96427186643797
0.96342289368265
0.96261600034784
0.96184809010719
0.96111637958167
0.96041828710223
0.95975138908488
0.95911345842672
0.95850245386402
0.9579165257382
0.9573540178653
0.95681346870558
0.95629359040794
0.95579315850625
0.95531095335786
0.95484583913253
0.95439677154088
0.95396275794627
0.95354297699158
0.95313680835254
0.95274337464273
0.95236191140288
0.95194218008716
0.94972081174543
0.94652557503772
0.94189066487082
0.93902513020308
0.93910206528808
0.93921392889934
0.9393074722745
0.93939116095109
0.9394694837006
0.93954261645835
0.93961042621084
0.93967357175148
0.93973280462866
0.93978841310114
0.93984026616316
0.93988778765881
0.93992951664395
0.93996409327477
0.93999087434345
0.94000923446995
0.94001857245048
0.94001999412101
0.9400157605655
0.94000413041202
0.93998613905576
0.9399629366727
0.93993555810306
0.93990460665605
0.93987072431158
0.93983445806456
0.93979617584048
0.93975602975894
0.93967612845823
0.9396348533787
0.93959288693094
0.93955054565895
0.93950784057416
0.93946478713431
0.93942144465419
0.93937783376442
0.93933379324377
0.9392886031093
0.93924183439213
0.93919308734852
0.93914198399116
0.93908855419663
0.93903320346958
0.93897667684221
0.93892026480532
0.93886610493472
0.93881625577479
0.9387716221127
0.93872149972203
0.93868407035356
0.93865016123637
0.93861764446882
0.93858660806679
0.93855495106973
0.93852159130405
0.9384856825667
0.93844686427692
0.93840527217759
0.93836183195842
0.93831726841819
0.93827190957841
0.93822747464856
0.93818288979819
0.93813964936262
0.93809867907606
0.93805912852341
0.9380206616086
0.93798216502907
0.93794339234957
0.93790402673337
0.9378637338372
0.9378222131674
0.93777940388053
0.93773559599212
0.93769107420195
0.93764589456275
0.93759997478012
0.93755313879354
0.93750507990866
0.93745545541477
0.93740366857764
0.93734941276098
0.93729458343589
0.93711484135385
0.99957465289462
0.99923019397302
0.998694696267
0.99800316498464
0.99718757357424
0.99626470490734
0.99524568795527
0.99413220250959
0.99292287610627
0.99161476986038
0.99021306635678
0.98871948263136
0.98714272949667
0.98550199066936
0.98382343065616
0.98213367706534
0.98045862125571
0.97882120180363
0.97723722930632
0.97571731925963
0.9742675938002
0.97289019555014
0.97158485991793
0.97034979997606
0.96918217747748
0.96807822002986
0.96703395216119
0.96604543933875
0.96510886132173
0.96422067385645
0.96337714238293
0.96257499877288
0.96181120679967
0.96108308036068
0.96038815164038
0.95972407966327
0.95908868875958
0.95847998259776
0.95789614542612
0.95733554529873
0.95679672279124
0.95627839112341
0.95577933917087
0.95529837254339
0.95483437852214
0.95438631986883
0.95395321867851
0.95353428800496
0.95312887634313
0.95273608546073
0.95235528412298
0.95194823465562
0.94980541051083
0.94667102095775
0.9421231591627
0.93911607722105
0.93922122187725
0.93936004241729
0.93947139508167
0.93956510903882
0.93964968150482
0.93972813135515
0.93980053805705
0.93986821362031
0.93993237247754
0.93999342985286
0.94005079575068
0.94010346110082
0.94014956909018
0.94018720144002
0.94021559276455
0.9402342499872
0.94024273795438
0.94024296677737
0.94023553732161
0.94021939876179
0.94019674327543
0.94016905688767
0.94013748272879
0.94010272085221
0.94006545461207
0.94002617854592
0.93998517322364
0.93994255654251
0.93986277376882
0.93981905660787
0.93977463797626
0.93972977987539
0.93968453271497
0.93963894525119
0.93959304277595
0.93954681522211
0.93950005702038
0.9394521141577
0.93940248933494
0.93935071719523
0.93929652125048
0.93923996857113
0.93918157214852
0.93912234802913
0.93906411596947
0.93900971921557
0.93896098749414
0.9389176659609
0.93886967145499
0.93883510925922
0.93880360597578
0.93877249864992
0.93874131942495
0.93870876139282
0.93867370354848
0.93863551824533
0.9385943224618
0.93855055303593
0.93850501543356
0.93845839567225
0.93841129320199
0.93836439461857
0.938317593586
0.9382713761674
0.93822498918898
0.93817785746705
0.93812999083707
0.9380809847241
0.93803015492567
0.93797674526521
0.93792007234676
0.93785985493894
0.93779559829529
0.93772676771202
0.93765282228488
0.93757281396009
0.93748564304718
0.93738998611723
0.93728400811606
0.9371660942498
0.93703281905624
0.9368838708526
0.93671130088806
0.93560344810428
0.99943899185807
0.99879253396408
0.99793648258739
0.99699483439795
0.99602437122806
0.99502165219089
0.99398295425117
0.99289439378397
0.99174179687725
0.99051708619723
0.98921131141091
0.98782182365736
0.98635308306564
0.98481804162672
0.98323836126358
0.9816383554707
0.98004092444553
0.97846882534222
0.97693954655413
0.97546517619
0.97405307138351
0.97270688772993
0.97142749000418
0.97021382519921
0.96906377950797
0.96797455886641
0.96694267177236
0.96596466383111
0.96503700933564
0.96415630828335
0.96331937694507
0.96252293915317
0.96176410892414
0.96104021866298
0.96034902440177
0.95968827066802
0.95905585518598
0.95844985036819
0.9578684818628
0.95731013509468
0.95677335052864
0.9562568500839
0.95575945486778
0.95527999902175
0.95481738272168
0.95437058045222
0.95393864249702
0.95352081368281
0.95311638600747
0.9527244665813
0.95234459523556
0.95195039988156
0.94991098310481
0.94685257267694
0.942415258039
0.9392197760793
0.93934131469452
0.93950464548817
0.93963227275004
0.93973453972302
0.93982319288041
0.93990398794474
0.93997715236578
0.94004487983465
0.94010990887793
0.9401739373188
0.94023588039071
0.94029303784526
0.94034297053423
0.94038327287772
0.94041280995704
0.94043125327683
0.94043832372261
0.94043658984125
0.94042444775017
0.94040294546581
0.94037527602688
0.94034315074493
0.94030775065379
0.94026981733435
0.94022989424039
0.94018830179039
0.94014521686483
0.94010073558873
0.9400256694526
0.93998025277992
0.93993421788902
0.93988770571182
0.93984084159751
0.93979368681578
0.93974621886973
0.9396983666078
0.93964984386324
0.9396000894139
0.93954861676803
0.93949500671976
0.93943903008057
0.93938075555564
0.93932091452991
0.939260624227
0.93920180692149
0.93914774435624
0.93909917937451
0.93905612898484
0.93901008856531
0.93897758138502
0.93894397847551
0.9389087926294
0.93887172834438
0.93883225787367
0.93879028883956
0.93874605751622
0.93869954413224
0.93865079337351
0.9386001360239
0.93854796871589
0.93849436936653
0.93843914051649
0.93838172267252
0.93832112821347
0.93825567726399
0.93818350615713
0.93810203391887
0.93800873723996
0.93790152566103
0.93777832457108
0.9376378972679
0.93748057616486
0.93730499344921
0.93710935378669
0.93689175710138
0.9366479982988
0.93637245548161
0.93605918257947
0.93569989477923
0.9352884369926
0.9348133418056
0.9342719689671
0.93363051264834
0.92946252985962
0.99853057738841
0.99697462084707
0.99590029819455
0.99499324168318
0.9941135043211
0.99322646695561
0.99230949454818
0.99135000417561
0.99032815742221
0.98923064852003
0.98805037943454
0.98678632004141
0.98544171935742
0.98402604957292
0.98255703750961
0.9810572017674
0.97954836731661
0.97805208282448
0.97658649170271
0.97516504740188
0.97379695442064
0.97248739065181
0.97123846597995
0.97005033716371
0.96892153164782
0.96785006582167
0.96683318689038
0.96586783015912
0.96495093117234
0.96407939752994
0.96325025344637
0.96246056729968
0.96170767584696
0.96098894924235
0.96030218609971
0.95964536803342
0.95901641663389
0.95841351912198
0.95783498278379
0.95727919689101
0.95674470726904
0.95623025055807
0.95573469512443
0.95525693222717
0.95479587620096
0.95435049652164
0.95391988536251
0.95350330985485
0.95309999722091
0.95270911294094
0.95233035941933
0.95194789615212
0.95003639200053
0.94706623863365
0.94275788511282
0.9393335186318
0.93945973432541
0.93965753385093
0.93981098391134
0.93992590185932
0.94001742584721
0.94009560796266
0.94016149579936
0.94022020857986
0.94027759740596
0.94033701263183
0.94039859558945
0.94045818129608
0.94051082231301
0.94055360334508
0.94058453992745
0.94060296168417
0.94060868803042
0.94060434051775
0.94058655956856
0.940559196763
0.94052617755517
0.94048963023668
0.94045082865535
0.94041023177366
0.94036801101243
0.94032429587453
0.94027922877623
0.94023289364166
0.94016179994893
0.94011489007708
0.9400673975465
0.94001946414049
0.93997124187257
0.9399227862084
0.9398740328402
0.93982482730664
0.93977480358245
0.93972353331558
0.9396706110394
0.93961566620881
0.93955846736047
0.93949921984701
0.93943883699017
0.93937842879224
0.93932019481373
0.939266886358
0.93921886688632
0.939176006412
0.93912455667575
0.9390788658951
0.93903002223067
0.93897850847185
0.93892433100557
0.93886771952188
0.93880873959567
0.9387480174398
0.93868559522389
0.93862035000699
0.93855163384254
0.93847872028974
0.9383988778066
0.9383086130262
0.93820235285983
0.93807480912489
0.9379186215285
0.93772763787442
0.93749565250815
0.93721693042778
0.93688781090856
0.9365044380927
0.9360670418568
0.93557176709631
0.93501785385283
0.93440041352602
0.93371253967487
0.9329427223771
0.93207385043402
0.93109105751454
0.92997024960548
0.92870112328383
0.92726248404176
0.92565459344958
0.92369086560202
0.91356312427387
0.98750573585189
0.99280203392984
0.99265922888275
0.99229542398164
0.99182672750591
0.99124690380397
0.99057259469289
0.98981383881423
0.98897282081867
0.98805297018051
0.98704220338512
0.98593976050285
0.98474955513384
0.98347932883611
0.98214212348378
0.98075742426441
0.97934692397744
0.97793085054308
0.97652919737745
0.97515758348915
0.9738273052682
0.97254592461841
0.97131785257711
0.97014474279381
0.9690266848919
0.9679625073734
0.96695035193571
0.96598779368926
0.96507214570124
0.96420073877883
0.96337087443055
0.96257982595968
0.96182511370709
0.9611043964637
0.96041535280124
0.95975601049328
0.95912448258448
0.95851892480526
0.95793776766082
0.95737945276379
0.95684246352237
0.95632549561704
0.95582744184761
0.95534725052476
0.95488386735886
0.95443629485876
0.95400361200297
0.95358494780645
0.9531796145765
0.95278705190497
0.95240633720697
0.95203687132101
0.95081393391705
0.94813395541928
0.94429714550818
0.9398836591853
0.9395063484613
0.9397875808273
0.94000686492207
0.94016311992663
0.94026876037136
0.94034497535479
0.94039332933123
0.94042274295529
0.9404500420771
0.94048708667605
0.94053587031406
0.9405915599627
0.94064686843273
0.94069461592511
0.9407305875331
0.94075232142091
0.94075943591793
0.94075438311215
0.94073311928399
0.94070093348467
0.94066325921968
0.94062321206158
0.94058188505273
0.94053923639121
0.94049517845891
0.9404497406223
0.9404030253394
0.94035518058828
0.94027522915454
0.94022676424983
0.94017765165356
0.94012816675562
0.94007843185102
0.94002848730325
0.93997820238234
0.93992731565373
0.93987548505557
0.93982254829229
0.93976819568508
0.93971210759123
0.93965412598224
0.93959464260385
0.93953451628994
0.93947493296738
0.93941760755606
0.93936455180529
0.93931472460491
0.93926561029368
0.93919048613955
0.93908881308092
0.93896484446682
0.9388201335512
0.93866301228188
0.93850326183916
0.93833952236232
0.93818666985065
0.93804291355253
0.93789553938965
0.93773306335196
0.93754435199305
0.93730567581083
0.9370007967936
0.93660359340075
0.93609309149828
0.93544953756511
0.93465828486423
0.93371140304339
0.93260122747538
0.93132865731893
0.92988477252767
0.92827862490109
0.92650280978367
0.92455414016062
0.92242687683891
0.92010001992186
0.91755293119981
0.91475513361174
0.91167961699768
0.90830566277609
0.90462496552807
0.90064738450738
0.8963869045056
0.89105069470449
0.87234448188871
0.97711229468638
0.98466406814204
0.98566125848348
0.98617471798884
0.98641100972596
0.98643464180756
0.98626133877468
0.98590747238716
0.98541242360726
0.98479292081459
0.98405627771729
0.9832128557492
0.98227209471312
0.98123952878232
0.98012753079236
0.97895326225491
0.97773664481968
0.97649732499006
0.97525270080296
0.97401961986531
0.97281106303811
0.97163575212135
0.97049977826744
0.96940674326453
0.96835841699941
0.96735510293336
0.96639617752541
0.96548033249706
0.96460586981837
0.96377066297821
0.96297304500608
0.96221070210216
0.96148146638317
0.96078362711016
0.96011530641957
0.95947460003019
0.95885983421126
0.9582694412543
0.95770201278702
0.95715625759926
0.95663082671321
0.95612444769332
0.95563607119031
0.95516475708208
0.95470954683898
0.95426954446464
0.95384395159967
0.9534319340113
0.95303274733431
0.95264590519585
0.95227068977027
0.95190551356923
0.95052591284459
0.94784893125954
0.94399959708421
0.93990306145599
0.93989627230408
0.94029094075455
0.94053528645782
0.94071336117848
0.94085066228841
0.9409653711745
0.94104226696343
0.94105432350976
0.94099065991061
0.94089993613276
0.94087127526613
0.94089107273947
0.94093517794641
0.94098091238574
0.94101096108233
0.94102119760182
0.94101389072937
0.94098414127436
0.9409408279606
0.94089469894711
0.94084959154641
0.94080415980409
0.94075769766082
0.94070983789373
0.94066044460142
0.94060940352417
0.94055672020302
0.94050246953321
0.94043925550673
0.9403843925992
0.94032797448627
0.94027055538058
0.94021255381058
0.9401540722893
0.94009598370511
0.94003857261575
0.9399809586093
0.93992239779026
0.93986247221066
0.93980100598271
0.93973811134868
0.9396741136456
0.93960944518256
0.93954432605463
0.93947654179694
0.93940102215159
0.93931147639817
0.93916859274708
0.93846480836228
0.93791794823951
0.93725043320635
0.93648163276392
0.93566715760698
0.93482351522771
0.93398220555452
0.93316605165358
0.93234942692126
0.93150730473105
0.93057948452527
0.92949681761555
0.92816443637743
0.9265017228308
0.92444152267578
0.92192869992387
0.9189264690039
0.91542044530262
0.91142044850704
0.90694400227714
0.90203875385092
0.8967411186877
0.89110570768165
0.88517611480532
0.87898633153573
0.87257786730316
0.86596397721359
0.85918543659368
0.85228249955825
0.84528091908826
0.83828345926392
0.83132682592616
0.82450353247261
0.81797984952356
0.81052100013493
0.79483661249753
0.9718323428895
0.97941281759474
0.98061582237501
0.98134464037787
0.98185170040812
0.98218079566265
0.9823249401102
0.98230404705274
0.9821241201515
0.98178389077901
0.9813225814581
0.98074254270517
0.98004231233721
0.97923875575855
0.97834828175808
0.97738211165147
0.97635686123125
0.97529071223839
0.97420126338666
0.97310385520333
0.97201225039124
0.97093786519107
0.96988850698633
0.96886963861995
0.96788472082544
0.96693573014835
0.96602343881782
0.9651478394177
0.96430824263092
0.96350349385435
0.96273208077929
0.96199289705359
0.96128409566562
0.96060387851301
0.9599510714739
0.95932440830153
0.95872221732204
0.95814292397278
0.95758536051924
0.95704838269843
0.95653082694637
0.95603165208379
0.95554981460341
0.95508435432871
0.95463443528861
0.95419922901343
0.95377795945714
0.95336994906453
0.95297455137134
0.95259105537862
0.95221877368802
0.95185758441084
0.95091416562256
0.94844359984145
0.94493644100575
0.9406972180829
0.94002042759486
0.94027662574963
0.94043524695453
0.94063037772302
0.94083482253937
0.94104839619618
0.94125805507636
0.9414246513784
0.94149379249037
0.94144690678629
0.94130331914375
0.94121400596468
0.94121485525503
0.94124268571525
0.94126057377433
0.94125577627498
0.94122002866301
0.94116224554994
0.94110521803355
0.94105318117175
0.94100183591722
0.94094952514311
0.94089482634981
0.94083648939396
0.94077376742144
0.9407067106137
0.94063608873888
0.94056362306697
0.94049805566205
0.94042134627769
0.94033907148501
0.94025022983122
0.94015444986783
0.94005183527192
0.93994322209136
0.93983101665491
0.93971552281092
0.93959666596969
0.93947550634656
0.93935244158779
0.93922564797295
0.93908915810222
0.93893114573071
0.93873244615659
0.93846412817771
0.93809500043453
0.93757822434246
0.93666681102972
0.93212024617191
0.92980439590922
0.92711614824101
0.92412030881442
0.92093210963337
0.91763069911996
0.91431849169207
0.91103859527457
0.90772933552844
0.90425082718774
0.90049802578307
0.89631835628928
0.89158135077729
0.88618420841656
0.88008413794891
0.87327571950314
0.86581730220321
0.85783796827692
0.84950512159315
0.84097427830723
0.83237293186451
0.82383815167544
0.81549490629146
0.80740591078298
0.7994829192521
0.79174448423835
0.78418299462706
0.77682620506931
0.76968216992674
0.76266853807601
0.75586366723913
0.74916933684095
0.7427244384148
0.73622478249534
0.72931261135925
0.72391092421557
0.9675239167606
0.97563144032576
0.97688492919096
0.97763908741607
0.97821902479693
0.97864992757716
0.97895362452035
0.97910360082508
0.97911245942473
0.97899846856816
0.97872934444455
0.97834346561316
0.97785970972643
0.9772589403864
0.97655738889935
0.97577344209545
0.97492237441288
0.97401684888535
0.97307426178254
0.97210965426599
0.97113609826017
0.97016483012333
0.96920571752976
0.96826527160654
0.96734827572562
0.96645807693179
0.96559679370184
0.96476541122342
0.96396422554403
0.9631931626312
0.96245136981066
0.96173791262459
0.96105213796807
0.96039254669473
0.95975757280278
0.95914649841953
0.95855859563221
0.95799236837595
0.95744636965516
0.95691971039702
0.95641152395567
0.95592078349856
0.9554465916533
0.95498808977967
0.95454445943125
0.95411501808939
0.95369906343628
0.95329591160226
0.95290494845042
0.9525255358603
0.9521572369416
0.95179913987278
0.95125203677173
0.94905831431323
0.94592664970141
0.94181891188268
0.93994578310834
0.93987848243969
0.93985928929378
0.94002941089096
0.9403207928027
0.94068648440726
0.94110178291343
0.94148438123711
0.94173567259771
0.94180483749584
0.94172740774963
0.94155990289782
0.94148886824213
0.94148900071963
0.94149102014267
0.94146120372385
0.9413899001985
0.94131069807509
0.94124425610251
0.94118081703051
0.94111595346981
0.94104527294751
0.94096561867577
0.94087889194722
0.94078056653217
0.94066161474544
0.94051783679601
0.94034479271235
0.94023959850898
0.94002317320227
0.93976114829005
0.93944695681787
0.93907667041722
0.93865121422494
0.93817849917771
0.93767294212491
0.93714608077111
0.93660275924102
0.93604651105348
0.93546526825852
0.93482700047489
0.93407339978344
0.9331328344997
0.93191920706881
0.930344570907
0.92830340391096
0.92565864502804
0.92146382168861
0.90641218133414
0.90026252278687
0.89325414095653
0.88563839268718
0.87769609916426
0.86966011573774
0.86202098282729
0.85474001171235
0.84771559581471
0.84099187554278
0.83421339479409
0.82717662753668
0.81969128563419
0.81167635536315
0.80317576861845
0.79430085556116
0.78519479095433
0.77598448603953
0.76684072474178
0.75788533432456
0.74919918974585
0.74080767375534
0.73271556813054
0.7249371491711
0.71740078273791
0.71010863940152
0.70306015521452
0.69628966368968
0.68979755094743
0.68351592733072
0.67743326318439
0.67151086336633
0.66565366342132
0.65933269836838
0.65528730488796
0.66010440916884
0.9631611464627
0.97261956862476
0.97394707355396
0.97469391554949
0.97527564225365
0.97573931664605
0.97609570832349
0.97633943721362
0.97646083772893
0.97646638040563
0.97636616995272
0.97612161670227
0.97577450186659
0.97534624242769
0.97481187308406
0.97418421702201
0.97348174274725
0.97272041592848
0.97191304267609
0.9710716524804
0.97021028280333
0.9693400703349
0.96847012047963
0.96760893636955
0.96676191279775
0.96593305856556
0.96512537852363
0.96434091562571
0.96358086397036
0.96284579910833
0.96213585441343
0.96145055517793
0.96078945065731
0.96015214488709
0.95953746062065
0.95894406744303
0.9583716132822
0.95781943895874
0.9572863948368
0.95677140802305
0.95627373681852
0.95579255395025
0.9553270066102
0.95487640006891
0.95444002358819
0.95401718957842
0.95360730641738
0.95320976024806
0.95282391505559
0.95244926081273
0.9520851637298
0.95173146654123
0.9513662847311
0.94966364985051
0.94694575179522
0.94316854623589
0.94008219189212
0.93939471495503
0.93904906110601
0.93903133867398
0.93936446397247
0.93993554007668
0.94066422650441
0.9413832046874
0.94188666863378
0.94207676608225
0.94203508944897
0.94185097971494
0.94173313097796
0.94171476225858
0.9416955971758
0.94162594409858
0.94151896362175
0.94142966323161
0.94134718259343
0.94126100349214
0.94116289696412
0.94104789205745
0.94089295323277
0.94067863883489
0.94038508896133
0.93998900743487
0.93946369887886
0.93877696464889
0.93843459647647
0.93749650625143
0.93632673227167
0.93490662942981
0.93323221939811
0.93132329324158
0.92922983016387
0.92702211478673
0.92477358353112
0.92254813147072
0.92030560854388
0.9179627317812
0.91538722029517
0.91241760182864
0.90890822126942
0.90472492892113
0.89973347201114
0.89382316536814
0.88682781848473
0.87710378581811
0.84975713266281
0.83935022227719
0.8280902095242