/*--------------------------------*- C++ -*----------------------------------*\
| =========                 |                                                 |
| \\      /  F ield         | OpenFOAM: The Open Source CFD Toolbox           |
|  \\    /   O peration     | Version:  2312                                  |
|   \\  /    A nd           | Website:  www.openfoam.com                      |
|    \\/     M anipulation  |                                                 |
\*---------------------------------------------------------------------------*/
FoamFile
{
    version     2.0;
    format      ascii;
    arch        "LSB;label=32;scalar=64";
    class       volScalarField;
    location    "4e-05";
    object      Ybar.Liq;
}
// * * * * * * * * * * * * * * * * * * * * * * * * * * * * * * * * * * * * * //

dimensions      [0 0 0 0 0 0 0];

internalField   nonuniform List<scalar> 
109340
(
0.99905882221355
0.99905639796737
0.9990503313709
0.99904263361494
0.99903386262641
0.99902431700432
0.99901378446511
0.99900186152751
0.9989881000919
0.99897149815609
0.99895083901983
0.99892484015627
0.99889203439896
0.99885071945412
0.99879891542414
0.99873431103615
0.99865417614586
0.99855525648344
0.99843362788588
0.99828450536255
0.9981019937575
0.99787878521415
0.99760575972943
0.99727143480866
0.99686121197875
0.99635629963592
0.99573214041578
0.99495601938906
0.99398328240673
0.99275107470151
0.9911673971164
0.98909070815685
0.98628926089637
0.98235566270447
0.976517271661
0.96717924459349
0.99905981004055
0.99905624709896
0.99904925327498
0.99904092100929
0.9990318106056
0.99902212426682
0.99901156219999
0.99899954719788
0.99898529055599
0.9989678382832
0.99894604271859
0.99891858432907
0.99888393807971
0.99884033430654
0.99878571395338
0.99871766389264
0.99863333945075
0.99852933607112
0.99840153464787
0.99824489844645
0.99805321107018
0.99781875072041
0.99753186220893
0.99718036149944
0.99674871350803
0.99621685269299
0.99555844314395
0.99473820895094
0.99370766951956
0.99239798136565
0.9907072273752
0.98847610296573
0.98543773280495
0.98110706191448
0.97450595621914
0.96350765607763
0.99906202499516
0.99905766270625
0.99904982140112
0.99904126628936
0.99903226827644
0.99902278880705
0.99901237004238
0.99900043034041
0.9989862472015
0.99896888042745
0.99894719072488
0.99891985462877
0.99888534262617
0.99884188242087
0.99878741548232
0.99871953386531
0.99863539308848
0.99853159157897
0.99840400979413
0.99824760945952
0.99805616346386
0.99782193484742
0.99753524305457
0.99718387282772
0.99675223994786
0.99622021210008
0.99556136205176
0.99474029243892
0.99370836280987
0.99239651090573
0.99070250173043
0.988466315422
0.9854177355539
0.98105563698751
0.97432222162745
0.96265001094201
0.99906510638642
0.99905954315592
0.99905124647882
0.99904241754213
0.99903324786441
0.99902361687517
0.99901313017065
0.99900120381975
0.99898708605829
0.99896982723088
0.9989482864407
0.99892113452397
0.99888683409394
0.99884360549379
0.99878937981128
0.99872173538201
0.99863781087929
0.99853418311168
0.99840669521237
0.99825026192719
0.99805857201175
0.99782377580051
0.99753603564998
0.99718291973122
0.99674854787505
0.99621237472398
0.99554740445439
0.99471745635366
0.99367279801584
0.99234280555328
0.99062292700792
0.98834961014018
0.98524386556186
0.98077640580787
0.97376059473719
0.96080667370763
0.99906994574688
0.99906227919606
0.99905256387614
0.99904303980567
0.99903360737294
0.9990239399697
0.99901354055763
0.99900179755443
0.9989879179072
0.99897092279048
0.998949652842
0.99892274796895
0.9988886271848
0.99884544578726
0.99879104338716
0.99872287204397
0.99863789607505
0.99853245186066
0.99840200040137
0.99824105382683
0.99804265045895
0.99779809650735
0.9974963947611
0.99712356574909
0.99666161544035
0.99608714025027
0.99536925186074
0.99446644687216
0.99332163118811
0.99185380445802
0.98994308885399
0.98740424901384
0.98391811053255
0.97887242844928
0.97081111535567
0.95464745480828
0.99907887741763
0.99906366468578
0.99905276536028
0.99904296184282
0.99903345173262
0.99902365176479
0.99901289213954
0.99900032047865
0.99898485902198
0.99896514981415
0.99893955523675
0.99890611683365
0.99886251033885
0.99880597618137
0.99873321526655
0.99864024333227
0.99852221674746
0.99837327436507
0.99818634314347
0.99795158293031
0.99765702401186
0.99728746415047
0.99682351515638
0.9962403419572
0.99550591886132
0.99457860622342
0.99340363684001
0.99190789746983
0.98999172359663
0.98751528533753
0.98427447563999
0.97995759132945
0.9740345963442
0.96549283281296
0.95185411002816
0.92299053248262
0.95129021962441
0.92474735032811
0.88415647859774
0.82907962798986
0.76195127401637
0.68524764187282
0.60230561150031
0.51696012031097
0.4330432916958
0.35427821647392
0.28281648328877
0.22197777160307
0.1730361921177
0.13365703664168
0.10328940921873
0.080041257677592
0.062422039074716
0.049136290929209
0.039048744403378
0.03134663690311
0.025446260890173
0.02087658549398
0.017291172389274
0.014459266470658
0.01220038376485
0.010376512808367
0.0088917909571775
0.0076749219243361
0.0066667246589564
0.0058258479723571
0.0051189870329357
0.0045214842196393
0.0040127749009515
0.0035765140923535
0.0032008951623377
0.0028758541705715
0.0025927928877015
0.002345147974781
0.0021278598416976
0.0019364209342053
0.0017669224651875
0.0016163673542624
0.0014822713942075
0.0013624558250637
0.0012550639359541
0.0011585265056696
0.001071505649344
0.00099284483690498
0.00092155057631927
0.0008567126940007
0.00079794373260317
0.00074899934987048
0.0029043700205116
0.003595062313048
0.0034451023841051
0.0032277749531626
0.0030482795287281
0.0028412226308417
0.0027146396071712
0.0020554154475458
0.001928391266851
0.0021777476628366
0.0024055655455815
0.0026143021668215
0.0028014545262929
0.0029635309206665
0.0031014199508127
0.0032174967733631
0.0033156933079539
0.0033989563646288
0.0034683767708706
0.0035236511065422
0.0035637103175937
0.0035883775671725
0.0035989963352067
0.0035969020190263
0.003585555976944
0.003566969427289
0.0035426355317468
0.0035135162373015
0.0034836015659009
0.0034540013716662
0.0034260430872579
0.0034031815167784
0.0033877862931609
0.0033883037122327
0.0034029123196936
0.0034306161514185
0.003460604529072
0.0034834525106732
0.0034973183366033
0.0034950616649221
0.0034745927005052
0.0034085733956763
0.0033127223968587
0.0031849527284886
0.0030323498813567
0.0028700449230059
0.0027106657801185
0.002568798278846
0.002455662797412
0.0024294768021469
0.002483782791902
0.0026179604223273
0.0028821801584578
0.0030858027162596
0.0032653680196825
0.0033633923962909
0.0034391221874373
0.0034975638834505
0.0034693640764321
0.0033963633650872
0.0032885512980601
0.0031568431544283
0.0030248764068778
0.0029255023347668
0.0028597391339585
0.002841152826802
0.0028344958164003
0.0028411387669859
0.0028680932113166
0.0029172097535495
0.0029810257803498
0.0030467846918927
0.0031098791256861
0.0031635711135039
0.0032102161191374
0.0032394800030895
0.0032433951866188
0.0032400874395546
0.003225662442507
0.0032103595943534
0.0031998509642113
0.0031908855677642
0.0031874779723223
0.0031863452986789
0.0031888029450589
0.0031976087849118
0.0031961493319836
0.0068481376761834
0.94360495262208
0.90967047091294
0.85949587976997
0.79541214444252
0.72042203273674
0.63831075974695
0.55326747154685
0.46920505834252
0.38960073578007
0.31708943978534
0.25337084005011
0.19937053006867
0.15596112300606
0.12150531288575
0.094459849007843
0.073707577947271
0.057855035705358
0.045773573173379
0.036563454824998
0.029500654829431
0.024040719744307
0.019789143240429
0.016450526021616
0.013798199625777
0.011671319271753
0.0099525984770479
0.0085491885674294
0.0073927817566005
0.0064336833843954
0.005631791293535
0.0049564286332718
0.0043838249305441
0.0038953170390954
0.0034761962347631
0.0031145272141948
0.002800740132113
0.0025273739349772
0.0022881373218968
0.0020777811035972
0.0018920995992745
0.0017276505320424
0.0015815185179943
0.0014512195338248
0.0013346642799659
0.0012300881041451
0.0011359977954972
0.0010511202939177
0.0009743326945859
0.00090470422384512
0.00084135438696909
0.00078370992720194
0.00077392919905725
0.0033261508206961
0.0035412677503104
0.0033679046510309
0.0031729168438915
0.0029876721423408
0.0027835475117591
0.0026448832245002
0.0019189141325009
0.001979502925
0.0022335409381903
0.0024574571684014
0.0026623109309564
0.0028443727239822
0.003001634379935
0.0031350630137958
0.0032475942507348
0.0033429472879521
0.0034234986112556
0.0034899455985484
0.0035416301591847
0.003577878930076
0.0035990432417134
0.0036064244278859
0.0036023744421086
0.0035888705337914
0.0035685648821206
0.0035420466246991
0.0035125250435078
0.0034823788282084
0.0034526728237108
0.0034257692659264
0.0034045422453999
0.0033918686839658
0.0033870914413299
0.0033984454538119
0.0034265788138066
0.003456612757163
0.0034797682640155
0.0034934469085752
0.0034906966083644
0.0034670299592918
0.0033987503368309
0.003303219904608
0.0031812722824433
0.0030332793532536
0.0028726771358457
0.0027142125367546
0.002572878122149
0.0024643153981427
0.0024364597999308
0.002491898200523
0.0026203492738937
0.002845229222402
0.0030420949314227
0.0032363495759576
0.0033489639643842
0.0034346846969913
0.0034911094196397
0.0034644885468076
0.0033963852534886
0.0032925107455715
0.0031654590139649
0.0030382052388171
0.0029366350379358
0.0028730543890845
0.0028549018511341
0.0028481458539118
0.0028559561328406
0.002883928893208
0.0029324312524483
0.002990396008948
0.0030486061839776
0.0031036380399767
0.0031504654728722
0.0031805862269268
0.0032010436077654
0.0032013423622307
0.0031996316266205
0.0031898372900293
0.0031794951600778
0.0031724694434658
0.0031665041501471
0.0031652818634199
0.0031654268752785
0.0031710757041379
0.0031802867729964
0.003182812892142
0.0060760944508263
0.93939393308603
0.89665023391995
0.83541079559158
0.75861760396007
0.67523719545799
0.58938122746354
0.50462142845023
0.42468515585379
0.35172876237882
0.28605707063258
0.23122004151531
0.18432029077504
0.14567383160849
0.11460289328715
0.090020172907443
0.070817424453583
0.055957279794367
0.044524805189054
0.035737707565337
0.02893885019982
0.023647613601148
0.019513052991017
0.016251785708234
0.013651711942687
0.011562867300379
0.0098712310936627
0.0084864707931713
0.0073448655987926
0.0063963135082189
0.0056022282583708
0.0049328731929755
0.0043647564353492
0.0038797767680986
0.0034634564212505
0.0031039794645812
0.0027919936463063
0.0025201123387745
0.0022820504170646
0.0020726196766599
0.0018877354218203
0.0017239656156418
0.0015783734734583
0.0014485072990861
0.00133230910945
0.0012280351540364
0.0011342038944698
0.0010495435480484
0.00097294194798174
0.00090345496550771
0.00084025866937872
0.0007827521075891
0.00076584546095322
0.0032890803757621
0.0035229820409171
0.0033509137428097
0.0031556501942616
0.0029717747048514
0.0027645205499906
0.002617034842913
0.0019237986715017
0.0019714194012404
0.0022266930758549
0.0024539822561402
0.0026616499279977
0.0028460447858287
0.0030050221028382
0.0031396754499261
0.0032533577144245
0.0033497107764679
0.003431043454683
0.0034980309668629
0.003549993875951
0.0035866264840474
0.0036080425233344
0.0036157297439783
0.0036120073542093
0.0035985582079702
0.0035777760124086
0.0035509517257148
0.0035219688071353
0.0034916040809963
0.0034618097922628
0.0034348792501142
0.0034136965364383
0.0033985551235847
0.0034013451029591
0.0034182034605886
0.0034450059610657
0.0034721680662807
0.0034926666958792
0.003503749618849
0.003498534676621
0.0034669164943076
0.0033935456780048
0.0032954083552685
0.0031717726922883
0.003026197107934
0.0028696879157009
0.0027146969478938
0.0025782078193525
0.0024791573006869
0.0024533179489194
0.0025152564362831
0.0026370293901008
0.0028576063797903
0.0030563236776714
0.0032567426449432
0.0033743294918913
0.003463586297854
0.003513741213053
0.0034776324594403
0.0034028123619562
0.0032986196604272
0.003178812241312
0.0030620801886291
0.0029607999944757
0.0028997794977256
0.0028823825531309
0.0028740035987499
0.0028863391958285
0.0029165465910569
0.0029640615616554
0.0030139727115275
0.0030640691078809
0.0031120843956192
0.0031495798084489
0.0031771665117075
0.0031911286134535
0.003191621733198
0.0031921503104975
0.0031855014266235
0.003178882439263
0.0031743743486661
0.0031701764554664
0.0031702325538641
0.0031710193009908
0.0031773799119486
0.0031843112380831
0.0031723111952408
0.0056842532536156
0.92979445976541
0.86643471342607
0.78276968125191
0.68731701838305
0.59522577104115
0.50921048159442
0.43119614199405
0.36192866189492
0.30115375698826
0.24816034510354
0.20352183477077
0.16517854734117
0.13272515066739
0.10598028396075
0.084280304532498
0.067027002291808
0.053473678836526
0.042867191053207
0.034602723909482
0.028165972249567
0.023125855775212
0.019138250097329
0.015975620944641
0.013452774461419
0.011416739140186
0.0097572935312165
0.0083997556749903
0.0072784685447359
0.0063440772611913
0.0055606958483457
0.0048995336301366
0.0043379889786275
0.0038579895119694
0.0034453542274839
0.0030889930212869
0.0027797344210681
0.0025098367655085
0.002273301833066
0.0020653095581181
0.001881618613444
0.0017187583156989
0.0015738852292272
0.0014446384893863
0.0013289691046317
0.001225136947511
0.0011316757555159
0.0010473249998292
0.00097098975389934
0.00090172617702095
0.0008387395737656
0.00078142949941554
0.00075653678237392
0.0032345551942141
0.0034964548307774
0.0033256670805059
0.0031304494387058
0.0029488624156107
0.002738193618187
0.0025765502920814
0.0019267030365093
0.0019587683175565
0.0022133938926742
0.0024456738370566
0.002657720258661
0.0028455728904252
0.0030065994087536
0.0031420965265421
0.0032564599843927
0.0033536701061376
0.003435879647221
0.0035035202773952
0.0035559369435731
0.0035931141909754
0.0036148077285865
0.0036231449438672
0.0036195210786535
0.0036059982144744
0.0035853983571486
0.0035589981488148
0.0035301423541718
0.0034993335800327
0.0034693147767788
0.003442359626561
0.0034210150665079
0.0034048346553151
0.0034099023181908
0.0034260540264556
0.0034487100483897
0.0034731319859298
0.003492426550397
0.0035021962177027
0.003494825795258
0.0034564983825111
0.0033796477657071
0.0032786082226462
0.0031544540567014
0.0030126498938479
0.002860935877296
0.0027130497723342
0.0025865126513143
0.002501993575055
0.0024909538638945
0.0025436940927069
0.002651245284031
0.0028563723689667
0.0030489591136513
0.0032557789167282
0.0033833848400158
0.0034773604746936
0.0035191994621396
0.0034793637579061
0.0034044759520644
0.0033063140708717
0.0031975726099115
0.0030907829675722
0.0029937956997815
0.0029354093586356
0.0029162572263229
0.002907524133599
0.0029219076684904
0.002949541800975
0.0029899736771695
0.0030307287407622
0.0030709130423762
0.0031093594734351
0.0031398587263219
0.0031621891648039
0.0031705903272843
0.0031711854923797
0.0031691588791064
0.0031628401412593
0.003156739789596
0.0031524064107863
0.0031486431364903
0.0031488353928034
0.0031501657578591
0.0031561045948761
0.0031628731874977
0.0031503076256511
0.0059516148429922
0.89676724187805
0.77579913480242
0.65821126567318
0.55186799702145
0.46796977409501
0.39817829638072
0.33998504928747
0.29048565625972
0.2466629622142
0.20868786027564
0.17447865253902
0.14436379875863
0.11825665684112
0.096098913646575
0.077689517730607
0.062626685720968
0.050500492887802
0.04086799420889
0.033244788834094
0.027219662625139
0.022452079339268
0.018669817975425
0.01564069100262
0.013198819748078
0.011225705104758
0.009616419094713
0.0082909654737516
0.0071926640591886
0.0062772406760647
0.0055079363963443
0.0048572415042952
0.0043034546056331
0.0038297945244194
0.00342222396459
0.0030698167898328
0.0027637309941699
0.0024964240339997
0.002262139147561
0.0020559066827763
0.0018735896420269
0.0017118637074527
0.0015680053071539
0.0014395963929305
0.0013246116250408
0.0012213471646512
0.0011283640752784
0.0010444128438536
0.00096841545299143
0.00089945481154382
0.0008367344196431
0.00077965334595789
0.00074617494885086
0.0031618214986989
0.0034625761232768
0.0032926716933246
0.0030970826476567
0.0029184629780185
0.0027042264690822
0.0025238426532397
0.0019226675200758
0.0019420339911487
0.0021938219394223
0.0024321841332032
0.0026497237057592
0.0028419293603501
0.0030057053503236
0.0031421025601188
0.0032565355946781
0.0033539761058832
0.0034367558658771
0.0035050402453978
0.0035581921909997
0.0035959495429183
0.0036181810988352
0.0036274276908805
0.0036239336876757
0.0036104237208374
0.0035907052793677
0.0035650101778019
0.0035357369990559
0.0035044639875948
0.0034738710945636
0.0034466775223799
0.0034245930389252
0.0034081089199478
0.0034134002909267
0.0034278871929948
0.0034467575020876
0.0034682834652895
0.0034864547659895
0.0034947866669205
0.0034854647012025
0.0034420749905486
0.0033626773373394
0.0032598316451819
0.0031361706643165
0.0029965682155231
0.002849047119355
0.0027126191953223
0.0025990668289195
0.0025356913495995
0.0025351323977303
0.0025784869194265
0.0026724421819917
0.002859894517866
0.0030454557024592
0.0032469218267529
0.0033872438173008
0.0034848130134596
0.0035189280473863
0.0034785111921968
0.0034073078984858
0.0033168376049996
0.0032166583011347
0.0031174607496492
0.0030255981028637
0.0029698436156575
0.0029486856003952
0.002940439387788
0.0029550648684421
0.0029801037498665
0.0030132827454426
0.0030455399461264
0.0030751255946883
0.0031007969117311
0.0031212436713848
0.0031369230323279
0.0031430544501603
0.0031432480385672
0.0031353383235416
0.0031259604682809
0.0031164943633195
0.0031054384296349
0.0030955273536153
0.003087042622344
0.0030791951177276
0.0030737646706005
0.0030544436154207
0.0030289147554262
0.0061387502729742
0.66416699689416
0.48024312189632
0.40421938282082
0.35777174253755
0.31908079305024
0.2845661901335
0.25300091842964
0.22421243912651
0.1966122613394
0.17050026793908
0.14615009806171
0.12376389775734
0.10361688781453
0.085849488926246
0.070595911100653
0.057794619738699
0.047216882054114
0.038612059172527
0.03168088848779
0.026127793879692
0.021679510228878
0.018108228164605
0.015233187833492
0.012904688894139
0.011001827842043
0.0094439171310349
0.0081595887442828
0.0070914646468569
0.0061961373401071
0.0054432182359089
0.0048053613737273
0.0042617108413935
0.003795850080118
0.0033942355162601
0.0030465119804619
0.0027443082271281
0.0024803799914373
0.0022485516912985
0.0020442303615822
0.00186370508868
0.0017035264020451
0.0015608742908996
0.0014334058055288
0.0013192183052197
0.0012166438884416
0.0011242564632436
0.0010408030375594
0.00096523566647853
0.00089665201109228
0.00083426346533254
0.00077744017500675
0.00073582407716114
0.003069876624956
0.0034229681513803
0.0032531890023082
0.0030560338536717
0.0028812933940751
0.0026636065309857
0.002464240985892
0.0019099386555424
0.001921809358285
0.0021691837872916
0.0024142058638237
0.0026383981133115
0.0028358781538764
0.0030029219054084
0.0031403352014579
0.0032543739439803
0.003351402949705
0.0034342475011837
0.0035029297675683
0.0035567398868857
0.0035949054861386
0.0036183566349647
0.0036281332755236
0.003625582917377
0.0036129344948059
0.0035939655666474
0.0035687680374017
0.0035391464665715
0.0035070199787945
0.0034753126782419
0.0034473820848101
0.0034241372167507
0.0034083560082496
0.0034115748258077
0.0034224326536563
0.0034388029243938
0.0034577232753771
0.0034742436406498
0.0034808762794989
0.0034690014842293
0.0034202517768423
0.0033387795671945
0.003235054136572
0.0031115000958535
0.0029737717204603
0.002834290294479
0.0027141329376173
0.0026172769252542
0.0025781620590877
0.0025821351310726
0.0026227023796367
0.0027037257927734
0.0028688536175662
0.003038471858451
0.0032219567803731
0.0033710719568841
0.003473892740015
0.0035033062924878
0.0034642932117695
0.0033996715703758
0.0033194576168867
0.0032291053840735
0.0031395550233676
0.0030547592798523
0.0030037922287022
0.0029800326315684
0.0029712296897457
0.0029785821439601
0.0029973711328949
0.0030189049976837
0.0030395645188594
0.0030564051644942
0.0030720352932887
0.0030769162112882
0.0030801729533444
0.0030597626925541
0.0030439368733643
0.0030212684204467
0.0029950966830238
0.0029682137971216
0.002936899584429
0.0029054738827502
0.0028705224092323
0.0028345733035844
0.0027950590139863
0.0027431636930466
0.0026786445033671
0.0058157912509845
0.021602039565538
0.15180221446086
0.18831868025064
0.20128227659119
0.20385429638903
0.19784818607408
0.18643925780129
0.17245513221378
0.15698588795648
0.14084544100809
0.12453025312627
0.10852828502006
0.093262904638499
0.079126717071679
0.066409566931937
0.055314929429905
0.045854102097459
0.037938431721629
0.031415158911944
0.02608809549545
0.021761133394132
0.018251351896219
0.015397652017315
0.013070517394099
0.01116883668892
0.0095972471234077
0.0082955183189757
0.0072129884143315
0.0063073034609362
0.0055412929900157
0.0048915215436174
0.0043381688994158
0.0038636288946662
0.0034547264008374
0.0031004661994827
0.0027923532858332
0.0025232066144157
0.0022870019910806
0.0020789755996857
0.0018949583262716
0.0017315357289277
0.0015861168214041
0.0014563087778667
0.0013400363066986
0.0012355780701259
0.0011414817436423
0.0010565065684498
0.00097958455686259
0.00090976896495995
0.00084628285363529
0.00078838643081522
0.00073377403136439
0.0021258744787815
0.0033924114552501
0.0032599504067705
0.0030487697848321
0.0028878967594179
0.002676396300452
0.0024585055684823
0.0020275330899473
0.0018597740527464
0.0020760902785464
0.0023315134306403
0.0025693002834909
0.0027811038258671
0.0029604564728654
0.0031059327826773
0.0032242222585624
0.0033239872742058
0.0034097365246663
0.0034821991420069
0.0035402754307202
0.0035828270697245
0.0036107933586591
0.0036244129735053
0.0036250783634954
0.0036167656200319
0.0035999549398343
0.0035770606777462
0.0035481289430337
0.0035153365975583
0.0034823186831692
0.0034516929872927
0.0034251612650084
0.0034038621345911
0.0034036676298359
0.0034100472349938
0.003424874002371
0.0034421480735868
0.0034567497797353
0.0034619472318732
0.0034470935848709
0.0033937729035841
0.0033109651192746
0.003206039535591
0.0030833290280876
0.0029510936330058
0.0028284634432728
0.0027210492296663
0.0026498915582635
0.0026294152735784
0.0026308327464961
0.0026737613069834
0.0027410335149549
0.0028904233335272
0.0030267098723294
0.0031717828510734
0.0033076426811396
0.0034171291062024
0.0034493884739673
0.0034118387503966
0.0033526809021693
0.0032769057845086
0.003199788381325
0.0031245180678835
0.0030555634003835
0.0030094035742444
0.002981614689292
0.0029689967972287
0.0029597274221251
0.0029524795733477
0.0029398960796251
0.0029230298908374
0.0028998095849861
0.0028730382359185
0.0028329371735858
0.0027869300698713
0.002729083010679
0.0026678631849863
0.0026032364697309
0.0025347046698664
0.0024668471483899
0.0023957586459209
0.0023241802997959
0.0022522329118169
0.0021790376850021
0.0021059999403181
0.0020223544655479
0.0019433660528478
0.0047577671469064
0.0093635252072468
0.026221974772345
0.047105973846236
0.064512848251979
0.077772127178382
0.086624990739039
0.091355056889157
0.092633293023641
0.09015625396317
0.0857728782765
0.079906867760156
0.072944375747069
0.065393737293334
0.057664460425755
0.050124621640795
0.043081470214734
0.036729280047267
0.03114825530028
0.026352906957043
0.022297177447198
0.01890062623782
0.016073533371806
0.013724560031445
0.011771436478957
0.010144292976407
0.0087865586315871
0.0076509646309343
0.0066914305961135
0.0058788576485194
0.0051895714055916
0.0046014716127678
0.0040968761350935
0.0036600789419731
0.0032825123225273
0.0029539802323866
0.0026673249131447
0.0024155978302815
0.002193951077494
0.0019980774596667
0.0018242170031136
0.0016695054614324
0.0015315988455429
0.0014081400071632
0.00129735892704
0.0011976110200776
0.0011075887834451
0.001026135808092
0.00095229802922278
0.00088521166403838
0.0008241089198505
0.00076829047957748
0.00071493755099499
0.0025506738604394
0.0032733176876264
0.0031086055202001
0.0029032971691181
0.0027404452530917
0.0025029817842884
0.0022557698342971
0.001815606998661
0.0018275143498279
0.0020650326015718
0.0023350337031397
0.0025931952211447
0.0028179395788537
0.0029974955323738
0.0031349823533557
0.0032428606234196
0.0033347065665526
0.0034151647691052
0.0034836949647443
0.0035379443747174
0.0035778297252533
0.0036024434030128
0.003614837296464
0.0036158800278787
0.003607802548526
0.0035910589981093
0.0035655295520777
0.0035323273468413
0.0034957184628323
0.0034581926048297
0.0034238739868361
0.0033948119565499
0.0033792437114667
0.0033656609992932
0.00336443803675
0.0033803376609361
0.003395681154062
0.0034075654880629
0.0034105067485369
0.0033864643714541
0.0033266350757524
0.0032441721565852
0.0031447100133275
0.0030337093795475
0.0029278106675058
0.0028364558832785
0.002775993045447
0.0027502899283949
0.0027449529485773
0.0027578681647991
0.0027873340402702
0.0028271727174366
0.0029178613624654
0.0030013285542651
0.0030807607640957
0.0031506672521433
0.0032089427209004
0.0032104938476371
0.0031612030949783
0.0031013711720645
0.0030288779770568
0.0029502546690848
0.0028733194256832
0.0027975762356066
0.0027320839793858
0.0026659401954285
0.0026030711340549
0.0025291605160076
0.0024514657498026
0.0023659838881234
0.0022755022787806
0.0021810532168858
0.0020880124658491
0.0019954352266114
0.001904292045667
0.0018138164816645
0.0017276294704544
0.0016462671329717
0.0015693126396684
0.0014978042814503
0.00143086571679
0.0013680038753753
0.0013104516410234
0.0012571951237556
0.0012084199500392
0.0011517065681474
0.0011247822523097
0.0026052507841122
0.0075098705563559
0.011234219652116
0.018554883218603
0.02726162908318
0.035461798638397
0.042453738651523
0.047878036481909
0.051628482546876
0.053735472768874
0.054076837737043
0.052752052086493
0.050403038808464
0.047103059390144
0.04313828020317
0.038838288231461
0.034458031847768
0.030220178506166
0.026282684070457
0.022728617020197
0.019594772576019
0.016878306106209
0.014550332276679
0.01256968075038
0.010889949878165
0.0094663450594698
0.0082592711930008
0.0072345683335161
0.0063623613298528
0.0056187024175014
0.0049807941821305
0.0044305885558963
0.0039565620683079
0.0035455803101873
0.0031880084800235
0.0028754833451326
0.0026012406116931
0.0023600436151279
0.00214711145297
0.0019578966746349
0.0017897216345756
0.0016400672567354
0.001506194712935
0.0013862060267227
0.0012782878877771
0.0011808666184867
0.001092876869548
0.0010132295168041
0.00094090609512987
0.0008751094230755
0.00081511408337159
0.00076036105214225
0.00070889087715784
0.001767101469073
0.0031472065579771
0.0029926492849679
0.0027807932060048
0.0025885241913256
0.0023174882755309
0.002048988382214
0.0017035271222565
0.0017101526224964
0.0019364103098207
0.00222275887942
0.0025163817452354
0.0027830676986931
0.0029951284736028
0.0031396823589725
0.0032403684709807
0.003324749518931
0.0034005114862829
0.0034663102260064
0.0035199585671772
0.0035575100026189
0.0035827011097753
0.0035979173953872
0.0036001362718772
0.0035940095241494
0.003575602424736
0.0035466249865011
0.0035084869784707
0.0034664414232281
0.0034241566759687
0.0033845442071178
0.0033515597226021
0.0033358571655762
0.0033138037522744
0.0033060075957476
0.0033180426076241
0.0033304638829757
0.0033409658289325
0.0033330319630158
0.0033042127605986
0.0032536265462715
0.0031812460101063
0.0030913094845052
0.0030012828272167
0.0029223511394917
0.0028676687966251
0.0028440092701207
0.0028370184101927
0.002830377871133
0.0028286139107966
0.0028387107133835
0.0028610736452511
0.002786577063044
0.0027408542960088
0.002689227230281
0.0026397338051415
0.0025856046083676
0.0025361320557554
0.0024401601528633
0.0023483094304473
0.0022534500078978
0.0021561950443842
0.0020621426525916
0.0019696889652329
0.0018798638251501
0.0017914437886561
0.0017039984858484
0.001617474035571
0.0015318860591626
0.0014490776777243
0.0013708802096089
0.0012978667901295
0.0012310340708973
0.0011697923573661
0.001114087811741
0.0010635039756728
0.0010172221251088
0.00097499984209851
0.00093630030978464
0.00090135679693552
0.0008697071120929
0.00084032551749631
0.00081342103502249
0.00078823576983285
0.0007649599857431
0.00073334162219821
0.00073810290996809
0.0016185032154271
0.0060016274566608
0.0078602820138388
0.010133641693656
0.014482283627724
0.019291332060671
0.023876358947531
0.027953693629777
0.031305437738137
0.033804876372316
0.035355777353777
0.035901222285167
0.035348556247661
0.034127832359703
0.03227426594526
0.029946235894672
0.027331763987132
0.024598560423779
0.021906087409669
0.019351238053423
0.01699897910993
0.014884614233801
0.013016166600901
0.011383404727947
0.0099678034852582
0.0087454870604568
0.0076917802446065
0.0067844384244042
0.0060028707758544
0.0053285634183885
0.0047452894928407
0.0042394957479152
0.0038000957944577
0.0034162876094953
0.0030803061528145
0.0027851710459795
0.0025252882430691
0.0022954657122647
0.0020919030859949
0.0019110111490474
0.0017497785758501
0.0016057229008132
0.0014766366621576
0.0013603832132627
0.0012556132229997
0.0011611078873435
0.0010755834647419
0.00099798906710277
0.00092744099382716
0.00086321913577192
0.00080456969164487
0.00075096488974514
0.00070147777730961
0.0009706776547799
0.0029914707754614
0.0028599218944554
0.0026269707515717
0.002378656750364
0.0020823025699194
0.0018127366337535
0.001561929705321
0.0015631984575211
0.0017757178761411
0.0020795897033457
0.002412465785093
0.0027254262658751
0.0029761956991454
0.0031446688858718
0.0032436860018517
0.0033206223806028
0.0033907293850866
0.0034514208483786
0.0035009168764895
0.0035311764143556
0.003556920197761
0.0035752072645069
0.0035771745079456
0.0035693341541985
0.0035470858179114
0.0035119407091472
0.0034687265112426
0.0034205755159461
0.0033728344261114
0.0033290911394896
0.0032909736464782
0.0032732452786956
0.0032487522156667
0.0032331566787983
0.0032248859466265
0.003219310989814
0.0032096845671303
0.0031858144061222
0.0031503779760382
0.0030988280680445
0.0030254731421863
0.0029444366087856
0.0028720589054765
0.00281931540529
0.0027816050392308
0.00274445698795
0.0027054349921785
0.0026594527105678