/*--------------------------------*- C++ -*----------------------------------*\
| =========                 |                                                 |
| \\      /  F ield         | OpenFOAM: The Open Source CFD Toolbox           |
|  \\    /   O peration     | Version:  2312                                  |
|   \\  /    A nd           | Website:  www.openfoam.com                      |
|    \\/     M anipulation  |                                                 |
\*---------------------------------------------------------------------------*/
FoamFile
{
    version     2.0;
    format      ascii;
    arch        "LSB;label=32;scalar=64";
    class       volScalarField;
    location    "4e-05";
    object      yPlus;
}
// * * * * * * * * * * * * * * * * * * * * * * * * * * * * * * * * * * * * * //

dimensions      [0 0 0 0 0 0 0];

internalField   uniform 0;

boundaryField
{
    inlet
    {
        type            calculated;
        value           uniform 0;
    }
    outlet
    {
        type            calculated;
        value           uniform 0;
    }
    nozzleWalls
    {
        type            calculated;
        value           nonuniform List<scalar> 
144
(
35.423167861373
35.00637712289
34.572817837143
34.145038847454
33.729460639454
33.328243177249
32.942163903703
32.571185187511
32.215357858863
31.874707968649
31.549381662178
31.239635980451
30.945824739812
30.668402627102
30.407930604908
30.165060175406
29.940457272263
29.733964278373
29.542372323388
29.363680487878
29.197692599931
29.044446105946
28.904016252553
28.776554449197
28.662350016368
28.561890469776
28.475964788543
28.405820896928
28.353430300014
28.322006204417
28.317237625471
28.34781553171
28.43277382018
28.617688697186
29.063353533626
31.161612362515
35.663747720193
35.323806265574
34.898180794818
34.464947705271
34.039882668419
33.627760926263
33.230288356545
32.848007837521
32.480807848145
32.128768934427
31.791931569185
31.470472444146
31.164673666764
30.874912937267
30.601671486249
30.34553580063
30.107173454905
29.887206369282
29.684805420109
29.496506414277
29.32099255884
29.158183410242
29.00813468068
28.870925901684
28.74674566037
28.635921696801
28.539007105487
28.456887540429
28.390960294042
28.34344413898
28.317998753371
28.321052270555
28.362868497801
28.46668639097
28.692173314006
29.280213567126
35.515537254378
35.113859399469
34.681110628437
34.250973232779
33.832062615105
33.427135786272
33.037251603937
32.662513349392
32.302894651444
31.958441652598
31.629264397972
31.315594130643
31.017761127567
30.736192673856
30.471425222681
30.22408965244
29.994865602478
29.784054096559
29.589038355014
29.407161878562
29.237997813348
29.081558710308
28.937916782501
28.807190712471
28.689635870012
28.585679936212
28.496025188822
28.421785657539
28.364716566985
28.327646564357
28.315604380463
28.33605960975
28.404727044729
28.557228434828
28.904092973197
30.135583241826
35.598497274712
35.220029000697
34.789671610823
34.357633600762
33.935546108016
33.526981278631
33.133285441969
32.754789346254
32.391378081286
32.043129450303
31.710115684118
31.392541317487
31.090712742182
30.805031928413
30.536009030836
30.284251908053
30.05043996727
29.835083020832
29.636511087804
29.451436917829
29.279098093622
29.119471751405
28.972624316721
28.838649541528
28.717770660848
28.610361339315
28.517045994152
28.438818282398
28.377243416079
28.334823694317
28.315854649636
28.327240929659
28.381656228359
28.507635720708
28.785334190581
29.605053252068
)
;
    }
    tipWalls
    {
        type            calculated;
        value           nonuniform List<scalar> 
304
(
9.2906964847396
2.8314792046226
4.3884405202696
4.6757545318174
4.4946465147488
4.0613577003614
3.3637912725353
2.3818460367099
1.3986909442735
0.59565202914975
0.24557955367038
0.35850936827226
0.35765301716302
0.33032498782858
0.30313284327515
0.27754160993481
0.25430175487824
0.23421601733212
0.21797652579804
0.20554492874912
0.19620107193007
0.18902150967218
0.1831784998114
0.17790740425356
0.17269381572777
0.16716798067602
0.16103212759845
0.1543080418519
0.14684852189756
0.13865996482031
0.12980300868913
0.12029491151691
0.10997456406704
0.098803059297296
0.086562904776856
0.073094252874336
0.057479904641023
0.037588689393399
0.025691580145375
0.047528128058964
0.062439281633914
0.074097652915603
0.083870760547314
0.092391818537393
0.10001447827432
0.10694446225821
0.11330077917521
0.11916213750139
0.12459050624095
0.12963143711193
0.13431176637008
0.13865240249809
0.14264544743236
0.14628777598168
0.14958265576361
0.15252318969843
0.15511383163618
0.15739066307411
0.15934251699231
0.16097033645874
0.16226359057635
0.1632149920749
0.16383523163868
0.16435112584637
0.16757987682995
0.32583585995877
0.32638291364485
0.32530909155208
0.32421022557402
0.32311858470663
0.32206600736478
0.32118209908717
0.32062947697286
0.32066467027124
0.32217996499907
0.32767483144963
0.34662659080177
0.64470946895587
0.64939397022951
0.65208481852704
0.65480788806187
0.65726533585069
0.65958481472959
0.66168373574486
0.66357245196105
0.66530519613834
0.66688260104608
0.66830742035042
0.66955279292704
0.67060674836953
0.67142888108417
0.67199003807739
0.6722628379046
0.67228302688524
0.67179765151289
0.67025630548364
0.62146728608987
1.6634740588751
3.8731251115853
4.6203279644195
4.625270721133
4.3057475575958
3.7507532619019
2.8985719127118
1.8488629027308
0.97478032100957
0.31222781117729
0.33260868231576
0.36313887009809
0.34410885567813
0.31646932857512
0.29011380515993
0.26552226944032
0.24382647553238
0.2255701204751
0.21132470018847
0.20054306910251
0.19239566616991
0.18598224760646
0.18051653762227
0.17530761562035
0.16999285666335
0.16420246155603
0.15773946419727
0.15067703599541
0.14283718684187
0.13428202158909
0.12513975895063
0.11523544604422
0.10454625408065
0.092825642062831
0.080149838846511
0.065618120986839
0.048362962011573
0.025427632520001
0.037836378646514
0.055534891852632
0.068562522877671
0.079171003283616
0.088261332301272
0.096299926343381
0.10355724498247
0.11018883444772
0.11628915439268
0.12192713334368
0.1271573314953
0.13201552733356
0.13652416499714
0.14069289053295
0.14451034578246
0.14797911910984
0.1510967586491
0.15386420617567
0.15629368317438
0.15840651037154
0.16019757284201
0.16165941209134
0.16278218259689
0.16356328943531
0.16406087342135
0.16510715007336
0.16919990038471
0.32679588416
0.32585417260391
0.32476088281183
0.32365032032242
0.32258195529074
0.32159316723456
0.32085332204807
0.32053826624161
0.32113385507036
0.32416007863643
0.33359777837161
0.35156866778422
23.099354612294
1.9513350799407
4.174569016084
4.664862495985
4.5683616538455
4.1909325025023
3.566727747086
2.6451392626565
1.6158586079147
0.77200384851964
0.21670897818574
0.34850625311191
0.36287393884013
0.33708197076402
0.3096714826708
0.28376296936866
0.25983745572402
0.2389287941281
0.22165394869926
0.20833109085902
0.19829737086399
0.19066078152277
0.18455708965066
0.17921072860909
0.17400703471925
0.16859607468723
0.16264568940061
0.1560449224471
0.14878662603457
0.14077152153706
0.13206449230478
0.12274485264725
0.11263104498811
0.10170960797436
0.089727109345659
0.076672960033262
0.061649835069923
0.043248027672169
0.021714137894347
0.042945362767142
0.059100710730506
0.071394574315079
0.081563123288931
0.090356495590346
0.098179889222042
0.10526945008822
0.11176078798256
0.11773958570309
0.12327116901364
0.12840576918405
0.13317441871954
0.13759913911192
0.14168010747025
0.14540990320962
0.14879205405488
0.15182070600624
0.15449977461245
0.15685263760437
0.15888454615546
0.1605943272169
0.16197216924347
0.16300929620119
0.16370770339949
0.164184172298
0.16601832551387
3.6927463460577
3.4314482571885
4.532236768084
4.661919034413
4.4080927172726
3.9151816093856
3.140485551147
2.1106264826439
1.1863498015178
0.45001844624587
0.29577437292206
0.36722081756405
0.35032836885315
0.32336876474327
0.29659853325373
0.27144921143208
0.24894597385915
0.22975203404536
0.21453492053375
0.20295386312217
0.19423826294382
0.18746598930167
0.18183535230585
0.1766051365927
0.17135785137283
0.16570616839316
0.15939280309895
0.15251835003601
0.1448641449857
0.13648191062993
0.1274931077298
0.11778774513856
0.10729553688516
0.095840969819867
0.083415877450052
0.069421751318781
0.053069359792255
0.031469589893279
0.032066619164074
0.051697312219875
0.06558443041078
0.076685858511311
0.086101324736662
0.094371684112243
0.10180620829657
0.10858379759678
0.11480988686347
0.12055770926164
0.12588572978046
0.13083462048486
0.1354282160991
0.13968367030249
0.1435888811365
0.1471442175517
0.15035085478821
0.153204491689
0.15571342166695
0.15790854609295
0.15978024806281
0.16132542120138
0.16253360881055
0.16339947066457
0.16395032531998
0.16462030733454
0.17193116974104
)
;
    }
    wedge1
    {
        type            wedge;
    }
    wedge2
    {
        type            wedge;
    }
    defaultFaces
    {
        type            empty;
    }
}


// ************************************************************************* //
