/*--------------------------------*- C++ -*----------------------------------*\
| =========                 |                                                 |
| \\      /  F ield         | OpenFOAM: The Open Source CFD Toolbox           |
|  \\    /   O peration     | Version:  2312                                  |
|   \\  /    A nd           | Website:  www.openfoam.com                      |
|    \\/     M anipulation  |                                                 |
\*---------------------------------------------------------------------------*/
FoamFile
{
    version     2.0;
    format      ascii;
    arch        "LSB;label=32;scalar=64";
    class       volScalarField;
    location    "0.005";
    object      cSound;
}
// * * * * * * * * * * * * * * * * * * * * * * * * * * * * * * * * * * * * * //

dimensions      [0 1 -1 0 0 0 0];

internalField   nonuniform List<scalar> 
19400
(
347.208162108
347.207391436
347.206722539
347.206149202
347.205677533
347.205319607
347.205080089
347.204967486
347.204956016
347.205054617
347.205256381
347.205554484
347.205942243
347.206404631
347.206919288
347.2074581
347.207991733
347.2084946
347.208945666
347.20932869
347.209632985
347.209855303
347.21000072
347.210083489
347.210125719
347.210155413
347.210203204
347.210299609
347.210472439
347.210744441
347.195741572
347.194342524
347.193193126
347.192341836
347.191754252
347.191509075
347.191536498
347.191864887
347.192479698
347.193342534
347.194416076
347.195689159
347.197146318
347.198729597
347.20038068
347.202035404
347.203620807
347.205089967
347.206403305
347.207529787
347.208445479
347.209143734
347.209636484
347.209951534
347.21012934
347.210219879
347.210275214
347.210347556
347.210483448
347.210719198
347.188768333
347.186614863
347.18467057
347.182979834
347.181599533
347.180594968
347.179982602
347.179774268
347.179992733
347.180652816
347.181746673
347.183246235
347.185097112
347.187239248
347.189624395
347.192171272
347.194763382
347.197428729
347.200044442
347.20246967
347.204600416
347.2063788
347.207783237
347.208817738
347.20951975
347.209955269
347.210207598
347.210364316
347.210506821
347.210705181
347.187295139
347.184867691
347.18256926
347.180435635
347.178508698
347.176838638
347.175476847
347.174465335
347.173826337
347.173657825
347.173841922
347.174525474
347.175685354
347.17731248
347.179389137
347.181889207
347.18477976
347.18789874
347.191148762
347.194407537
347.197629514
347.200705285
347.203425538
347.205674427
347.207413206
347.208662064
347.209491666
347.210010027
347.210338568
347.210596108
347.187853672
347.185490514
347.183199823
347.181011267
347.178954369
347.177059769
347.175362647
347.173898687
347.172693731
347.171804224
347.171217704
347.171097263
347.171249136
347.171899859
347.173027525
347.174640111
347.176744475
347.179324493
347.182340512
347.185744055
347.189426359
347.193111432
347.19667512
347.200129606
347.203188504
347.20566727
347.207525139
347.208811065
347.209643789
347.210176404
347.188816183
347.186645736
347.184516119
347.182449948
347.180468916
347.178594437
347.176846439
347.175246666
347.17381734
347.172593898
347.171594412
347.170893645
347.170418168
347.17035696
347.170515868
347.17114572
347.172248989
347.173839928
347.175943684
347.178575435
347.181720924
347.185310827
347.189273448
347.193269003
347.197075111
347.200715864
347.203864789
347.20629601
347.208021269
347.209153352
347.18957691
347.187609751
347.185668447
347.183771256
347.181935366
347.180176832
347.178510602
347.176951083
347.175507284
347.174192468
347.173019335
347.172024315
347.171224052
347.170682403
347.170373711
347.170385344
347.17060871
347.171270307
347.172404165
347.174039774
347.176226616
347.178997211
347.182350042
347.186203266
347.190440598
347.194616113
347.198576104
347.202197821
347.205115463
347.207205442
347.190115681
347.18832985
347.186561069
347.184824817
347.183135487
347.181506645
347.179949851
347.178477095
347.17709635
347.175815496
347.174635748
347.173564016
347.1726096
347.171807437
347.171172241
347.170766642
347.170627902
347.170688343
347.171014402
347.171781202
347.173032269
347.174823295
347.177227532
347.180286513
347.183983806
347.188190523
347.192689725
347.196870239
347.200798819
347.204068663
347.190481487
347.188854551
347.187238173
347.185645731
347.184089794
347.182582015
347.181132646
347.179751052
347.178445104
347.177220118
347.176080018
347.175028147
347.174066293
347.173189254
347.17240235
347.17174508
347.17126239
347.17097236
347.170971255
347.171094168
347.171572036
347.172526645
347.174002211
347.176093434
347.178885713
347.182404427
347.1865815
347.191185026
347.195603842
347.199700114
347.190718109
347.189231446
347.187749456
347.186284625
347.184848092
347.183450009
347.182099646
347.180804659
347.179572336
347.178407815
347.177313826
347.176293171
347.175348998
347.174478238
347.173683146
347.172941834
347.172282447
347.171739184
347.171386045
347.171232769
347.171276845
347.171535042
347.172255827
347.173492428
347.175342721
347.177922782
347.181298391
347.185421738
347.190077016
347.194663523
347.190862189
347.189496912
347.188133575
347.186782293
347.185452737
347.184153863
347.182893871
347.181679614
347.180517413
347.179412122
347.178366031
347.177381661
347.176461727
347.175604293
347.174811014
347.174074017
347.173390504
347.172737227
347.17217253
347.171745654
347.171498702
347.171472936
347.17158558
347.172108062
347.173157981
347.174825634
347.177249152
347.180521655
347.184617594
347.189317216
347.190931179
347.18967652
347.188419599
347.187169922
347.185936524
347.184727533
347.183550103
347.182410688
347.181314381
347.180265763
347.179268417
347.178322968
347.17743106
347.176592515
347.175807118
347.175072617
347.174383948
347.173740598
347.173108132
347.172524411
347.172042422
347.17172818
347.17159882
347.171640349
347.171990944
347.172898898
347.174436633
347.176757963
347.179979046
347.18408125
347.190953187
347.1897939
347.188630507
347.187471516
347.186324764
347.185197328
347.184095571
347.18302526
347.181991014
347.180996904
347.180046247
347.17913983
347.178278846
347.177463518
347.176692593
347.175965374
347.175276541
347.174626712
347.174003782
347.173393243
347.17278942
347.172271206
347.171878599
347.171683451
347.17163372
347.171848138
347.172655919
347.174112779
347.17638822
347.17961008
347.190933582
347.189860391
347.188781973
347.187705248
347.186637063
347.185583886
347.184551521
347.183545145
347.182569063
347.181626894
347.180721448
347.179853888
347.17902512
347.178235473
347.177483518
347.176768455
347.176086075
347.175434873
347.174808926
347.174202567
347.173597204
347.172980778
347.172414216
347.171969542
347.171713431
347.171534902
347.17169471
347.172420926
347.17383693
347.176114778
347.190885922
347.189889851
347.18888851
347.187886042
347.186888989
347.185903414
347.184934745
347.183987556
347.183065891
347.182172899
347.181311158
347.180482125
347.179686204
347.178923819
347.178193755
347.177494779
347.176823924
347.176178149
347.175553326
347.174944537
347.174343418
347.173735639
347.173098451
347.17248917
347.172005759
347.171657281
347.171399727
347.171511328
347.172187831
347.173604384
347.190819367
347.189895364
347.188961412
347.188025014
347.187092321
347.186168538
347.185258451
347.184366175
347.183495407
347.182649014
347.181829281
347.181037879
347.180274993
347.179540942
347.178834732
347.178154951
347.177499236
347.176864154
347.17624573
347.175639886
347.175039134
347.17443936
347.173817144
347.173153909
347.172513115
347.171974676
347.171544118
347.171230421
347.17130171
347.171965262
347.190738629
347.189876459
347.189004706
347.18812975
347.187256211
347.186389289
347.185533319
347.184692093
347.183868972
347.183066664
347.182287233
347.181532282
347.180802033
347.180096813
347.17941577
347.178757303
347.178119549
347.177499353
347.176892763
347.176295744
347.1757017
347.175105552
347.174498961
347.173854705
347.17316791
347.172486432
347.171886416
347.17139481
347.171059414
347.171087024
347.190648598
347.189842838
347.189027096
347.188207882
347.187388775
347.1865742
347.185768202
347.184974383
347.184195848
347.183435127
347.182694197
347.181974431
347.181276176
347.180599867
347.179944876
347.179309707
347.178692435
347.178090253
347.17749953
347.176916191
347.176334622
347.17574827
347.175152761
347.174530145
347.173864821
347.173150423
347.172417369
347.171765951
347.171248208
347.170913757
347.19055255
347.189798658
347.189034455
347.188266189
347.187496705
347.186730034
347.18597011
347.18522027
347.184483402
347.183761895
347.183057624
347.182371926
347.181705198
347.181057776
347.180429343
347.179818624
347.179223641
347.178641912
347.178070161
347.177504464
347.176939771
347.176369878
347.175788852
347.175188248
347.174548645
347.173860255
347.173111039
347.172330771
347.171653434
347.17112715
347.190453668
347.189747027
347.189031136
347.188308658
347.187584311
347.186861677
347.186144377
347.185435542
347.184737757
347.184053342
347.183384001
347.182731053
347.18209532
347.181476718
347.180874968
347.180289222
347.179717763
347.179158329
347.17860795
347.178063021
347.177518886
347.176970079
347.176409932
347.175832522
347.175223248
347.174568879
347.173856
347.173070219
347.172261449
347.171575505
347.190353442
347.189689845
347.189016802
347.188336798
347.187654705
347.186972987
347.186295434
347.185624897
347.184963857
347.184314511
347.183678492
347.183057077
347.182451282
347.181860953
347.181285966
347.180725669
347.180178608
347.179642799
347.179115643
347.178593815
347.178073226
347.177548922
347.177014888
347.176464448
347.175889788
347.175274137
347.174606768
347.173871087
347.173053762
347.172241632
347.190253617
347.189629309
347.188994993
347.188354346
347.187711239
347.187067608
347.186427066
347.185792365
347.185165851
347.18454966
347.183945356
347.183354263
347.182777349
347.182214688
347.181666255
347.181131509
347.180609359
347.180098073
347.179595411
347.179098453
347.178603647
347.178106522
347.177601928
347.177083401
347.176544387
347.175974133
347.175357666
347.174682116
347.173927593
347.1730913
347.190155326
347.189567345
347.188969323
347.188364532
347.187757056
347.187148647
347.186542533
347.18594132
347.185347258
347.184762365
347.184188226
347.183626174
347.18307716
347.182541421
347.182019092
347.181509814
347.18101273
347.180526448
347.180049111
347.179578194
347.179110727
347.178642731
347.178169907
347.177686581
347.177186534
347.176662475
347.176102916
347.175492905
347.174816598
347.174047286
347.190059386
347.189504741
347.188940136
347.188368506
347.187794169
347.187218482
347.186644452
347.186074543
347.185510965
347.184955631
347.184410152
347.18387585
347.183353711
347.182844113
347.18234731
347.181863164
347.181391058
347.180929961
347.180478345
347.180034149
347.179594936
347.179157392
347.178717815
347.178271657
347.177813228
347.177337018
347.176833707
347.176294927
347.175701548
347.175034072
347.189966489
347.189442485
347.188908702
347.188368286
347.187824426
347.18727912
347.186734935
347.186194327
347.185659384
347.185131965
347.184613687
347.184105869
347.183609569
347.183125264
347.182653262
347.182193736
347.181746351
347.181310325
347.180884511
347.180467283
347.180056757
347.179650292
347.179244742
347.17883683
347.17842124
347.177994148
347.177548312
347.177077285
347.176570179
347.176005375
347.189877076
347.189381351
347.188876094
347.188364383
347.18784896
347.187332087
347.186815738
347.186302543
347.185794531
347.185293457
347.184800972
347.184318393
347.183846874
347.183387083
347.182938956
347.18250347
347.182080337
347.181669043
347.181268828
347.180878488
347.180496606
347.180121318
347.179750028
347.17938033
347.179008094
347.178630913
347.17824234
347.177835933
347.177409751
347.176954226
347.189791454
347.189321873
347.188843064
347.188357878
347.187868898
347.187378501
347.186888237
347.186400762
347.18591807
347.185441883
347.184973842
347.184515248
347.184067398
347.183631482
347.183206241
347.182794048
347.182394555
347.182007474
347.181632421
347.181268504
347.180914973
347.180570524
347.180232845
347.179901215
347.179572462
347.179242647
347.17890999
347.178573571
347.178228739
347.177859045
347.189709866
347.189264442
347.188810153
347.188349584
347.18788519
347.187419489
347.186953626
347.186490311
347.18603145
347.185578744
347.185133868
347.184698027
347.184272477
347.183857679
347.183456348
347.183066913
347.182690322
347.182326819
347.181976193
347.181638111
347.181312407
347.180997592
347.180693178
347.18039926
347.180110003
347.179827998
347.179557816
347.179279509
347.178983752
347.178684987
347.18963241
347.189209386
347.188777793
347.188340134
347.18789867
347.187455963
347.187012954
347.186572293
347.18613587
347.185705364
347.185282399
347.184868273
347.184464293
347.184071389
347.183691141
347.183323368
347.182968923
347.182628141
347.182301072
347.181988242
347.181688961
347.181402997
347.181131724
347.180870861
347.180621991
347.180394464
347.180160265
347.179914333
347.179696343
347.179493518
347.189559158
347.189156899
347.188746392
347.188330049
347.187909946
347.1874887
347.187067071
347.186647692
347.186232389
347.185822849
347.185420653
347.185027187
347.184643768
347.184271506
347.18391164
347.183564559
347.183231493
347.182912296
347.182608175
347.182319366
347.182045023
347.181788315
347.181545778
347.181317261
347.181116226
347.180913863
347.180704879
347.180530876
347.180387294
347.180255037
347.189490142
347.189107153
347.188716235
347.188319607
347.187919497
347.187518311
347.187116714
347.18671732
347.186321905
347.185932173
347.185549633
347.185175813
347.184811853
347.184459258
347.184118839
347.183791658
347.183478912
347.183180261
347.182898504
347.182631632
347.182382381
347.182152596
347.181934517
347.181747181
347.181571747
347.181384229
347.181234786
347.18111977
347.181034191
347.180983808
347.189425322
347.189060242
347.188687559
347.188309344
347.18792783
347.187545328
347.187162497
347.186781876
347.186405216
347.186034185
347.185670237
347.185315038
347.184969515
347.184635678
347.184313622
347.184005719
347.183711867
347.183433253
347.183172467
347.182925966
347.182702331
347.182493382
347.182305194
347.182152019
347.181981402
347.181836771
347.181738139
347.181675985
347.181660375
347.181680129
347.189364639
347.189016231
347.188660507
347.188299505
347.187935324
347.18757024
347.187204979
347.186841988
347.186482988
347.186129595
347.185783252
347.185445653
347.185117624
347.184801589
347.184496908
347.184207549
347.183931132
347.183672416
347.183430104
347.183204392
347.183003765
347.182812763
347.182660537
347.18251724
347.182366932
347.182269152
347.182216761
347.182213878
347.182245745
347.182311256
347.189308011
347.188975122
347.188635211
347.188290242
347.187942282
347.187593445
347.187244633
347.186898205
347.186555818
347.18621906
347.185889347
347.185568363
347.185256971
347.184957693
347.184669592
347.184397749
347.18413774
347.183898324
347.183672116
347.183468535
347.18328501
347.183116324
347.18299284
347.182851212
347.182735591
347.18268011
347.182677385
347.182709591
347.182774807
347.182885348
347.189255337
347.188936915
347.188611752
347.18828176
347.18794894
347.187615273
347.187281869
347.186950987
347.186624234
347.186303125
347.185989132
347.185683808
347.185388211
347.185104638
347.184832497
347.184576838
347.184332786
347.18411111
347.183900118
347.183718199
347.183546971
347.18340684
347.18329541
347.18316345
347.183088298
347.183075875
347.183101226
347.183157582
347.183256544
347.183407525
347.189206488
347.188901594
347.188590182
347.188274172
347.187955487
347.187635996
347.187317024
347.187000723
347.186688658
347.186382292
347.186083119
347.18579256
347.185511933
347.185243088
347.18498625
347.184745445
347.184517109
347.184311057
347.184115768
347.183952249
347.183793467
347.183682067
347.183571198
347.183460658
347.183427564
347.183441667
347.183485153
347.18356587
347.183694504
347.18387934
347.189161314
347.188869092
347.188570553
347.188267598
347.187962126
347.18765587
347.187350406
347.187047772
347.186749504
347.186457022
347.186171793
347.185895176
347.185628661
347.185373673
347.185131389
347.18490428
347.184691292
347.184498887
347.184319928
347.184170657
347.184027816
347.183936351
347.183825432
347.183748363
347.183746067
347.183775441
347.183835298
347.18393764
347.184090629
347.184302564
347.189119685
347.188839335
347.188552857
347.188262141
347.187969006
347.187675114
347.187382285
347.187092472
347.186807155
347.186527721
347.186255619
347.185992139
347.185738883
347.185496999
347.185268376
347.185054114
347.184855716
347.184675551
347.184512901
347.184374628
347.184250141
347.184169927
347.184065271
347.184025074
347.184039196
347.184079441
347.184154728
347.18427465
347.18444668
347.184679189
347.189081421
347.188812265
347.188537107
347.188257876
347.18797627
347.187693926
347.187412925
347.187135117
347.186861954
347.186594784
347.186335003
347.186083899
347.18584307
347.185613594
347.185397678
347.185195652
347.185010731
347.184842069
347.184694797
347.184565608
347.184460501
347.184387155
347.184293676
347.184283731
347.184307195
347.184357319
347.184445394
347.184578851
347.18476492
347.185011735
347.189046367
347.188787774
347.188523292
347.188254862
347.187984014
347.187712483
347.187442551
347.187175996
347.186914217
347.186658539
347.186410322
347.186170845
347.185941659
347.185723938
347.18551978
347.185329511
347.185156749
347.184999405
347.184865712
347.184745241
347.18465872
347.184586831
347.184515933
347.184521372
347.184551651
347.18461132
347.184709485
347.184852777
347.185048043
347.185303244
347.189014328
347.188765753
347.188511362
347.188253109
347.187992347
347.187730942
347.187471385
347.187215343
347.186964189
347.186719256
347.186481862
347.186253298
347.186035054
347.185828398
347.185635183
347.185456166
347.185294299
347.18514831
347.185025865
347.18491513
347.184843963
347.184773505
347.18472607
347.184740261
347.184776415
347.184843982
347.184949462
347.185098913
347.185298609
347.185557233
347.188985113
347.18874607
347.188501245
347.18825249
347.188001298
347.18774944
347.187499581
347.187253302
347.187012028
347.186777109
347.186549838
347.186331536
347.186123564
347.185927321
347.185744361
347.185575992
347.185424013
347.185289247
347.185175865
347.185076456
347.185015959
347.184949857
347.184922536
347.184942247
347.1849843
347.185057384
347.18516718
347.185319141
347.185519135
347.185778837
347.188958505
347.188728564
347.188492846
347.188253129
347.188010917
347.187768079
347.187527221
347.18728996
347.187057838
347.186832248
347.186614469
347.186405768
347.18620748
347.186021024
347.185847721
347.185689327
347.185546554
347.185422494
347.185316707
347.185229677
347.185175182
347.1851178
347.185106083
347.185129583
347.18517611
347.185252435
347.185364161
347.185515466
347.185712383
347.185967248
347.188934277
347.188713079
347.188486073
347.188254952
347.188021279
347.187786952
347.187554351
347.187325379
347.187101742
347.186884859
347.186675934
347.186476254
347.186287071
347.186109796
347.185945607
347.185796498
347.185662521
347.185548238
347.185449623
347.185374613
347.185323139
347.185278633
347.185277084
347.185303422
347.185352617
347.185430533
347.185542101
347.185690136
347.185882205
347.186117274
347.188912188
347.188699433
347.18848082
347.188257959
347.188032609
347.187806077
347.187580959
347.187359655
347.187143933
347.186935169
347.186734522
347.186543284
347.186362623
347.186193934
347.186038346
347.185897836
347.185772414
347.185666732
347.185575794
347.185510852
347.185461989
347.185432208
347.185436363
347.185464757
347.185514943
347.185593607
347.185702858
347.185845519
347.186027627
347.186242283
347.188891967
347.188687359
347.18847687
347.188262072
347.188044471
347.187825153
347.187606957
347.187392857
347.187184595
347.186983421
347.186790521
347.186607156
347.186434441
347.186273753
347.186126243
347.18599372
347.185876558
347.185778428
347.185695813
347.185638356
347.185593664
347.185577388
347.18558538
347.185614383
347.185665161
347.185742983
347.185847586
347.185984132
347.186151073
347.186347666
347.188873301
347.188676467
347.188473825
347.188266733
347.188056241
347.187843634
347.187632012
347.187424771
347.187223578
347.187029571
347.186843991
347.186667998
347.186502714
347.18634951
347.186209573
347.186084501
347.185975194
347.185883894
347.18580976
347.185757643
347.185719539
347.185714035
347.18572448
347.18575351
347.185805107
347.185880118
347.185979233
347.186108204
347.186258468
347.186433924
347.188855869
347.188666382
347.188471222
347.188271292
347.188067233
347.187860889
347.187655561
347.187454828
347.187260315
347.187073137
347.186894565
347.186725564
347.186567364
347.18642126
347.186288462
347.186170412
347.186068501
347.185983563
347.185917579
347.185869698
347.185840229
347.185841476
347.185854112
347.185883022
347.185934802
347.186006519
347.18609898
347.186219203
347.186353914
347.186509264
347.188839527
347.1886571
347.188468941
347.188275461
347.188077312
347.187876903
347.187677652
347.1874829
347.187294604
347.187113855
347.186941895
347.186779568
347.186628145
347.186488799
347.186362863
347.186251567
347.186156685
347.186077786
347.186019557
347.185975464
347.185954993
347.185960509
347.18597598
347.18600539
347.186056843
347.186125117
347.186209986
347.186318994
347.186438217
347.186576907
347.188824477
347.188649408
347.188467352
347.188279476
347.188088032
347.187894364
347.187700343
347.187510948
347.187328294
347.187153417
347.186987373
347.186831085
347.186685705
347.186552489
347.186433163
347.18632845
347.186240131
347.186167229
347.186115935
347.186075652
347.186062944
347.186071166
347.186089261
347.186119288
347.186169373
347.186233372
347.186312977
347.186410318
347.186515271
347.186644631
347.188808163
347.188643674
347.188471506
347.188292673
347.188109263
347.187922568
347.187733928
347.18754931
347.187371369
347.187201006
347.187039095
347.186886582
347.186744937
347.1866158
347.186500563
347.186400883
347.186317893
347.186252187
347.18620632
347.186173925
347.186171163
347.186182739
347.186205557
347.18624027
347.186291139
347.186353755
347.186431745
347.186519136
347.186614575
347.186727783
347.188788953
347.188637999
347.188478747
347.188311042
347.188136039
347.187955817
347.187772148
347.187590524
347.187415538
347.187248127
347.187089098
347.186939397
347.186800858
347.186675354
347.18656418
347.186469303
347.186390999
347.186333343
347.186290601
347.186271017
347.186275706
347.186291372
347.186319631
347.186360452
347.18641362
347.186476776
347.186552323
347.186632726
347.186716975
347.186809237
347.18877309
347.188634059
347.188485614
347.1883275
347.188160631
347.187987108
347.187808858
347.18763032
347.18745829
347.187293757
347.187137336
347.186990143
347.186854275
347.186731617
347.186624085
347.186533337
347.186460642
347.18640849
347.186370624
347.186363228
347.186372347
347.186392401
347.186425292
347.186470209
347.186525129
347.186588204
347.186658636
347.18673258
347.186806416
347.186881853
347.18875648
347.188628683
347.188491227
347.188343178
347.18818474
347.188017971
347.187845134
347.187669291
347.1874994
347.187337164
347.187182955
347.187038102
347.186904704
347.186784748
347.186680992
347.186593794
347.186527478
347.186478049
347.186449367
347.186449949
347.186462233
347.186486471
347.186523315
347.186571112
347.18662715
347.186689432
347.186754231
347.186824708
347.186885319
347.186955037
347.188741782
347.18862469
347.188497185
347.188358292
347.188208038
347.188047904
347.187880261
347.187707385
347.1875388
347.187378268
347.187225902
347.187083156
347.186951984
347.186834813
347.186734572
347.186651246
347.18659069
347.186543842
347.186525788
347.186530939
347.186546467
347.186574698
347.186614891
347.186664742
347.186721167
347.186781832
347.186841258
347.186908203
347.186956569
347.187019107
347.188724982
347.188618281
347.188501193
347.188371887
347.188229885
347.188076565
347.187914218
347.187744998
347.187577022
347.187417559
347.187266618
347.187125647
347.18699646
347.186882249
347.186784743
347.186706508
347.186649339
347.186607447
347.186598915
347.186606974
347.186625951
347.186657516
347.186700393
347.186751735
347.186808089
347.186866745
347.186921622
347.186983877
347.187024928
347.187074524
347.188709303
347.188612723
347.188504898
347.188384372
347.188250487
347.188104036
347.187947052
347.187782008
347.187614223
347.18745522
347.18730525
347.187165732
347.187038415
347.186927119
347.186832031
347.18675945
347.18670401
347.186669767
347.186668045
347.186678398
347.186700588
347.18673528
347.186780493
347.186832803
347.186888494
347.18694506
347.186995404
347.187055353
347.18708394
347.187115159
347.188691025
347.188604636
347.18850669
347.188395207
347.188269314
347.188129737
347.187978297
347.187817498
347.187650935
347.187491508
347.187342016
347.187203595
347.187078168
347.186969316
347.18687716
347.186809508
347.186755798
347.186730483
347.186732789
347.186745622
347.186771086
347.186808593
347.186855609
347.186908281
347.186962851
347.187018783
347.187062508
347.1871156
347.187124245
347.187144511
347.188673072
347.188596828
347.188507824
347.188404782
347.188286667
347.18815391
347.188008085
347.187851568
347.187687206
347.18752667
347.187377143
347.187239466
347.187115938
347.187008871
347.186920744
347.18685612
347.186805707
347.186788864
347.186793867
347.186809426
347.1868377
347.186877438
347.186925769
347.186978504
347.18703195
347.187087481
347.187118831
347.187158453
347.187154925
347.187173085
347.188651424
347.188586006
347.188506947
347.188412676
347.188302253
347.188176262
347.188036143
347.187884074
347.187722791
347.18756079
347.187410836
347.187273573
347.187151796
347.187046183
347.186962635
347.186899673
347.186854281
347.186844625
347.186851657
347.186869729
347.186900439
347.186942077
347.186991332
347.187044774
347.187095227
347.187147136
347.187165311
347.187193406
347.187183349
347.187197885
347.188629154
347.188574834
347.188505185
347.188419177
347.188316293
347.188197024
347.188062649
347.187915139
347.187757233
347.187594454
347.187443405
347.187306193
347.187185792
347.187081672
347.187002548
347.186940775
347.186901708
347.186897527
347.186906251
347.186926684
347.186959672
347.18700285
347.187052546
347.187107833
347.187151488
347.187196494
347.187204425
347.187225126
347.187210001
347.187214667
347.188601541
347.188559645
347.188500773
347.188423897
347.188328721
347.188216145
347.188087539
347.187944711
347.187790222
347.187627904
347.187475065
347.187337563
347.187217965
347.187115758
347.187040293
347.186979955
347.186947952
347.186947513
347.186957927
347.186980702
347.187015666
347.187059886
347.187109603
347.187165939
347.187201378
347.18723786
347.187238988
347.187252456
347.187236686
347.187226566
347.188571577
347.188542554
347.188494702
347.188426948
347.188339618
347.188233792
347.188110986
347.187972916
347.187821951
347.187661033
347.187505989
347.187367876
347.187248453
347.187148806
347.187075684
347.187017729
347.186992829
347.18699482
347.187007083
347.187031953
347.187068417
347.187113261
347.187162957
347.187218226
347.187244911
347.187273356
347.187270583
347.187276317
347.187258474
347.187234531
347.188535118
347.188520105
347.188485079
347.188427762
347.188348946
347.188250059
347.188133064
347.187999796
347.187852475
347.187693728
347.187536283
347.18739725
347.187277583
347.187180759
347.187109009
347.18705447
347.187035936
347.187039705
347.187053872
347.187080462
347.187118081
347.187163318
347.187213482
347.187263402
347.187282948
347.187305113
347.18730019
347.1872961
347.187271505
347.187236487
347.188497874
347.188493123
347.188471568
347.188426147
347.188356593
347.188265022
347.188153936
347.188025481
347.187881875
347.187725796
347.18756613
347.187425819
347.18730565
347.187211545
347.187140664
347.187090289
347.187077175
347.187082389
347.187098263
347.187126379
347.187164938
347.187210436
347.187261404
347.18730154
347.187317549
347.187332671
347.187323852
347.187310646
347.18727669
347.187234244
347.188456467
347.188462535
347.188452675
347.188420518
347.188361889
347.188278572
347.188173702
347.188050088
347.187910208
347.187756771
347.18759593
347.187453709
347.187332885
347.18724116
347.187170961
347.187125187
347.187116544
347.187122993
347.187140441
347.187169937
347.187209208
347.187254918
347.187304676
347.187335521
347.187349411
347.187355133
347.187341861
347.187318139
347.1872748
347.187230135
347.188407595
347.188431766
347.18843038
347.188410575
347.188363849
347.188290151
347.188192285
347.188073747
347.187937601
347.18778674
347.187625589
347.187480972
347.187359527
347.187269576
347.187200105
347.187159218
347.187154119
347.187161665
347.187180589
347.18721128
347.187251017
347.187297121
347.187343006
347.187366443
347.187376082
347.187374559
347.187354407
347.187318289
347.18726795
347.187227278
347.188350638
347.188397334
347.188406551
347.188396354
347.188362066
347.188299141
347.188209351
347.188096438
347.187964153
347.187815835
347.187654999
347.18750762
347.187385763
347.18729671
347.187228338
347.187192435
347.187189998
347.187198562
347.187218825
347.187250454
347.187290447
347.187337162
347.187376642
347.187394085
347.187398384
347.187390134
347.187361009
347.187312149
347.187259735
347.187226854
347.188291192
347.188357745
347.188382472
347.188379505
347.188356446
347.188304957
347.188224404
347.188117966
347.187989905
347.187844176
347.187684086
347.187533747
347.187411554
347.187322696
347.187255861
347.187224735
347.187224203
347.187233771
347.187255216
347.187287553
347.187327683
347.187374239
347.187406501
347.187418115
347.187417529
347.187401224
347.187361887
347.18730109
347.187254167
347.187229762
347.188235356
347.188310838
347.188356164
347.188361228
347.188347483
347.188307314
347.188236949
347.188137997
347.188014762
347.187871825
347.187712816
347.187559434
347.187436816
347.187347724
347.187282761
347.187256003
347.187256806
347.187267404
347.187289857
347.187322716
347.187362945
347.187408079
347.187432925
347.187438926