/*--------------------------------*- C++ -*----------------------------------*\
| =========                 |                                                 |
| \\      /  F ield         | OpenFOAM: The Open Source CFD Toolbox           |
|  \\    /   O peration     | Version:  2312                                  |
|   \\  /    A nd           | Website:  www.openfoam.com                      |
|    \\/     M anipulation  |                                                 |
\*---------------------------------------------------------------------------*/
FoamFile
{
    version     2.0;
    format      ascii;
    arch        "LSB;label=32;scalar=64";
    class       volScalarField;
    location    "0.005";
    object      maxKappa;
}
// * * * * * * * * * * * * * * * * * * * * * * * * * * * * * * * * * * * * * //

dimensions      [0 0 0 0 0 0 0];

internalField   nonuniform List<scalar> 
19400
(
0.000863113009003
0.000866388763899
0.000866388763899
0.000862412955462
0.000851076771616
0.000832538180643
0.000806986944066
0.000774815487444
0.00073636064022
0.000692177621553
0.000589835418756
0.000589835418756
0.000533611856441
0.00047556627126
0.000416938511854
0.000359018939506
0.000302961177874
0.000249640020325
0.000199773948106
0.000153944558051
0.000112648683696
8.77883103421e-05
7.43174455965e-05
6.11711167263e-05
4.85507655698e-05
3.66155880204e-05
4.43791630148e-05
5.01675106935e-05
5.31821857298e-05
5.31821857298e-05
0.00173583024703
0.00177667636921
0.00180559727366
0.00182044930094
0.00182414582005
0.00182414582005
0.00181534161478
0.0017934447668
0.00175815722453
0.00170929303012
0.00157147481515
0.00157147481515
0.00148336345055
0.00138359886915
0.0012734490411
0.00115465263355
0.00102970259519
0.000901754958343
0.000774242361647
0.000650229359659
0.000532075909729
0.000421843742166
0.000321107836894
0.000251069044222
0.000210037925075
0.000170273419344
0.000132933388194
9.93779492348e-05
7.3645477855e-05
8.93381259089e-05
0.00214848045738
0.00222016298756
0.0022814564758
0.00233322385403
0.00237140994365
0.00239604247545
0.00240701434222
0.00240701434222
0.00240340995221
0.00238456294029
0.00229841573475
0.00229841573475
0.00222986590625
0.00214382385966
0.00204018419416
0.00191927806033
0.00178180878839
0.0016290152733
0.00146311111618
0.00128802869568
0.00110911497008
0.000932175786386
0.000762309084497
0.000603205051466
0.000485756395973
0.000409868278862
0.000335899745848
0.000267132020693
0.000207017853147
0.0001590663638
0.00235011930015
0.0024406439471
0.0025221099669
0.00259413078858
0.00265576177926
0.00270651823526
0.00274517269024
0.00277114175135
0.00278351943261
0.00278351943261
0.00276356809065
0.00276356809065
0.00272905420075
0.0026767231822
0.002605515714
0.00251435323337
0.00240232673272
0.00226893812959
0.00211423970621
0.00193886188913
0.00174445972187
0.0015346649051
0.00131612011677
0.00109721340454
0.000886241770533
0.000747249101015
0.000634436899475
0.000524565723635
0.000423840199028
0.000338559554668
0.00246679837905
0.00256820294181
0.00266144651143
0.00274613237248
0.00282184288489
0.00288812084922
0.00294431422177
0.00298978828575
0.00302374429184
0.00302374429184
0.00305414629922
0.00305414629922
0.00304851428631
0.00302754626084
0.00298942186264
0.00293276516973
0.00285609337834
0.00275768250051
0.00263577283251
0.00248902398067
0.00231672531622
0.0021190741184
0.00189765880594
0.00165618190806
0.00140239146821
0.00115821786072
0.00101422178721
0.000865950721314
0.000721578462724
0.000591797300194
0.00256698923375
0.00267516215979
0.00277550035748
0.002867608964
0.00295128637996
0.00302627970781
0.00309226570479
0.00314916258349
0.00319639741076
0.00319639741076
0.00325818524636
0.00327083256864
0.00327083256864
0.00327055285849
0.00325655746226
0.0032273011764
0.00318077390273
0.00311489924158
0.00302765408221
0.00291666541852
0.00277935268596
0.00261349691778
0.00241755487143
0.00219183788766
0.00193834745699
0.00166186218586
0.00144761440043
0.00127440039897
0.00109164775403
0.000916391856391
0.00266990563193
0.00278387211612
0.00288995006349
0.00298782352663
0.00307730252024
0.00315820729273
0.00323028230481
0.00329339684587
0.00334755073482
0.00334755073482
0.00342770136844
0.0034529794363
0.00346672779519
0.00346773357004
0.00346773357004
0.00345505579064
0.00342823456403
0.00338597085273
0.00332585571575
0.00324517031018
0.00314120109085
0.00301057323402
0.00284983742589
0.00265601717524
0.00242737157065
0.00216443318628
0.00187646011456
0.00171675935369
0.00151772680029
0.00130378508551
0.00277909154866
0.00289881563916
0.00301045455021
0.00311376983934
0.00320850662372
0.00329454087275
0.00337168634233
0.00343977558045
0.00349859646166
0.00349859646166
0.00358875813078
0.00361993801847
0.0036415516445
0.00365299573997
0.00365312980366
0.00365312980366
0.00363980694869
0.00361204452143
0.00356928432325
0.00351007485104
0.00343127361045
0.00332972605811
0.00320180013452
0.00304288527273
0.00284866152824
0.00261576085229
0.00234287493954
0.00213649564759
0.00196204797639
0.00173827803534
0.00289481080083
0.00302044956953
0.00313778360045
0.00324653879936
0.00334655050509
0.0034375794181
0.00351951486374
0.0035921779169
0.00365544227675
0.00365544227675
0.0037537072552
0.00378850375053
0.0038137623665
0.00382965766524
0.0038360127078
0.0038360127078
0.0038321181676
0.00381615873411
0.00378589427568
0.0037401807109
0.00367833508741
0.00359791552476
0.00349501576075
0.00336576287806
0.00320493372751
0.00300690872591
0.00276672575362
0.00249700967017
0.00237436947673
0.0021822138121
0.00301674974509
0.00314850004562
0.0032716457915
0.00338602412908
0.00349135883883
0.00358745384168
0.00367417883762
0.00375135335641
0.00381889552666
0.00381889552666
0.00392473935918
0.00396306737534
0.00399132853846
0.00401000680105
0.00401871359669
0.00401871359669
0.00401825715631
0.00400799565013
0.00398700083488
0.00395249664029
0.00390232505263
0.00383575068028
0.00375075192275
0.00364357670947
0.00350970557813
0.00334355546836
0.00313833666615
0.00288757866118
0.00272728073071
0.00259051909098
0.00314453134477
0.00328255456794
0.00341174752416
0.00353186462311
0.00364264557019
0.0037438990424
0.00383545304564
0.00391719753643
0.00398892606467
0.00398892606467
0.00410232230748
0.00414359063469
0.00417519516286
0.00419621612043
0.00420739092862
0.00420842229884
0.00420842229884
0.00419994055704
0.0041817068266
0.00415380669257
0.00411329399734
0.00405748884419
0.00398474895823
0.00389327124688
0.00377954288754
0.003638461469
0.00346405579242
0.0032484107273
0.00301195690389
0.00294054167798
0.00327787591786
0.00342238802018
0.00355780080212
0.00368379468344
0.0038000826772
0.00390665500861
0.00400307297556
0.00408935466316
0.00416533424935
0.00416533424935
0.00428584151827
0.00433071978114
0.00436476532125
0.00438844519242
0.00440178394134
0.00440462154334
0.00440462154334
0.00439729977997
0.00437996573233
0.00435295171235
0.00431680822025
0.00426882261704
0.00420614085717
0.00412627403428
0.00402741283088
0.00390557069242
0.00375532544881
0.00357032152821
0.00334152277245
0.00322456818827
0.0034166048913
0.0035678196614
0.00370958527602
0.00384163232801
0.00396361360985
0.00407537048949
0.00417688950099
0.00426773152348
0.0043479922772
0.0043479922772
0.00447594318838
0.00452361629147
0.00456043917008
0.0045866034412
0.00460175353148
0.00460646039253
0.00460646039253
0.00460032730995
0.00458399578171
0.00455731432379
0.00452098523269
0.00447558838655
0.00441934272176
0.00434882446255
0.0042610515132
0.00415432363793
0.0040235382765
0.00386244580193
0.00366491511916
0.00344455870189
0.00356053998864
0.0037185855172
0.00386688585926
0.00400513566209
0.00413296447078
0.00425010821559
0.0043565921312
0.00445214089038
0.00453664829749
0.00453664829749
0.00467174755159
0.00472251757309
0.00476206304144
0.00479037868972
0.00480743604328
0.00481360344649
0.00481360344649
0.00480873893631
0.00479314895665
0.00476698815306
0.00473054985513
0.00468450427637
0.00462942568725
0.00456452410644
0.00448557100347
0.00438969882691
0.00427440311294
0.00413377359527
0.00396109591083
0.00374974087749
0.00370955750795
0.00387473792295
0.0040297812778
0.00417428906777
0.00430809504997
0.00443064493008
0.00454225265781
0.00464245858604
0.00473114480713
0.00473114480713
0.00487352318459
0.00492733882569
0.00496930144898
0.00499967604334
0.00501873372567
0.00502598176745
0.00502598176745
0.00502219154387
0.00500735323065
0.00498147626578
0.00494517483778
0.00489866841902
0.00484241120242
0.00477774385369
0.00470385504509
0.00461662026538
0.0045124759222
0.00438869660051
0.004237878516
0.00405306241345
0.00386370225177
0.00403613711828
0.00419798368447
0.00434889470719
0.00448866692346
0.00461693373307
0.00473364736756
0.00483871835671
0.00493152636138
0.00493152636138
0.00508118891212
0.00513784082567
0.00518224477589
0.00521482105191
0.005235080754
0.0052438729723
0.0052438729723
0.00524067728269
0.00522632112103
0.00520064760295
0.0051642284272
0.00511727861928
0.00506036266682
0.00499383826807
0.00491966180657
0.00483687702101
0.0047413812554
0.00462947858326
0.00449756622151
0.00433695484122
0.00402275112808
0.00420259440291
0.00437144153735
0.00452898465362
0.00467497385313
0.00480904216987
0.00493087898885
0.00504071782343
0.00513790439082
0.00513790439082
0.00529460822942
0.00535417136102
0.00540103215756
0.00543524320653
0.00545727375442
0.00546677548315
0.00546677548315
0.00546443612703
0.00545017170774
0.00542431959506
0.00538738528734
0.00533982600769
0.00528199755681
0.00521428017489
0.00513810216975
0.00505463762169
0.00496322880247
0.0048603077217
0.00474139324938
0.00460170134403
0.00418683971752
0.00437443270617
0.00455049762193
0.00471473467981
0.00486699673322
0.00500682811159
0.00513394348864
0.00524843236993
0.00535011161966
0.00535011161966
0.00551391585441
0.00557622785191
0.00562543597146
0.00566147561158
0.00568479981203
0.0056951128087
0.0056951128087
0.00569311261191
0.00567873338414
0.00565245762016
0.00561472270737
0.00556606490023
0.00550678399877
0.00543773156923
0.00535979773285
0.00527400976781
0.00518196776377
0.0050834329124
0.00497390629139
0.00484856150821
0.00435604025196
0.00455132223619
0.0047345820056
0.00490570423843
0.00506444646764
0.005210166301
0.00534285797157
0.00546215819835
0.00556807603735
0.00556807603735
0.00573913392821
0.00580412025245
0.00585560367006
0.00589328835768
0.0059176266929
0.00592869484762
0.00592869484762
0.00592682700777
0.00591206824087
0.00588503090706
0.00584611418347
0.00579581816952
0.00573479596487
0.00566379423119
0.00558359075018
0.00549523465407
0.0054002466646
0.00530071724499
0.00519634926766
0.00508176883786
0.00453021113277
0.00473333887696
0.00492427787153
0.00510254196165
0.00526755823165
0.00541942106276
0.00555750950278
0.00568182077458
0.00579210558426
0.00579210558426
0.00597017180689
0.00603802770762
0.00609137988719
0.00613078138479
0.00615610059532
0.00616759962407
0.00616759962407
0.00616548189
0.00615027635998
0.00612201338451
0.00608160398354
0.00602926130285
0.00596592235072
0.00589227589562
0.00580928156877
0.00571806669521
0.00561998922696
0.00551677554266
0.00541123629824
0.00530230062864
0.00470932132554
0.00492042927238
0.00511914589377
0.00530476076578
0.00547648914446
0.00563434100208
0.00577823021812
0.00590740303943
0.00602218362519
0.00602218362519
0.00620744662052
0.00627761318026
0.00633327847379
0.00637403117333
0.00640005283295
0.00641192031998
0.00641192031998
0.00640953795027
0.00639314372799
0.00636370128386
0.0063211726641
0.00626643774156
0.0062001606094
0.00612340730035
0.00603671009235
0.00594167930226
0.00583971698989
0.00573210935959
0.00562177660963
0.00551235416738
0.00489294030986
0.00511323546512
0.0053197405781
0.00551260649796
0.00569116147877
0.00585530730872
0.00600467353199
0.00613925216148
0.0062582882572
0.0062582882572
0.00645059142404
0.00652355095419
0.00658103704373
0.00662303757583
0.00665003178701
0.00666166359727
0.00666166359727
0.00665875214924
0.00664132917651
0.00660991026719
0.00656515420928
0.00650738449721
0.00643778344057
0.00635677137157
0.00626591107296
0.00616621985688
0.0060593304769
0.00594672938982
0.00583087884428
0.0057146543351
0.00508294410601
0.00531127695959
0.00552605802806
0.00572625823715
0.00591170685087
0.00608234167761
0.00623740511598
0.00637708098754
0.00650077174671
0.00650077174671
0.00670007803398
0.00677552355344
0.00683499505819
0.00687824493295
0.00690562885422
0.0069172614431
0.0069172614431
0.00691350240472
0.00689450899474
0.00686100722986
0.0068133697056
0.00675236599173
0.00667866236289
0.0065931216725
0.00649717663709
0.00639181546695
0.00627894358243
0.00616021987619
0.0060374647611
0.0059143802885
0.00527741263199
0.00551477284381
0.00573748417027
0.00594566229768
0.0061382499506
0.00631527095583
0.00647640341185
0.00662118190521
0.00674946277586
0.00674946277586
0.00695593672824
0.00703394554584
0.00709510704367
0.00713970114892
0.00716726520574
0.00717883238243
0.00717883238243
0.00717383468217
0.00715320800099
0.00711721538897
0.00706634011445
0.00700142713816
0.00692314835175
0.00683240586759
0.00673041048577
0.00661856938461
0.00649855989653
0.00637182113863
0.00624140236967
0.00610925617041
0.00547754527755
0.00572341624909
0.00595499062413
0.00617081966491
0.0063709884528
0.00655451717044
0.00672161194706
0.00687176541574
0.00700455706754
0.00700455706754
0.00721836937227
0.00729882596179
0.00736180784229
0.0074072898434
0.00743544033698
0.00744621143802
0.00744621143802
0.00744013278695
0.0074174600097
0.0073787294353
0.0073242453685
0.00725485206561
0.00717154747133
0.00707491083126
0.00696615541373
0.00684702588515
0.00671842235998
0.00658304169918
0.00644251376291
0.00630056554985
0.00568245431442
0.00593812942636
0.0061784253876
0.00640264693729
0.0066094373439
0.00680021526332
0.00697334162766
0.0071287557296
0.00726647171969
0.00726647171969
0.00748733728605
0.00757049845684
0.00763506435789
0.0076815938696
0.00770976525054
0.00772006923664
0.00772006923664
0.00771245960972
0.00768767860577
0.00764567411377
0.00758735024727
0.00751323225149
0.00742406033376
0.007320985777
0.00720492138821
0.00707690997446
0.00694001822836
0.00679402651579
0.00664223832294
0.0064875007483
0.00589362353875
0.00615841804508
0.0064076400658
0.00663972878244
0.00685524663409
0.00705224552407
0.00723166584058
0.00739274290966
0.00753499997112
0.00753499997112
0.00776335381276
0.00784882318513
0.00791522580974
0.0079625934663
0.0079908883645
0.00800036133604
0.00800036133604
0.00799122545524
0.00796381692257
0.00791860799326
0.00785598399776
0.00777658199875
0.00768146896624
0.00757112648633
0.00744691545425
0.00731048428558
0.00716194200755
0.00700495813808
0.0068405364007
0.0066724591475
0.00610992936905
0.00638497944368
0.00664329414996
0.00688396729255
0.00710646582289
0.00731085588068
0.00749645905908
0.00766334591694
0.00781069782202
0.00781069782202
0.00804631372381
0.00813427598371
0.00820253855843
0.00825043495628
0.00827889883423
0.00828733692961
0.00828733692961
0.00827664391817
0.00824638814329
0.00819757207507
0.00813017897338
0.00804548520928
0.00794356081758
0.00782541252104
0.00769249566412
0.00754576416841
0.0073869929222
0.00721734452342
0.00703892503215
0.00685474001129
0.00633216306427
0.00661713569598
0.00688455795685
0.00713366465148
0.00736480653279
0.00757623819082
0.00776858377982
0.00794097264279
0.00809327557899
0.00809327557899
0.00833629456722
0.00842719142415
0.00849666887128
0.00854582536123
0.0085738776205
0.00858162975463
0.00858162975463
0.00856858678641
0.00853589372429
0.00848282330218
0.00841104155277
0.00832005782601
0.00821113503083
0.00808500884365
0.00794251057639
0.00778527572106
0.00761364149753
0.00743065378231
0.00723730826974
0.00703625243416
0.00656062970028
0.00685574890737
0.00713242688524
0.00739073007456
0.0076294723895
0.00784859852517
0.00804745464866
0.00822597894035
0.00838322016303
0.00838322016303
0.00863417398056
0.00872710870027
0.00879870628645
0.00884833420309
0.00887637727134
0.0088828937235
0.0088828937235
0.00886809229992
0.00883190833377
0.00877524847138
0.00869795295183
0.00860088083666
0.00848470750783
0.00834963816292
0.00819737781017
0.00802853306504
0.00784473356372
0.00764687354637
0.0074375693675
0.00721825399386
0.00679421455588
0.00710015422781
0.00738686589863
0.00765415339373
0.00790145797896
0.00812798226624
0.00833389236228
0.0085183850379
0.00868074753331
0.00868074753331
0.00893935236943
0.00903507208744
0.00910819129948
0.00915859802709
0.00918653050996
0.00919178670762
0.00919178670762
0.00917480981994
0.00913560230374
0.00907451675893
0.0089918836916
0.00888841333469
0.00876455525645
0.008620626464
0.00845768300876
0.00827722359246
0.00807964157075
0.00786660517559
0.00763973264999
0.00740051386409
0.00703463369033
0.00735108887168
0.00764763710396
0.00792424573483
0.00818048119822
0.00841472164124
0.00862763581057
0.00881811716229
0.00898589767718
0.00898589767718
0.00925243836437
0.00935067410009
0.00942566124696
0.00947684221265
0.00950439792308
0.00950858743187
0.00950858743187
0.00948932792334
0.00944663895168
0.00938125550508
0.00929321561564
0.00918293849003
0.00905100139087
0.00889787383638
0.00872414472083
0.00853141436801
0.00831934139763
0.00809032171557
0.00784559563395
0.00758609970495
0.00728126402354
0.00760866487272
0.00791612538255
0.00820243973893
0.00846637660617
0.0087089055688
0.00892925445606
0.00912572046873
0.00929891866657
0.00929891866657
0.00957371635153
0.00967465887194
0.00975115836376
0.00980306444834
0.009830679446
0.00983329728196
0.00983329728196
0.00981174752516
0.0097658572999
0.00969592997683
0.00960196953894
0.00948489908092
0.00934480709274
0.00918238051998
0.00899726745557
0.00879149793812
0.00856610532321
0.00832041941687
0.00805618476245
0.0077754497502
0.007534345554
0.00787303987765
0.00819029373536
0.00848637602854
0.00875978607795
0.00901118439422
0.00923821251416
0.0094412839566
0.00961975674818
0.00961975674818
0.00990308442129
0.0100067982677
0.010085089224
0.0101380161702
0.0101648932662
0.0101666883383
0.0101666883383
0.0101425212089
0.0100931551523
0.0100185651394
0.00991901556612
0.00979447361848
0.00964622177887
0.00947390767226
0.00927819166088
0.00905858168804
0.00881784693407
0.00855527168061
0.00827267346028
0.00796996660942
0.00779398138138
0.00814414059127
0.00847278321626
0.00877837214992
0.00906148063861
0.0093204560079
0.00955492536718
0.00976458048481
0.00994940225042
0.00994940225042
0.0102409804184
0.0103476706902
0.0104278239714
0.0104811438886
0.0105082902917
0.0105082902917
0.0105082568035
0.0104820826457
0.0104291079188
0.0103496965556
0.0102442420008
0.0101128143614
0.00995532375007
0.00977313866433
0.00956596208438
0.00933413443513
0.0090778342604
0.00879869246343
0.00849590056654
0.00817093157955
0.00805938045217
0.0084217243777
0.00876155903944
0.00907811763849
0.00937057094343
0.00963798980727
0.00988014983549
0.0100969871741
0.0102874647096
0.0102874647096
0.0105878053617
0.0106971916657
0.0107791324557
0.0108337687504
0.010860103556
0.010860103556
0.0108593372832
0.0108302405913
0.0107737986113
0.0106898046485
0.0105781986738
0.0104397519029
0.0102739625777
0.0100812140225
0.00986249947415
0.00961757546527
0.00934621605604
0.00904908305383
0.00872647499164
0.00837866630229
0.0083330533452
0.00870761565465
0.00905841990696
0.00938527611071
0.00968719323576
0.0099635567255
0.0102142254534
0.0104374134402
0.010633837105
0.010633837105
0.0109433503148
0.0110559228072
0.0111398101298
0.0111950720886
0.0112215954102
0.0112215954102
0.0112191261578
0.0111878503783
0.0111278045026
0.0110388435327
0.0109214576022
0.0107752882724
0.0106009027034
0.010398796289
0.0101677894255
0.00990941820189
0.00962319968145
0.00930911745775
0.00896734628976
0.00859701281826
0.0086131756841
0.00899994484095
0.00936276384428
0.00970034084863
0.0100120947242
0.0102980663675
0.0105558178545
0.0107868949778
0.0109897473933
0.0109897473933
0.0113082716443
0.0114239308009
0.0115097553215
0.0115660499802
0.011592267342
0.011592267342
0.0115886318147
0.0115548241248
0.0114912566632
0.0113974880498
0.0112738743756
0.0111209111021
0.0109375513097
0.0107245522967
0.0104831470875
0.0102108995656
0.00990981949238
0.00957879579237
0.00921725893708
0.00882504194101
0.00890019140472
0.00930033425801
0.00967474970386
0.0100233511295
0.0103457192835
0.0106404019704
0.0109075443029
0.0111454614063
0.0113542277195
0.0113542277195
0.0116824759166
0.011801303448
0.011889502755
0.0119465651846
0.0119728089581
0.0119728089581
0.0119677683867
0.0119317465577
0.0118643041036
0.0117657479694
0.0116363661083
0.0114756135873
0.0112841421085
0.0110616491195
0.0108075368728
0.0105228644161
0.0102065355731
0.00985883795776
0.00947869539332
0.0090642568567
0.0091952071798
0.00960828941263
0.00999477471589
0.01035543624
0.0106880340054
0.0109924865424
0.0112673037612
0.0115128588389
0.0117285518701
0.0117285518701
0.012066695851
0.0121885878701
0.0122788152167
0.0123371628733
0.0123633363911
0.0123633363911
0.0123570453802
0.0123184220829
0.0122475366498
0.012144406239
0.0120086195387
0.011840950772
0.0116403557983
0.0114078526717
0.0111433479466
0.0108455487496
0.0105149072551
0.0101501526429
0.00975179201604
0.00931668000818
0.00949734571993
0.00992343386718
0.0103234602128
0.0106951794164
0.0110387808776
0.0113525995666
0.0116365571704
0.0118902686275
0.0121119928348
0.0121119928348
0.0124604887274
0.0125860005184
0.0126784858913
0.0127378568953
0.0127639417121
0.0127639417121
0.0127565341832
0.0127156355809
0.0126411993054
0.0125330817466
0.0123915059515
0.0122160831644
0.0120077167141
0.0117649482666
0.0114887947855
0.0111787751121
0.0108336786116
0.0104537653986
0.0100366248743
0.0095821535018
0.00980729165503
0.0102475649582
0.010660063967
0.0110439683028
0.0113987174937
0.0117223459617
0.0120157270009
0.0122770289091
0.0125059290895
0.0125059290895
0.0128644200531
0.0129934832821
0.0130884897347
0.013149096195
0.0131750296684
0.0131750296684
0.0131666591577
0.0131233949711
0.013045289876
0.0129323893575
0.0127852450666
0.0126027011836
0.0123855233788
0.012133372999
0.0118457687171
0.0115235758991
0.011164591107
0.0107691039625
0.0103355575053
0.00986194611954
0.0101255259403
0.0105801413371
0.0110053518709
0.0114022918408
0.0117670915796
0.0121023652355
0.0124043584034
0.0126733191006
0.0129096354739
0.0129096354739
0.0132790688589
0.0134115811646
0.0135090196385
0.0135707660369
0.0135972336673
0.0135972336673
0.0135873376684
0.013541926503
0.013460333258
0.0133429015518
0.0131890293585
0.0129998766213
0.0127739330934
0.0125127513466
0.012214959351
0.0118791927795
0.0115082278141
0.0110972001674
0.0106482900089
0.0101568443429
0.0104512825359
0.0109204342851
0.0113602325194
0.0117686423251
0.0121466184215
0.0124908634078
0.0128026302707
0.0130802901382
0.0133233791383
0.0133233791383
0.0137042205189
0.013840251845
0.0139405028984
0.0140037243827
0.0140299184114
0.0140299184114
0.0140194134338
0.0139716331014
0.0138863293483
0.0137644344213
0.0136048783428
0.0134080176692
0.0131742881818
0.0129032358243
0.0125944299111
0.012248649016
0.011862927912
0.0114390418372
0.0109740346081
0.0104660214346
0.010786044433
0.011269699814
0.0117228765625
0.012145152478
0.0125338445777
0.0128898626377
0.0132110016967
0.0134971809553
0.0137481825196
0.0137481825196
0.0141400298599
0.0142803913243
0.0143828726639
0.0144476329116
0.0144744321053
0.0144744321053
0.0144625525471
0.0144124717231
0.014324154518
0.0141971600349
0.0140321179671
0.013828176919
0.0135856242689
0.0133053568047
0.0129863423226
0.0126281097523
0.0122309895698
0.0117926907695
0.0113140942723
0.0107910477107
0.0111286307816
0.0116275659279
0.0120957870099
0.0125307640632
0.0129321025338
0.0132985169361
0.0136299901906
0.0139252168159
0.0141837301724
0.0141837301724
0.014587088349
0.0147315424136
0.0148368206972
0.014903317606
0.0149299836088
0.0149299836088
0.0149175818949
0.014865102523
0.0147733422615
0.0146416251858
0.0144703158379
0.0142599264172
0.0140093812181
0.0137195060264
0.0133897812313
0.013021054804
0.0126110357994
0.0121605753275
0.0116675796137
0.0111303089879
0.0114801877884
0.0119959154517
0.0124774414021
0.0129262131173
0.0133396833715
0.0137182046447
0.0140594418944
0.0143641642996
0.0146298595196
0.0146298595196
0.0150457799302
0.0151942238439
0.0153025900056
0.0153704566995
0.0153979417942
0.0153979417942
0.0153841789983
0.0153297937146
0.0152344108026
0.0150981985854
0.0149209910407
0.0147030561837
0.0144451084791
0.0141454596845
0.0138062050147
0.0134254329075
0.0130041206586
0.0125410213388
0.012036403479
0.0114848627451
0.0118413902815
0.012371341206
0.0128694304454
0.0133312157256
0.0137584469373
0.0141478224773
0.0145002439892
0.0148137652903
0.0150879936605
0.0150879936605
0.0155163680211
0.0156688639631
0.01578031069
0.0158500745999
0.0158775519387
0.0158775519387
0.0158633586425
0.0158066022881
0.0157077032333
0.0155670348474
0.0153837328721
0.0151588616524
0.0148922087487
0.0145838909007
0.0142337239013
0.0138426674087
0.0134090334008
0.012934711134
0.0124159757282
0.0118548476969
0.0122106815401
0.012758291419
0.0132704026369
0.0137477737383
0.0141873238997
0.014589022575
0.0149523981663
0.0152753790103
0.0155575779886
0.0155575779886
0.0159989484124
0.0161560991361
0.0162705296113
0.0163419702797
0.0163700519988
0.0163700519988
0.0163548230147
0.0162959758679
0.0161937496115
0.0160481574591
0.0158591898319
0.0156267156788
0.0153522535081
0.0150349370572
0.0146745169333
0.0142723100852
0.0138282909997
0.0133404182935
0.0128112884397
0.0122384408894
0.0125897262452
0.0131539488012
0.0136821543782
0.0141738147787
0.0146275555973
0.015042106599
0.0154156497374
0.0157486155576
0.0160402003874
0.0160402003874
0.0164939458
0.0166558030467
0.0167734676935
0.01684661506
0.0168755298099
0.0168755298099
0.0168590202522
0.016798156869
0.0166923784231
0.0165417636025
0.0163466501571
0.0161077940157
0.015824051371
0.0154971289177
0.0151274605926
0.0147139421009
0.0142578595992
0.0137588711259
0.0132184597334
0.0126362032822
0.0127263060805
0.0131323069663
0.0135534438555
0.0139850290784
0.0144245887612
0.014867840993
0.0153078582442
0.0157366004212
0.016143985817
0.016143985817
0.0168502604998
0.0171237139519
0.0173284854139
0.0174551247853
0.0174974526388
0.0174974526388
0.0174536133426
0.017326006984
0.0171211154935
0.0168486863987
0.0165206912939
0.0161485138313
0.0157461638432
0.0153233631287
0.0148900909951
0.0144538377234
0.0140213226388
0.0135963901068
0.013181162046
0.0127810020894
0.0130946822799
0.0135337101782
0.0139868682153
0.0144518338178
0.0149253665466
0.0154019696392
0.015874293785
0.0163344788291
0.0167716846031
0.0167716846031
0.0175279921261
0.0178207057195
0.0180398150542
0.0181754009431
0.018220975884
0.018220975884
0.0181744071394
0.0180382724303
0.017819521357
0.0175283877518
0.0171767599927
0.0167793929276
0.016347932323
0.0158946988219
0.0154303957006
0.0149626501602
0.0144989873725
0.0140452091457
0.0136046411651
0.013180572442
0.0134840444823
0.0139546149457
0.0144396876215
0.0149373594976
0.0154431011464
0.0159519374539
0.0164562470288
0.0169466608434
0.0174122867465
0.0174122867465
0.0182176044819
0.0185290188462
0.0187624170255
0.018906954725
0.0189556274817
0.0189556274817
0.0189066252715
0.0187622010961
0.0185297756726
0.0182205154545
0.0178473463368
0.0174237154071
0.0169645626788
0.0164820364317
0.0159870670589
0.0154890106645
0.0149961671239
0.0145137568978
0.014047454205
0.0135996699708
0.0138945920378
0.0143952542866
0.0149117598695
0.0154401156849
0.0159781207413
0.0165184013501
0.0170531604935
0.0175734902466
0.0180665044837
0.0180665044837
0.0189198659786
0.019249601265
0.0194969745941
0.0196498057958
0.0197020009038
0.0197020009038
0.0196501224073
0.0194980669674
0.0192523341556
0.0189253837608
0.0185302345693
0.0180819457252
0.0175962699149
0.0170848424428
0.0165608519102
0.0160332394746
0.0155108050445
0.0150011828795
0.014508119028
0.0140361711712
0.0143234828623
0.014854412943
0.0154008698806
0.0159615742508
0.0165297287787
0.0171003222561
0.0176652667052
0.0182141236645
0.0187348502272
0.0187348502272
0.0196347828742
0.0199825040835
0.0202430962613
0.0204050130633
0.02045952071
0.02045952071
0.0204059892606
0.0202455242288
0.0199872372313
0.0196430326313
0.0192269254599
0.0187544741788
0.0182419434973
0.0177030502293
0.0171502218704
0.0165941036818
0.0160438281431
0.0155044375934
0.014984611158
0.0144864334479
0.0147724250398
0.0153321533327
0.0159086748528
0.0164985614809
0.0170969841687
0.0176974243774
0.0182916693311
0.0188688028953
0.0194164343449
0.0194164343449
0.0203617755937
0.0207276558803
0.0210015652688
0.0211713259886
0.0212299274393
0.0212299274393
0.0211730127483
0.0210053973276
0.0207344906057
0.020372789936
0.0199367195086
0.0194403362097
0.0189017726422
0.0183355852636
0.0177546586005
0.0171700949927
0.0165911087964
0.0160242596008
0.0154759438371
0.0149509389527
0.015239408566
0.0158277907696
0.0164332904501
0.0170521624604
0.0176795697449
0.0183094450631
0.0189326401372
0.0195376238702
0.0201119503682
0.0201119503682
0.0211019209576
0.0214852223592
0.0217721264363
0.0219504764949
0.022011362564
0.022011362564
0.0219528878508
0.0217774036369
0.0214942352273
0.0211158183073
0.020658915098
0.0201402428827
0.019575754221
0.0189826146409
0.0183737062867
0.0177607782921
0.0171537010245
0.0165587298188
0.015981683248
0.0154281169712
0.0157251283022
0.016340621915
0.0169744031894
0.0176221623198
0.018278954248
0.0189371100726
0.0195884765026
0.0202207420857
0.020820124932
0.020820124932
0.0218547751997
0.0222552311269
0.0225550988051
0.0227415781095
0.0228056773546
0.0228056773546
0.02274473648
0.0225618708227
0.0222664337378
0.0218716245086
0.0213945761666
0.0208527427078
0.020263970339
0.0196442610528
0.0190078997116
0.0183673122395
0.0177309761547
0.0171071143901
0.0165007543536
0.0159184234313
0.0162275893888
0.0168712023598
0.0175324207398
0.018207355959
0.0188922127372
0.0195788710685
0.0202577232381
0.0209174286653
0.0215425804627
0.0215425804627
0.0226208552098
0.0230378003125
0.0233509875088
0.0235450138764
0.0236122409164
0.0236122409164
0.0235489312704
0.0233592605833
0.023051295883
0.0226406969249