/*--------------------------------*- C++ -*----------------------------------*\
| =========                 |                                                 |
| \\      /  F ield         | OpenFOAM: The Open Source CFD Toolbox           |
|  \\    /   O peration     | Version:  2312                                  |
|   \\  /    A nd           | Website:  www.openfoam.com                      |
|    \\/     M anipulation  |                                                 |
\*---------------------------------------------------------------------------*/
FoamFile
{
    version     2.0;
    format      ascii;
    arch        "LSB;label=32;scalar=64";
    class       volScalarField;
    location    "0.005";
    object      minKappa;
}
// * * * * * * * * * * * * * * * * * * * * * * * * * * * * * * * * * * * * * //

dimensions      [0 0 0 0 0 0 0];

internalField   nonuniform List<scalar> 
19400
(
3.05858725167e-05
9.1988932725e-06
1.14852320086e-05
3.24148688475e-05
5.29233680581e-05
7.27395577797e-05
9.14423242091e-05
0.000109107231388
0.000125205151143
0.000138974185932
0.000150224586023
0.000158411683096
0.00016320996461
0.000164558204779
0.000162267804869
0.000156739336682
0.000148842430082
0.000138992731429
0.000127548919388
0.000112648683696
7.61466181407e-05
4.44974120176e-05
1.76835816085e-05
4.40186851959e-06
4.40186851959e-06
2.19265337704e-05
2.56388118861e-05
1.60563578512e-05
8.36007273392e-06
3.02843916794e-06
3.05858725167e-05
9.1988932725e-06
1.14852320086e-05
7.79772484453e-06
4.06002844954e-05
7.27395577797e-05
9.14423242091e-05
0.000109107231388
0.000125205151143
0.000138974185932
0.000150224586023
0.000158411683096
0.00016320996461
0.000164558204779
0.000162267804869
0.000156739336682
0.000148842430082
0.000138992731429
0.000127548919388
0.000114781100082
0.000101350135925
8.77883103421e-05
7.43174455965e-05
6.11711167263e-05
4.85507655698e-05
3.06921994275e-05
1.3604736853e-05
1.3604736853e-05
8.36007273392e-06
3.02843916794e-06
0.000161950535634
0.000113965059565
6.38347518444e-05
7.79772484453e-06
4.06002844954e-05
2.93398836917e-05
0.000109958907565
0.000192572681225
0.000244160096605
0.000291550580272
0.000335639089842
0.000374948485481
0.000408549363474
0.000435300446029
0.000453965265201
0.000463305883703
0.000462160288758
0.000450589106718
0.000430011461637
0.00040231911939
0.000369172894435
0.000332161391033
0.000292231651625
0.000251069044222
0.000210037925075
0.000170273419344
0.000119909951218
4.12233406627e-05
2.22924934306e-05
2.22924934306e-05
0.000342224614835
0.000274621116293
0.00020340151009
0.000128343369406
5.10304980306e-05
2.93398836917e-05
2.2592163541e-05
0.000128192043259
0.000235820916779
0.000345060580298
0.000437819850242
0.000514552304448
0.000586581993352
0.000651794556582
0.000708256069208
0.00075396955675
0.000786456258108
0.000803666468918
0.000803255559775
0.000783886805782
0.000746195192192
0.000693864703735
0.00063074640869
0.000560485723437
0.000485756395973
0.000409868278862
0.000335899745848
0.000216277920561
0.000101910438522
7.10671993231e-06
0.000532729212219
0.000451186720357
0.00036480111268
0.000274067102513
0.000178854058952
7.99316925817e-05
2.2592163541e-05
3.44914974541e-05
0.000159608754072
0.000287454542291
0.00041712552645
0.000547977839875
0.000668202563151
0.000769834906755
0.000864741301546
0.000950954670832
0.00102521015233
0.00108463098266
0.00112521948395
0.00114402732719
0.00113755744409
0.00110361386461
0.00104212014808
0.000957528080758
0.000856653895295
0.000747249101015
0.000634436899475
0.000476939485779
0.00030144827722
0.000146634571228
0.000715328689697
0.000623224602972
0.000526032163682
0.000423526287106
0.000316213345997
0.000203882778647
8.69831046918e-05
3.44914974541e-05
6.94166661478e-05
0.000210491788552
0.000355176889591
0.000502574060395
0.00065033635012
0.000798611056022
0.000934002552257
0.00105407751953
0.00116585309848
0.00126600632155
0.00135067093075
0.0014152245682
0.00145478411928
0.00146457512506
0.00144091158248
0.00138058300984
0.00128384144689
0.00115821786072
0.00101422178721
0.000819009007441
0.000576973947626
0.000351255409726
0.000884697664372
0.000784181573118
0.000678016419382
0.000566347541011
0.00044931196749
0.000327027807858
0.000199707820243
6.75518105775e-05
2.14873161368e-05
0.000129248133716
0.000283636999079
0.000441723698216
0.000602510066934
0.000765582386726
0.000929061124314
0.00109089223566
0.00123149296538
0.00136422886089
0.00148576576543
0.00159200738128
0.00167785684129
0.001736985056
0.00176330183832
0.00175055701793
0.00169436792488
0.0015926197958
0.00144761440043
0.00123300811005
0.000925387974468
0.000622144247051
0.00104216508862
0.000934227051647
0.000820239175755
0.000700505294935
0.00057518279438
0.000444469608656
0.000308507204539
0.000167340664175
2.14873161368e-05
4.9571776661e-05
0.000212399496735
0.000378504847009
0.000547807706125
0.000720005828068
0.000894695944487
0.00107065182406
0.00124599551418
0.00140667527362
0.00155594890218
0.00169463111516
0.00181848173337
0.00192177191352
0.00199765184445
0.00203829497531
0.0020356673108
0.00198298117339
0.00187646011456
0.0016919397343
0.0013377081451
0.000956940215601
0.00118971018859
0.00107490588849
0.000954011129924
0.000827020347484
0.000694301826077
0.00055588513981
0.000412158724196
0.00026305157928
0.000109206022702
2.76110806561e-05
0.000142983412327
0.000316715751778
0.000493450013856
0.000672893644745
0.000854663699656
0.00103894689534
0.00122473209239
0.00141068859118
0.00158605350646
0.0017481003517
0.00190033496951
0.00203780448701
0.00215493593127
0.00224410976255
0.00229588521076
0.00230074785218
0.00224956736056
0.00213649564759
0.0017873714456
0.00134896115273
0.00132915064335
0.0012081296063
0.00108068076944
0.000947092277582
0.000807394359591
0.00066202621716
0.000511171304134
0.000354828953757
0.000193538213161
2.76110806561e-05
7.55357205051e-05
0.00025676764045
0.000439581386635
0.00062702801887
0.000814864678346
0.00100592084992
0.0011973352263
0.00139239250708
0.00158574155631
0.00177222007478
0.00194429539279
0.00210710255491
0.00225538250443
0.00238321420347
0.00248198411984
0.00254149740617
0.00255024263645
0.00249700967017
0.00223701470501
0.0017749340671
0.00146201624419
0.00133513967136
0.00120166172984
0.00106177738794
0.000915693721321
0.000763725134359
0.00060606292703
0.000443041551599
0.000274869142168
0.000102005810915
1.02410686067e-05
0.000197417229351
0.000388899292968
0.000581167833876
0.000776149277038
0.000973293867828
0.0011712743454
0.00136983246947
0.00157125011594
0.00177201019174
0.00196578797926
0.00214642878388
0.00231759168306
0.00247417694005
0.00260960422178
0.0027149331561
0.002778513992
0.00278695488814
0.00266452356024
0.0022031320536
0.0015895085594
0.00145715327191
0.00131788783388
0.00117209447819
0.00101986650489
0.000861670114058
0.00069765771939
0.000528147608002
0.000353602110279
0.000174094654686
1.02410686067e-05
0.000140979479598
0.000337876456612
0.000536936759359
0.000738463531273
0.000941203481277
0.00114541950701
0.00134996492903
0.00155498174732
0.00176184811375
0.00196836819788
0.0021671712522
0.00235484934561
0.00253268119305
0.00269552459099
0.00283592460062
0.0029446143247
0.00300834814701
0.00301195690389
0.0026149204393
0.00171277188706
0.00157510443782
0.00143028315143
0.001278760754
0.00112073403729
0.000956260593791
0.000786707123415
0.000610447353338
0.000429766125487
0.000243837903744
5.39364311249e-05
8.48103080307e-05
0.000288150682277
0.000494239400392
0.000701049031096
0.000910444475073
0.00111958702462
0.00133051690229
0.00154096888719
0.00175103102757
0.00196276312059
0.00217409615551
0.00237549485773
0.00256949676563
0.00275222473323
0.00291963898398
0.00306248966533
0.00317115025662
0.00323095811656
0.00300025448174
0.00183252901715
0.00168970663833
0.00153960137977
0.00138255620421
0.00121883869853
0.00104876946919
0.000872245459567
0.000690929642354
0.000504150244961
0.000312253069579
0.000115063544347
3.03406128879e-05
0.000240453413697
0.000452354876984
0.000664785873506
0.000880329303154
0.00109479476074
0.0013107497788
0.00152701444352
0.00174181032734
0.0019578372036
0.00217210005902
0.00238472401897
0.0025904601556
0.00278867252581
0.00297602410363
0.00314564024012
0.0032883105289
0.00339341169843
0.00335529697392
0.00194956958811
0.00180171009103
0.0016462521611
0.00148383981447
0.00131483349627
0.00113869519947
0.000956696826669
0.000769485781459
0.000576258664044
0.00037877064694
0.000175492137186
2.24723231794e-05
0.000193267651892
0.000411333430356
0.000630503996912
0.000850366665748
0.00107118461083
0.00129252050286
0.00151330514389
0.0017331775974
0.00195332890435
0.0021714414275
0.00238748041744
0.0026016308798
0.00281110973761
0.00301258969211
0.0032022039993
0.00337190136185
0.00351134950704
0.00360883798133
0.00206442552109
0.00191150823694
0.001751147818
0.0015834097049
0.00140841367135
0.00122738254452
0.00103913112296
0.000846231774407
0.000646985664897
0.000443569991457
0.000234574975391
2.24723231794e-05
0.000147286028892
0.000371865136493
0.0005960028221
0.000822700806562
0.00104803324722
0.00127507109473
0.00150071146814
0.0017253109741
0.00194922479477
0.0021714414275
0.00238943026093
0.0026068213319
0.00282421253353
0.00303562000023
0.00323905166547
0.00342916043659
0.00359596035792
0.00372856151029
0.00217740128571
0.00201991226247
0.00185415586726
0.00168139553683
0.00150073595154
0.0013140936056
0.00112030505156
0.000921511721774
0.000717101071142
0.00050684027415
0.000292426178445
7.43688220899e-05
0.000102498336246
0.00033256948499
0.000563380295286
0.000795169320183
0.00102682733061
0.00125856462778
0.00148877605588
0.00171836772831
0.00194634528713
0.00217217618994
0.00239275638307
0.00261202556641
0.00283193721174
0.00304947593934
0.00326271611946
0.00346567656398
0.00365364722972
0.003814205959
0.00228978824848
0.00212685992402
0.0019563170059
0.00177791032203
0.00159218067141
0.00140008808155
0.00120057840508
0.000995541520948
0.000785540660024
0.000569320303527
0.000349100447582
0.000124760113808
5.88386053713e-05
0.000294824089907
0.000532026682493
0.000768681124193
0.00100631797821
0.00124319647658
0.00147832207125
0.00171256460649
0.00194497781929
0.00217320139805
0.00239690552752
0.00261907780027
0.00284008185291
0.00305929255029
0.00327718516707
0.00348929706042
0.00369002105501
0.00387240320747
0.00240059583739
0.00223289963119
0.00205764216396
0.00187354447315
0.00168287865804
0.00148457192555
0.00127991055792
0.00106888450003
0.000852457336187
0.000631103741244
0.000404722726915
0.000174371126056
1.62594842323e-05
0.000257970051545
0.000501286426264
0.000743895589952
0.000987259037927
0.00122902446344
0.00146942725039
0.0017081017585
0.00194464764999
0.00217476988723
0.00240220152446
0.00262713238637
0.00284921537754
0.00306924783297
0.00328734279138
0.00350391513553
0.0037125407671
0.00390779361136
0.00251101416254
0.00233848000923
0.00215800993441
0.00196921327805
0.00177215115133
0.00156908300545
0.00135803094488
0.00114171875282
0.00091910468605
0.000691675274793
0.000459365221444
0.000223200795227
1.62594842323e-05
0.000222579391887
0.000471801709505
0.000720137349506
0.000968991876469
0.00121672157326
0.00146161487102
0.0017056777253
0.00194464764999
0.002178240928
0.00240911159722
0.00263602559834
0.00286052358111
0.00308033584811
0.00329833878957
0.00351389943747
0.0037259241406
0.00392903375851
0.00262104482857
0.00244416714188
0.00225815600143
0.00206412047858
0.00186189856757
0.0016521401504
0.00143617482849
0.00121370590965
0.000985027995042
0.000751711989897
0.000513661430883
0.000270744169004
2.58114048388e-05
0.000188054201789
0.000443002014807
0.000698108885207
0.000952308312678
0.0012051528716
0.00145617913877
0.00170432875313
0.00194618970009
0.00218339218083
0.0024175842666
0.00264732129818
0.00287266776559
0.00309426523868
0.0033113933467
0.0035243792877
0.00373520697024
0.0039405095728
0.0027318557042
0.00254947790501
0.0023584850221
0.00215853544436
0.00195091316303
0.00173588680507
0.00151341517451
0.00128540849069
0.00105037186479
0.000811305470034
0.000566535822196
0.000318196591448
6.61813875684e-05
0.000154380565834
0.000416084123193
0.000676579263577
0.000937161010952
0.00119556711344
0.00145196220068
0.00170432875313
0.00194983937863
0.00219052101829
0.00242827737765
0.00266021126333
0.00288798926022
0.00310995419319
0.00332661400394
0.00353810875832
0.0037445821883
0.00394809336229
0.00284263849829
0.002654710111
0.00245905439345
0.00225317746002
0.00203998492211
0.00181924143701
0.00159080818016
0.00135642339471
0.0011161743926
0.000869924019922
0.000619158321728
0.000364411997518
0.000106124472547
0.000121554975589
0.000389860871076
0.000656801902553
0.000923601264605
0.00118750462073
0.00144968764106
0.00170523102194
0.00195502962469
0.0022007531099
0.00244101499494
0.00267601144013
0.00290577002889
0.0031286630726
0.00334502531762
0.00355553402694
0.00375743693051
0.00395588127955
0.00295325075177
0.00276112152877
0.00255929418057
0.00234833985046
0.00212952073271
0.00190236886863
0.00166847340816
0.00142740203668
0.00118096820657
0.000928168936608
0.000671031751976
0.000410024059244
0.000145057145553
9.0120390565e-05
0.000364311456894
0.000638696934081
0.000911080110382
0.00118151543441
0.00144943837645
0.00170797328966
0.0019624788756
0.00221272266058
0.00245658690019
0.00269509196128
0.00292644293965
0.0031510912206
0.00336742176356
0.00357618157055
0.00377600535314
0.00396743609862
0.0030654864652
0.00286715690007
0.00266061374408
0.00244383863234
0.00221908243424
0.00198600882308
0.00174553559028
0.00149874264946
0.00124536035006
0.000986190264241
0.000722754138587
0.000455097104546
0.000183574453626
5.94694514145e-05
0.00034058556575
0.000621162454825
0.000900153976455
0.00117699088582
0.00144943837645
0.00171321007663
0.00197247267073
0.00222711256873
0.00247547923947
0.00271668784242
0.0029509184118
0.00317705655057
0.00339395687119
0.00360205019743
0.00379864473265
0.00398637120122
0.00317787823145
0.0029746690171
0.00276240917588
0.00254004995709
0.00230867092004
0.00207007836265
0.00182332711144
0.00156969228042
0.00130986788897
0.00104393890855
0.00077386823483
0.000499627998561
0.000221134189441
2.9587621876e-05
0.000317548035145
0.000605353131985
0.000890857631287
0.00117460376404
0.00145116383256
0.00172048514298
0.0019849313729
0.00224449455292
0.00249704352763
0.00274228742514
0.0029794072608
0.00320684591218
0.0034253772473
0.00363293308694
0.00382789590674
0.00401127556068
0.00329141029757
0.00308312699223
0.00286486515855
0.00263623271331
0.00239992331057
0.00215394582565
0.00190123179294
0.00164115032833
0.00137415427128
0.00110205545132
0.000824906688249
0.000543167758715
0.000258339271007
4.33650299234e-07
0.000295692116044
0.000590610452878
0.000883100341797
0.00117367610318
0.00145443433142
0.00173029817052
0.00200055894868
0.00226462726921
0.00252226160696
0.00277142360384
0.00301135742289
0.0032424392554
0.00346115851957
0.00366935108651
0.00386355429602
0.0040436388296
0.00340638012381
0.0031923542742
0.00296801190892
0.00273418872625
0.00249083033863
0.0022392157019
0.00197930811357
0.00171278493071
0.00143908621861
0.00115951875373
0.000875376641602
0.000586761456617
0.00029465015009
4.33650299234e-07
0.000274971507416
0.000576945777906
0.000877430376547
0.00117367610318
0.00146019590716
0.00174209948
0.00201823892078
0.00228830258136
0.0025508372086
0.00280417756253
0.0030485147059
0.00328177549909
0.00350348120728
0.00371170335127
0.0039058340532
0.00408418695682
0.00352217579098
0.00330310844029
0.00307261564438
0.00283252613239
0.00258318133625
0.00232455508558
0.00205872595063
0.00178422534502
0.00150386816408
0.00121776931235
0.00092536741693
0.000629965412604
0.000330155054155
2.84651649512e-05
0.000254858891588
0.000564857783256
0.000872241372255
0.00117429070978
0.00146802044017
0.00175597803058
0.00203939207521
0.00231476707342
0.00258238082558
0.00284176824308
0.00308960584093
0.00332694729091
0.00355098735093
0.00376102906887
0.00395588987926
0.00413259074755
0.0036398016513
0.00341492949024
0.00317848131766
0.00293250856869
0.00267606134896
0.00241124686192
0.00213782556702
0.0018567778613
0.00156907176847
0.0012750827803
0.000976334916787
0.000672321606725
0.000365910069982
5.56366009842e-05
0.000235840658928
0.000553792390924
0.00086903770422
0.00117746086221
0.00147736830217
0.00177332183926
0.00206229958968
0.00234456091015
0.00261818333334
0.00288245918549
0.00313591545273
0.00337692989479
0.00360507889633
0.00381723722826
0.00401343755158
0.00419025920838
0.00375903556465
0.00352824896169
0.00328578211606
0.00303309445054
0.00277015590788
0.0024983764101
0.00221806732512
0.00192984190162
0.00163447861405
0.00133288633744
0.00102647800539
0.000715329326851
0.00040039624653
8.266699814e-05
0.000217861638129
0.000543701819092
0.000867268343616
0.00118153256634
0.0014896577725
0.00179230430376
0.00208829561371
0.00237728185193
0.00265753644754
0.0029277231761
0.00318645781671
0.00343247581737
0.00366466729487
0.00388056839358
0.00407903715154
0.00425712739312
0.00388026017071
0.00364301967866
0.00339454223917
0.00313506945344
0.00286551428284
0.00258673821476
0.00229888278014
0.00200301974979
0.00170076188098
0.00139154468968
0.001076691094
0.00075757027624
0.000434692051985
0.00010907820303
0.000200375977125
0.000535033680233
0.00086688831946
0.00118752859667
0.00150338619936
0.00181365134712
0.00211761091328
0.00241363709292
0.00270002971101
0.00297689731753
0.0032420074859
0.00349357031342
0.00373055851908
0.00395101072176
0.00415265781913
0.00433368547926
0.00400291684662
0.00375984818845
0.00350447148423
0.00323879686953
0.00296166565772
0.00267621825655
0.00238083777249
0.0020774521462
0.00176714322373
0.00144988753262
0.00112746599508
0.000799992430622
0.000468328418995
0.000134905675218
0.000184326269541
0.000526776515198
0.00086688831946
0.0011948769121
0.00151936202814
0.00183778113417
0.00214903759866
0.00245273804564
0.00274668361829
0.00303042997924
0.00330233310437
0.00355960312006
0.00380301657853
0.00402818274844
0.00423487321745
0.00441928210103
0.00412780201221
0.00387805303708
0.00361640800833
0.00334363237295
0.00306008909051
0.00276640966129
0.00246359818032
0.0021530419866
0.00183401901974
0.00150919685707
0.00117756295906
0.000842243839894
0.000502337113181
0.000160197529182
0.00016821041353
0.000520331146971
0.000867847708426
0.00120454929261
0.00153721239692
0.0018633767236
0.00218372014302
0.00249479688045
0.0027972345866
0.00308787613272
0.00336686627521
0.00363196509516
0.00388122492984
0.00411278764737
0.00432479840212
0.0045146571963
0.00438347330016
0.0041209575796
0.00384561969675
0.00355879462302
0.00326016258842
0.00295134712658
0.00263300574297
0.00230547853206
0.00197070353761
0.0016282404032
0.00122875697899
0.000884784610113
0.00053577052554
0.000184518836396
0.000153409129833
0.000514171651202
0.000869584964426
0.0012154268943
0.00155724648644
0.0018920743277
0.00222020004905
0.00254046231999
0.00285052176577
0.00314977697122
0.00343618606675
0.00370907139989
0.00396559708455
0.00420454996266
0.00442292278526
0.00461921082459
0.00438347330016
0.0041209575796
0.00384561969675
0.00355879462302
0.00326016258842
0.00295134712658
0.00263300574297
0.00230547853206
0.00197070353761
0.0016282404032
0.00128019357554
0.000926713998724
0.000569125160633
0.000209336752011
0.000138465129403
0.000509675788575
0.000873465265583
0.00122792416299
0.00157841370209
0.00192289411257
0.00225981192359
0.00258875204566
0.00290725293485
0.00321525043311
0.00351021373815
0.00379105450038
0.00405615183723
0.00430262154818
0.0045292809798
0.00473289208153
0.0045151792642
0.00424565506438
0.0039634139625
0.00366863118119
0.00336276986052
0.00304589180325
0.00271951039065
0.00238360905972
0.00204005245986
0.00168889837605
0.00133145010826
0.000969455793734
0.000602500395892
0.000232812750094
0.00012473124199
0.00050538849494
0.000877566582369
0.0012420602231
0.00160206561763
0.00195526394172
0.00230187886002
0.00263989925792
0.00296763281836
0.00328461580692
0.00358840208684
0.00387827903836
0.00415179804471
0.00440773831873
0.00464313823118
0.00485597734852
0.00464906819821
0.00437241728923
0.00408303265264
0.00378089795585
0.00346709345801
0.00314202363142
0.0028071807326
0.00246295828857
0.00211029874523
0.00174977786119
0.00138389497762
0.00101214113761
0.000635849621641
0.000256395309273
0.000111232065621
0.000502170472784
0.000883198510388
0.00125760391195
0.00162718849645
0.00199046205639
0.00234589419005
0.00269378936815
0.00303131787611
0.00335747005191
0.00367080629635
0.00397023819153
0.00425340651775
0.00451883984368
0.00476403523197
0.0049872772016
0.00478507608947
0.0045018967391
0.00420451456453
0.00389504174276
0.00357307388715
0.00323985391567
0.00289660342335
0.00254300286367
0.0021814835447
0.00181225181943
0.00143625093868
0.00105479435056
0.000669247369679
0.000279654985849
9.83753620255e-05
0.000499528751417
0.000889820544539
0.00127455643361
0.00165368707273
0.00202704015296
0.0023930819754
0.00275032647984
0.00309754706959
0.00343416779049
0.0037572462454
0.00406653212767
0.00436001713981
0.00463547913896
0.00489209551935
0.00512612613037
0.00492438338189
0.00463331258357
0.00432889859438
0.00401158438416
0.00368103167584
0.00333964113334
0.00298678715604
0.00262495597738
0.00225357908391
0.00187494139835
0.0014897678289
0.00109790491225
0.000702333087611
0.000303095137947
8.61095944717e-05
0.000497399995585
0.000897879355495
0.00129248266227
0.00168193122345
0.00206610646943
0.00244190336873
0.00280932130765
0.00316735959423
0.00351342891596
0.00384771677246
0.00416716283117
0.00447176192487
0.00475826479385
0.005025968196
0.00527304486845
0.00506598511927
0.00476777466676
0.00445581787935
0.00412973841129
0.00379114180178
0.0034405011669
0.00307910649303
0.00270795676519
0.00232681874692
0.00193891895643
0.00154328587808
0.0011418835103
0.000735947255607
0.000325862718567
7.39428399733e-05
0.000496168653801
0.000906370974537
0.00131204631063
0.0017121923398
0.00210639634944
0.00249330651342
0.00287078556773
0.00323967341833
0.00359644332021
0.00394099846577
0.00427193096605
0.00458739249708
0.00488630382176
0.00516612193079
0.00542620683449
0.0052105375528
0.00490492820541
0.00458458768631
0.00425011897782
0.00390320712243
0.00354363205794
0.00317334535965
0.00279192551213
0.00240185674456
0.00200343149414
0.00159763584252
0.0011859725852
0.00076968805106
0.000348851972956
6.18427006321e-05
0.000495772757072
0.000916065973713
0.00133274921966
0.00174363590553
0.00214859967416
0.00254633876356
0.00293525135613
0.00331420633159
0.003682725425
0.00403805354624
0.00438030205516
0.00470711399234
0.00501830747844
0.00531148266441
0.00558546299296
0.00535806539186
0.00504462316887
0.00471607276426
0.00437358061375
0.0040174005981
0.00364894822606
0.0032688435015
0.00287769419015
0.00247789938134
0.0020688638348
0.00165331799358
0.00123055669174
0.000803212419673
0.000371692688618
5.06285727837e-05
0.000495305670552
0.000926547624218
0.00135416938858
0.00177649679971
0.00219310348326
0.0026012903924
0.00300174119905
0.00339160206061
0.00377137191007
0.00413850983389
0.00449210033916
0.00483137438845
0.0051546327813
0.0054612132363
0.00575001808705
0.00550878889391
0.00518724743621
0.00485060734287
0.00449910287534
0.00413409397566
0.00375582094563
0.00336632735511
0.00296546871705
0.0025549525843
0.00213590264381
0.00170885459042
0.00127565069269
0.00083734976855
0.000394832890755
3.89727367951e-05
0.000495305670552
0.00093813375671
0.00137701369327
0.00181068157032
0.00223826807405
0.00265868116107
0.00307009257217
0.00347187623021
0.00386292280893
0.00424142596189
0.00460735386992
0.00495870940075
0.00529503072072
0.00561504790076
0.00591923050675
0.00566252338503
0.00533277628104
0.00498770089137
0.00462748614542
0.0042527916022
0.0038653239085
0.0034651833991
0.00305484200329
0.0026333123087
0.00220364243298
0.00176577737405
0.00132174796815
0.000871337705682
0.000417889800136
2.81153226807e-05
0.000496007396087
0.00095037968044
0.00140045064224
0.00184660999598
0.00228555410224
0.00271748730185
0.00314047883322
0.00355443774949
0.00395655504158
0.00434761726435
0.00472524648123
0.00508951701775
0.00543844419814
0.00577234536359
0.00609201051416
0.0058194588793
0.00548182474937
0.00512772346284
0.00475805870017
0.00437401529879
0.00397649726695
0.00356689077856
0.00314553395941
0.00271331249332
0.00227264053299
0.0018237470072
0.0013679999811
0.000906400306641
0.000440892560967
2.81153226807e-05
0.000496551407376
0.000963208951557
0.00142558308384
0.00188331135208
0.00233452134743
0.00277817176027
0.00321307392723
0.00363886209084
0.00405354456796
0.00445583702676
0.00484606607048
0.00522267318642
0.00558479350453
0.00593314460459
0.00626762815154
0.00598035858016
0.00563366985595
0.00527062612494
0.00489132803324
0.00449811633043
0.00409030740071
0.00367019609321
0.00323783977904
0.00279493757827
0.00234295864859
0.0019425300177
0.00146281972616
0.000977450272914
0.000487261825477
6.11230551193e-06
0.000499573306769
0.00099085004741
0.00147839320131
0.0019605921793
0.00243673149447
0.00290470126387
0.00336453182677
0.00381418423065
0.0042533319193
0.00468031388276
0.00509587566869
0.0054968761755
0.0058848748773
0.0062613069319
0.00662493756428
0.00614408933019
0.00578888969945
0.0054165643607
0.00502789445634
0.0046245781458
0.00420638768771
0.00377538834223
0.00333231792905
0.00287835783719
0.0024144455429
0.0019425300177
0.00146281972616
0.000977450272914
0.000487261825477
5.09107584005e-06
0.000499573306769
0.00099085004741
0.00147839320131
0.0019605921793
0.00243673149447
0.00290470126387
0.00336453182677
0.00381418423065
0.0042533319193
0.00468031388276
0.00509587566869
0.0054968761755
0.0058848748773
0.0062613069319
0.00662493756428
0.006312019293
0.00594760365312
0.0055655105639
0.0051675571102
0.00475345685001
0.00432520737769
0.00388282534132
0.00342885834995
0.00296280519119
0.00248766858471
0.00200326052658
0.00151175224868
0.00101343387882
0.000510664750215
5.09107584005e-06
0.000501967570553
0.00100557282029
0.00150591215657
0.0020013805407
0.00248977869038
0.00297082393028
0.00344260550684
0.00390529757846
0.00435648854148
0.00479637473744
0.00522376082456
0.00563788147274
0.00603809177642
0.00642817507421
0.00680522692267
0.00648311499898
0.00610975480269
0.00571811016193
0.00530977778756
0.0048854936018
0.00444615887088
0.00399260015395
0.00352705372969
0.0030499639994
0.00256196022896
0.00206525182156
0.00156097779511
0.00105018934421
0.000534536188637
1.6024185145e-05
0.00050451167986
0.00102119309988
0.00153458260374
0.00204281194738
0.00254436578762
0.00303821334145
0.00352351725755
0.00399808641414
0.00446184385664
0.00491424932986
0.00535420346968
0.00578067954518
0.00619365727601
0.00659615718017
0.00698533709709
0.00838875089752
0.00771572777525
0.00705070301259
0.00639625206432
0.00575366399885
0.0051240598186
0.00450929518277
0.0039083430857
0.0033219546071
0.00274943540251
0.00217376094999
0.00160793911525
0.00106535864546
0.000539380750682
2.23622361649e-05
0.000491602547242
0.00100962484768
0.00153894462667
0.00208715940867
0.00266088785124
0.00323882986384
0.0038168246579
0.00441004607906
0.00501969864476
0.00564499777165
0.006288188227
0.00694777902741
0.0076229770431
0.00831770805144
0.00902852014791
0.00966413647914
0.00871524454611
0.00780814710004
0.0069446232229
0.00612486102292
0.00534920304292
0.0046183971791
0.00392966658321
0.00328196407998
0.00267197042205
0.00209593069885
0.00154848334126
0.00102477137459
0.000517254702503
1.87750752456e-05
0.000476631448436
0.000976055243488
0.0014866869857
0.00201566899375
0.00257052536673
0.00315611709128
0.00377792794521
0.00443978625025
0.00514540056117
0.00589601926891
0.00669546518391
0.00754347368711
0.00844035530135
0.00939085774556
0.0103910853697
0.00943323482352
0.00849462241415
0.00759979091473
0.00674971468678
0.00594605095887
0.00518676800223
0.00447317439115
0.00380205689532
0.00317217731478
0.00258027079275
0.00202228720032
0.00149251751819
0.000986327212774
0.00049621269801
1.55077049995e-05
0.000462484270916
0.000944067883209
0.00143707203092
0.00194815357982
0.00248482333303
0.0030517297439
0.00365469087625
0.00429785234792
0.00498481065134
0.00571699016095
0.00649820057479
0.0073277448647
0.00820766951075
0.00914128992115
0.010122012892
0.0092000179287
0.00827337642115
0.00739281728627
0.00655875299479
0.00577095847727
0.00502941870796
0.00433265180277
0.00367936003988
0.00306790192109
0.00249296952942
0.00195186525835
0.00143972233806
0.000949800346535
0.000476847049271
1.21556162587e-05
0.000448714808627
0.000914197820044
0.00138980864383
0.00188423730053
0.00240274487168
0.00295210180569
0.00353726563852
0.00416099858198
0.00482883947404
0.00554259710698
0.00630364720375
0.00711432499423
0.00797360761347
0.00888704276208
0.00984467684143
0.00896517139009
0.00805289680642
0.00718882740951
0.00637067303021
0.00560045994538
0.00487612283551
0.00419736772884
0.00356190007841
0.0029673174234
0.00240935961377
0.00188549238554
0.00138918579369
0.000915356277581
0.000457949857298
9.78349069375e-06
0.000436332791683
0.000885210241661
0.00134502543717
0.00182297133936
0.00232508763097
0.00285649628118
0.00342379209115
0.00402956459896
0.00467808814898
0.00537196089676
0.00611303449618
0.0069027443839
0.00774105707182
0.00863122557869
0.0095632901739
0.00873006804039
0.00783446010279
0.00698663388733
0.00618651192676
0.00543429088356
0.00472790312554
0.00406674134221
0.00344874609806
0.00287073115082
0.00232988785469
0.001822023295
0.0013409522453
0.000882847948401
0.000440510916306
6.59052795101e-06
0.000423519925506
0.000858057960171
0.00130255148393
0.00176436504878
0.00225069194187
0.00276537451576
0.00331459277579
0.00390263121373
0.00453207949643
0.0052063444327
0.00592656995281
0.00669479630128
0.00750999884218
0.00837691329006
0.0092824908622
0.0084959587074
0.00761755581985
0.00678812587886
0.00600688195632
0.00527250178786
0.00458390956336
0.00394086369243
0.00333972983352
0.00277850254586
0.00225365672355
0.00176096366468
0.00129526113156
0.000851790760175
0.000423726316666