/*--------------------------------*- C++ -*----------------------------------*\
| =========                 |                                                 |
| \\      /  F ield         | OpenFOAM: The Open Source CFD Toolbox           |
|  \\    /   O peration     | Version:  2312                                  |
|   \\  /    A nd           | Website:  www.openfoam.com                      |
|    \\/     M anipulation  |                                                 |
\*---------------------------------------------------------------------------*/
FoamFile
{
    version     2.0;
    format      ascii;
    arch        "LSB;label=32;scalar=64";
    class       volScalarField;
    location    "0.005";
    object      p;
}
// * * * * * * * * * * * * * * * * * * * * * * * * * * * * * * * * * * * * * //

dimensions      [1 -1 -2 0 0 0 0];

internalField   nonuniform List<scalar> 
19400
(
101306.914741
101299.944087
101293.352474
101287.220784
101281.617261
101276.59778
101272.209568
101268.479672
101265.42639
101263.053401
101261.34646
101260.277139
101259.801991
101259.862289
101260.389583
101261.322485
101262.588536
101264.0965
101265.765394
101267.525978
101269.311753
101271.068189
101272.756457
101274.347847
101275.819767
101277.15719
101278.351982
101279.396921
101280.28493
101281.011544
101310.22977
101303.580647
101297.195333
101291.151899
101285.641378
101280.647402
101276.204269
101272.361367
101269.156064
101266.607201
101264.713185
101263.455256
101262.798693
101262.694591
101263.082102
101263.872431
101264.962254
101266.277363
101267.774109
101269.389031
101271.035317
101272.647711
101274.187955
101275.625191
101276.943173
101278.135899
101279.197778
101280.123616
101280.911102
101281.558169
101315.976336
101309.874153
101303.993112
101298.396865
101293.053029
101288.117318
101283.668599
101279.722149
101276.305005
101273.443275
101271.147937
101269.415278
101268.230585
101267.56932
101267.393436
101267.650161
101268.283445
101269.228093
101270.387288
101271.658676
101272.97946
101274.331451
101275.679606
101276.962902
101278.150621
101279.227092
101280.185529
101281.023651
101281.73765
101282.321914
101321.129613
101315.614134
101310.242389
101305.068948
101300.139479
101295.517682
101291.246316
101287.375715
101283.933428
101280.934486
101278.389851
101276.305972
101274.680853
101273.500576
101272.744813
101272.386842
101272.394296
101272.722927
101273.31907
101274.133416
101275.106811
101276.156862
101277.208033
101278.251835
101279.283261
101280.256569
101281.145229
101281.93272
101282.610351
101283.166835
101324.900715
101319.960085
101315.118046
101310.42276
101305.92067
101301.654455
101297.66392
101293.981816
101290.630286
101287.625183
101284.982479
101282.723567
101280.869017
101279.388607
101278.259711
101277.460538
101276.964028
101276.747025
101276.787481
101277.056925
101277.516518
101278.126876
101278.862205
101279.67027
101280.466696
101281.247365
101282.026004
101282.749438
101283.391895
101283.924745
101327.540788
101323.100871
101318.732052
101314.476082
101310.371839
101306.45454
101302.75526
101299.299858
101296.107078
101293.197605
101290.589978
101288.289936
101286.296511
101284.600925
101283.222172
101282.159216
101281.359222
101280.788523
101280.422207
101280.244987
101280.245698
101280.411912
101280.724865
101281.152137
101281.673702
101282.265919
101282.849133
101283.426658
101283.994964
101284.486351
101329.384471
101325.37718
101321.420098
101317.549167
101313.797757
101310.196232
101306.771675
101303.547749
101300.544888
101297.773017
101295.245431
101292.964882
101290.927257
101289.143627
101287.612094
101286.316072
101285.263003
101284.4591
101283.846194
101283.381058
101283.044567
101282.838434
101282.76399
101282.815373
101282.984951
101283.256166
101283.610991
101284.01713
101284.422127
101284.809294
101330.653999
101327.021453
101323.422678
101319.888941
101316.449329
101313.130549
101309.95632
101306.947428
101304.120866
101301.49269
101299.065098
101296.843216
101294.82788
101293.021843
101291.415908
101289.999413
101288.778882
101287.740636
101286.893621
101286.234022
101285.692293
101285.23475
101284.858783
101284.579296
101284.406185
101284.340712
101284.38066
101284.511469
101284.712397
101284.917137
101331.50774
101328.20125
101324.915723
101321.678547
101318.5153
101315.449425
101312.501875
101309.691028
101307.031939
101304.537501
101302.213046
101300.06486
101298.094855
101296.299678
101294.671582
101293.207085
101291.893892
101290.717248
101289.683706
101288.795784
101288.068496
101287.457134
101286.889954
101286.360628
101285.893462
101285.508589
101285.21582
101285.018425
101284.9135
101284.876002
101332.059527
101329.038274
101326.027989
101323.052801
101320.135258
101317.296071
101314.553811
101311.924626
101309.421983
101307.056612
101304.837218
101302.76638
101300.847132
101299.078534
101297.456401
101295.972892
101294.615168
101293.375734
101292.239452
101291.199692
101290.265559
101289.457954
101288.755299
101288.073957
101287.393981
101286.739507
101286.136915
101285.603103
101285.149682
101284.779637
101332.391131
101329.620746
101326.853519
101324.110766
101321.4125
101318.777087
101316.221069
101313.758813
101311.402587
101309.162214
101307.045696
101305.054411
101303.192916
101301.460523
101299.854026
101298.367362
101296.992647
101295.71841
101294.53121
101293.41748
101292.358607
101291.364492
101290.472009
101289.661855
101288.853242
101288.008454
101287.148463
101286.305261
101285.502864
101284.761864
101332.561674
101330.013073
101327.461487
101324.925875
101322.424043
101319.972448
101317.585743
101315.277019
101313.057115
101310.934749
101308.916663
101307.008389
101305.209942
101303.521494
101301.940865
101300.46355
101299.082744
101297.790346
101296.573445
101295.417108
101294.303179
101293.216739
101292.159737
101291.166271
101290.230951
101289.273927
101288.23919
101287.144466
101286.028399
101284.924838
101332.614366
101330.262772
101327.903387
101325.553155
101323.227996
101320.942674
101318.710405
101316.542863
101314.449932
101312.439734
101310.518526
101308.690802
101306.957472
101305.318541
101303.772187
101302.314721
101300.939764
101299.640132
101298.404805
101297.223675
101296.078854
101294.951633
101293.820419
101292.680717
101291.570165
101290.492928
101289.364235
101288.110236
101286.749133
101285.328709
101332.581092
101330.405294
101328.217974
101326.034338
101323.868629
101321.734239
101319.643059
101317.605673
101315.631116
101313.726848
101311.898499
101310.150057
101308.482746
101306.89698
101305.391062
101303.961584
101302.60274
101301.307807
101300.067381
101298.871534
101297.707452
101296.557042
101295.397531
101294.200172
101292.960857
101291.717833
101290.479361
101289.152232
101287.650563
101285.993897
101332.485562
101330.467293
101328.434592
101326.401206
101324.380036
101322.383029
101320.421193
101318.503957
101316.639687
101314.835122
101313.09546
101311.424425
101309.823644
101308.293453
101306.832226
101305.436882
101304.102399
101302.82227
101301.588233
101300.390132
101299.216559
101298.053623
101296.883346
101295.673596
101294.392947
101293.039949
101291.649747
101290.229702
101288.677945
101286.90066
101332.345516
101330.468919
101328.57581
101326.678439
101324.788648
101322.9172
101321.074099
101319.267992
101317.506527
101315.795934
101314.140984
101312.545114
101311.010561
101309.537173
101308.123535
101306.767195
101305.463469
101304.206253
101302.987877
101301.799045
101300.628819
101299.464181
101298.290239
101297.086389
101295.813568
101294.437779
101292.956023
101291.405411
101289.786416
101287.985728
101332.174277
101330.425695
101328.658929
101326.885198
101325.115182
101323.358715
101321.624952
101319.921878
101318.256427
101316.634437
101315.06038
101313.537507
101312.067872
101310.651696
101309.287736
101307.973702
101306.705645
101305.477919
101304.283396
101303.113479
101301.957812
101300.804012
101299.637808
101298.443242
101297.194848
101295.849288
101294.367133
101292.748426
101291.029504
101289.194971
101331.981994
101330.349402
101328.697399
101327.036362
101325.375913
101323.725125
101322.09229
101320.484872
101318.909241
101317.3708
101315.873833
101314.421322
101313.015297
101311.656218
101310.343197
101309.074079
101307.845448
101306.652278
101305.488131
101304.345069
101303.213419
101302.081638
101300.936042
101299.761193
101298.538138
101297.237874
101295.813238
101294.222096
101292.463893
101290.568008
101331.776077
101330.249038
101328.701776
101327.143713
101325.583859
101324.030333
101322.490939
101320.972458
101319.4809
101318.021287
101316.597691
101315.212946
101313.869121
101312.566628
101311.305169
101310.082815
101308.896522
101307.741902
101306.613252
101305.503356
101304.403386
101303.302774
101302.188743
101301.046415
101299.858671
101298.603864
101297.250338
101295.746482
101294.047296
101292.150241
101331.562314
101330.131531
101328.680119
101327.216566
101325.749156
101324.285575
101322.832775
101321.397207
101319.984457
101318.59924
101317.245414
101315.925806
101314.642343
101313.396002
101312.186386
101311.011903
101309.870005
101308.756967
101307.667748
101306.59603
101305.533804
101304.471608
101303.397941
101302.299107
101301.159061
101299.958958
101298.674969
101297.272041
101295.694228
101293.89431
101331.344982
101330.002398
101328.638857
101327.262252
101325.880159
101324.499717
101323.127489
101321.769309
101320.430562
101319.115635
101317.828257
101316.571195
101315.346443
101314.15511
101312.997028
101311.870995
101310.774898
101309.705648
101308.658936
101307.629177
101306.609478
101305.591426
101304.564983
101303.517916
101302.435902
101301.301706
101300.094963
101298.79036
101297.348942
101295.709551
101331.127458
101329.865804
101328.58305
101327.286602
101325.983434
101324.680165
101323.382917
101322.097185
101320.827952
101319.579532
101318.355404
101317.158416
101315.990508
101314.852885
101313.745741
101312.668249
101311.618825
101310.594863
101309.592773
101308.607863
101307.634231
101306.664665
101305.690472
101304.701286
101303.684567
101302.625315
101301.505826
101300.304624
101298.99518
101297.533157
101330.912081
101329.72487
101328.516691
101327.294318
101326.064299
101324.83282
101323.60552
101322.38767
101321.183906
101319.998376
101318.834493
101317.695051
101316.582062
101315.496785
101314.439771
101313.410603
101312.408117
101311.430259
101310.474207
101309.536069
101308.611008
101307.692962
101306.774712
101305.847609
101304.901153
101303.922864
101302.897764
101301.807708
101300.631268
101299.340102
101330.700598
101329.582157
101328.442888
101327.289198
101326.127136
101324.962498
101323.800631
101322.646423
101321.50435
101320.378367
101319.271823
101318.187509
101317.127493
101316.093153
101315.085226
101314.103793
101313.148084
101312.21668
101311.307383
101310.417161
101309.542182
101308.677634
101307.817659
101306.955261
101306.082142
101305.18818
101304.261385
101303.287321
101302.24801
101301.122998
101330.494431
101329.439508
101328.36415
101327.274221
101326.175438
101325.073178
101323.972535
101322.878154
101321.794248
101320.724683
101319.672717
101318.641166
101317.632201
101316.647277
101315.687154
101314.752558
101313.843207
101312.958127
101312.095778
101311.253934
101310.429778
101309.619669
101308.819085
101308.022733
101307.224209
101306.415937
101305.588758
101304.731878
101303.831368
101302.871236
101330.29445
101329.298419
101328.282363
101327.251787
101326.211962
101325.168092
101324.124854
101323.08671
101322.057739
101321.041616
101320.041595
101319.060507
101318.100638
101317.163767
101316.249789
101315.361018
101314.497266
101313.658003
101312.842307
101312.048781
101311.275465
101310.519863
101309.778835
101309.04856
101308.324589
101307.601685
101306.873309
101306.132113
101305.368273
101304.570021
101330.101266
101329.159951
101328.199074
101327.22378
101326.239092
101325.249806
101324.260518
101323.275349
101322.298252
101321.332823
101320.382212
101319.449267
101318.536432
101317.646763
101316.776877
101315.932664
101315.113525
101314.319258
101313.549546
101312.803716
101312.0807
101311.379047
101310.696805
101310.03172
101309.381092
101308.74169
101308.109607
101307.48046
101306.848392
101306.2058
101329.915325
101329.024872
101328.115414
101327.191783
101326.258648
101325.320619
101324.381978
101323.446783
101322.518729
101321.60132
101320.697741
101319.810657
101318.942247
101318.093606
101317.270884
101316.470492
101315.694749
101314.944373
101314.219632
101313.520507
101312.846774
101312.197836
101311.573011
101310.971405
101310.391793
101309.832996
101309.293393
101308.771208
101308.263983
101307.768078
101329.736773
101328.89379
101328.032334
101327.156989
101326.272208
101325.382272
101324.491342
101323.603232
101322.72158
101321.849764
101320.990878
101320.14769
101319.322498
101318.517423
101317.735646
101316.977167
101316.243426
101315.535637
101314.854542
101314.200806
101313.574824
101312.977015
101312.407665
101311.867072
101311.355527
101310.873479
101310.421436
101309.999898
101309.609334
101309.249658
101329.565714
101328.767043
101327.9505
101327.120405
101326.280971
101325.436278
101324.590263
101323.746633
101322.908878
101322.080312
101321.263993
101320.462693
101319.678914
101318.914901
101318.173094
101317.454881
101316.761694
101316.094995
101315.456059
101314.846042
101314.266099
101313.717386
101313.201068
101312.718551
101312.271445
101311.861655
101311.491493
101311.163485
101310.880589
101310.645617
101329.402146
101328.644925
101327.870434
101327.082774
101326.285939
101325.483811
101324.680168
101323.878566
101323.082358
101322.294835
101321.51901
101320.757663
101320.013352
101319.288446
101318.585252
101317.905673
101317.251415
101316.62421
101316.025738
101315.457673
101314.921731
101314.419725
101313.953673
101313.52596
101313.139248
101312.79673
101312.502224
101312.260064
101312.075186
101311.952885
101329.245971
101328.527553
101327.792525
101327.044699
101326.287934
101325.52589
101324.762224
101324.000338
101323.243519
101322.494947
101321.757602
101321.034299
101320.327632
101319.640028
101318.973859
101318.331292
101317.714287
101317.124863
101316.565071
101316.036972
101315.542787
101315.084967
101314.666228
101314.289718
101313.959045
101313.678474
101313.453108
101313.288686
101313.191888
101313.17012
101329.097002
101328.415002
101327.716992
101327.006645
101326.287571
101325.563361
101324.837439
101324.113099
101323.393605
101322.681987
101321.981243
101321.294127
101320.623314
101319.971296
101319.340511
101318.733276
101318.151838
101317.598426
101317.075392
101316.585179
101316.130468
101315.714154
101315.33957
101315.01047
101314.731314
101314.507241
101314.34428
101314.249332
101314.230649
101314.297395
101328.955068
101328.307244
101327.644051
101326.96897
101326.285447
101325.596893
101324.906626
101324.217856
101323.533698
101322.857174
101322.19117
101321.538486
101320.901818
101320.283692
101319.68661
101319.113073
101318.565463
101318.046258
101317.558045
101317.103581
101316.685895
101316.308328
101315.974631
101315.689141
101315.456906
101315.283744
101315.176358
101315.142753
101315.192458
101315.3357
101328.819943
101328.204235
101327.573808
101326.931934
101326.28194
101325.627064
101324.970518
101324.315416
101323.664758
101323.021497
101322.388514
101321.768567
101321.164354
101320.578457
101320.013477
101319.471948
101318.956456
101318.469615
101318.01425
101317.593361
101317.210248
101316.868594
101316.57253
101316.326804
101316.136889
101316.009071
101315.95061
101315.970491
101316.078892
101316.286788
101328.691374
101328.105915
101327.506319
101326.895769
101326.277389
101325.654345
101325.029696
101324.406459
101323.787554
101323.175865
101322.57424
101321.985377
101321.412015
101320.856761
101320.322232
101319.811092
101319.325975
101318.869694
101318.445208
101318.055705
101317.704724
101317.396182
101317.134498
101316.924692
101316.77257
101316.684619
101316.668731
101316.734398
101316.892032
101317.153287
101328.569083
101328.012116
101327.441609
101326.860592
101326.272091
101325.679137
101325.084668
101324.491601
101323.902794
101323.321062
101322.749179
101322.189858
101321.64579
101321.119603
101320.613964
101320.13157
101319.675166
101319.247643
101318.852069
101318.491796
101318.170512
101317.892337
101317.661815
101317.484228
101317.365455
101317.312168
101317.332757
101317.436752
101317.634608
101317.938552
101328.452825
101327.922702
101327.379644
101326.82652
101326.266266
101325.701763
101325.135857
101324.571383
101324.011092
101323.457758
101322.91412
101322.382826
101321.866545
101321.367925
101320.889632
101320.434414
101320.005056
101319.604523
101319.235954
101318.902802
101318.60886
101318.358322
101318.155884
101318.006924
101317.917243
101317.89374
101317.944945
101318.080121
101318.30968
101318.646248
101328.342328
101327.837559
101327.320381
101326.793611
101326.260073
101325.722494
101325.183644
101324.646231
101324.112989
101323.586598
101323.069724
101322.565012
101322.07508
101321.602564
101321.150144
101320.720556
101320.316636
101319.94137
101319.597958
101319.289881
101319.020972
101318.795467
101318.618176
101318.494379
101318.429776
101318.431459
101318.507693
101318.667359
101318.920698
101319.28049
101328.237336
101327.756479
101327.263751
101326.761902
101326.253621
101325.741544
101325.228309
101324.716565
101324.20896
101323.708103
101323.216624
101322.737093
101322.272122
101321.824317
101321.39633
101320.990894
101320.610855
101320.259213
101319.939151
101319.654158
101319.408095
101319.205148
101319.050165
101318.94824
101318.905048
101318.927559
101319.023632
101319.201619
101319.471418
101319.84576
101328.137578
101327.679284
101327.209644
101326.731366
101326.247003
101325.759069
101325.270108
101324.782704
101324.299398
101323.822768
101323.355348
101322.899685
101322.45834
101322.033888
101321.628956
101321.246254
101320.888608
101320.558991
101320.260553
101319.99678
101319.771466
101319.588734
101319.453362
101319.370262
101319.345031
101319.384304
101319.495518
101319.686158
101319.965849
101320.346622
101328.042784
101327.605769
101327.15794
101326.701968
101326.240273
101325.775211
101325.309256
101324.844913
101324.38466
101323.930992
101323.486375
101323.053327
101322.634337
101322.231946
101321.848748
101321.487413
101321.150717
101320.841609
101320.563189
101320.318862
101320.112317
101319.947623
101319.8293
101319.76226
101319.751729
101319.804119
101319.926191
101320.124333
101320.408136
101320.787711
101327.952692
101327.535757
101327.108568
101326.673755
101326.233541
101325.790155
101325.345983
101324.903493
101324.465092
101324.033177
101323.610179
101323.19852
101322.800668
101322.419108
101322.05639
101321.715107
101321.398008
101321.10797
101320.848021
101320.621471
101320.431878
101320.283173
101320.179573
101320.126042
101320.127116
101320.189515
101320.318464
101320.519753
101320.802346
101321.17382
101327.867095
101327.469164
101327.061573
101326.646861
101326.227027
101325.804159
101325.38063
101324.958817
101324.54109
101324.129765
101323.727199
101323.335767
101322.95789
101322.595968
101322.252507
101321.930047
101321.631243
101321.358918
101321.115994
101320.90567
101320.731342
101320.596697
101320.50584
101320.463324
101320.473215
101320.542968
101320.675167
101320.876061
101321.152377
101321.510218
101327.785831
101327.405919
101327.016998
101326.621422
101326.22092
101325.817496
101325.413488
101325.011263
101324.613084
101324.221213
101323.83795
101323.465621
101323.106562
101322.763131
101322.437747
101322.132894
101321.851163
101321.595292
101321.368027
101321.172499
101321.01186
101320.889487
101320.809825
101320.77558
101320.792379
101320.866729
101320.999099
101321.196636
101321.462177
101321.802703
101327.708685
101327.34577
101326.974589
101326.597201
101326.215012
101325.830011
101325.44453
101325.060887
101324.681256
101324.307828
101323.942833
101323.588548
101323.247229
101322.921201
101322.612751
101322.324334
101322.058474
101321.817818
101321.604937
101321.422859
101321.274455
101321.162944
101321.092627
101321.06489
101321.087422
101321.162587
101321.29326
101321.484732
101321.736106
101322.057251
101327.635217
101327.288012
101326.933546
101326.57333
101326.208441
101325.840866
101325.473002
101325.107076
101324.74516
101324.389349
101324.041775
101323.704659
101323.380174
101323.070599
101322.778117
101322.505009
101322.253892
101322.027254
101321.827531
101321.657611
101321.52011
101321.418264
101321.355375
101321.333463
101321.359446
101321.433051
101321.560741
101321.743296
101321.978908
101322.27945
101327.564673
101327.231755
101326.892895
101326.548789
101326.200162
101325.849046
101325.497916
101325.148908
101324.803968
101324.465052
101324.134235
101323.813585
101323.505248
101323.211379
101322.934108
101322.675449
101322.438087
101322.224392
101322.036689
101321.877731
101321.749951
101321.656461
101321.599852
101321.58268
101321.609785
101321.681947
101321.804053
101321.975872
101322.19515
101322.473934
101327.496526
101327.176962
101326.852941
101326.524122
101326.190892
101325.855379
101325.52009
101325.187122
101324.858265
101324.535369
101324.22044
101323.915454
101323.622472
101323.343519
101323.080695
101322.835888
101322.61155
101322.409928
101322.233267
101322.084179
101321.964924
101321.878473
101321.826983
101321.813168
101321.840526
101321.91055
101322.025604
101322.186392
101322.388602
101322.645476
101327.431572
101327.125991
101326.817093
101326.503545
101326.185461
101325.86504
101325.544811
101325.226838
101324.912834
101324.604552
101324.303975
101324.013096
101323.733918
101323.468369
101323.218422
101322.986564
101322.774341
101322.584059
101322.417839
101322.278029
101322.166645
101322.086398
101322.039083
101322.027419
101322.054074
101322.120467
101322.22883
101322.377686
101322.564085
101322.800575
101327.356925
101327.072863
101326.785306
101326.491592
101326.191649
101325.887935
101325.583201
101325.279543
101324.978798
101324.682841
101324.393775
101324.113835
101323.845183
101323.589899
101323.350171
101323.1285
101322.926538
101322.746624
101322.590873
101322.461461
101322.360205
101322.28938
101322.250312
101322.245322
101322.275908
101322.343135
101322.448801
101322.587841
101322.764417
101322.97922
101327.275401
101327.0152
101326.751361
101326.479316
101326.198731
101325.912464
101325.623498
101325.334047
101325.046006
101324.761433
101324.482637
101324.212122
101323.952373
101323.705797
101323.474847
101323.261743
101323.068923
101322.898708
101322.753248
101322.634629
101322.544504
101322.484658
101322.455939
101322.459895
101322.496758
101322.566783
101322.668104
101322.798564
101322.96275
101323.152929
101327.20127
101326.961991
101326.719445
101326.467235
101326.204546
101325.934459
101325.6602
101325.384052
101325.107968
101324.834138
101324.565062
101324.303466
101324.052142
101323.813759
101323.590837
101323.385907
101323.201595
101323.040291
101322.904119
101322.795052
101322.714569
101322.663983
101322.643743
101322.654588
101322.695931
101322.766878
101322.863044
101322.98588
101323.134505
101323.302887
101327.133673
101326.912758
101326.689101
101326.454845
101326.208606
101325.953512
101325.692974
101325.429343
101325.1646
101324.90104
101324.641294
101324.38826
101324.145009
101323.914406
101323.699135
101323.502005
101323.325685
101323.172615
101323.044891
101322.944348
101322.872241
101322.829438
101322.815997
101322.831974
101322.876157
101322.946456
101323.038865
101323.156542
101323.291887
101323.440852
101327.07161
101326.866972
101326.660116
101326.442123
101326.211022
101325.969882
101325.722187
101325.470336
101325.216354
101324.962604
101324.711825
101324.46707
101324.231577
101324.008443
101323.800538
101323.610804
101323.44194
101323.296453
101323.17639
101323.083429
101323.018574
101322.982303
101322.974318
101322.994095
101323.039895
101323.109195
101323.19928
101323.31055
101323.435288
101323.56856
101327.014595
101326.824443
101326.632532
101326.42923
101326.212043
101325.983878
101325.74822
101325.507483
101325.263704
101325.019323
101324.777175
101324.540405
101324.312388
101324.096443
101323.895581
101323.712811
101323.550909
101323.412397
101323.29927
101323.213027
101323.154445
101323.123643
101323.120071
101323.142642
101323.189423
101323.257756
101323.345015
101323.449832
101323.565908
101323.68615
101326.961987
101326.784804
101326.606241
101326.41625
101326.211879
101325.995797
101325.771429
101325.541185
101325.307095
101325.071657
101324.837797
101324.608719
101324.387906
101324.178864
101323.984694
101323.8085
101323.653096
101323.521
101323.41415
101323.333853
101323.280713
101323.254482
101323.254487
101323.279047
101323.326424
101323.393548
101323.477694
101323.576593
101323.685899
101323.794859
101326.913384
101326.747844
101326.581238
101326.403321
101326.210749
101326.005909
101325.792133
101325.571793
101325.34691
101325.119999
101324.894079
101324.672406
101324.458525
101324.256097
101324.068295
101323.898304
101323.748972
101323.622781
101323.52162
101323.446589
101323.398186
101323.375771
101323.378669
101323.404569
101323.452257
101323.517647
101323.599074
101323.692474
101323.796526
101323.896161
101326.868352
101326.713296
101326.557435
101326.390495
101326.208801
101326.014435
101325.810593
101325.599612
101325.383476
101325.164695
101324.946381
101324.731819
101324.524608
101324.328511
101324.146766
101323.982637
101323.838978
101323.718224
101323.622234
101323.551872
101323.507599
101323.488367
101323.493599
101323.520349
101323.567971
101323.631519
101323.710388
101323.798825
101323.898588
101323.991131
101326.826578
101326.680983
101326.534795
101326.377854
101326.206189
101326.02158
101325.827062
101325.624919
101325.417092
101325.206071
101324.995022
101324.787289
101324.586477
101324.396449
101324.220525
101324.061885
101323.923522
101323.807786
101323.716488
101323.650289
101323.609602
101323.593041
101323.600128
101323.627378
101323.674581
101323.736362
101323.812614
101323.8969
101323.992916
101324.080277
101326.787742
101326.650707
101326.513247
101326.365426
101326.203024
101326.027509
101325.841744
101325.647947
101325.448015
101325.244402
101325.040297
101324.839108
101324.644444
101324.460217
101324.289793
101324.136387
101324.002978
101323.891875
101323.804841
101323.742355
101323.704775
101323.690477
101323.698977
101323.726485
101323.772994
101323.833019
101323.906758
101323.98755
101324.079916
101324.163358
101326.751588
101326.622314
101326.49275
101326.353261
101326.199417
101326.032375
101325.85483
101325.668919
101325.476491
101325.279941
101325.082469
101324.887552
101324.698779
101324.520102
101324.354922
101324.206461
101324.077689
101323.970871
101323.887709
101323.828538
101323.793653
101323.781268
101323.79079
101323.818381
101323.863969
101323.922215
101323.993545
101324.071133
101324.159761
101324.239957
101326.717863
101326.595654
101326.473253
101326.341389
101326.195452
101326.036311
101325.866484
101325.688026
101325.502728
101325.312915
101325.12178
101324.932865
101324.749742
101324.576376
101324.416189
101324.272399
101324.147971
101324.045121
101323.965473
101323.909265
101323.876731
101323.865934
101323.876125
101323.903675
101323.948208
101324.004526
101324.073422
101324.147935
101324.232601
101324.309842
101326.686373
101326.57061
101326.454725
101326.329841
101326.191214
101326.039437
101325.876857
101325.705443
101325.526916
101325.343526
101325.158453
101324.975279
101324.797568
101324.62928
101324.473844
101324.334474
101324.214118
101324.11494
101324.03847
101323.984939
101323.954461
101323.944896
101323.955494
101323.982896
101324.026213
101324.080405
101324.146839
101324.218307
101324.298669
101324.373043
101326.656932
101326.547076
101326.437124
101326.318644
101326.186771
101326.041856
101325.886077
101325.721323
101325.549226
101325.371966
101325.192684
101325.015003
101324.842471
101324.679036
101324.528129
101324.392937
101324.276398
101324.180605
101324.107029
101324.055942
101324.027188
101324.018552
101324.029418
101324.056496
101324.098238
101324.150276
101324.21433
101324.282606
101324.358345
101324.429791
101326.629371
101326.52497
101326.42042
101326.307814
101326.182192
101326.043664
101325.894266
101325.735804
101325.569817
101325.398404
101325.224657
101325.052224
101324.884651
101324.725854
101324.57926
101324.448023
101324.335048
101324.242386
101324.171467
101324.12258
101324.095219
101324.087334
101324.098338
101324.124753
101324.164631
101324.214792
101324.276233
101324.341022
101324.412077
101324.48041
101326.603544
101326.504187
101326.404574
101326.297372
101326.177535
101326.044952
101325.901535
101325.749014
101325.588832
101325.422993
101325.25454
101325.087121
101324.92429
101324.769924
101324.62744
101324.499938
101324.390295
101324.300537
101324.232061
101324.185121
101324.158888
101324.151625
101324.162543
101324.18794
101324.225991
101324.27457
101324.332433
101324.393859
101324.460438
101324.525283
101326.579325
101326.484642
101326.389558
101326.28733
101326.17285
101326.045801
101325.907986
101325.761072
101325.606395
101325.445876
101325.282483
101325.119854
101324.961557
101324.811425
101324.672856
101324.548874
101324.442353
101324.355291
101324.28906
101324.243818
101324.218514
101324.211727
101324.22228
101324.24644
101324.282846
101324.329578
101324.383284
101324.441801
101324.503844
101324.564797
101326.556603
101326.466256
101326.375333
101326.277697
101326.168182
101326.046283
101325.913714
101325.772082
101325.622631
101325.467181
101325.308622
101325.150573
101324.996609
101324.85052
101324.715676
101324.59501
101324.491421
101324.40686
101324.34269
101324.298911
101324.274379
101324.267892
101324.277827
101324.300652
101324.335462
101324.379721
101324.429661
101324.485377
101324.542506
101324.599444
101326.535277
101326.448965
101326.361865
101326.268474
101326.16357
101326.046465
101325.918802
101325.78215
101325.637648
101325.487026
101325.333084
101325.179414
101325.029587
101324.887364
101324.756057
101324.638514
101324.537684
101324.455445
101324.393151
101324.350626
101324.326732
101324.32035
101324.329464
101324.350911
101324.384035