/*--------------------------------*- C++ -*----------------------------------*\
| =========                 |                                                 |
| \\      /  F ield         | OpenFOAM: The Open Source CFD Toolbox           |
|  \\    /   O peration     | Version:  2312                                  |
|   \\  /    A nd           | Website:  www.openfoam.com                      |
|    \\/     M anipulation  |                                                 |
\*---------------------------------------------------------------------------*/
FoamFile
{
    version     2.0;
    format      ascii;
    arch        "LSB;label=32;scalar=64";
    class       surfaceScalarField;
    location    "0.005";
    object      phi;
}
// * * * * * * * * * * * * * * * * * * * * * * * * * * * * * * * * * * * * * //

dimensions      [1 0 -1 0 0 0 0];

oriented        oriented;

internalField   nonuniform List<scalar> 
38580
(
6.59906026095e-10
-8.32474553397e-12
-6.51583186567e-10
6.62407011957e-10
-2.50302747223e-12
6.59279852819e-10
3.12497973654e-12
6.50456674864e-10
8.82086442863e-12
6.36051192216e-10
1.4403035063e-11
6.16248641842e-10
1.97999725579e-11
5.9135241029e-10
2.48935304704e-11
5.61643278167e-10
2.97063153984e-11
5.27547082805e-10
3.40932634132e-11
4.89697777218e-10
3.78462734591e-11
4.48780762978e-10
4.09138932903e-11
4.05630398509e-10
4.31471693583e-11
3.61171504954e-10
4.4455640322e-11
3.16344655005e-10
4.48235563033e-11
2.72142400711e-10
4.41989394444e-11
2.29447827066e-10
4.2691256235e-11
1.88906642145e-10
4.05378860031e-11
1.51051117421e-10
3.78522681268e-11
1.16315147231e-10
3.47327775392e-11
8.50597324034e-11
3.12523076301e-11
5.74645069785e-11
2.75922225805e-11
3.3564002739e-11
2.3897619297e-11
1.33328025814e-11
2.02284430598e-11
-3.31817595059e-12
1.66483551135e-11
-1.65332547245e-11
1.32125909709e-11
-2.64985361251e-11
9.96292680702e-12
-3.34766443445e-11
6.97588165461e-12
-3.78470566474e-11
4.3683072878e-12
-4.01233019148e-11
2.27425491498e-12
8.23820994826e-13
-4.09490024178e-11
1.26343705856e-09
-4.6802845337e-11
-1.2249607721e-09
1.29385126286e-09
-3.29191775696e-11
1.3154033562e-09
-1.84291896177e-11
1.32647193743e-09
-2.24991863841e-12
1.32915537973e-09
1.1717239343e-11
1.32249088408e-09
2.64619727076e-11
1.30604994822e-09
4.13318361105e-11
1.27961851109e-09
5.61349901343e-11
1.24312471423e-09
7.05841674422e-11
1.19665106666e-09
8.43169010155e-11
1.14045125947e-09
9.71105619763e-11
1.07507929364e-09
1.08515894803e-10
1.00125250135e-09
1.18279101786e-10
9.20018347583e-10
1.26054303569e-10
8.3273186618e-10
1.31481956421e-10
7.41219872329e-10
1.34199750367e-10
6.47886141134e-10
1.33868107606e-10
5.55230531764e-10
1.30504376661e-10
4.65440318023e-10
1.2451952139e-10
3.80210297764e-10
1.16478919855e-10
3.0095400405e-10
1.06845198975e-10
2.28744207922e-10
9.61042099643e-11
1.64446739297e-10
8.45228370407e-11
1.08501262802e-10
7.25909018671e-11
6.10060844709e-11
6.07049907818e-11
2.17720371342e-11
4.9194348524e-11
-9.64823870102e-12
3.83936844891e-11
-3.39761021495e-11
2.86938460469e-11
-5.22765370901e-11
2.0572506103e-11
1.44886045385e-11
-6.5943371551e-11
1.48369204944e-09
-1.04576243897e-10
-1.4259203832e-09
1.53463248789e-09
-8.38614756069e-11
1.57827159083e-09
-6.20702837598e-11
1.6151570133e-09
-3.91374674239e-11
1.64242188543e-09
-1.55498694726e-11
1.6599434631e-09
8.93803108303e-12
1.6677522952e-09
3.3520512705e-11
1.66513933769e-09
5.87453301692e-11
1.65158926489e-09
8.41314986567e-11
1.62662628259e-09
1.09277021282e-10
1.58989359046e-09
1.33840274999e-10
1.54099816473e-09
1.57408227492e-10
1.47972362895e-09
1.79550434626e-10
1.40614631766e-09
1.99628313354e-10
1.32059403076e-09
2.17030854461e-10
1.22365704572e-09
2.31133266517e-10
1.11635935066e-09
2.41162273038e-10
1.00038236407e-09
2.46477810844e-10
8.78536597129e-10
2.46361735784e-10
7.54638766658e-10
2.40373217734e-10
6.32733261253e-10
2.28747205671e-10
5.16234451005e-10
2.12599578291e-10
4.07597656638e-10
1.93156282004e-10
3.08649267817e-10
1.71536064992e-10
2.207848427e-10
1.48566334161e-10
1.4470312159e-10
1.25273148169e-10
8.04958118233e-11
1.02598240623e-10
2.76438243336e-11
8.15432491945e-11
-1.4945410207e-11
6.31593268308e-11
4.85098498128e-11
-4.89689029933e-11
1.54127590896e-09
-1.71441567482e-10
-1.47441230598e-09
1.60250258885e-09
-1.45090000025e-10
1.65764217024e-09
-1.17211834254e-10
1.70649060833e-09
-8.79879989004e-11
1.74830659568e-09
-5.73680704363e-11
1.78285878153e-09
-2.56164886525e-11
1.80914091117e-09
7.23592425833e-12
1.82678740277e-09
4.10962582027e-11
1.83524944291e-09
7.56667599567e-11
1.83370383914e-09
1.10819820386e-10
1.82150212934e-09
1.46039068017e-10
1.79788957314e-09
1.8101776373e-10
1.76223773768e-09
2.15199152671e-10
1.71371781044e-09
2.48145034901e-10
1.65177917714e-09
2.78966202027e-10
1.5758997865e-09
3.07009301636e-10
1.48586101127e-09
3.31197631983e-10
1.38175366557e-09
3.50581671263e-10
1.26429541025e-09
3.63816459743e-10
1.13468423054e-09
3.69980830417e-10
9.95570931681e-10
3.67856951839e-10
8.51388058925e-10
3.56778928638e-10
7.07811822926e-10
3.36729040715e-10
5.70191139826e-10
3.09153328351e-10
4.42396228633e-10
2.76357912374e-10
3.26843997021e-10
2.40822171232e-10
2.25167566948e-10
2.04271611794e-10
1.37979351698e-10
1.68728575319e-10
6.4920222345e-11
1.36215746025e-10
1.08726483431e-10
4.70106099428e-12
1.54047753585e-09
-2.41550039343e-10
-1.47037080768e-09
1.60565866193e-09
-2.1027299422e-10
1.66577139507e-09
-1.77326559911e-10
1.7204243878e-09
-1.42643108664e-10
1.76944784472e-09
-1.06393768934e-10
1.81236057376e-09
-6.85315834211e-11
1.84880159628e-09
-2.92075874327e-11
1.87831909055e-09
1.15761530441e-11
1.90035925002e-09
5.36238727907e-11
1.91449659472e-09
9.66796392347e-11
1.92009231668e-09
1.4044039674e-10
1.91640524487e-09
1.84701793715e-10
1.9026455088e-09
2.28955745881e-10
1.87784264896e-09
2.7294466718e-10
1.84096792207e-09
3.15837624939e-10
1.79116847475e-09
3.56805380328e-10
1.72734428572e-09
3.95018402441e-10
1.64860742712e-09
4.29315069412e-10
1.55405120819e-09
4.58369183887e-10
1.44349331353e-09
4.80535210302e-10
1.31719876896e-09
4.94147940272e-10
1.17646181631e-09
4.97512305393e-10
1.02381131005e-09
4.89375972958e-10
8.64319139478e-10
4.6864197701e-10
7.05228999678e-10
4.35444582932e-10
5.53638834931e-10
3.92408915984e-10
4.14691655536e-10
3.43215450282e-10
2.90752315557e-10
2.92664694971e-10
1.8339484055e-10
2.43570150079e-10
1.99542112032e-10
9.25763105623e-11
1.53119014103e-09
-3.12423517186e-10
-1.46031843851e-09
1.59759592608e-09
-2.76680681264e-10
1.65927030856e-09
-2.39002971511e-10
1.71607712478e-09
-1.99452081572e-10
1.76775229367e-09
-1.58071222141e-10
1.81414902997e-09
-1.14930731407e-10
1.8550461501e-09
-7.0107245993e-11
1.89030649909e-09
-2.36868581956e-11
1.91958632723e-09
2.43412617349e-11
1.94237026855e-09
7.38927982492e-11
1.9579762301e-09
1.24831424424e-10
1.96582849304e-09
1.76846409117e-10
1.96565878873e-09
2.29122232007e-10
1.95689710872e-09
2.81703045544e-10
1.93861343584e-09
3.34117895728e-10
1.90967991434e-09
3.85735426128e-10
1.86873598447e-09
4.3595880245e-10
1.81456118692e-09
4.83486300287e-10
1.74584081746e-09
5.27085967389e-10
1.6610862165e-09
5.65286217934e-10
1.55903339368e-09
5.96197165501e-10
1.43901538135e-09
6.17526721113e-10
1.30139101909e-09
6.26996745164e-10
1.14762054727e-09
6.22408819882e-10
9.80900671869e-10
6.02160837794e-10
8.07792534284e-10
5.65513485047e-10
6.37590622929e-10
5.13413826621e-10
4.78939015213e-10
4.51312788337e-10
3.36504706284e-10
3.86001004432e-10
3.23561373122e-10
2.12482094578e-10
1.525883952e-09
-3.83750410702e-10
-1.45455887109e-09
1.59288621392e-09
-3.43684884493e-10
1.65534189886e-09
-3.01460727036e-10
1.71308279352e-09
-2.57195176433e-10
1.76596837236e-09
-2.10959130772e-10
1.81387481898e-09
-1.62839637248e-10
1.85666431038e-09
-1.12899325623e-10
1.89414098192e-09
-6.11662465388e-11
1.92632399993e-09
-7.84460170578e-12
1.95298843403e-09
4.72253963274e-11
1.97405180403e-09
1.03764967048e-10
1.98909305362e-09
1.61801964403e-10
1.99723204391e-09
2.2097993492e-10
1.99777161372e-09
2.81160071084e-10
1.99023887949e-09
3.41647144189e-10
1.97413993288e-09
4.01830774651e-10
1.94894053754e-09
4.61154511824e-10
1.91314162674e-09
5.19281468003e-10
1.86513459715e-09
5.75089223524e-10
1.80335768937e-09
6.27059344941e-10
1.72598806484e-09
6.73563019351e-10
1.63108207904e-09
7.12428952608e-10
1.51706216405e-09
7.41012926682e-10
1.38311666444e-09
7.5635060283e-10
1.22991673582e-09
7.55357062288e-10
1.05994014497e-09
7.35486314535e-10
8.77978449842e-10
6.95371781047e-10
6.93929146559e-10
6.35358337963e-10
5.19144706004e-10
5.60781642334e-10
4.80897763618e-10
3.61804494006e-10
1.52596816958e-09
-4.55567824485e-10
-1.45415261068e-09
1.59349416655e-09
-4.11212867337e-10
1.65663503135e-09
-3.64603709098e-10
1.71518152708e-09
-3.1574392098e-10
1.7690042535e-09
-2.64784237515e-10
1.81791460947e-09
-2.11752504726e-10
1.86183549012e-09
-1.56822848632e-10
1.90063470032e-09
-9.9968228843e-11
1.93423725123e-09
-4.14500530132e-11
1.96265371978e-09
1.88058986334e-11
1.98573567933e-09
8.06798502026e-11
2.00357441701e-09
1.43959947645e-10
2.01591987135e-09
2.08631082522e-10
2.02249829887e-09
2.74578131569e-10
2.02247587722e-09
3.4166597279e-10
2.01487614451e-09
4.09426802654e-10
1.99888760982e-09
4.77139283839e-10
1.97437915178e-09
5.43786046702e-10
1.94046453151e-09
6.08999881821e-10
1.89542848263e-09
6.72091387833e-10
1.83748512596e-09
7.31502368633e-10
1.76462599394e-09
7.85284092445e-10
1.67443095067e-09
8.31203996701e-10
1.56456294362e-09
8.66214661941e-10
1.4333687445e-09
8.86547339828e-10
1.28037322365e-09
8.8847791287e-10
1.10737972884e-09
8.68361294597e-10
9.18776451767e-10
8.23957547655e-10
7.23938331874e-10
7.55615666466e-10
6.68245473131e-10
5.36586381269e-10
1.53094657639e-09
-5.28009220701e-10
-1.45850708162e-09
1.59920470749e-09
-4.79473033749e-10
1.6630559524e-09
-4.28457123139e-10
1.72239310623e-09
-3.75083377587e-10
1.77701759762e-09
-3.19411165151e-10
1.82685836534e-09
-2.61595841631e-10
1.87177629872e-09
-2.01743483733e-10
1.91167341656e-09
-1.39868180157e-10
1.94641343053e-09
-7.61930319135e-11
1.97607224399e-09
-1.08560120291e-11
2.00048242665e-09
5.62664423127e-11
2.01964034909e-09
1.2479867355e-10
2.03357218287e-09
1.94695770794e-10
2.04228705856e-09
2.65859652405e-10
2.04580317608e-09
3.38146143087e-10
2.04358660523e-09
4.11639543665e-10
2.03477655845e-09
4.85945417711e-10
2.01802251725e-09
5.60536075851e-10
1.99278707351e-09
6.3423121499e-10
1.95869568796e-09
7.06178540461e-10
1.91441410136e-09
7.7577965554e-10
1.85789626475e-09
8.41797627096e-10
1.78701890759e-09
9.02077065174e-10
1.69908046108e-09
9.54148849683e-10
1.59115775783e-09
9.94465818147e-10
1.46083265607e-09
1.01879881616e-09
1.3068485475e-09
1.02234120876e-09
1.13019802264e-09
1.00060382051e-09
9.35274306004e-10
9.50534932683e-10
8.72280869536e-10
7.31234315477e-10
1.5401096911e-09
-6.01231579661e-10
-1.46688928574e-09
1.6091525892e-09
-5.48518020931e-10
1.67385933575e-09
-4.9316609487e-10
1.73405455812e-09
-4.35280961017e-10
1.78960801557e-09
-3.74967119283e-10
1.84037827826e-09
-3.12368736038e-10
1.88621601357e-09
-2.47583985085e-10
1.92710282506e-09
-1.8075789106e-10
1.96290640558e-09
-1.11999644185e-10
1.99355581436e-09
-4.15085833672e-11
2.01908801925e-09
3.07309433346e-11
2.03928258768e-09
1.04600679731e-10
2.05464802216e-09
1.79326781984e-10
2.06435364887e-09
2.56150344802e-10
2.06914870441e-09
3.33347279301e-10
2.06868981209e-09
4.12094499116e-10
2.06340774509e-09
4.91223434609e-10
2.05184606027e-09
5.72093596307e-10
2.03361957526e-09
6.52453453201e-10
2.00688963765e-09
7.32904152875e-10
1.97150158e-09
8.11163180475e-10
1.92637134062e-09
8.86923229973e-10
1.86954518415e-09
9.58898563643e-10
1.79876761389e-09
1.02492178188e-09
1.71109960899e-09
1.08212922508e-09
1.60318198941e-09
1.12671187871e-09
1.47186349446e-09
1.15365517631e-09
1.31523011466e-09
1.15723266084e-09
1.1338291594e-09
1.13193124726e-09
1.07402266243e-09
9.32082402807e-10
1.55282571695e-09
-6.75332316192e-10
-1.47872698633e-09
1.62278591647e-09
-6.1848036577e-10
1.68838679105e-09
-5.58769253269e-10
1.74952284527e-09
-4.96419437555e-10
1.80599629382e-09
-4.31443128124e-10
1.85771753628e-09
-3.64092676041e-10
1.90455018166e-09
-2.94419464324e-10
1.9463946593e-09
-2.22605337706e-10
1.98323430171e-09
-1.48842389757e-10
2.01490629108e-09
-7.31838078516e-11
2.04133428257e-09
4.29958799303e-12
2.06293391703e-09
8.29975462331e-11
2.07852746724e-09
1.63729600483e-10
2.08965134575e-09
2.45022707022e-10
2.09530542836e-09
3.27689308163e-10
2.09588000227e-09
4.11515907366e-10
2.09115139984e-09
4.95947883642e-10
2.08238231926e-09
5.80858391112e-10
2.06758725336e-09
6.67244117849e-10
2.04689246911e-09
7.53594451858e-10
2.01809925195e-09
8.39951817695e-10
1.98064096472e-09
9.24376800227e-10
1.93370674376e-09
1.00582785627e-09
1.87543200288e-09
1.08319154894e-09
1.80329521955e-09
1.15426103618e-09
1.7143789639e-09
1.21562320647e-09
1.60478181739e-09
1.26324743122e-09
1.47085137604e-09
1.29115822459e-09
1.31002632473e-09
1.29275138497e-09
1.26140172013e-09
1.12264220191e-09
1.56864899192e-09
-7.50478396405e-10
-1.49350497143e-09
1.63961827216e-09
-6.89451847589e-10
1.70624096636e-09
-6.25394291304e-10
1.76832506068e-09
-5.58506017453e-10
1.82579949748e-09
-4.88920191149e-10
1.87834622274e-09
-4.16642166897e-10
1.92630617102e-09
-3.42382316573e-10
1.96901151813e-09
-2.65313725869e-10
2.00671063176e-09
-1.86544679999e-10
2.039219072e-09
-1.05695559654e-10
2.06686295854e-09
-2.33477475573e-11
2.08879435442e-09
6.10625734913e-11
2.10597171973e-09
1.465485297e-10
2.11778217723e-09
2.33208414064e-10
2.12426383195e-09
3.21203686524e-10
2.12579574542e-09
4.09979897867e-10
2.1220856437e-09
4.99653753754e-10
2.1131748796e-09
5.89764792952e-10
2.10008171311e-09
6.80332769814e-10
2.08167415291e-09
7.71997381312e-10
2.05786206561e-09
8.63759180851e-10
2.02666326259e-09
9.55570798249e-10
1.98701679557e-09
1.04546939319e-09
1.93769527061e-09
1.13250787602e-09
1.87744428724e-09
1.21450676656e-09
1.80304556663e-09
1.29001667842e-09
1.7117618944e-09
1.35452589737e-09
1.59920508875e-09
1.40370985302e-09
1.46116727927e-09
1.43078402563e-09
1.42787255567e-09
1.29469122302e-09
1.58718437487e-09
-8.26718650706e-10
-1.51094622847e-09
1.65922720979e-09
-7.61496940534e-10
1.7269294804e-09
-6.93098967536e-10
1.79014730865e-09
-6.2172639624e-10
1.848647997e-09
-5.47423573173e-10
1.90247232239e-09
-4.70469327783e-10
1.95085847846e-09
-3.90771448324e-10
1.99470511692e-09
-3.09163478662e-10
2.03344262387e-09
-2.25285438867e-10
2.06708632392e-09
-1.39342647548e-10
2.09500764024e-09
-5.12725851585e-11
2.11828149605e-09
3.77850671869e-11
2.1362734319e-09
1.28552812165e-10
2.14865902239e-09
2.20818910674e-10
2.15619120328e-09
3.1366746189e-10
2.15821697647e-09
4.07949952265e-10
2.1554716287e-09
5.02394797559e-10
2.14733018352e-09
5.9790180114e-10
2.13413283907e-09
6.93525543791e-10
2.11694257783e-09
7.89182912478e-10
2.09472452255e-09
8.85972379636e-10
2.06745628742e-09
9.82834072889e-10
2.03325953769e-09
1.07966109635e-09
1.99134089226e-09
1.1744212542e-09
1.93973337164e-09
1.26610891973e-09
1.8767949273e-09
1.35294959042e-09
1.79944552387e-09
1.43186977965e-09
1.70490124788e-09
1.49824867696e-09
1.58840444166e-09
1.54727544559e-09
1.57115499045e-09
1.44511666111e-09
1.60815873434e-09
-9.04170217577e-10
-1.53070934172e-09
1.6813847183e-09
-8.34725247714e-10
1.75014077368e-09
-7.61857492827e-10
1.8143273287e-09
-6.85915567118e-10
1.8740306797e-09
-6.07129685584e-10
1.92865505572e-09
-5.25096609281e-10
1.97848623525e-09
-4.40605675642e-10
2.0232532689e-09
-3.53933700798e-10
2.0626619114e-09
-2.64697408162e-10
2.09707035332e-09
-1.73754552092e-10
2.12618061711e-09
-8.03864448001e-11
2.15007750016e-09
1.38844568513e-11
2.16843495439e-09
1.10191499726e-10
2.1816501945e-09
2.07599683015e-10
2.1897742702e-09
3.05539270441e-10
2.19252366765e-09
4.05196311998e-10
2.19028439156e-09
5.04629703414e-10
2.18313335748e-09
6.05048335049e-10
2.17073214637e-09
7.05922123348e-10
2.15353872609e-09
8.0637156321e-10
2.13173216618e-09
9.07774006501e-10
2.10601203655e-09
1.00854912385e-09
2.07545650041e-09
1.11021147026e-09
2.03832683132e-09
1.21154559059e-09
1.99342976508e-09
1.31100055692e-09
1.93931410315e-09
1.40705947097e-09
1.87374277316e-09
1.49743519384e-09
1.79335467918e-09
1.5786310264e-09
1.69510664096e-09
1.64551792004e-09
1.6923297858e-09
1.57392643616e-09
1.63134298215e-09
-9.82900254448e-10
-1.55261516949e-09
1.70574693669e-09
-9.09131581108e-10
1.77587988089e-09
-8.31992966568e-10
1.84135513823e-09
-7.51393504543e-10
1.9017789767e-09
-6.67556353302e-10
1.95775281268e-09
-5.81073421261e-10
2.00841268132e-09
-4.91268664572e-10
2.05406263832e-09
-3.99586920021e-10
2.09443244884e-09
-3.05070619993e-10
2.12955115423e-09
-2.08876795298e-10
2.15946419446e-09
-1.10303156857e-10
2.18389700794e-09
-1.05521613285e-11
2.20323290838e-09
9.08516667312e-11
2.21719313052e-09
1.93635401563e-10
2.22548114278e-09
2.97247074291e-10
2.2291894404e-09
4.01483706786e-10
2.22734711842e-09
5.06467594486e-10
2.22036372519e-09
6.12027175133e-10
2.20864544928e-09
7.17635721978e-10
2.19191689221e-09
8.23095313182e-10
2.17065422358e-09
9.29031734329e-10
2.14496745709e-09
1.03423077435e-09
2.1153750495e-09
1.13979865092e-09
2.08172350426e-09
1.24519178491e-09
2.04157151041e-09
1.35114709688e-09
1.99437163003e-09
1.45425383745e-09
1.93797596003e-09
1.55382492894e-09
1.86938039711e-09
1.64722056087e-09
1.78570617658e-09
1.72918641084e-09
1.79455527174e-09
1.68347528152e-09
1.65646178367e-09
-1.06290214468e-09
-1.57646217193e-09
1.73233443323e-09
-9.85006660027e-10
1.80347817373e-09
-9.03139296317e-10
1.87018986865e-09
-8.1810794481e-10
1.93191251989e-09
-7.29281902042e-10
1.98864395701e-09
-6.37807904672e-10
2.04039634485e-09
-5.4302424428e-10
2.08690980831e-09
-4.46103718406e-10
2.12851914975e-09
-3.46683436446e-10
2.1643208886e-09
-2.44682146167e-10
2.19498622726e-09
-1.40972240807e-10
2.2202317857e-09
-3.58015951401e-11
2.24014340647e-09
7.09360430729e-11
2.2544230547e-09
1.79351626234e-10
2.2638013136e-09
2.87864568163e-10
2.26734067014e-09
3.97939985292e-10
2.26612252622e-09
5.07681256051e-10
2.25955554574e-09
6.1858955938e-10
2.2480540096e-09
7.29132548187e-10
2.23169390039e-09
8.39450597555e-10
2.21093787378e-09
9.4978281829e-10
2.18515634664e-09
1.06000722542e-09
2.15562815581e-09
1.16932162865e-09
2.1225750603e-09
1.27823954719e-09
2.08579065963e-09
1.38792608275e-09
2.04340387222e-09
1.49663522405e-09
1.99359242407e-09
1.60363092864e-09
1.9352809383e-09
1.70552607576e-09
1.86414255076e-09
1.80031888032e-09
1.88136608233e-09
1.77732635286e-09
1.68360385391e-09
-1.14458686472e-09
-1.6019214663e-09
1.76062669763e-09
-1.06203200292e-09
1.83327032961e-09
-9.75785585847e-10
1.90094585993e-09
-8.85786287738e-10
1.96396031134e-09
-7.92299318236e-10
2.02202960036e-09
-6.95880308813e-10
2.07489176285e-09
-5.95889669117e-10
2.12224863257e-09
-4.93463994528e-10
2.16444266184e-09
-3.88881012617e-10
2.20120171152e-09
-2.81444879562e-10
2.23255935103e-09
-1.72333696575e-10
2.25825404957e-09
-6.15002375928e-11
2.27866596178e-09
5.05200625926e-11
2.29386267781e-09
1.64150719923e-10
2.3032433477e-09
2.78479592866e-10
2.30755126064e-09
3.93627656809e-10
2.3061813934e-09
5.09046599694e-10
2.29990157074e-09
6.24864753614e-10
2.28881184088e-09
7.40217548104e-10
2.27265234773e-09
8.55605262191e-10
2.25189889574e-09
9.70531344472e-10
2.22666506463e-09
1.08523603e-09
2.19743625569e-09
1.19854530686e-09
2.16415930057e-09
1.31151126482e-09
2.12774848649e-09
1.42433155169e-09
2.08804001808e-09
1.53633838547e-09
2.04361536542e-09
1.64805041233e-09
1.99206758414e-09
1.75706860701e-09
1.93184454619e-09
1.8605360065e-09
1.95473857377e-09
1.85846670449e-09
1.71245436323e-09
-1.22742879661e-09
-1.62961481568e-09
1.79094946881e-09
-1.1405296578e-09
1.86509910673e-09
-1.04993793845e-09
1.9340449729e-09
-9.54735027104e-10
1.99836416378e-09
-8.56621537556e-10
2.05719023169e-09
-7.54709557736e-10
2.11113257076e-09
-6.49835338175e-10
2.15961873504e-09
-5.41953634124e-10
2.20236742753e-09
-4.31633321221e-10
2.24004301639e-09
-3.19124221011e-10
2.27206556426e-09
-2.04360128692e-10
2.29848061976e-09
-8.79193028262e-11
2.31935028977e-09
2.96462626493e-11
2.33473469541e-09
1.4876206697e-10
2.34437025786e-09
2.68839672201e-10
2.34900383096e-09
3.88989622909e-10
2.34805294787e-09
5.09992925116e-10
2.34194185317e-09
6.30971198716e-10
2.33078147287e-09
7.51373192415e-10
2.31468166588e-09
8.71700253061e-10
2.2937700193e-09
9.9143810183e-10
2.26889607661e-09
1.11010501208e-09
2.23950936048e-09
1.22792700095e-09
2.20618214839e-09
1.34483338545e-09
2.1699905519e-09
1.46051798771e-09
2.13080790141e-09
1.57551586211e-09
2.08924904045e-09
1.68960429614e-09
2.04267800143e-09
1.80363485658e-09
1.98987261273e-09
1.91333652122e-09
2.01630614311e-09
1.92829972794e-09
1.74288449949e-09
-1.31203811171e-09
-1.658277619e-09
1.82288973408e-09
-1.22053749553e-09
1.89801718042e-09
-1.12506814914e-09
1.96880526073e-09
-1.02552603603e-09
2.03383549311e-09
-9.21654858618e-10
2.09428310753e-09
-8.15160416597e-10
2.14899332591e-09
-7.04548952022e-10
2.19859201129e-09
-5.91555861276e-10
2.24249929663e-09
-4.75544289585e-10
2.28075096124e-09
-3.57379704465e-10
2.31339314813e-09
-2.37006264513e-10
2.34046382887e-09
-1.14994056549e-10
2.36173951742e-09
8.3663856e-12
2.37756679744e-09
1.32930487453e-10
2.3877165773e-09
2.58685488483e-10
2.39226029762e-09
3.84441404305e-10
2.3912892234e-09
5.10959415952e-10
2.38523859413e-09
6.37017167791e-10
2.3738802508e-09
7.62726807118e-10
2.35768895924e-09
8.87886756955e-10
2.33680647293e-09
1.01231575331e-09
2.31140047798e-09
1.13550613357e-09
2.28165268757e-09
1.25766989666e-09
2.24849224137e-09
1.37798892028e-09
2.2115081946e-09
1.49749711909e-09
2.17256445363e-09
1.61445470797e-09
2.13092321564e-09
1.7312407781e-09
2.08789853497e-09
1.84665508546e-09
2.04059286589e-09
1.96063806094e-09
2.07014395731e-09
1.98675116054e-09
1.77486312729e-09
-1.39813814827e-09
-1.68876557404e-09
1.85667982814e-09
-1.30235685208e-09
1.9333299795e-09
-1.2017211211e-09
2.00510707933e-09
-1.09730612485e-09
2.07202712305e-09
-9.88578052643e-10
2.13292254157e-09
-8.76059143047e-10
2.18899258671e-09
-7.60622457061e-10
2.23937695335e-09
-6.41943834657e-10
2.2841017672e-09
-5.20272850899e-10
2.3232083757e-09
-3.96490195211e-10
2.35674493001e-09
-2.70546829432e-10
2.38413566214e-09
-1.42388920585e-10
2.40605306206e-09
-1.3555260637e-11
2.42195153575e-09
1.17027665624e-10
2.43220946202e-09
2.48423120733e-10
2.4369126212e-09
3.79733718877e-10
2.43616050844e-09
5.11706928859e-10
2.42972392143e-09
6.43449093882e-10
2.41839223442e-09
7.74053784501e-10
2.40162352093e-09
9.04650725345e-10
2.38025668637e-09
1.03367782413e-09
2.35447671101e-09
1.16128134292e-09
2.32449632936e-09
1.28764552987e-09
2.29055437809e-09
1.41192617062e-09
2.25402041545e-09
1.53402643406e-09
2.213855254e-09
1.65461532339e-09
2.17204875879e-09
1.77304287388e-09
2.12945060559e-09
1.88924914857e-09
2.08502892319e-09
2.00505616516e-09
2.11789959047e-09
2.03727037182e-09
1.80856532443e-09
-1.48635514037e-09
-1.72035086192e-09
1.89164260188e-09
-1.38543683653e-09
1.9701330559e-09
-1.28021446004e-09
2.04317322529e-09
-1.17034934559e-09
2.11109369681e-09
-1.05650173675e-09
2.17390500079e-09
-9.3887381721e-10
2.23072764253e-09
-8.17448621497e-10
2.28219426418e-09
-6.93414125583e-10
2.32772356543e-09
-5.65805961531e-10
2.36765764036e-09
-4.36428212967e-10
2.40142941274e-09
-3.04322670487e-10
2.42971265452e-09
-1.70676348764e-10
2.45160063966e-09
-3.54475402844e-11
2.46782956374e-09
1.00794351658e-10
2.47845840059e-09
2.37789809081e-10
2.48291781353e-09
3.75269757857e-10
2.48196342209e-09
5.12656713066e-10
2.47570283567e-09
6.49705028788e-10
2.46359618852e-09
7.86155752385e-10
2.44679532751e-09
9.21446896931e-10
2.42478561571e-09
1.05568285755e-09
2.39844529918e-09
1.18761701637e-09
2.36766154584e-09
1.31842470196e-09
2.3333856504e-09
1.44619758444e-09
2.29524500048e-09
1.57216273346e-09
2.25468653972e-09
1.69516960346e-09
2.21220471529e-09
1.81552075993e-09
2.1682137503e-09
1.9332365087e-09
2.12477552118e-09
2.04849133995e-09
2.16268070844e-09
2.07999218171e-09
1.84340078546e-09
-1.57582767755e-09
-1.75393082165e-09
1.92823720306e-09
-1.47027600775e-09
2.00829177395e-09
-1.36027196114e-09
2.08291683798e-09
-1.24497751261e-09
2.15214213716e-09
-1.12573030535e-09
2.2159733116e-09
-1.00270842025e-09
2.27414174857e-09
-8.75620640034e-10
2.32635822625e-09
-7.45634331308e-10
2.37328110436e-09
-6.12732707267e-10
2.4137144943e-09
-4.7686560257e-10
2.44831660196e-09
-3.38928901155e-10
2.47682690242e-09
-1.99190886099e-10
2.49930021577e-09
-5.79251934212e-11
2.51580419818e-09
8.42859397849e-11
2.52609195122e-09
2.27497552043e-10
2.53089411672e-09
3.70463028708e-10
2.52965442762e-09
5.13891794757e-10
2.52281517202e-09
6.56539651151e-10
2.51049875587e-09
7.98467529438e-10
2.49285297167e-09
9.39088058407e-10
2.47038832324e-09
1.07814292575e-09
2.44262151803e-09
1.21537931489e-09
2.41115648575e-09
1.34988533615e-09
2.37559111606e-09
1.48175870776e-09
2.33660702371e-09
1.61114278543e-09
2.29495821546e-09
1.73681461593e-09
2.25115661786e-09
1.85931889382e-09
2.20580333239e-09
1.97858676258e-09
2.16078737943e-09
2.09350484694e-09
2.20621839365e-09
2.11724812452e-09
1.88003045318e-09
-1.66705804877e-09
-1.7888026962e-09
1.96677658909e-09
-1.55702494189e-09
2.04806986331e-09
-1.44156821305e-09
2.12428635635e-09
-1.32119715938e-09
2.19511153507e-09
-1.19655880709e-09
2.25996281991e-09
-1.06756318852e-09
2.31946634138e-09
-9.3512779855e-10
2.3727427214e-09
-7.98914494819e-10
2.42012015831e-09
-6.60114066165e-10
2.4613348533e-09
-5.18084349402e-10
2.49642675681e-09
-3.74024977313e-10
2.52544376334e-09
-2.28212176026e-10
2.5481310611e-09
-8.0616873278e-11
2.56486503214e-09
6.75475037501e-11
2.57540386257e-09
2.16954193674e-10
2.57982666194e-09
3.66035656559e-10
2.57822913016e-09
5.15484727065e-10
2.5710488726e-09
6.63715302667e-10
2.55808019687e-09
8.11431615868e-10
2.53980432318e-09
9.5735938628e-10
2.51639518827e-09
1.10154758956e-09
2.48805464141e-09
1.24371550219e-09
2.455363957e-09
1.38257181579e-09
2.41826805965e-09
1.51885060679e-09
2.37814248897e-09
1.6512646271e-09
2.33471267029e-09
1.78024104636e-09
2.28919277114e-09
1.90483581724e-09
2.24253973818e-09
2.02523735395e-09
2.19526278892e-09
2.14078004653e-09
2.25154420653e-09
2.14993614451e-09
1.91828988097e-09
-1.76074801684e-09
-1.82460256519e-09
2.00627100917e-09
-1.64500891054e-09
2.08946903239e-09
-1.52476925953e-09
2.16724898536e-09
-1.39898031485e-09
2.23936762043e-09
-1.26868081451e-09
2.30582897516e-09
-1.13402807717e-09
2.36605751581e-09
-9.95360027496e-10
2.42067155142e-09
-8.53532365001e-10
2.46880175524e-09
-7.08248241956e-10
2.51078476746e-09
-5.60071461463e-10
2.54665184379e-09
-4.09896272013e-10
2.57615383119e-09
-2.57718490388e-10
2.59933597124e-09
-1.03803436731e-10
2.61594461399e-09
5.09343604292e-11
2.6266908214e-09
2.06203437523e-10
2.63068698421e-09
3.62034916883e-10
2.62899287031e-09
5.17174255195e-10
2.62106450448e-09
6.71639096025e-10
2.60735636482e-09
8.25135223019e-10
2.58800516195e-09
9.76706127688e-10
2.56352130857e-09
1.12602708874e-09
2.53410487395e-09
1.27312773253e-09
2.49965726093e-09
1.41701542512e-09
2.46148082407e-09
1.55702330019e-09
2.41924826597e-09
1.69349377328e-09
2.37405451592e-09
1.82543180363e-09
2.32642527088e-09
1.95246258939e-09
2.27730720105e-09
2.07435357173e-09
2.22817645977e-09
2.18990971706e-09
2.30051142687e-09
2.17920915809e-09
1.95745081938e-09
-1.85596069017e-09
-1.86224083321e-09
2.04761122839e-09
-1.73517219843e-09
2.13236425039e-09
-1.60952534666e-09
2.21175663155e-09
-1.47837593619e-09
2.28514584464e-09
-1.34207344295e-09
2.35292741574e-09
-1.20181322713e-09
2.41477182561e-09
-1.0572081725e-09
2.47012335931e-09
-9.08887780223e-10
2.51929608575e-09
-7.57424985863e-10
2.5620191787e-09
-6.02798697517e-10
2.59833776744e-09
-4.46219119559e-10
2.62829190494e-09
-2.8767699336e-10
2.65162285018e-09
-1.27138845715e-10
2.66839058208e-09
3.41620871712e-11
2.67865036763e-09
1.95939087133e-10
2.68280579344e-09
3.57874917497e-10
2.68062742058e-09
5.19348063459e-10
2.67221019114e-09
6.80051793932e-10
2.65767443658e-09
8.39666508777e-10
2.63748409844e-09
9.96892094986e-10
2.61180206951e-09
1.1517048859e-09
2.58082911956e-09
1.30409663874e-09
2.54512944559e-09
1.45271129968e-09
2.50464452599e-09
1.59750473281e-09
2.46039014141e-09
1.73774506546e-09
2.41312264721e-09
1.87269669247e-09
2.36299736876e-09
2.00258586061e-09
2.31132859886e-09
2.12602108449e-09
2.25880874961e-09
2.24242921634e-09
2.35243126352e-09
2.20688961797e-09
1.99814766991e-09
-1.95306437215e-09
-1.90104670654e-09
2.09043395896e-09
-1.82746140173e-09
2.17704810229e-09
-1.69614259329e-09
2.25770268615e-09
-1.55903380489e-09
2.33305456832e-09
-1.41742878536e-09
2.40181702933e-09
-1.27057931053e-09
2.46468187029e-09
-1.12007679175e-09
2.52135240643e-09
-9.65562240425e-10
2.5712502417e-09
-8.07326879402e-10
2.6150173059e-09
-6.46569942557e-10
2.65207588898e-09
-4.832819955e-10
2.68215352238e-09
-3.17759023195e-10
2.70592229896e-09
-1.5091212594e-10
2.72281615933e-09
1.72636141982e-11
2.73320072423e-09
1.85549947039e-10
2.73683562681e-09
3.54235453514e-10
2.73411881141e-09
5.22060341283e-10
2.72482778594e-09
6.89338334351e-10
2.70971885896e-09
8.54771035346e-10
2.68827105966e-09
1.01833561824e-09
2.66096113615e-09
1.17901070367e-09
2.62863538081e-09
1.33641851253e-09
2.59085550566e-09
1.4904875809e-09
2.54854960516e-09
1.63980740272e-09
2.50238133711e-09
1.78391054923e-09
2.45206707558e-09
1.9230087216e-09
2.39944985275e-09
2.05520154606e-09
2.34446072365e-09
2.18100951285e-09
2.28812479971e-09
2.29876538249e-09
2.40817992522e-09
2.23237752896e-09
2.04053214449e-09
-2.05260722952e-09
-1.94099203352e-09
2.13442087846e-09
-1.92135308161e-09
2.22261811457e-09
-1.78434296714e-09
2.30548522755e-09
-1.64190424052e-09
2.38205754382e-09
-1.49400460229e-09
2.45276060646e-09
-1.34128603641e-09
2.51665007652e-09
-1.18397008052e-09
2.57433890044e-09
-1.02325502758e-09
2.62556565029e-09
-8.58557724462e-10
2.66974989536e-09