/*--------------------------------*- C++ -*----------------------------------*\
| =========                 |                                                 |
| \\      /  F ield         | OpenFOAM: The Open Source CFD Toolbox           |
|  \\    /   O peration     | Version:  2312                                  |
|   \\  /    A nd           | Website:  www.openfoam.com                      |
|    \\/     M anipulation  |                                                 |
\*---------------------------------------------------------------------------*/
FoamFile
{
    version     2.0;
    format      ascii;
    arch        "LSB;label=32;scalar=64";
    class       surfaceScalarField;
    location    "0.005";
    object      phiByRho;
}
// * * * * * * * * * * * * * * * * * * * * * * * * * * * * * * * * * * * * * //

dimensions      [0 3 -1 0 0 0 0];

oriented        oriented;

internalField   nonuniform List<scalar> 
38580
(
8.54788881097e-10
-4.88819666871e-10
-8.13350440219e-10
8.93893461315e-10
-4.61210591822e-10
9.30564867652e-10
-4.32310444919e-10
9.64678958585e-10
-4.02243367685e-10
9.96111592588e-10
-3.71034188426e-10
1.02486276966e-09
-3.38856705275e-10
1.05078351998e-09
-3.05735746539e-10
1.07384901523e-09
-2.71770625435e-10
1.09393511389e-09
-2.3703582688e-10
1.11104181597e-09
-2.01705149008e-10
1.12509463654e-09
-1.65778591817e-10
1.13606874731e-09
-1.29405125139e-10
1.14393931996e-09
-9.27088904966e-11
1.14865669789e-09
-5.57147161956e-11
1.1502208811e-09
-1.85715720652e-11
1.14865669789e-09
1.85715720652e-11
1.14393931996e-09
5.57147161956e-11
1.13606874731e-09
9.27088904966e-11
1.12509463654e-09
1.29405125139e-10
1.11104181597e-09
1.65778591817e-10
1.09393511389e-09
2.01705149008e-10
1.07384901523e-09
2.3703582688e-10
1.05078351998e-09
2.71770625435e-10
1.02486276966e-09
3.05735746539e-10
9.96111592588e-10
3.38856705275e-10
9.64678958585e-10
3.71034188426e-10
9.30564867652e-10
4.02243367685e-10
8.93893461315e-10
4.32310444919e-10
8.54788881097e-10
4.61210591822e-10
4.88819666871e-10
8.13350440219e-10
8.76066738397e-10
-5.3132572486e-10
-8.33560680408e-10
9.16139622505e-10
-5.01283475931e-10
9.53704847819e-10
-4.69875670232e-10
9.88663101118e-10
-4.37201620984e-10
1.02091506918e-09
-4.03286156491e-10
1.05036143879e-09
-3.68303074887e-10
1.07692772504e-09
-3.32302032782e-10
1.100539443e-09
-2.95382343395e-10
1.12114693606e-09
-2.57643319947e-10
1.13867571932e-09
-2.19233932267e-10
1.15307613617e-09
-1.80179008659e-10
1.16432335829e-09
-1.40652347258e-10
1.17236772907e-09
-1.00753261284e-10
1.17720924853e-09
-6.05562356511e-11
1.17884791665e-09
-2.02102401886e-11
1.17720924853e-09
2.02102401886e-11
1.17236772907e-09
6.05562356511e-11
1.16432335829e-09
1.00753261284e-10
1.15307613617e-09
1.40652347258e-10
1.13867571932e-09
1.80179008659e-10
1.12114693606e-09
2.19233932267e-10
1.100539443e-09
2.57643319947e-10
1.07692772504e-09
2.95382343395e-10
1.05036143879e-09
3.32302032782e-10
1.02091506918e-09
3.68303074887e-10
9.88663101118e-10
4.03286156491e-10
9.53704847819e-10
4.37201620984e-10
9.16139622505e-10
4.69875670232e-10
8.76066738397e-10
5.01283475931e-10
5.3132572486e-10
8.33560680408e-10
8.97841161794e-10
-5.74874571655e-10
-8.54292314999e-10
9.38907178098e-10
-5.42349492236e-10
9.77415878998e-10
-5.08384371132e-10
1.01324312297e-09
-4.73028864955e-10
1.0463144251e-09
-4.36357458617e-10
1.07648081555e-09
-3.9846946534e-10
1.10371746602e-09
-3.59538683257e-10
1.1279250633e-09
-3.19589940673e-10
1.14902912247e-09
-2.78747379112e-10
1.16697998691e-09
-2.3718479671e-10
1.18175282833e-09
-1.94951850075e-10
1.1932979901e-09
-1.52197509037e-10
1.20154099363e-09
-1.08996264814e-10
1.20650664989e-09
-6.5521891904e-11
1.20817015104e-09
-2.1873741344e-11
1.20650664989e-09
2.1873741344e-11
1.20154099363e-09
6.5521891904e-11
1.1932979901e-09
1.08996264814e-10
1.18175282833e-09
1.52197509037e-10
1.16697998691e-09
1.94951850075e-10
1.14902912247e-09
2.3718479671e-10
1.1279250633e-09
2.78747379112e-10
1.10371746602e-09
3.19589940673e-10
1.07648081555e-09
3.59538683257e-10
1.0463144251e-09
3.9846946534e-10
1.01324312297e-09
4.36357458617e-10
9.77415878998e-10
4.73028864955e-10
9.38907178098e-10
5.08384371132e-10
8.97841161794e-10
5.42349492236e-10
5.74874571655e-10
8.54292314999e-10
9.20161807899e-10
-6.19466207255e-10
-8.75570172298e-10
9.62295441314e-10
-5.84483125651e-10
1.0017476178e-09
-5.47836547619e-10
1.03846868075e-09
-5.09749927902e-10
1.07230966033e-09
-4.70198438196e-10
1.10327055654e-09
-4.2943036155e-10
1.13115274294e-09
-3.8742086966e-10
1.15595622269e-09
-3.44393420419e-10
1.17763133286e-09
-3.0042248929e-10
1.19602910995e-09
-2.55582573792e-10
1.21117436963e-09
-2.10097109761e-10
1.22296780658e-09
-1.63990945986e-10
1.23145909001e-09
-1.17487548241e-10
1.23652406736e-09
-7.0586869255e-11
1.23821238264e-09
-2.3562056623e-11
1.23652406736e-09
2.3562056623e-11
1.23145909001e-09
7.0586869255e-11
1.22296780658e-09
1.17487548241e-10
1.21117436963e-09
1.63990945986e-10
1.19602910995e-09
2.10097109761e-10
1.17763133286e-09
2.55582573792e-10
1.15595622269e-09
3.0042248929e-10
1.13115274294e-09
3.44393420419e-10
1.10327055654e-09
3.8742086966e-10
1.07230966033e-09
4.2943036155e-10
1.03846868075e-09
4.70198438196e-10
1.0017476178e-09
5.09749927902e-10
9.62295441314e-10
5.47836547619e-10
9.20161807899e-10
5.84483125651e-10
6.19466207255e-10
8.75570172298e-10
9.43078333322e-10
-6.65224773186e-10
-8.97319767391e-10
9.86205098933e-10
-6.27609891262e-10
1.02667523592e-09
-5.88306684606e-10
1.06429011784e-09
-5.47364809825e-10
1.0990249227e-09
-5.04933243054e-10
1.13070583345e-09
-4.611112723e-10
1.15930803754e-09
-4.16023073753e-10
1.18473222649e-09
-3.69817609364e-10
1.20690390119e-09
-3.2259416399e-10
1.22579823019e-09
-2.74476902791e-10
1.2412910956e-09
-2.2558997517e-10
1.25340733045e-09
-1.76107180837e-10
1.2620475711e-09
-1.26127788892e-10
1.2672863324e-09
-7.5825630559e-11
1.2690243295e-09
-2.5300053723e-11
1.2672863324e-09
2.5300053723e-11
1.2620475711e-09
7.5825630559e-11
1.25340733045e-09
1.26127788892e-10
1.2412910956e-09
1.76107180837e-10
1.22579823019e-09
2.2558997517e-10
1.20690390119e-09
2.74476902791e-10
1.18473222649e-09
3.2259416399e-10
1.15930803754e-09
3.69817609364e-10
1.13070583345e-09
4.16023073753e-10
1.0990249227e-09
4.611112723e-10
1.06429011784e-09
5.04933243054e-10
1.02667523592e-09
5.47364809825e-10
9.86205098933e-10
5.88306684606e-10
9.43078333322e-10
6.27609891262e-10
6.65224773186e-10
8.97319767391e-10
9.66516253147e-10
-7.12075784532e-10
-9.19665241801e-10
1.01073546417e-09
-6.71829102289e-10
1.05217390348e-09
-6.29745123908e-10
1.09075708929e-09
-5.8594799564e-10
1.12633604391e-09
-5.40512197673e-10
1.15883630605e-09
-4.93611534444e-10
1.18815853887e-09
-4.45345306567e-10
1.21420341022e-09
-3.9586248072e-10
1.23692131709e-09
-3.45312070852e-10
1.25626257763e-09
-2.93818163338e-10
1.27215269277e-09
-2.41480090306e-10
1.28456682946e-09
-1.8852131753e-10
1.29348018619e-09
-1.35041145624e-10
1.29881829538e-09
-8.1163739748e-11
1.300581094e-09
-2.7062852341e-11
1.29881829538e-09
2.7062852341e-11
1.29348018619e-09
8.1163739748e-11
1.28456682946e-09
1.35041145624e-10
1.27215269277e-09
1.8852131753e-10
1.25626257763e-09
2.41480090306e-10
1.23692131709e-09
2.93818163338e-10
1.21420341022e-09
3.45312070852e-10
1.18815853887e-09
3.9586248072e-10
1.15883630605e-09
4.45345306567e-10
1.12633604391e-09
4.93611534444e-10
1.09075708929e-09
5.40512197673e-10
1.05217390348e-09
5.8594799564e-10
1.01073546417e-09
6.29745123908e-10
9.66516253147e-10
6.71829102289e-10
7.12075784532e-10
9.19665241801e-10
9.90574880595e-10
-7.60118554513e-10
-9.42532110614e-10
1.03591135904e-09
-7.17165580734e-10
1.07839259818e-09
-6.72226363046e-10
1.117894436e-09
-6.25449833463e-10
1.15434237814e-09
-5.76960139812e-10
1.18763713974e-09
-5.26906296042e-10
1.21770420594e-09
-4.75412372771e-10
1.24441947462e-09
-4.22577749398e-10
1.26770841516e-09
-3.68601011394e-10
1.28752140878e-09
-3.13631156951e-10
1.30383360667e-09
-2.57792288201e-10
1.31654569248e-09
-2.01233403336e-10
1.32563286468e-09
-1.44128317823e-10
1.331095076e-09
-8.6625951069e-11
1.33295720674e-09
-2.8924983087e-11
1.331095076e-09
2.8924983087e-11
1.32563286468e-09
8.6625951069e-11
1.31654569248e-09
1.44128317823e-10
1.30383360667e-09
2.01233403336e-10
1.28752140878e-09
2.57792288201e-10
1.26770841516e-09
3.13631156951e-10
1.24441947462e-09
3.68601011394e-10
1.21770420594e-09
4.22577749398e-10
1.18763713974e-09
4.75412372771e-10
1.15434237814e-09
5.26906296042e-10
1.117894436e-09
5.76960139812e-10
1.07839259818e-09
6.25449833463e-10
1.03591135904e-09
6.72226363046e-10
9.90574880595e-10
7.17165580734e-10
7.60118554513e-10
9.42532110614e-10
1.0152045559e-09
-8.09353073676e-10
-9.65970036742e-10
1.06163350025e-09
-7.63594525078e-10
1.10518233444e-09
-7.15775197235e-10
1.14570212173e-09
-6.65969620757e-10
1.18309356152e-09
-6.14351579597e-10
1.21720763984e-09
-5.61020374369e-10
1.24799475368e-09
-5.06199486604e-10
1.27535553937e-09
-4.49938535095e-10
1.29924037814e-09
-3.92485850162e-10
1.3195499221e-09
-3.33940700905e-10
1.33623453669e-09
-2.74476902791e-10
1.34926940464e-09
-2.14268271287e-10
1.35860484413e-09
-1.53463757314e-10
1.36424087092e-09
-9.2261977857e-11
1.36607815287e-09
-3.0762265044e-11
1.36424087092e-09
3.0762265044e-11
1.35860484413e-09
9.2261977857e-11
1.34926940464e-09
1.53463757314e-10
1.33623453669e-09
2.14268271287e-10
1.3195499221e-09
2.74476902791e-10
1.29924037814e-09
3.33940700905e-10
1.27535553937e-09
3.92485850162e-10
1.24799475368e-09
4.49938535095e-10
1.21720763984e-09
5.06199486604e-10
1.18309356152e-09
5.61020374369e-10
1.14570212173e-09
6.14351579597e-10
1.10518233444e-09
6.65969620757e-10
1.06163350025e-09
7.15775197235e-10
1.0152045559e-09
7.63594525078e-10
8.09353073676e-10
9.65970036742e-10
1.04045494199e-09
-8.59804198687e-10
-9.90003816977e-10
1.08807562133e-09
-8.11215204422e-10
1.13269210257e-09
-7.60391678473e-10
1.17420502206e-09
-7.07482540247e-10
1.21249026191e-09
-6.5263681945e-10
1.24747335455e-09
-5.96003467003e-10
1.27903011904e-09
-5.37756251102e-10
1.30708611934e-09
-4.77994535389e-10
1.33154199179e-09
-4.1694172261e-10
1.35237293487e-09
-3.54771643989e-10
1.36947964798e-09
-2.91583615897e-10
1.38283726656e-09
-2.27625889869e-10
1.3924209891e-09
-1.63047479854e-10
1.39815633226e-09
-9.7997321016e-11
1.40009294634e-09
-3.2698879129e-11
1.39815633226e-09
3.2698879129e-11
1.3924209891e-09
9.7997321016e-11
1.38283726656e-09
1.63047479854e-10
1.36947964798e-09
2.27625889869e-10
1.35237293487e-09
2.91583615897e-10
1.33154199179e-09
3.54771643989e-10
1.30708611934e-09
4.1694172261e-10
1.27903011904e-09
4.77994535389e-10
1.24747335455e-09
5.37756251102e-10
1.21249026191e-09
5.96003467003e-10
1.17420502206e-09
6.5263681945e-10
1.13269210257e-09
7.07482540247e-10
1.08807562133e-09
7.60391678473e-10
1.04045494199e-09
8.11215204422e-10
8.59804198687e-10
9.90003816977e-10
1.06635087818e-09
-9.11521556218e-10
-1.01463352065e-09
1.11513848943e-09
-8.60002815672e-10
1.16087222075e-09
-8.06125409796e-10
1.2034279385e-09
-7.50038257997e-10
1.24268149328e-09
-6.91890374224e-10
1.27853355295e-09
-6.31855526673e-10
1.31086001538e-09
-5.70082713536e-10
1.339611183e-09
-5.06745703009e-10
1.36468777095e-09
-4.42018310559e-10
1.38601529589e-09
-3.76099168928e-10
1.403544076e-09
-3.09112396005e-10
1.41714999338e-09
-2.41231807257e-10
1.42715579868e-09
-1.73053285153e-10
1.43294079215e-09
-1.03782314482e-10
1.43500153988e-09
-3.475962686e-11
1.43294079215e-09
3.475962686e-11
1.42715579868e-09
1.03782314482e-10
1.41714999338e-09
1.73053285153e-10
1.403544076e-09
2.41231807257e-10
1.38601529589e-09
3.09112396005e-10
1.36468777095e-09
3.76099168928e-10
1.339611183e-09
4.42018310559e-10
1.31086001538e-09
5.06745703009e-10
1.27853355295e-09
5.70082713536e-10
1.24268149328e-09
6.31855526673e-10
1.2034279385e-09
6.91890374224e-10
1.16087222075e-09
7.50038257997e-10
1.11513848943e-09
8.06125409796e-10
1.06635087818e-09
8.60002815672e-10
9.11521556218e-10
1.01463352065e-09
1.09286749836e-09
-9.64505162026e-10
-1.03988389255e-09
1.14287170758e-09
-9.10007024892e-10
1.18972270474e-09
-8.52976406961e-10
1.23334605379e-09
-7.93661607039e-10
1.27356790772e-09
-7.32112228162e-10
1.31031379898e-09
-6.68601417925e-10
1.34345957814e-09
-6.03228492699e-10
1.37293077763e-09
-5.36216902501e-10
1.39867773139e-09
-4.67765264316e-10
1.42057629001e-09
-3.97997727547e-10
1.43845266953e-09
-3.26988775533e-10
1.4527041197e-09
-2.55483257421e-10
1.46238715861e-09
-1.82736324064e-10
1.46859423484e-09
-1.09989390707e-10
1.47058049923e-09
-3.6745891252e-11
1.46859423484e-09
3.6745891252e-11
1.46238715861e-09
1.09989390707e-10
1.4527041197e-09
1.82736324064e-10
1.43845266953e-09
2.55483257421e-10
1.42057629001e-09
3.26988775533e-10
1.39867773139e-09
3.97997727547e-10
1.37293077763e-09
4.67765264316e-10
1.34345957814e-09
5.36216902501e-10
1.31031379898e-09
6.03228492699e-10
1.27356790772e-09
6.68601417925e-10
1.23334605379e-09
7.32112228162e-10
1.18972270474e-09
7.93661607039e-10
1.14287170758e-09
8.52976406961e-10
1.09286749836e-09
9.10007024892e-10
9.64505162026e-10
1.03988389255e-09
1.12005448435e-09
-1.01882949945e-09
-1.06573014692e-09
1.17130010881e-09
-9.61252649357e-10
1.21934288667e-09
-9.01019184821e-10
1.26400900246e-09
-8.38327722827e-10
1.30524880587e-09
-7.73352031571e-10
1.34278921233e-09
-7.06141824388e-10
1.37690330641e-09
-6.37342586783e-10
1.40702003868e-09
-5.66333634769e-10
1.43333804188e-09
-4.9408326751e-10
1.45568351629e-09
-4.20343201957e-10
1.47430474496e-09
-3.45610004208e-10
1.48845687876e-09
-2.69635391214e-10
1.49888476681e-09
-1.93164212122e-10
1.50509184304e-09
-1.16196466932e-10
1.50707810743e-09
-3.8732155644e-11
1.50509184304e-09
3.8732155644e-11
1.49888476681e-09
1.16196466932e-10
1.48845687876e-09
1.93164212122e-10
1.47430474496e-09
2.69635391214e-10
1.45568351629e-09
3.45610004208e-10
1.43333804188e-09
4.20343201957e-10
1.40702003868e-09
4.9408326751e-10
1.37690330641e-09
5.66333634769e-10
1.34278921233e-09
6.37342586783e-10
1.30524880587e-09
7.06141824388e-10
1.26400900246e-09
7.73352031571e-10
1.21934288667e-09
8.38327722827e-10
1.17130010881e-09
9.01019184821e-10
1.12005448435e-09
9.61252649357e-10
1.01882949945e-09
1.06573014692e-09
1.1479118519e-09
-1.07449455273e-09
-1.09224679862e-09
1.20042370888e-09
-1.01376450634e-09
1.24965825168e-09
-9.50253727619e-10
1.29551611665e-09
-8.84185587796e-10
1.33777390104e-09
-8.15609815965e-10
1.37648122366e-09
-7.44849147e-10
1.41099256747e-09
-6.71853930594e-10
1.44202794859e-09
-5.97369015894e-10
1.46909080093e-09
-5.21146119851e-10
1.49218112449e-09
-4.43433525514e-10
1.51080235316e-09
-3.64231232883e-10
1.5256993361e-09
-2.84532374154e-10
1.53637550721e-09
-2.03840383229e-10
1.54258258344e-09
-1.22403543157e-10
1.54481713088e-09
-4.0966703085e-11
1.54258258344e-09
4.0966703085e-11
1.53637550721e-09
1.22403543157e-10
1.5256993361e-09
2.03840383229e-10
1.51080235316e-09
2.84532374154e-10
1.49218112449e-09
3.64231232883e-10
1.46909080093e-09
4.43433525514e-10
1.44202794859e-09
5.21146119851e-10
1.41099256747e-09
5.97369015894e-10
1.37648122366e-09
6.71853930594e-10
1.33777390104e-09
7.44849147e-10
1.29551611665e-09
8.15609815965e-10
1.24965825168e-09
8.84185587796e-10
1.20042370888e-09
9.50253727619e-10
1.1479118519e-09
1.01376450634e-09
1.07449455273e-09
1.09224679862e-09
1.17646440253e-09
-1.1315500037e-09
-1.11940895157e-09
1.23029217386e-09
-1.06759227767e-09
1.28069361705e-09
-1.00065517081e-09
1.327569463e-09
-9.3106143375e-10
1.37101899658e-09
-8.5905934954e-10
1.41049600137e-09
-7.84326151791e-10
1.44624876042e-09
-7.0760668965e-10
1.4780289907e-09
-6.29149246166e-10
1.50558840914e-09
-5.4870553829e-10
1.52917529879e-09
-4.67020415169e-10
1.54854137661e-09
-3.83597310705e-10
1.5636866426e-09
-2.99677640143e-10
1.57436281371e-09
-2.14516554336e-10
1.58081817298e-09
-1.28858902431e-10
1.58305272042e-09
-4.3201250526e-11
1.58081817298e-09
4.3201250526e-11
1.57436281371e-09
1.28858902431e-10
1.5636866426e-09
2.14516554336e-10
1.54854137661e-09
2.99677640143e-10
1.52917529879e-09
3.83597310705e-10
1.50558840914e-09
4.67020415169e-10
1.4780289907e-09
5.4870553829e-10
1.44624876042e-09
6.29149246166e-10
1.41049600137e-09
7.0760668965e-10
1.37101899658e-09
7.84326151791e-10
1.327569463e-09
8.5905934954e-10
1.28069361705e-09
9.3106143375e-10
1.23029217386e-09
1.00065517081e-09
1.17646440253e-09
1.06759227767e-09
1.1315500037e-09
1.11940895157e-09
1.20573696928e-09
-1.19002065386e-09
-1.14726631912e-09
1.26085580616e-09
-1.12271111455e-09
1.31267248006e-09
-1.05247184471e-09
1.36083939157e-09
-9.79228345256e-10
1.40503377429e-09
-9.03253732262e-10
1.44575219433e-09
-8.25044571827e-10
1.48224980253e-09
-7.44104297853e-10
1.51477488195e-09
-6.61674325585e-10
1.54307914954e-09
-5.77009805876e-10
1.56716260529e-09
-4.91103870922e-10
1.58702524921e-09
-4.03459954625e-10
1.60241879825e-09
-3.15071189181e-10
1.61359153545e-09
-2.25689291541e-10
1.62029517777e-09
-1.35562544754e-10
1.62228144217e-09
-4.5187514918e-11
1.62029517777e-09
4.5187514918e-11
1.61359153545e-09
1.35562544754e-10
1.60241879825e-09
2.25689291541e-10
1.58702524921e-09
3.15071189181e-10
1.56716260529e-09
4.03459954625e-10
1.54307914954e-09
4.91103870922e-10
1.51477488195e-09
5.77009805876e-10
1.48224980253e-09
6.61674325585e-10
1.44575219433e-09
7.44104297853e-10
1.40503377429e-09
8.25044571827e-10
1.36083939157e-09
9.03253732262e-10
1.31267248006e-09
9.79228345256e-10
1.26085580616e-09
1.05247184471e-09
1.20573696928e-09
1.12271111455e-09
1.19002065386e-09
1.14726631912e-09
1.23567990184e-09
-1.2498817017e-09
-1.175818854e-09
1.29231327004e-09
-1.17934448275e-09
1.34519755948e-09
-1.10535613415e-09
1.39460588623e-09
-1.02863667201e-09
1.4400416842e-09
-9.48689530229e-10
1.48150495338e-09
-8.6650784101e-10
1.51899569378e-09
-7.81595038252e-10
1.55226562235e-09
-6.94944254151e-10
1.58156302213e-09
-6.06307205658e-10
1.60614304398e-09
-5.15683892773e-10
1.626502254e-09
-4.23819164643e-10
1.64239236914e-09
-3.30961304317e-10
1.65381338939e-09
-2.37110311795e-10
1.66051703171e-09
-1.42266187077e-10
1.6629998622e-09
-4.7670345408e-11
1.66051703171e-09
4.7670345408e-11
1.65381338939e-09
1.42266187077e-10
1.64239236914e-09
2.37110311795e-10
1.626502254e-09
3.30961304317e-10
1.60614304398e-09
4.23819164643e-10
1.58156302213e-09
5.15683892773e-10
1.55226562235e-09
6.06307205658e-10
1.51899569378e-09
6.94944254151e-10
1.48150495338e-09
7.81595038252e-10
1.4400416842e-09
8.6650784101e-10
1.39460588623e-09
9.48689530229e-10
1.34519755948e-09
1.02863667201e-09
1.29231327004e-09
1.10535613415e-09
1.23567990184e-09
1.17934448275e-09
1.2498817017e-09
1.175818854e-09
1.26649183295e-09
-1.31143106482e-09
-1.20494246983e-09
1.32434178337e-09
-1.23719443317e-09
1.3787157711e-09
-1.15973012188e-09
1.42911723004e-09
-1.07903813095e-09
1.47579444326e-09
-9.95366743441e-10
1.51849912768e-09
-9.09212525438e-10
1.55698300028e-09
-8.20078910847e-10
1.59099777799e-09
-7.28959031864e-10
1.62079174387e-09
-6.36101171538e-10
1.64611661487e-09
-5.41008763771e-10
1.66697239099e-09
-4.44674940759e-10
1.68311078917e-09
-3.47099702502e-10
1.69478009247e-09
-2.48779615098e-10
1.70198030089e-09
-1.49466395498e-10
1.70421484834e-09
-4.9904892849e-11
1.70198030089e-09
4.9904892849e-11
1.69478009247e-09
1.49466395498e-10
1.68311078917e-09
2.48779615098e-10
1.66697239099e-09
3.47099702502e-10
1.64611661487e-09
4.44674940759e-10
1.62079174387e-09
5.41008763771e-10
1.59099777799e-09
6.36101171538e-10
1.55698300028e-09
7.28959031864e-10
1.51849912768e-09
8.20078910847e-10
1.47579444326e-09
9.09212525438e-10
1.42911723004e-09
9.95366743441e-10
1.3787157711e-09
1.07903813095e-09
1.32434178337e-09
1.15973012188e-09
1.26649183295e-09
1.23719443317e-09
1.31143106482e-09
1.20494246983e-09
1.29802378017e-09
-1.37424667622e-09
-1.23520816877e-09
1.35736342888e-09
-1.29653408188e-09
1.41322711491e-09
-1.2155938079e-09
1.4648699891e-09
-1.13068100515e-09
1.51278861756e-09
-1.0432853719e-09
1.55623815113e-09
-9.52662059013e-10
1.59571515592e-09
-8.59555915638e-10
1.63072306583e-09
-7.63966941773e-10
1.66101359781e-09
-6.66391703516e-10
1.68708331796e-09
-5.67078483916e-10
1.70843566017e-09
-4.66027282973e-10
1.72507062445e-09
-3.63734666785e-10
1.7369882108e-09
-2.6069720145e-10
1.74418841922e-09
-1.56666603919e-10
1.74642296667e-09
-5.213944029e-11
1.74418841922e-09
5.213944029e-11
1.7369882108e-09
1.56666603919e-10
1.72507062445e-09
2.6069720145e-10
1.70843566017e-09
3.63734666785e-10
1.68708331796e-09
4.66027282973e-10
1.66101359781e-09
5.67078483916e-10
1.63072306583e-09
6.66391703516e-10
1.59571515592e-09
7.63966941773e-10
1.55623815113e-09
8.59555915638e-10
1.51278861756e-09
9.52662059013e-10
1.4648699891e-09
1.0432853719e-09
1.41322711491e-09
1.13068100515e-09
1.35736342888e-09
1.2155938079e-09
1.29802378017e-09
1.29653408188e-09
1.37424667622e-09
1.23520816877e-09
1.33030057654e-09
-1.43880026895e-09
-1.2657469838e-09
1.39112992355e-09
-1.35736342888e-09
1.44798674177e-09
-1.27245062612e-09
1.5013675973e-09
-1.18406186068e-09
1.55003107491e-09
-1.0919488495e-09
1.59497030678e-09
-9.97601290882e-10
1.63519216071e-09
-8.99777769576e-10
1.67119320282e-09
-7.99967983878e-10
1.70247686699e-09
-6.9767536769e-10
1.72904315324e-09
-5.93644770159e-10
1.75089206155e-09
-4.87876191285e-10
1.76802359193e-09
-3.80866197166e-10
1.78018946133e-09
-2.72863070851e-10
1.7876379528e-09
-1.64115095389e-10
1.79012078329e-09
-5.462227078e-11
1.7876379528e-09
5.462227078e-11
1.78018946133e-09
1.64115095389e-10
1.76802359193e-09
2.72863070851e-10
1.75089206155e-09
3.80866197166e-10
1.72904315324e-09
4.87876191285e-10
1.70247686699e-09
5.93644770159e-10
1.67119320282e-09
6.9767536769e-10
1.63519216071e-09
7.99967983878e-10
1.59497030678e-09
8.99777769576e-10
1.55003107491e-09
9.97601290882e-10
1.5013675973e-09
1.0919488495e-09
1.44798674177e-09
1.18406186068e-09
1.39112992355e-09
1.27245062612e-09
1.33030057654e-09
1.35736342888e-09
1.43880026895e-09
1.2657469838e-09
1.36332222206e-09
-1.50484355999e-09
-1.29727893102e-09
1.42588955041e-09
-1.41993075723e-09
1.48423606692e-09
-1.33079714264e-09
1.53861005465e-09
-1.23843584841e-09
1.5890115136e-09
-1.14235030845e-09
1.63444731157e-09
-1.04303708885e-09
1.67591058075e-09
-9.41241038759e-10
1.712656472e-09
-8.3671387513e-10
1.74468498532e-09
-7.29703881011e-10
1.77199612071e-09
-6.20955905549e-10
1.79458987817e-09
-5.10469948744e-10
1.8119696916e-09
-3.98246010596e-10
1.8246321271e-09
-2.8552550635e-10
1.83208061857e-09
-1.71563586859e-10
1.83456344906e-09
-5.710510127e-11
1.83208061857e-09
5.710510127e-11
1.8246321271e-09
1.71563586859e-10
1.8119696916e-09
2.8552550635e-10
1.79458987817e-09
3.98246010596e-10
1.77199612071e-09
5.10469948744e-10
1.74468498532e-09
6.20955905549e-10
1.712656472e-09
7.29703881011e-10
1.67591058075e-09
8.3671387513e-10
1.63444731157e-09
9.41241038759e-10
1.5890115136e-09
1.04303708885e-09
1.53861005465e-09
1.14235030845e-09
1.48423606692e-09
1.23843584841e-09
1.42588955041e-09
1.33079714264e-09
1.36332222206e-09
1.41993075723e-09
1.50484355999e-09
1.29727893102e-09
1.39733699977e-09
-1.57287311541e-09
-1.32930744435e-09
1.46114574337e-09
-1.48373950082e-09
1.52123024122e-09
-1.3908816405e-09
1.5768456442e-09
-1.29405125139e-09
1.62824023534e-09
-1.19374489959e-09
1.67541401465e-09
-1.09021086816e-09
1.71762213298e-09
-9.83449157089e-10
1.75536115643e-09
-8.74452898578e-10
1.7881345189e-09
-7.62477243479e-10
1.81619050343e-09
-6.49011890086e-10
1.83903254394e-09
-5.33311989252e-10
1.85715720652e-09
-4.16370673173e-10
1.86981964202e-09
-2.98187941849e-10
1.87751641654e-09
-1.79260361378e-10
1.88024753008e-09
-5.9836214809e-11
1.87751641654e-09
5.9836214809e-11
1.86981964202e-09
1.79260361378e-10
1.85715720652e-09
2.98187941849e-10
1.83903254394e-09
4.16370673173e-10
1.81619050343e-09
5.33311989252e-10
1.7881345189e-09
6.49011890086e-10
1.75536115643e-09
7.62477243479e-10
1.71762213298e-09
8.74452898578e-10
1.67541401465e-09
9.83449157089e-10
1.62824023534e-09
1.09021086816e-09
1.5768456442e-09
1.19374489959e-09
1.52123024122e-09
1.29405125139e-09
1.46114574337e-09
1.3908816405e-09
1.39733699977e-09
1.48373950082e-09
1.57287311541e-09
1.32930744435e-09
1.43184834358e-09
-1.64214408609e-09
-1.36257737291e-09
1.49739506852e-09
-1.54928622576e-09
1.55896926467e-09
-1.45245583665e-09
1.61607436594e-09
-1.35115635266e-09
1.66871037233e-09
-1.24638090598e-09
1.71687728384e-09
-1.13837777967e-09
1.76032681741e-09
-1.02689869066e-09
1.79881069e-09
-9.12936771173e-10
1.83282546772e-09
-7.96492021192e-10
1.86137801835e-09
-6.77564440721e-10
1.88496490801e-09
-5.56898878907e-10
1.90333785363e-09
-4.34743618799e-10
1.91649685523e-09
-3.11346943446e-10
1.9244419128e-09
-1.87205418946e-10
1.92692474329e-09
-6.2319045299e-11
1.9244419128e-09
6.2319045299e-11
1.91649685523e-09
1.87205418946e-10
1.90333785363e-09
3.11346943446e-10
1.88496490801e-09
4.34743618799e-10
1.86137801835e-09
5.56898878907e-10
1.83282546772e-09
6.77564440721e-10
1.79881069e-09
7.96492021192e-10
1.76032681741e-09
9.12936771173e-10
1.71687728384e-09
1.02689869066e-09
1.66871037233e-09
1.13837777967e-09
1.61607436594e-09
1.24638090598e-09
1.55896926467e-09
1.35115635266e-09
1.49739506852e-09
1.45245583665e-09
1.43184834358e-09
1.54928622576e-09
1.64214408609e-09
1.36257737291e-09
1.46760110264e-09
-1.7131530381e-09
-1.39659215062e-09
1.53488580892e-09
-1.61657093204e-09
1.59770142031e-09
-1.51527144805e-09
1.65629621988e-09
-1.40975115222e-09
1.71042192456e-09
-1.30050661066e-09
1.75958196826e-09
-1.18753782337e-09
1.80427291708e-09
-1.07158963948e-09
1.84374992187e-09
-9.52413775964e-10
1.87826126568e-09
-8.31003365003e-10
1.90755866547e-09
-7.06861840503e-10
1.93164212122e-09
-5.8098233466e-10
1.95051163294e-09
-4.53613130523e-10
1.96391891759e-09
-3.24754228092e-10
1.97211225821e-09
-1.95398759563e-10
1.97484337175e-09
-6.5050158838e-11
1.97211225821e-09
6.5050158838e-11
1.96391891759e-09
1.95398759563e-10
1.95051163294e-09
3.24754228092e-10
1.93164212122e-09
4.53613130523e-10
1.90755866547e-09
5.8098233466e-10
1.87826126568e-09
7.06861840503e-10
1.84374992187e-09
8.31003365003e-10
1.80427291708e-09
9.52413775964e-10
1.75958196826e-09
1.07158963948e-09
1.71042192456e-09
1.18753782337e-09
1.65629621988e-09
1.30050661066e-09
1.59770142031e-09
1.40975115222e-09
1.53488580892e-09
1.51527144805e-09
1.46760110264e-09
1.61657093204e-09
1.7131530381e-09
1.39659215062e-09
1.50434699389e-09
-1.78639653755e-09
-1.43110349444e-09
1.57287311542e-09
-1.68509705356e-09
1.63742670815e-09
-1.57982504079e-09
1.69751120601e-09
-1.46983565008e-09
1.75287832594e-09
-1.35587373059e-09
1.80352806794e-09
-1.23818756536e-09
1.8489638659e-09
-1.11702543745e-09
1.88968228594e-09
-9.93132196e-10
1.9249384789e-09
-8.66259557961e-10
1.95498072783e-09
-7.36904089432e-10
1.97980903273e-09
-6.0581063956e-10
1.99917511055e-09
-4.72979208345e-10
2.01307896129e-09
-3.38658078836e-10
2.02127230191e-09
-2.0359210018e-10
2.0242516985e-09
-6.8029555426e-11
2.02127230191e-09
6.8029555426e-11
2.01307896129e-09
2.0359210018e-10
1.99917511055e-09
3.38658078836e-10
1.97980903273e-09
4.72979208345e-10
1.95498072783e-09
6.0581063956e-10
1.9249384789e-09
7.36904089432e-10
1.88968228594e-09
8.66259557961e-10
1.8489638659e-09
9.93132196e-10
1.80352806794e-09
1.11702543745e-09
1.75287832594e-09
1.23818756536e-09
1.69751120601e-09
1.35587373059e-09
1.63742670815e-09
1.46983565008e-09
1.57287311542e-09
1.57982504079e-09
1.50434699389e-09
1.68509705356e-09
1.78639653755e-09
1.43110349444e-09
1.54158945124e-09
-1.8611297353e-09
-1.46685625349e-09
1.61210183716e-09
-1.75560943948e-09
1.67814512819e-09
-1.64586833182e-09
1.73971932434e-09
-1.53140984623e-09
1.79632785951e-09
-1.41248226576e-09
1.84821901676e-09
-1.2900787226e-09
1.89514451302e-09
-1.16395093371e-09
1.9366077822e-09
-1.03459546518e-09
1.97285710735e-09
-9.02508883115e-10
2.00364420543e-09
-7.67691187508e-10
2.02896907643e-09
-6.31135510558e-10
2.04883172035e-09
-4.92841852265e-10
2.06298385414e-09
-3.52810212629e-10
2.07142547781e-09
-2.12033723846e-10
2.07415659135e-09
-7.0760668965e-11
2.07142547781e-09
7.0760668965e-11
2.06298385414e-09
2.12033723846e-10
2.04883172035e-09
3.52810212629e-10
2.02896907643e-09
4.92841852265e-10
2.00364420543e-09
6.31135510558e-10
1.97285710735e-09
7.67691187508e-10
1.9366077822e-09
9.02508883115e-10
1.89514451302e-09
1.03459546518e-09
1.84821901676e-09
1.16395093371e-09
1.79632785951e-09
1.2900787226e-09
1.73971932434e-09
1.41248226576e-09
1.67814512819e-09
1.53140984623e-09
1.61210183716e-09
1.64586833182e-09
1.54158945124e-09
1.75560943948e-09
1.8611297353e-09
1.46685625349e-09
1.57982504079e-09
-1.9376009144e-09
-1.5033538617e-09
1.65232369109e-09
-1.82810808979e-09
1.72010496347e-09
-1.7136496042e-09
1.78292057487e-09
-1.59422545763e-09
1.84126709138e-09
-1.47082878228e-09
1.89415138082e-09
-1.34296301204e-09
1.94207000928e-09
-1.21186956217e-09
1.98477469371e-09
-1.07730014961e-09
2.02176886801e-09
-9.39503057416e-10
2.05354909828e-09
-7.9947141778e-10
2.07961881842e-09
-6.57205230703e-10
2.09972974539e-09
-5.12952779234e-10
2.11437844528e-09
-3.6745891252e-10
2.123068352e-09
-2.20723630561e-10
2.12604774859e-09
-7.3740065553e-11
2.123068352e-09
7.3740065553e-11
2.11437844528e-09
2.20723630561e-10
2.09972974539e-09
3.6745891252e-10
2.07961881842e-09
5.12952779234e-10
2.05354909828e-09
6.57205230703e-10
2.02176886801e-09
7.9947141778e-10
1.98477469371e-09
9.39503057416e-10
1.94207000928e-09
1.07730014961e-09
1.89415138082e-09
1.21186956217e-09
1.84126709138e-09
1.34296301204e-09
1.78292057487e-09
1.47082878228e-09
1.72010496347e-09
1.59422545763e-09
1.65232369109e-09
1.7136496042e-09
1.57982504079e-09
1.82810808979e-09
1.9376009144e-09
1.5033538617e-09
1.61930204558e-09
-2.01630664093e-09
-1.54059631905e-09
1.69329039418e-09
-1.90209643839e-09
1.76256136485e-09
-1.78292057487e-09
1.82736324064e-09
-1.65902733342e-09
1.8869511724e-09
-1.53041671404e-09
1.94157344318e-09
-1.39758528282e-09
1.99048520383e-09
-1.26078132282e-09
2.03418302046e-09
-1.12099796623e-09
2.07241861e-09
-9.77738646962e-10
2.10469540637e-09
-8.3174821415e-10