/*--------------------------------*- C++ -*----------------------------------*\
| =========                 |                                                 |
| \\      /  F ield         | OpenFOAM: The Open Source CFD Toolbox           |
|  \\    /   O peration     | Version:  2312                                  |
|   \\  /    A nd           | Website:  www.openfoam.com                      |
|    \\/     M anipulation  |                                                 |
\*---------------------------------------------------------------------------*/
FoamFile
{
    version     2.0;
    format      ascii;
    arch        "LSB;label=32;scalar=64";
    class       volScalarField;
    location    "0.005";
    object      rho;
}
// * * * * * * * * * * * * * * * * * * * * * * * * * * * * * * * * * * * * * //

dimensions      [1 -3 0 0 0 0 0];

internalField   nonuniform List<scalar> 
19400
(
1.17648738046
1.17641165193
1.17633963497
1.17627231117
1.17621043183
1.1761545642
1.17610522528
1.17606267167
1.17602729065
1.17599906445
1.17597787448
1.17596343682
1.17595529218
1.17595286031
1.17595549769
1.17596268183
1.17597376989
1.17598787564
1.17600420108
1.17602205217
1.17604072905
1.17605962048
1.1760782412
1.17609616125
1.17611296852
1.1761282988
1.17614185011
1.17615333182
1.17616247332
1.17616906864
1.1766100575
1.17654231693
1.17647594725
1.17641152712
1.17635150873
1.17629516904
1.17624337973
1.17619652244
1.17615512995
1.17611968133
1.17609041096
1.17606717659
1.17604967967
1.17603774474
1.17603106009
1.17602902895
1.17603094556
1.17603626584
1.17604475098
1.17605587418
1.17606878943
1.17608278395
1.17609733268
1.17611188895
1.17612599007
1.17613922777
1.17615118445
1.17616144606
1.17616967044
1.17617558758
1.17672406499
1.17666778853
1.17661266129
1.17655912201
1.17650640939
1.17645588982
1.17640836815
1.17636394201
1.17632277147
1.17628505963
1.17625098742
1.17622070202
1.17619440118
1.17617220679
1.17615400377
1.1761397298
1.17612952301
1.17612243635
1.17611817771
1.1761165125
1.17611741594
1.17612106884
1.17612721046
1.17613510497
1.17614414199
1.17615369245
1.17616311326
1.17617178457
1.17617911073
1.17618455185
1.17679390393
1.1767462994
1.17669948833
1.17665386208
1.17660966744
1.17656730431
1.17652692133
1.17648881869
1.17645316597
1.1764194741
1.1763886695
1.17635983214
1.17633309575
1.17630836036
1.17628550998
1.17626441131
1.17624491154
1.17622759479
1.17621249754
1.17619987556
1.17618935033
1.17618070611
1.17617448371
1.17617136928
1.17617156713
1.17617440921
1.17617910867
1.17618474187
1.17619038529
1.17619510285
1.17683391694
1.17679255399
1.17675184367
1.17671214434
1.17667379548
1.17663708523
1.17660223769
1.17656939161
1.17653862921
1.17650975229
1.17648303103
1.17645760875
1.17643503779
1.17641343194
1.17639267701
1.17637246595
1.17635243809
1.17633243385
1.17631246591
1.17629253217
1.17627291858
1.17625503778
1.17623943134
1.17622540993
1.17621393391
1.17620620566
1.17620266065
1.17620234955
1.17620416857
1.17620674798
1.17685805474
1.17682120151
1.17678489627
1.17674947067
1.17671522932
1.17668243621
1.17665131732
1.17662202575
1.17659462875
1.17656912651
1.17654561205
1.17652364543
1.17650371323
1.17648443278
1.17646734072
1.17645072508
1.17643395553
1.17641654455
1.17639803245
1.17637813897
1.17635683119
1.17633443473
1.17631121761
1.1762891058
1.17626937343
1.17625158257
1.17623702002
1.17622725442
1.17622216502
1.17622020132
1.17687431069
1.17684110444
1.17680830525
1.17677620684
1.17674508031
1.17671516961
1.17668668804
1.17665981291
1.17663472059
1.17661143659
1.17659002933
1.17657028396
1.17655204
1.17653499333
1.17651929588
1.17650416292
1.17649041697
1.17647659517
1.17646179128
1.17644530345
1.17642657437
1.1764054037
1.17638181746
1.17635630239
1.1763295581
1.17630441405
1.17628170225
1.17626187914
1.17624681379
1.17623714947
1.17688540283
1.17685532
1.17682551312
1.17679624048
1.17676774234
1.17674023701
1.17671392166
1.17668895656
1.17666548509
1.17664364041
1.1766234399
1.17660489635
1.17658795651
1.1765724156
1.17655806713
1.17654436283
1.17653112599
1.17651865647
1.17650660796
1.17649374925
1.17647897765
1.17646152459
1.1764408635
1.17641688628
1.17638981957
1.17636055178
1.17633052748
1.17630371904
1.1762794329
1.17625965517
1.17689283844
1.1768654655
1.17683826389
1.17681146103
1.17678526883
1.17675988061
1.17673547029
1.1767121879
1.17669015501
1.17666948541
1.17665021449
1.17663239267
1.1766160301
1.17660112314
1.1765875458
1.17657498995
1.17656300817
1.17655130657
1.17653930887
1.17652816205
1.17651647532
1.176502904
1.17648631521
1.17646599383
1.17644164365
1.17641332693
1.17638161938
1.17634813091
1.17631696936
1.17628877759
1.17689764286
1.17687263189
1.17684771615
1.17682309124
1.17679894359
1.17677544492
1.17675274813
1.17673098895
1.1767102744
1.17669069436
1.17667233148
1.17665519676
1.17663930417
1.17662466361
1.17661121126
1.17659900443
1.17658770323
1.17657698885
1.1765661839
1.17655514541
1.17654399617
1.17653286537
1.17651981835
1.17650352297
1.17648308439
1.17645799652
1.17642812042
1.17639397688
1.17635716369
1.17632178639
1.1769005174
1.1768775972
1.17685470015
1.17683200523
1.17680967933
1.17678787508
1.17676672906
1.17674636168
1.17672687266
1.17670834322
1.17669085081
1.17667439439
1.17665900853
1.17664469839
1.17663141556
1.17661914302
1.17660780816
1.17659743537
1.17658747305
1.1765774299
1.17656680436
1.17655543181
1.17654430164
1.17653134997
1.17651484146
1.17649372623
1.17646731199
1.17643533973
1.17639826213
1.17635780819
1.1769020304
1.17688093619
1.17685982229
1.17683884449
1.17681814833
1.17679786988
1.17677813085
1.17675903955
1.1767406874
1.17672314462
1.17670646526
1.17669070939
1.17667586606
1.17666193849
1.17664890287
1.17663672215
1.17662535165
1.17661470076
1.17660485293
1.1765953781
1.17658570625
1.17657521662
1.17656381578
1.17655199465
1.17653875412
1.17652148391
1.17649904277
1.17647059453
1.1764358013
1.17639518322
1.17690249318
1.17688304049
1.17686352488
1.17684408543
1.17682485395
1.17680595393
1.17678749576
1.17676957595
1.176752278
1.17673566869
1.17671979824
1.17670471353
1.17669041707
1.17667690742
1.17666417196
1.17665217258
1.17664087126
1.17663018037
1.17662005401
1.17661047309
1.17660126832
1.17659168764
1.17658120914
1.17656929362
1.17655673104
1.17654276503
1.17652417971
1.17649973988
1.17646850853
1.17643017492
1.17690223964
1.17688424501
1.17686615177
1.17684808959
1.17683017747
1.17681252712
1.17679523734
1.17677839594
1.17676207872
1.1767463478
1.17673124955
1.17671682242
1.17670307453
1.17669000846
1.17667761421
1.17666585763
1.17665469983
1.17664407295
1.17663390791
1.17662412781
1.17661470986
1.17660552563
1.17659589762
1.17658500375
1.1765723444
1.17655911606
1.17654364736
1.17652330992
1.17649627019
1.1764615895
1.17690145324
1.17688476537
1.1768679454
1.17685112489
1.17683440935
1.17681789643
1.17680167719
1.17678583015
1.17677042509
1.17675551894
1.17674115463
1.17672736553
1.17671416782
1.17670156257
1.17668953912
1.17667807007
1.17666711723
1.17665662561
1.17664652725
1.17663673755
1.17662718067
1.17661779244
1.17660851818
1.1765985962
1.17658699745
1.17657364367
1.17655924142
1.17654199038
1.1765193807
1.17648913585
1.17690027793
1.17688474689
1.17686909133
1.17685340267
1.17683777674
1.17682230327
1.17680706602
1.17679213753
1.17677758156
1.17676345106
1.17674978598
1.17673661491
1.17672396261
1.17671182515
1.17670019284
1.17668904682
1.17667834867
1.17666805081
1.17665809108
1.17664838915
1.17663886877
1.17662940658
1.17661998836
1.17661050071
1.17660005975
1.17658772888
1.17657343585
1.17655755086
1.17653826213
1.17651284875
1.17689883648
1.17688437302
1.1768697632
1.17685509402
1.17684045821
1.17682593476
1.1768116006
1.17679752278
1.17678375905
1.17677035889
1.17675736023
1.17674478999
1.17673267054
1.17672100223
1.17670977642
1.17669897739
1.17668857188
1.17667851572
1.17666875292
1.17665921095
1.17664981428
1.17664045348
1.17663101931
1.17662151095
1.17661166561
1.1766006555
1.17658750653
1.17657203652
1.17655434357
1.17653284726
1.17689721363
1.17688371488
1.1768700582
1.17685632002
1.17684258778
1.1768289369
1.17681543624
1.17680214809
1.17678912539
1.17677641376
1.17676404955
1.17675205811
1.17674046068
1.17672925965
1.17671844897
1.17670801377
1.17669792742
1.17668815061
1.17667863313
1.17666931044
1.17666010825
1.17665093689
1.17664166705
1.1766322411
1.17662254464
1.1766122839
1.1766007049
1.17658663837
1.17656972519
1.17654997027
1.17689547321
1.17688284873
1.17687005915
1.17685717155
1.17684427129
1.17683142532
1.17681869762
1.17680614433
1.17679381569
1.17678175384
1.17676999336
1.17675855812
1.17674746946
1.17673672992
1.17672633817
1.17671628046
1.17670653484
1.17669706722
1.17668783351
1.17667877654
1.17666982798
1.17666090714
1.17665190586
1.17664270853
1.17663324795
1.17662333902
1.17661269563
1.17660051646
1.17658537063
1.17656690247
1.17689366089
1.176881834
1.17686983012
1.17685772979
1.17684559721
1.17683349739
1.17682148651
1.17680961828
1.17679794005
1.17678649088
1.17677530401
1.17676440336
1.17675380575
1.17674352308
1.17673355265
1.17672388173
1.17671449238
1.17670535664
1.17669643612
1.17668768187
1.17667903243
1.17667041495
1.17666174102
1.17665289175
1.17664377969
1.17663427566
1.17662419377
1.17661322442
1.17660037939
1.17658412183
1.17689181621
1.17688072187
1.17686944806
1.17685806964
1.17684664152
1.17683522995
1.17682388544
1.17681265643
1.17680158865
1.17679071817
1.17678007724
1.17676968932
1.17675957072
1.17674973535
1.17674018211
1.17673090148
1.17672187875
1.17671309153
1.17670450736
1.17669608393
1.1766877689
1.17667949811
1.17667119578
1.17666276503
1.17665409249
1.17664509162
1.17663559858
1.17662543182
1.1766142292
1.17660069169
1.17688996658
1.17687954582
1.17686894776
1.17685823348
1.17684745775
1.1768366843
1.17682595976
1.17681532929
1.17680483486
1.17679451211
1.17678439083
1.17677449515
1.17676484103
1.17675544198
1.17674630042
1.17673741042
1.17672876098
1.17672033359
1.17671210171
1.17670403067
1.17669607598
1.1766881842
1.17668028925
1.17667231455
1.17666415886
1.17665572083
1.17664689634
1.17663752313
1.17662742787
1.1766161145
1.1768881315
1.17687832905
1.17686835107
1.17685825404
1.17684808634
1.17683790793
1.17682776242
1.17681769337
1.17680773935
1.17679793489
1.17678830888
1.17677888474
1.1767696794
1.17676070588
1.17675196965
1.17674346832
1.17673519419
1.17672713283
1.17671926407
1.1767115598
1.176703984
1.17669649322
1.17668903275
1.17668154059
1.17667393695
1.17666612626
1.17665801245
1.17664948608
1.17664040565
1.17663062296
1.1768863257
1.17687709595
1.17686769176
1.17685816764
1.17684856455
1.17683894065
1.17682933761
1.17681979553
1.1768103514
1.17680103819
1.17679188389
1.17678291196
1.17677413973
1.17676558065
1.17675724154
1.17674912432
1.17674122422
1.17673353174
1.1767260317
1.1767187029
1.17671151732
1.17670444154
1.17669743262
1.17669044013
1.17668340623
1.17667625076
1.17666889756
1.17666123571
1.17665318604
1.17664464312
1.176884561
1.17687586123
1.17686699037
1.17685799517
1.17684892044
1.17683981505
1.17683072079
1.17682167494
1.17681271229
1.17680386514
1.17679516038
1.17678662176
1.17677826732
1.17677011076
1.17676215881
1.17675441873
1.17674688951
1.17673956516
1.17673243556
1.17672548589
1.17671869619
1.17671204209
1.17670549238
1.1766990078
1.17669255001
1.17668605693
1.17667947126
1.17667271134
1.17666568915
1.1766583655
1.17688284453
1.17687463703
1.17686626152
1.17685776108
1.17684917833
1.17684055836
1.17683194212
1.17682336362
1.17681485646
1.17680645144
1.17679817515
1.17679005157
1.1767820994
1.17677433481
1.17676675699
1.17675938622
1.17675222227
1.17674526245
1.17673850122
1.17673193053
1.1767255372
1.17671930489
1.17671321471
1.17670723864
1.17670135294
1.17669551314
1.17668968696
1.17668383275
1.17667784954
1.1766716655
1.17688118129
1.17687343204
1.17686551809
1.1768574799
1.17684935826
1.17684119277
1.17683302631
1.17682488873
1.17681681242
1.17680882749
1.1768009594
1.17679323239
1.17678566609
1.17677828791
1.1767710671
1.17676405599
1.17675724997
1.17675064866
1.17674425099
1.17673805519
1.17673205393
1.17672623923
1.17672060405
1.17671512712
1.1767097986
1.17670460764
1.17669952092
1.1766944938
1.17668948975
1.17668453196
1.17687957483
1.17687225254
1.17686476956
1.17685716449
1.17684947494
1.17684173736
1.17683399372
1.17682627278
1.17681860455
1.17681101818
1.17680353932
1.17679619076
1.17678898928
1.17678194448
1.17677510941
1.17676845301
1.1767619958
1.17675574446
1.17674970357
1.17674387513
1.17673825769
1.1767328544
1.17672766066
1.17672266544
1.17671789406
1.17671331527
1.17670887926
1.17670470061
1.17670081401
1.17669707926
1.17687802619
1.17687110334
1.17686402401
1.17685682444
1.17684954104
1.17684220616
1.17683486172
1.1768275341
1.17682025269
1.17681304539
1.17680593709
1.17679895117
1.17679210545
1.17678541825
1.17677891584
1.17677259943
1.17676647995
1.17676056926
1.17675487563
1.17674940323
1.17674416132
1.17673915634
1.1767343823
1.17672987168
1.17672561716
1.17672156054
1.17671789765
1.17671466859
1.17671160988
1.17670880713
1.17687653606
1.17686998709
1.17686328643
1.17685646791
1.17684956638
1.17684261148
1.17683564378
1.17682868848
1.17682177376
1.17681492667
1.17680817198
1.17680153253
1.17679502843
1.17678867825
1.17678250191
1.17677651293
1.17677071956
1.17676513983
1.17675978032
1.17675465289
1.17674977668
1.17674514366
1.1767407908
1.17673673549
1.17673290517
1.17672951727
1.17672663452
1.17672400425
1.17672169173
1.17671985907
1.17687510421
1.17686890602
1.17686256097
1.17685610165
1.17684955933
1.17684296281
1.17683635144
1.17682974881
1.17682318181
1.17681667713
1.17681025953
1.17680395095
1.17679777336
1.17679174407
1.17678588441
1.17678020925
1.17677473032
1.17676947003
1.17676442891
1.17675964006
1.17675510484
1.17675083181
1.176746897
1.17674319911
1.17673989673
1.17673718957
1.17673478196
1.17673274896
1.17673118174
1.17673010276
1.17687372978
1.17686786084
1.1768618505
1.17685572901
1.176849526
1.17684326837
1.17683699409
1.17683072549
1.17682448884
1.1768183098
1.17681221309
1.17680622015
1.1768003548
1.17679463162
1.17678907752
1.17678370158
1.17677852725
1.17677356996
1.17676883597
1.17676437324
1.17676014938
1.17675624833
1.17675266046
1.17674932571
1.17674664158
1.17674436322
1.17674241423
1.17674092583
1.17673990734
1.1767395206
1.17687241101
1.176866852
1.17686115662
1.17685535373
1.176849471
1.17684353469
1.17683757968
1.17683162764
1.17682570479
1.17681983538
1.17681404445
1.1768083525
1.176802785
1.17679735447
1.17679209356
1.17678700229
1.1767821229
1.176777449
1.17677301672
1.17676885311
1.17676493178
1.17676139116
1.17675807237
1.17675522134
1.1767529979
1.17675105818
1.17674952056
1.1767484373
1.17674800427
1.17674833543
1.17687114643
1.17686587915
1.17686048095
1.17685497895
1.17684939915
1.17684376684
1.17683811444
1.17683246323
1.17682683818
1.1768212636
1.17681576343
1.17681035876
1.17680507508
1.17679992459
1.17679494276
1.17679012415
1.17678552642
1.17678111901
1.17677698202
1.1767730836
1.17676947639
1.17676623455
1.17676319582
1.17676084
1.17675892642
1.17675729128
1.17675606248
1.17675545384
1.17675558907
1.17675650345
1.17686993415
1.17686494179
1.17685982415
1.17685460631
1.17684931328
1.17684396928
1.17683860407
1.17683323852
1.17682789657
1.17682260225
1.17681737904
1.17681224845
1.17680723464
1.17680235204
1.17679763485
1.17679307831
1.17678874548
1.17678459371
1.1767807351
1.1767770798
1.1767737908
1.17677077251
1.17676808918
1.17676612968
1.17676443331
1.17676303296
1.17676218209
1.17676203097
1.17676261916
1.17676401034
1.17686877206
1.17686403932
1.17685918655
1.17685423771
1.17684921604
1.17684414565
1.17683905307
1.17683395877
1.17682888605
1.17682385847
1.17681889901
1.17681402936
1.1768092724
1.17680464587
1.17680017864
1.17679587435
1.17679178779
1.17678788506
1.17678427865
1.17678086318
1.17677786302
1.17677503457
1.17677274676
1.17677105926
1.17676951674
1.1767683996
1.17676792028
1.1767681358
1.17676909468
1.1767708761
1.17686765798
1.17686317024
1.17685856805
1.17685387371
1.17684910949
1.17684429886
1.17683946524
1.1768346287
1.17682981202
1.17682503827
1.17682032972
1.17681570868
1.17681119628
1.17680681343
1.17680258309
1.17679851985
1.17679466273
1.17679100151
1.17678762022
1.17678444767
1.17678168436
1.17677907348
1.17677714795
1.17677560778
1.17677424382
1.17677342579
1.17677325915
1.17677377325
1.17677503418
1.17677712771
1.17686658994
1.17686233348
1.17685796833
1.17685351497
1.1768489952
1.1768444312
1.17683984366
1.1768352523
1.17683067901
1.17682614664
1.17682167717
1.17681729259
1.17681301305
1.17680886155
1.17680485623
1.17680102153
1.17679737964
1.17679394894
1.17679077074
1.17678783865
1.1767852685
1.17678290235
1.17678126055
1.17677980292
1.17677866557
1.17677811977
1.17677820414
1.17677896121
1.17678046128
1.17678279424
1.17686556599
1.17686152812
1.1768573868
1.17685316167
1.17684887402
1.17684454443
1.17684019096
1.17683583251
1.17683149101
1.17682718843
1.17682294628
1.17681878655
1.17681472881
1.17681079637
1.17680700542
1.17680338547
1.17679994768
1.17679673247
1.17679374222
1.17679103979
1.17678862903
1.17678650707
1.17678508158
1.17678371113
1.17678280173
1.17678248149
1.17678276986
1.17678371962
1.1767854007
1.1767879064
1.17686458422
1.17686075246
1.17685682274
1.17685281383
1.17684874659
1.1768446399
1.17684050887
1.17683637228
1.17683225136
1.17682816744
1.17682414185
1.17682019578
1.17681634902
1.17681262392
1.17680903703
1.1768056179
1.17680237506
1.17679935752
1.17679654642
1.176794053
1.1767917816
1.17678991177
1.17678859231
1.17678737161
1.17678666469
1.17678652166
1.17678697204
1.17678806793
1.17678987783
1.17679249566
1.17686364279
1.17686000517
1.1768562752
1.17685247106
1.17684861324
1.1768447183
1.17684079888
1.1768368737
1.17683296298
1.17682908761
1.17682526808
1.17682152525
1.17681787872
1.17681434985
1.17681095656
1.1768077252
1.1768046686
1.17680182989
1.1767991937
1.17679688075
1.17679474625
1.17679310153
1.17679185079
1.17679078941
1.17679025127
1.17679024937
1.17679082604
1.17679202711
1.17679392187
1.17679659118
1.17686273988
1.17685928478
1.17685574326
1.17685213381
1.17684847439
1.17684478038
1.17684106242
1.1768373389
1.17683362894
1.17682995239
1.17682632909
1.17682277934
1.17681932283
1.17681597959
1.17681276923
1.17680971385
1.17680683354
1.17680415696
1.17680169185
1.17679952799
1.17679753914
1.1767960744
1.17679488533
1.17679397305
1.17679356566
1.17679367871
1.17679435222
1.17679562342
1.17679756391
1.17680021198
1.1768618739
1.17685859031
1.17685522678
1.1768518018
1.17684833099
1.17684482758
1.1768413016
1.17683777076
1.17683425256
1.17683076541
1.17682732886
1.17682396245
1.17682068582
1.17681751818
1.1768144802
1.17681159012
1.17680887502
1.17680634735
1.17680404529
1.17680200397
1.17680017135
1.1767988332
1.17679770935
1.17679692829
1.17679662536
1.17679683269
1.17679757298
1.17679888516
1.17680083245
1.17680341922
1.176861044
1.17685792186
1.17685472687
1.17685147708
1.1768481851
1.17684486228
1.17684152008
1.17683817321
1.17683483762
1.17683153057
1.17682827131
1.17682507867
1.17682197231
1.17681897053
1.17681609444
1.17681336003
1.17681079779
1.17680840959
1.17680625664
1.1768043223
1.17680264649
1.17680138436
1.17680033959
1.17679966723
1.17679944861
1.17679973057
1.17680050968
1.17680183945
1.17680374669
1.1768063093
1.17686024992
1.1768572798
1.17685424477
1.17685116124
1.17684803735
1.17684488752
1.17684172132
1.17683854997
1.17683538776
1.17683225163
1.17682916045
1.17682613246
1.17682318689
1.17682034166
1.17681761723
1.17681502903
1.17681260709
1.17681035169
1.17680832858
1.17680649785
1.17680496333
1.1768037439
1.17680279049
1.17680220027
1.17680205516
1.17680238544
1.17680318224
1.17680450944
1.17680635906
1.17680885895
1.176859491
1.17685666306
1.17685377899
1.17685085204
1.17684788832
1.17684490356
1.17684190562
1.17683890125
1.17683590388
1.17683293051
1.17682999899
1.1768271272
1.17682433381
1.17682163648
1.17681905396
1.1768166025
1.17681430892
1.17681217904
1.17681026656
1.17680854131
1.17680712063
1.1768059358
1.17680506493
1.17680454616
1.17680446362
1.17680480907
1.17680561767
1.17680691588
1.17680870377
1.17681110101
1.17685876425
1.17685606609
1.17685332295
1.17685054319
1.1768477322
1.17684490436
1.17684206645
1.17683922135
1.17683638183
1.17683356448
1.17683078566
1.17682806331
1.17682541507
1.17682285809
1.17682040971
1.17681808555
1.17681590995
1.17681389658
1.17681207944
1.1768104592
1.1768091205
1.1768079749
1.17680717366
1.17680672237
1.17680667437
1.17680702075
1.1768078319
1.17680907789
1.17681079577
1.17681309699
1.1768580631
1.17685548106
1.17685286845
1.17685022726
1.17684756152
1.17684488238
1.17684219617
1.17683950345
1.1768368158
1.17683414839
1.17683151668
1.17682893819
1.17682642947
1.17682400679
1.17682168666
1.17681948273
1.17681741676
1.17681551058
1.1768137778
1.17681225617
1.17681097183
1.17680987752
1.17680913437
1.17680873895
1.17680870274
1.17680905469
1.1768098461
1.17681102669
1.17681266028
1.1768148451
1.17685738241
1.1768549076
1.17685241988
1.1768499125
1.17684738554
1.17684484737
1.17684230394
1.17683975698
1.17683721398
1.17683468905
1.17683219706
1.17682975524
1.17682737893
1.17682508367
1.17682288483
1.176820796
1.17681883363
1.17681702675
1.17681536965
1.17681393697
1.17681269065
1.17681164916
1.17681094625
1.17681058641
1.17681055537
1.17681090583
1.17681166678
1.17681279529
1.17681433564
1.17681637891
1.17685673004
1.17685436774
1.1768520143
1.17684964629
1.17684724978
1.1768448412
1.17684243725
1.17684002811
1.17683761938
1.17683522437
1.17683285897
1.17683054007
1.17682828311
1.17682610198
1.1768240079
1.17682202483
1.17682015869
1.17681844286
1.17681686002
1.17681550927
1.17681430174
1.17681331397
1.17681264175
1.17681230272
1.17681227277
1.17681261004
1.17681332899
1.17681439799
1.17681585143
1.17681772121
1.17685597366
1.17685378957
1.17685161695
1.176849418
1.17684717772
1.17684491591
1.17684265544
1.17684038018
1.1768380935
1.17683581104
1.17683355132
1.17683133387
1.17682917385
1.17682708429
1.17682508118
1.17682318233
1.17682139922
1.17681975504
1.17681825699
1.17681697354
1.17681581622
1.17681491514
1.1768143067
1.17681401342
1.17681402381
1.17681438014
1.1768150787
1.17681610115
1.176817505
1.17681923238
1.17685515703
1.17685315833
1.1768511736
1.1768491509
1.17684707845
1.1768449754
1.17684286436
1.17684073382
1.17683857465
1.1768364044
1.17683424443
1.17683211739
1.17683003971
1.17682802667
1.17682609796
1.17682426605
1.17682255736
1.17682097126
1.17681957156
1.17681832661
1.17681724806
1.17681644677
1.17681592164
1.17681569086
1.17681575857
1.17681614373
1.17681680839
1.17681777856
1.17681911436
1.17682069774
1.17685440358
1.17685256705
1.17685075637
1.176848899
1.17684697928
1.17684501873
1.17684304177
1.17684104481
1.17683900448
1.17683693949
1.17683487474
1.17683283428
1.17683083635
1.17682889917
1.17682703903
1.17682527405
1.17682362616
1.17682210624
1.17682078136
1.17681956474
1.17681856815
1.17681784466
1.17681738661
1.17681720807
1.17681731594
1.17681771236
1.17681835182
1.17681927722
1.17682050288
1.17682194716
1.17685373109
1.17685203167
1.17685036589
1.17684864881
1.17684686298
1.17684503079
1.17684317649
1.17684130665
1.17683938353
1.17683742226
1.17683545087
1.176833494
1.17683157309
1.17682970795
1.17682791107
1.17682621262
1.17682461432
1.17682317157
1.17682188256
1.17682071085
1.17681979008
1.17681912863
1.17681872275
1.17681858428
1.17681871756
1.17681911184
1.17681974584
1.17682063482
1.17682179591
1.17682305343
1.17685310991
1.17685152697
1.17684998885
1.17684839859
1.1768467331
1.17684501799
1.17684327765
1.17684152452
1.17683971753
1.17683785864
1.1768359789
1.1768341039
1.17683225801
1.17683046074
1.17682872558
1.1768270868
1.17682553605
1.17682416387
1.17682289179
1.17682177716
1.17682091864
1.17682030598
1.17681994077
1.17681983252
1.17681998195
1.17682037558
1.17682101902
1.17682185753
1.17682297842
1.17682410236
1.17685256161
1.17685107647
1.17684964131
1.17684815668
1.17684659686
1.17684498624
1.17684334981
1.17684170097
1.17684000836
1.17683825104
1.17683646188
1.1768346676
1.17683289508
1.17683116125
1.17682948935
1.17682789693
1.17682640408
1.17682507931
1.17682382324
1.17682276692
1.17682195788
1.17682138615
1.17682105398
1.17682096809
1.17682112939
1.1768215254
1.17682216685
1.17682296221
1.17682403208
1.17682509242
1.1768520569
1.17685065376
1.17684931084
1.17684792129
1.17684645528
1.17684493845
1.17684339677
1.17684184149
1.17684026013
1.17683860356
1.17683690408
1.17683518929
1.17683348776
1.17683181434
1.17683020378
1.17682864941
1.1768272203
1.17682591821
1.17682468887
1.17682368607
1.17682291845
1.17682237861
1.17682207215
1.17682200279
1.17682217551
1.17682257166
1.17682320767
1.17682394993
1.17682502568
1.17682607955
1.17685161631
1.17685027932
1.1768490083
1.17684769767
1.17684631452
1.17684488166
1.17684342542
1.17684195639
1.17684047367
1.17683891902
1.17683730853
1.17683567229
1.17683403848
1.17683242531
1.17683086882
1.17682935309
1.17682798278
1.17682668874
1.17682549817
1.17682453972
1.17682380493
1.17682329031
1.17682300524
1.17682294898
1.17682313291
1.17682351322
1.17682416254
1.17682488741
1.17682603731
1.17682705714
1.176851215
1.176849931
1.17684872415
1.17684748379
1.17684617425
1.1768448168
1.17684343789
1.17684204853
1.17684065248
1.17683919976
1.17683767784
1.17683611917
1.17683454994
1.1768329982
1.17683148476
1.17683001658
1.17682868981
1.17682740149
1.17682625269
1.17682533
1.17682462411
1.17682413134
1.17682386447
1.17682381766
1.17682400845
1.17682437007
1.17682507357
1.17682583211
1.17682701473
1.17682796646
1.17685087658
1.17684962907
1.17684846714
1.17684728345
1.17684603826
1.17684474826
1.17684343895
1.17684212209
1.17684080167
1.17683944902
1.17683801437
1.1768365322
1.17683502543
1.17683353432
1.17683205744
1.17683064175
1.17682934245
1.17682806369
1.17682695564
1.17682606425
1.17682538351
1.17682490889
1.17682465728
1.17682461149
1.1768248177
1.17682518336
1.17682594578
1.17682673426
1.17682791761
1.17682883372
1.1768505765
1.17684935317
1.17684822882
1.17684709503
1.17684590631
1.17684467636
1.17684342978
1.17684217894
1.17684092733
1.17683966599
1.17683831942
1.17683691291
1.17683546822
1.17683403437
1.17683259138
1.17683122842
1.17682994378
1.17682868172
1.17682761171
1.17682674745
1.17682608735
1.17682562857
1.1768253904
1.17682533508
1.17682557931
1.17682597137
1.17682677404
1.17682757206
1.17682874738
1.1768296849
1.17685034378
1.17684912637
1.17684802067
1.17684692176
1.17684578017
1.17684460326
1.17684341303
1.17684222205
1.17684103442
1.176839852
1.1768385946
1.17683726291
1.17683588118
1.17683449883
1.17683309194
1.17683177668
1.17683049801
1.17682926035
1.17682822387
1.17682738223
1.17682674002
1.17682629641
1.17682606995
1.17682600849
1.17682629772
1.17682672691
1.17682754773
1.17682835756
1.17682949384
1.17683049389
1.17685015523
1.1768489326
1.17684783538
1.17684676318
1.17684566024
1.17684452934
1.17684338943
1.17684225276
1.17684112406
1.17684001039
1.17683884154
1.1768375837
1.17683626641
1.17683492838
1.1768335636
1.17683228643
1.17683101007
1.17682980202
1.17682879381
1.17682797239
1.17682734733
1.17682691791
1.17682669938
1.17682664468
1.176826981
1.17682744227
1.17682826127
1.17682908783
1.17683019214
1.17683125157
1.17685003665
1.17684879391
1.17684768543
1.17684662355
1.17684554779
1.17684445537
1.17684336024
1.17684227283
1.17684119805
1.17684014427
1.1768390621
1.17683787718
1.1768366244
1.17683532622
1.17683400732
1.17683275834
1.17683148611
1.17683030865
1.17682932445
1.17682852245
1.17682791344
1.17682749567
1.17682727869
1.17682725853
1.17682762913
1.17682810828
1.17682891326
1.17682977104
1.17683087114
1.17683197236
1.1768499472
1.1768487035
1.1768475726
1.17684650445
1.17684544434
1.17684438202
1.17684332582
1.17684228313
1.17684125787
1.17684025718
1.17683925734
1.17683814487
1.17683695566
1.1768356954
1.17683442321
1.17683319453
1.17683192989
1.17683078195
1.17682981979
1.17682903583
1.17682844047
1.17682803173
1.17682781241
1.17682785481
1.1768282311
1.17682873297
1.17682953672
1.17683041923
1.1768315291
1.17683264666
1.1768499078
1.17684865411
1.17684750667
1.17684641682
1.17684535525
1.17684431117
1.17684328694
1.1768422845
1.17684130494
1.17684035426
1.17683942666
1.1768383881
1.17683726092
1.1768360384
1.17683481168
1.17683359775
1.17683234419
1.17683122424
1.17683028227
1.17682951452
1.1768289305
1.17682852904
1.17682831953
1.17682841722
1.17682878622
1.17682933002
1.1768301336
1.17683104692
1.17683216599
1.17683326243
1.17684993916
1.17684862132
1.17684747378
1.17684636295
1.17684528788
1.17684424763
1.17684324538
1.17684227753
1.17684134008
1.17684043668
1.17683957267
1.17683860859
1.1768375407
1.17683635762
1.1768351737
1.17683397
1.17683273112
1.17683163747
1.17683071387
1.17682996063
1.17682938656
1.17682898965
1.17682880539
1.17682894148
1.17682931808
1.17682989263
1.17683070129
1.17683165957
1.17683277412
1.17683380299
1.176850044
1.17684862775
1.17684746092
1.17684634272
1.17684524556
1.17684419654
1.17684320461
1.17684226375
1.17684136406
1.17684050521
1.17683969784
1.17683880811
1.17683779567
1.17683665567
1.17683550978
1.17683431318
1.17683309252
1.17683202328
1.17683111667
1.17683037679
1.17682981178
1.17682941626
1.17682927119
1.17682943354
1.17682982723
1.17683042592
1.17683124714
1.17683225802
1.17683333394
1.17683426479
1.1768501831
1.17684868259
1.17684745894
1.17684634507
1.17684522944
1.17684416271
1.17684316908
1.17684224569
1.17684137805
1.17684056052
1.17683980424
1.17683898777
1.17683802794
1.17683693358
1.17683582052
1.17683463006
1.17683343054
1.17683238353
1.17683149285
1.17683076516
1.17683020819
1.17682981723
1.17682971391
1.17682990027
1.17683030855
1.17683093313
1.17683177983
1.1768328391
1.17683382073
1.17683464748
1.17685031394
1.17684879976
1.17684748086
1.17684636185
1.17684523663
1.17684414885
1.17684314314
1.17684222683
1.17684138395
1.17684060357
1.17683989359
1.1768391486
1.17683823971
1.17683719184
1.17683610717
1.17683492337
1.17683374683
1.17683271983
1.1768318441
1.17683112744
1.17683057719
1.1768301971
1.17683013452
1.17683034293
1.17683076536