/*--------------------------------*- C++ -*----------------------------------*\
| =========                 |                                                 |
| \\      /  F ield         | OpenFOAM: The Open Source CFD Toolbox           |
|  \\    /   O peration     | Version:  2312                                  |
|   \\  /    A nd           | Website:  www.openfoam.com                      |
|    \\/     M anipulation  |                                                 |
\*---------------------------------------------------------------------------*/
FoamFile
{
    version     2.0;
    format      ascii;
    arch        "LSB;label=32;scalar=64";
    class       volScalarField;
    location    "0.005";
    object      T;
}
// * * * * * * * * * * * * * * * * * * * * * * * * * * * * * * * * * * * * * //

dimensions      [0 0 0 1 0 0 0];

internalField   nonuniform List<scalar> 
19400
(
300.033618303
300.032286381
300.031130354
300.030139481
300.029324319
300.028705733
300.028291786
300.02809718
300.028077358
300.028247764
300.028596462
300.029111659
300.029781804
300.030580928
300.031470387
300.032401593
300.033323851
300.034192938
300.0349725
300.035634469
300.036160372
300.036544598
300.036795919
300.036938966
300.037011951
300.03706327
300.037145865
300.03731248
300.037611179
300.038081273
300.012152727
300.009734895
300.007748515
300.006277327
300.005261874
300.004838163
300.004885555
300.005453071
300.006515577
300.008006719
300.009862007
300.012062147
300.014580417
300.01731666
300.020170096
300.023029837
300.025769789
300.028308858
300.030578636
300.032525488
300.034108043
300.035314814
300.03616642
300.036710911
300.037018208
300.037174686
300.037270319
300.037395346
300.037630204
300.038037645
300.000101683
299.99638014
299.993020106
299.990098274
299.987712928
299.985976909
299.984918665
299.984558637
299.984936173
299.986076879
299.987967204
299.990558652
299.993757234
299.997459176
300.001581103
300.005982559
300.01046222
300.015068481
300.019589001
300.023780351
300.027462792
300.030536285
300.032963515
300.034751406
300.035964672
300.036717366
300.037153459
300.037424312
300.0376706
300.038013421
299.997555765
299.99336076
299.989388746
299.985701563
299.982371582
299.979485532
299.977132215
299.975384223
299.974279974
299.973988769
299.974306907
299.975488148
299.977492536
299.980304382
299.983893085
299.988213522
299.993208804
299.998598885
300.004215477
300.00984725
300.015415481
300.020731087
300.025432317
300.029318951
300.032324004
300.034482361
300.035916136
300.036812004
300.037379811
300.037824912
299.998521
299.994437092
299.990478445
299.986696328
299.983141754
299.97986767
299.976934867
299.974405002
299.972322729
299.970785585
299.969772031
299.9695639
299.969826348
299.970950851
299.972899555
299.975686253
299.979322808
299.983781372
299.988993439
299.994875249
300.001238863
300.007607332
300.013766089
300.019736184
300.025022666
300.029306582
300.032517454
300.034739874
300.036179045
300.037099548
300.000184377
299.996433493
299.992753192
299.989182559
299.985759076
299.98251975
299.979499012
299.976734439
299.974264426
299.972150209
299.970423013
299.969212031
299.968390371
299.968284599
299.968559204
299.969647636
299.971554176
299.974303459
299.977938957
299.982486911
299.987922706
299.994126566
300.000974607
300.007879643
300.014457357
300.020749369
300.026191449
300.030393203
300.033374898
300.035331437
300.001499041
299.998099463
299.994744587
299.991465961
299.988293292
299.985254318
299.982374873
299.97967985
299.977184813
299.974912682
299.972885401
299.971165921
299.969783001
299.96884699
299.968313545
299.968333648
299.968719642
299.969862934
299.971822333
299.974648813
299.978427892
299.983215791
299.989009907
299.995668837
300.002991645
300.010207711
300.01705139
300.023310532
300.028352922
300.031964934
300.00243013
299.999343912
299.996287176
299.993286669
299.990367263
299.987552405
299.984862067
299.982316969
299.979930886
299.977717434
299.975678713
299.97382666
299.972177343
299.970791137
299.969693467
299.968992561
299.968752807
299.968857254
299.969420709
299.970745802
299.972907751
299.976002813
299.980157584
299.985443861
299.991833278
299.999103132
300.006878543
300.014103294
300.020892734
300.026543794
300.003062308
300.000250683
299.997457317
299.994705331
299.992016441
299.989410787
299.986906087
299.984518518
299.982261684
299.980144771
299.978174556
299.976356817
299.97469464
299.973179037
299.971819197
299.970683379
299.969849252
299.969348057
299.969346148
299.969558551
299.970384345
299.97203399
299.974583901
299.97819774
299.983023109
299.989103892
299.996322483
300.004278148
300.011914701
300.018993926
300.003471233
300.00090202
299.998340897
299.995809437
299.993326891
299.990910802
299.988577188
299.986339282
299.984209675
299.982197245
299.980306708
299.978542907
299.97691128
299.975406521
299.974032527
299.972751472
299.971611995
299.970673191
299.970062937
299.969798064
299.969874232
299.970320417
299.971565994
299.973702948
299.976900432
299.981359053
299.987192516
299.994318236
300.002363311
300.010289643
300.003720228
300.001360792
299.999004717
299.996669486
299.994371807
299.992127162
299.989949718
299.987851318
299.985842885
299.983932806
299.982125038
299.980423934
299.978834189
299.977352454
299.97598159
299.974707988
299.973526814
299.972397893
299.971422049
299.970684372
299.970257618
299.970213093
299.97040775
299.971310642
299.973124995
299.976006854
299.980194945
299.985850216
299.992928556
300.001050247
300.003839455
300.001671186
299.999499013
299.997339368
299.995207865
299.993118547
299.991083778
299.989114712
299.987220148
299.985408003
299.983684467
299.98205062
299.980509302
299.979060204
299.977702957
299.976433665
299.975243578
299.974131808
299.97303885
299.97203013
299.971197211
299.970654176
299.97043063
299.970502397
299.971108253
299.972677275
299.975334623
299.979346116
299.98491252
299.992001677
300.003877488
300.001874038
299.999863497
299.997860572
299.995878803
299.993930422
299.992026424
299.990176776
299.988389459
299.986671506
299.985028651
299.983462253
299.981974372
299.980565393
299.979233151
299.97797644
299.976786065
299.975663098
299.974586615
299.973531547
299.972488088
299.97159257
299.970914112
299.97057688
299.97049094
299.970861473
299.972257387
299.974774973
299.978707162
299.984274901
300.003843607
300.001988946
300.000125255
299.998264497
299.996418505
299.994598453
299.992814373
299.991075211
299.989388404
299.987760211
299.986195484
299.984696231
299.983264021
299.981899418
299.980599955
299.979364247
299.978185023
299.977059679
299.975977981
299.974930134
299.973884012
299.972818772
299.971839703
299.971071268
299.970628687
299.970320175
299.970596337
299.971851298
299.974298279
299.978234624
300.003761244
300.002039858
300.000309369
299.99857694
299.996853872
299.995150646
299.993476641
299.991839759
299.990246993
299.988703781
299.987214578
299.985781903
299.984406453
299.983088959
299.981827324
299.980619416
299.979460104
299.978344138
299.977264379
299.97621233
299.975173539
299.974123238
299.973022121
299.971969229
299.971133855
299.970531656
299.970086581
299.970279437
299.971448489
299.973896419
300.003646224
300.002049384
300.000435356
299.998817106
299.997205262
299.995608821
299.994036052
299.992494067
299.990989256
299.989526572
299.988109962
299.986742316
299.985423953
299.984155422
299.982935007
299.981760266
299.980627118
299.979529626
299.978460923
299.977413963
299.976375803
299.975339336
299.974264087
299.973117957
299.972010608
299.97108014
299.9703361
299.969794008
299.969917199
299.971063872
300.003506694
300.002016715
300.000510176
299.998998107
299.997488491
299.995990312
299.994511065
299.993057301
299.991634829
299.990248327
299.988901364
299.987596708
299.986334744
299.985116036
299.983939111
299.982801201
299.981699089
299.98062732
299.979579065
299.978547353
299.977520784
299.976490579
299.975442332
299.974328996
299.973142153
299.971964499
299.970927619
299.970078084
299.969498494
299.969546206
300.003351105
300.00195861
300.00054887
299.999133132
299.997717582
299.996309867
299.994916978
299.99354514
299.992199718
299.990885084
299.989604654
299.988360802
299.987154125
299.985985375
299.984853469
299.98375582
299.982689101
299.981648462
299.980627625
299.979619553
299.978614538
299.977601262
299.976572162
299.97549622
299.974346478
299.973111933
299.971845151
299.970719446
299.969824744
299.969246787
300.003185117
300.00188226
300.000561588
299.999233896
299.997904102
299.996579172
299.995265907
299.99397007
299.992696653
299.991449785
299.990232706
299.989047726
299.987895531
299.986776702
299.985690689
299.98463529
299.983607089
299.982601791
299.98161374
299.980636152
299.9796603
299.978675465
299.977671391
299.976633486
299.97552819
299.974338587
299.973043874
299.971695503
299.970525008
299.969615546
300.003014231
300.001793033
300.000555852
299.99930729
299.9980555
299.996806673
299.995567067
299.994342092
299.993136216
299.991953447
299.99079673
299.989668345
299.988569714
299.987500688
299.986460785
299.985448543
299.98446099
299.983494222
299.982543101
299.981601402
299.980661074
299.979712676
299.978744683
299.977746858
299.976693971
299.975563156
299.974331234
299.972973333
299.971575708
299.97039034
300.002841023
300.001694213
300.00053108
299.99935592
299.998177152
299.996999034
299.995828117
299.994669326
299.99352695
299.992404785
299.991305652
299.99023176
299.989184863
299.988164696
299.987171044
299.986202778
299.985257388
299.984331443
299.983420455
299.982518675
299.981619037
299.98071298
299.97979011
299.978838892
299.977845819
299.976781911
299.975628633
299.974357307
299.972944894
299.971541464
300.002668508
300.001589595
300.00049339
299.999386245
299.998274851
299.997162553
299.996055597
299.994958736
299.993876025
299.992811156
299.991766832
299.990745339
299.989748352
299.988775997
299.987828232
299.986904121
299.986001779
299.985118212
299.984249552
299.983390749
299.982535665
299.981676575
299.980804581
299.979908508
299.978977035
299.977991575
299.976926258
299.975758841
299.974454954
299.973009763
300.002498644
300.001482511
300.000449028
299.999403849
299.998354031
299.997302603
299.996255142
299.995216153
299.994189524
299.993178743
299.992186546
299.99121524
299.990266467
299.989340635
299.988437981
299.987557882
299.986698855
299.985858499
299.9850336
299.984219798
299.983411959
299.982603207
299.981786112
299.980950871
299.980086734
299.979181104
299.978214127
299.977159965
299.975991239
299.974661795
300.002332843
300.001374321
300.000398588
299.999410717
299.998418169
299.997423288
299.996431274
299.995446383
299.994472435
299.993512733
299.992570066
299.991646715
299.990744385
299.989863728
299.989005187
299.988168516
299.987352655
299.98655582
299.985775371
299.985007744
299.984248731
299.983492602
299.982732961
299.981961948
299.981169731
299.980346787
299.979477011
299.978545942
299.977520522
299.976367056
300.0021723
300.001266733
300.000344265
299.999410336
299.998470458
299.997528081
299.996587643
299.995653388
299.994728925
299.993817466
299.992921804
299.99204422
299.991186543
299.990349598
299.989533913
299.988739789
299.987966649
299.987213138
299.986477276
299.985756254
299.985046814
299.984344392
299.983643554
299.982938633
299.982220445
299.98148238
299.980711926
299.979897939
299.979021606
299.978045565
300.00201778
300.001161083
300.000287914
299.999403591
299.998512855
299.997619616
299.996727283
299.995840402
299.99496248
299.994096548
299.993245461
299.992411494
299.99159664
299.990802057
299.990027632
299.989275052
299.98854382
299.987833051
299.987141426
299.986466868
299.985806927
299.985158382
299.984516749
299.983877866
299.983234597
299.982582784
299.981911286
299.981208968
299.980472477
299.97968528
300.00186981
300.001058294
300.000230832
299.99939235
299.998547312
299.997699827
299.996852573
299.996010139
299.995175973
299.99435305
299.993544205
299.992751688
299.991977737
299.991224413
299.990489536
299.989777209
299.989086831
299.988417903
299.987769762
299.987140867
299.98652992
299.985934668
299.985351116
299.984778019
299.984209892
299.983639932
299.983065062
299.982483691
299.98188778
299.981248908
300.001728812
300.000959043
300.000173956
299.999378017
299.998575467
299.997770661
299.996965575
299.996164894
299.995371911
299.994589567
299.993820754
299.993067557
299.992332144
299.991615313
299.990921757
299.990248758
299.989597957
299.988969775
299.988363845
299.987779595
299.987216737
299.986672696
299.986146629
299.985638702
299.985138829
299.984651489
299.984184582
299.983703635
299.983192531
299.982676231
300.001594955
300.000863898
300.000118032
299.999361686
299.998598763
299.997833693
299.997068104
299.996306572
299.995552366
299.994808386
299.994077438
299.993361766
299.992663629
299.991984635
299.991327512
299.990691948
299.990079417
299.9894905
299.988925281
299.988384668
299.98786747
299.987373287
299.986904492
299.986453688
299.986023608
299.985630413
299.985225688
299.984800688
299.984423975
299.984073467
300.001468364
300.000773191
300.000063767
299.999344256
299.998618249
299.997890269
299.997161626
299.996436873
299.995719165
299.995011416
299.994316362
299.993636392
299.992973789
299.992330466
299.991708566
299.99110876
299.990533176
299.989981559
299.989455997
299.988956896
299.988482794
299.988039168
299.987620032
299.987225125
299.986877711
299.986528001
299.98616685
299.98586615
299.985618022
299.985389466
300.001349091
300.000687221
300.000011649
299.99932621
299.998634755
299.997941441
299.997247418
299.996557201
299.995873863
299.995200346
299.994539259
299.993893241
299.993264264
299.992654928
299.992066635
299.99150122
299.990960749
299.990444639
299.989957724
299.989496533
299.989065793
299.988668694
299.988291825
299.987968083
299.987664909
299.987340854
299.987082598
299.986883834
299.986735944
299.986648875
300.001237071
300.000606151
299.999962093
299.999308474
299.998649157
299.997988131
299.997326538
299.996668764
299.996017837
299.995376637
299.99474768
299.994133843
299.993536728
299.992959809
299.992403249
299.991871147
299.991363329
299.990881846
299.990431171
299.990005182
299.98961871
299.989257617
299.988932404
299.988667696
299.988372847
299.988122907
299.987952457
299.987845046
299.98781807
299.987852208
300.0011322
300.000530093
299.999915343
299.999291471
299.998662106
299.998031182
299.997399954
299.996772647
299.996152239
299.995541521
299.994942987
299.994359566
299.993792682
299.993246527
299.992719993
299.992219939
299.99174225
299.991295152
299.990876404
299.990486341
299.990139629
299.989809552
299.989546485
299.989298848
299.989039096
299.988870119
299.98877958
299.988774597
299.988829668
299.98894288
300.001034339
300.00045905
299.999871627
299.999275463
299.998674131
299.998071285
299.997468482
299.996869799
299.996278101
299.995696131
299.995126336
299.994571627
299.994033494
299.993516297
299.993018417
299.992548632
299.9920993
299.991685553
299.991294634
299.990942818
299.990625661
299.990334148
299.99012075
299.989875998
299.989676189
299.989580309
299.989575601
299.989631257
299.989743959
299.989934989
300.000943308
300.000393023
299.999831086
299.999260804
299.998685638
299.998109007
299.997532832
299.996961015
299.996396333
299.995841408
299.99529878
299.994771133
299.994260298
299.99377024
299.993299941
299.992858124
299.992436366
299.992053278
299.991688653
299.991374273
299.991078366
299.9908362
299.990643632
299.990415588
299.990285715
299.990264245
299.990308056
299.990405447
299.990576467
299.990837384
300.00085889
300.000331981
299.99979381
299.999247691
299.998696951
299.998144819
299.997593585
299.997046966
299.996507668
299.995978221
299.995461204
299.994959073
299.994474106
299.994009502
299.993565648
299.993149501
299.992754903
299.992398816
299.992061328
299.991778745
299.991504346
299.991311831
299.991120233
299.990929204
299.990872013
299.990896386
299.990971535
299.991111027
299.991333324
299.991652747
300.000780821
300.000275812
299.999759887
299.999236331
299.998708426
299.998179165
299.997651274
299.997128274
299.996612821
299.996107366
299.995614446
299.995136409
299.994675831
299.994235172
299.99381647
299.993423992
299.993055917
299.992723414
299.992414146
299.992156183
299.991909335
299.991751269
299.991559585
299.991426399
299.991422432
299.991473194
299.991576636
299.991753497
299.992017885
299.992384138
300.000708879
300.000224388
299.999729306
299.999226901
299.998720315
299.998212421
299.997706365
299.997205522
299.99671245
299.996229544
299.99575931
299.995303976
299.994866312
299.994448299
299.994053204
299.993682927
299.993340066
299.993028715
299.992747631
299.992508675
299.992293545
299.992154923
299.991974063
299.991904597
299.991929
299.99199855
299.992128656
299.992335899
299.992633192
299.993035001
300.000642752
300.000177606
299.999702087
299.99921953
299.998732868
299.998244932
299.997759316
299.99727922
299.996807151
299.996345439
299.995896498
299.995462552
299.995046362
299.994649793
299.994276657
299.993927526
299.993607954
299.993316482
299.993061975
299.992838717
299.992657076
299.992530324
299.992368779
299.992351592
299.992392141
299.992478763
299.99263097
299.992861603
299.993183157
299.993609689
300.000582173
300.000135282
299.999678212
299.99921432
299.998746251
299.998277001
299.997810516
299.997349867
299.996897471
299.996455619
299.99602666
299.995612808
299.99521674
299.994840483
299.994487668
299.994158854
299.993860295
299.993588382
299.993357341
299.99314915
299.992999628
299.992875394
299.992752871
299.99276227
299.992814597
299.992917713
299.993087358
299.993334987
299.993672435
299.99411346
300.000526805
300.000097224
299.999657594
299.999211291
299.998760651
299.998308901
299.997860344
299.997417864
299.99698383
299.996560547
299.996150292
299.995755299
299.99537814
299.995021006
299.994687102
299.994377733
299.994098002
299.993845712
299.993634109
299.993442743
299.993319756
299.993197993
299.993116018
299.993140543
299.993203022
299.993319788
299.993502072
299.993760347
299.994105451
299.994552392
300.000476316
300.000063209
299.999640112
299.999210221
299.99877612
299.998340869
299.997909072
299.997483462
299.997066503
299.996660526
299.996267766
299.995890506
299.995531099
299.995191961
299.994875777
299.994584811
299.994322169
299.994089273
299.99389333
299.993721537
299.993616989
299.993502756
299.993455541
299.993489605
299.993562278
299.993688579
299.993878322
299.994140933
299.994486553
299.994935357
300.000430333
300.000032956
299.999625597
299.999211326
299.998792744
299.99837308
299.997956839
299.997546814
299.997145671
299.996755815
299.996379459
299.996018791
299.995676118
299.995353894
299.995054399
299.994780671
299.994533937
299.994319542
299.994136727
299.993986326
299.993892151
299.993792986
299.993772737
299.993813348
299.993893754
299.994025656
299.994218735
299.994480213
299.994820516
299.995260961
300.000388462
300.000006196
299.999613892
299.999214477
299.99881065
299.998405697
299.998003724
299.997608023
299.997221543
299.996846735
299.99648568
299.996140602
299.995813664
299.995507305
299.995223562
299.994965879
299.994734346
299.994536847
299.994366426
299.994236797
299.994147843
299.99407093
299.994068252
299.994113768
299.994198786
299.994333436
299.994526241
299.994782069
299.995113992
299.995520228
300.000350289
299.999982614
299.999604814
299.999219672
299.998830231
299.998438747
299.998049707
299.997667258
299.997294456
299.996933679
299.99658693
299.99625644
299.99594423
299.99565271
299.995383829
299.995141006
299.994924257
299.994741623
299.994584468
299.994472238
299.994387796
299.994336331
299.994343511
299.99439258
299.994479308
299.994615252
299.994804054
299.995050594
299.995365305
299.995736263
300.000315344
299.999961748
299.999597987
299.99922678
299.99885073
299.998471713
299.998094636
299.997724637
299.997364727
299.997017066
299.996683704
299.996366821
299.996068341
299.995790648
299.995535728
299.995306709
299.995104234
299.99493465
299.99479188
299.994692584
299.994615351
299.994587224
299.994601034
299.994651156
299.994738909
299.994873397
299.995054167
299.995290139
299.995578639
299.995918381
300.000283087
299.999942924
299.999592725
299.999234836
299.998871071
299.998503651
299.998137935
299.997779789
299.997432095
299.99709682
299.996776109
299.996471965
299.996186329
299.995921568
299.995679735
299.995463592
299.995274692
299.995116912
299.994988798
299.994898731
299.994832882
299.99482337
299.994841421
299.994891588
299.994980756
299.995110387
299.995281673
299.995504554
299.995764234
299.996067449
300.000252961
299.999925496
299.999588227
299.999242714
299.998890068
299.99853347
299.998178631
299.997831732
299.997495582
299.997172109
299.996863509
299.996571448
299.996298054
299.996045564
299.995816068
299.995612059
299.995435941
299.995289156
299.995175125
299.995092379
299.995041452
299.995043607
299.995065445
299.995115404
299.995204888
299.995328826
299.995488613
299.995696378
299.99592918
299.996197647
300.000224719
299.999909455
299.999584284
299.999249919
299.998907484
299.998561146
299.998216808
299.997880244
299.997554839
299.997242477
299.996945301
299.996664776
299.996403093
299.996162281
299.995944645
299.995752308
299.995588337
299.995451988
299.995351358
299.99527516
299.995239782
299.995249315
299.99527605
299.995326876
299.995415795
299.995533782
299.995680449
299.995868832
299.996074868
299.996314546
300.00019871
299.999896162
299.999581539
299.999256857
299.99892601
299.998591321
299.998256021
299.997928717
299.997613061
299.997310846
299.997023895
299.996753806
299.996502566
299.996272347
299.996066134
299.995885174
299.995732544
299.995606559
299.995517914
299.995448299
299.995426338
299.995440548
299.995471818
299.995523709
299.995610264
299.995720864
299.995858433
299.996026654
299.996208029
299.996431583
300.000170517
299.999886253
299.999588717
299.999279664
299.998962702
299.998640063
299.998314061
299.997995013
299.997687501
299.997393088
299.997113279
299.996849713
299.996604928
299.996381759
299.996182611
299.996010348
299.995866929
299.995753378
299.995674114
299.995618131
299.995613357
299.995633363
299.995672795
299.995732785
299.995820694
299.995928904
299.996063682
299.996214707
299.996379642
299.996575283
300.000137319
299.999876445
299.999601232
299.999311408
299.999008975
299.998697522
299.998380113
299.998066236
299.997763833
299.99747452
299.997199692
299.996940985
299.996701568
299.996484678
299.996292551
299.996128588
299.995993268
299.99589363
299.995819765
299.99578592
299.995794023
299.995821096
299.995869933
299.995940478
299.99603236
299.996141504
299.99627206
299.996411009
299.996556605
299.996716048
300.000109905
299.999869635
299.999613098
299.999339851
299.999051474
299.998751599
299.998443553
299.998135011
299.997837715
299.997553376
299.997283055
299.997028682
299.996793881
299.996581908
299.996396077
299.99623925
299.996113622
299.996023495
299.995958057
299.995945275
299.995961034
299.99599569
299.996052531
299.996130155
299.996225064
299.996334068
299.996455786
299.996583573
299.996711174
299.996841541
300.0000812
299.999860346
299.999622799
299.999366945
299.999093139
299.998804934
299.998506245
299.998202359
299.99790876
299.99762839
299.997361893
299.997111563
299.996881031
299.996673728
299.996494421
299.99634373
299.996229125
299.996143703
299.996094137
299.996095142
299.996116372
299.996158257
299.99622193
299.996304531
299.996401373
299.996509007
299.996620989
299.996742785
299.996847529
299.996968014
300.000055799
299.999853444
299.999633095
299.999393064
299.999133401
299.998856663
299.998566948
299.998268191
299.997976849
299.997699425
299.997436111
299.997189423
299.996962737
299.996760248
299.996587015
299.996443015
299.996338364
299.996257404
299.996226203
299.996235105
299.996261941
299.996310728
299.996380189
299.996466338
299.99656385
299.996668688
299.996771385
299.996887078
299.99697066
299.997078736
300.000026766
299.999842369
299.999640022
299.99941656
299.999171156
299.998906195
299.998625632
299.998333193
299.998042903
299.997767325
299.997506475
299.997262854
299.997039598
299.996842224
299.996673719
299.996538516
299.996439719
299.996367324
299.996352579
299.996366507
299.996399302
299.996453851
299.99652795
299.996616675
299.996714064
299.996815431
299.996910266
299.997017854
299.997088797
299.997174505
299.99999967
299.999832764
299.999646424
299.999438135
299.999206761
299.998953669
299.998682375
299.998397152
299.998107192
299.99783241
299.997573238
299.997332128
299.997112104
299.996919767
299.99675544
299.996630008
299.996534199
299.996475022
299.996472046
299.996489937
299.996528286
299.996588239
299.996666374
299.996756773
299.996853017
299.996950771
299.997037775
299.997141376
299.997190778
299.99724473
299.999968083
299.999818789
299.999649521
299.99945686
299.999239296
299.998998085
299.998736372
299.998458484
299.998170636
299.99789512
299.997636775
299.997397561
299.997180803
299.99699269
299.99683343
299.996716516
299.996623697
299.996579948
299.996583933
299.996606112
299.996650116
299.996714935
299.996796187
299.996887212
299.996981518
299.997078176
299.997153741
299.997245492
299.997260432
299.997295454
299.999937057
299.999805295
299.999651481
299.999473408
299.999269284
299.999039859
299.998787849
299.998517362
299.998233318
299.997955887
299.99769748
299.997459553
299.997246076
299.997061047
299.99690875
299.99679707
299.996709949
299.996680841
299.996689486
299.996716374
299.996765237
299.996833911
299.996917434
299.997008569
299.997100931
299.997196897
299.997251076
299.997319549
299.997313452
299.997344835
299.999899646
299.999786592
299.999649966
299.99948705
299.99929622
299.999078488
299.998836339
299.998573538
299.998294815
299.998014851
299.997755707
299.997518495
299.997308044
299.997125529
299.996981145
299.996872336
299.996793892
299.996777205
299.996789357
299.996820588
299.996873659
299.996945616
299.997030738
299.997123094
299.997210283
299.997299991
299.9973314
299.997379952
299.997362574
299.997387693
299.999861159
299.999767285
299.999646921
299.999498285
299.999320484
299.999114368
299.998882145
299.998627224
299.998354337
299.998073029
299.997811992
299.997574868
299.997366795
299.997186858
299.997050119
299.996943366
299.996875853
299.996868627
299.996883704
299.996919014
299.996976023
299.997050642
299.997136524
299.997232069
299.997307513
299.99738529
299.997398996
299.99743477
299.997408633
299.997416695
299.999813439
299.999741036
299.999639296
299.999506442
299.999341961
299.999147412
299.998925159
299.998678329
299.998411348
299.998130836
299.997866705
299.997629079
299.997422395
299.997245765
299.997115349
299.997011076
299.99695577
299.996955011
299.996973008
299.997012366
299.997072791
299.997149208
299.997235129
299.997332486
299.997393731
299.997456776
299.997458726
299.997482001
299.997454748
299.997437259
299.999761657
299.999711499
299.999628804
299.999511713
299.999360794
299.999177908
299.99896568
299.998727072
299.998466179
299.998188087
299.997920146
299.997681464
299.997475082
299.997302877
299.997176511
299.997076355
299.997033323
299.997036765
299.997057958
299.997100937
299.997163951
299.99724145
299.997327333
299.997422846
299.997468962
299.99751812
299.997513327
299.997523236
299.997492401
299.997451023
299.99969865
299.999672704
299.999612174
299.99951312
299.999376913
299.99920602
299.999003834
299.998773524
299.99851893
299.99824459
299.9979725
299.997732228
299.997525425
299.997358097
299.997234101
299.997139849
299.997107819
299.997114333
299.997138816
299.997184768
299.997249779
299.997327957
299.997414647
299.997500918
299.997534696
299.997573
299.997564493
299.997557425
299.997514921
299.997454405
299.999634286
299.999626075
299.999588824
299.999510329
299.999390129
299.999231879
299.999039905
299.998817913
299.998569738
299.998300008
299.99802408
299.9977816
299.997573928
299.9974113
299.997288807
299.99720175
299.997179088
299.997188098
299.997215531
299.997264119
299.997330755
299.997409384
299.997497465
299.997566826
299.997594491
299.997620626
299.997605384
299.997582563
299.997523881
299.997450527
299.999562728
299.999573214
299.999556174
299.999500602
299.999399281
299.999255295
299.999074064
299.998860438
299.998618703
299.998353538
299.99807558
299.997829799
299.997620996
299.99746248
299.997341164
299.997262059
299.997247123
299.997258268
299.997288421
299.997339395
299.997407262
299.997486256
299.997572245
299.99762555
299.997649555
299.997659444
299.997636506
299.997595511
299.997520615
299.997443427
299.999478269
299.999520039
299.999517645
299.999483419
299.999402669
299.999275305
299.999106178
299.998901324
299.998666041
299.998405329
299.998126834
299.997876913
299.997667037
299.997511587
299.997391529
299.997320871
299.997312058
299.997325099
299.997357803
299.997410842
299.997479515
299.99755919
299.997638486
299.997678989
299.997695646
299.997693014
299.997658189
299.997595772
299.997508776
299.997438489
299.999379837
299.999460536
299.999476465
299.999458842
299.999399587
299.999290842
299.999135671
299.998940539
299.998711928
299.998455611
299.998177659
299.997922965
299.997712377
299.997558479
299.997440321
299.997378275
299.997374064
299.997388863
299.997423881
299.997478542
299.997547655
299.997628386
299.997696614
299.997726759
299.997734188
299.99771993
299.997669598
299.99758516
299.99749458
299.997437757
299.999277105
299.99939212
299.999434853
299.999429724
299.999389876
299.999300893
299.999161685
299.998977742
299.998756432
299.998504589
299.998227927
299.997968117
299.997756947
299.997603387
299.997487885
299.997434095
299.997433175
299.997449711
299.997486771
299.997542654
299.997612004
299.997692461
299.997748214
299.997768287
299.997767274
299.997739096
299.997671114
299.997566048
299.997484958
299.997442782
299.999180612
299.999311056
299.999389388
299.999398139
299.999374385
299.999304967
299.999183364
299.999012359
299.998799389
299.99855237
299.998277577
299.998012508
299.997800605
299.99764664
299.997534373
299.99748813
299.997489518
299.997507833
299.997546636
299.997603421
299.997672944
299.997750941
299.99779388
299.99780425