/*--------------------------------*- C++ -*----------------------------------*\
| =========                 |                                                 |
| \\      /  F ield         | OpenFOAM: The Open Source CFD Toolbox           |
|  \\    /   O peration     | Version:  2312                                  |
|   \\  /    A nd           | Website:  www.openfoam.com                      |
|    \\/     M anipulation  |                                                 |
\*---------------------------------------------------------------------------*/
FoamFile
{
    version     2.0;
    format      ascii;
    arch        "LSB;label=32;scalar=64";
    class       volScalarField;
    location    "0.005";
    object      thermo:psiGasEff;
}
// * * * * * * * * * * * * * * * * * * * * * * * * * * * * * * * * * * * * * //

dimensions      [-2 4 2 0 0 0 0];

internalField   nonuniform List<scalar> 
19400
(
8.39022791702e-06
8.39134555008e-06
8.39240553914e-06
8.39339412927e-06
8.3943002543e-06
8.39511519558e-06
8.39583129764e-06
8.39644444273e-06
8.39695031083e-06
8.39734869017e-06
8.39764158148e-06
8.39783334907e-06
8.39793086267e-06
8.39794312842e-06
8.39788041635e-06
8.39775155284e-06
8.39756714092e-06
8.39734107929e-06
8.39708579133e-06
8.39681197857e-06
8.39653015842e-06
8.39624922295e-06
8.39597585913e-06
8.39571551765e-06
8.39547301373e-06
8.39525219213e-06
8.39505587906e-06
8.39488674282e-06
8.39474729408e-06
8.39463936275e-06
8.38907850906e-06
8.39011230728e-06
8.39111467062e-06
8.39207498512e-06
8.39295990193e-06
8.39377590715e-06
8.39451389388e-06
8.39516699471e-06
8.39572827834e-06
8.3961927334e-06
8.3965587861e-06
8.39682898319e-06
8.39700831898e-06
8.39710208943e-06
8.39711755801e-06
8.39706634244e-06
8.39696205283e-06
8.39681474445e-06
8.39662974276e-06
8.39641606672e-06
8.39618696398e-06
8.3959529459e-06
8.39572093445e-06
8.39549739423e-06
8.39528697952e-06
8.39509310143e-06
8.39491919998e-06
8.39476865615e-06
8.39464409562e-06
8.39454760347e-06
8.38778975828e-06
8.38869629493e-06
8.38957647446e-06
8.39042188781e-06
8.39124062604e-06
8.39201001975e-06
8.39271778242e-06
8.39336190553e-06
8.39393898153e-06
8.39444538283e-06
8.39487887472e-06
8.39523869187e-06
8.39552462417e-06
8.39573782304e-06
8.39588225031e-06
8.39596271214e-06
8.39598288051e-06
8.39595490743e-06
8.3958888993e-06
8.39579503278e-06
8.39567871068e-06
8.39554014871e-06
8.39538410405e-06
8.39522089882e-06
8.39505744942e-06
8.39489954616e-06
8.39475234373e-06
8.39462045267e-06
8.39450843291e-06
8.39442058893e-06
8.38686519795e-06
8.38766119559e-06
8.38843975337e-06
8.38919355358e-06
8.38991704793e-06
8.39060208678e-06
8.39124405572e-06
8.39183662855e-06
8.3923762789e-06
8.39286523724e-06
8.39329596628e-06
8.39367446804e-06
8.39399994963e-06
8.39427426867e-06
8.39449989897e-06
8.39468001139e-06
8.39481839974e-06
8.39491453187e-06
8.39497260566e-06
8.39499489653e-06
8.39498899518e-06
8.39496326607e-06
8.39492012323e-06
8.39485539636e-06
8.39476804156e-06
8.39466661301e-06
8.39455893827e-06
8.39445298218e-06
8.39435605731e-06
8.39427576687e-06
8.38626775011e-06
8.3869715871e-06
8.38766270289e-06
8.38833455031e-06
8.38898085674e-06
8.38959602589e-06
8.3901751456e-06
8.39071450127e-06
8.39121165458e-06
8.39166668644e-06
8.39207633276e-06
8.39244489872e-06
8.39275961377e-06
8.3930364653e-06
8.39327805832e-06
8.39348839958e-06
8.39367232391e-06
8.39383284749e-06
8.39397174371e-06
8.39409138651e-06
8.3941929416e-06
8.39426961276e-06
8.39431967606e-06
8.39435238314e-06
8.39436787365e-06
8.39435792326e-06
8.39431828898e-06
8.39426015054e-06
8.39419353235e-06
8.39413058014e-06
8.38587710525e-06
8.38650730394e-06
8.38712778696e-06
8.38773273061e-06
8.38831673953e-06
8.38887500863e-06
8.38940334447e-06
8.38989850374e-06
8.3903584445e-06
8.39078143363e-06
8.39116525655e-06
8.39151254785e-06
8.39181991429e-06
8.39209796473e-06
8.3923341085e-06
8.39254065884e-06
8.39272652673e-06
8.39289788817e-06
8.39306013053e-06
8.3932164937e-06
8.39336817034e-06
8.39351389279e-06
8.39365328614e-06
8.39377532029e-06
8.39387256557e-06
8.39395011161e-06
8.39400538887e-06
8.39402693195e-06
8.39401589428e-06
8.39398894632e-06
8.38560856757e-06
8.38617693474e-06
8.38673830696e-06
8.38728761354e-06
8.38782015597e-06
8.38833167604e-06
8.38881840435e-06
8.38927710998e-06
8.38970483515e-06
8.39010056454e-06
8.39046269597e-06
8.39079252008e-06
8.39109152671e-06
8.39136093272e-06
8.39159977962e-06
8.39181506424e-06
8.39200029359e-06
8.39216539141e-06
8.39232171822e-06
8.39247767613e-06
8.39263892317e-06
8.39280677186e-06
8.39298090445e-06
8.39315839939e-06
8.39333488266e-06
8.39349155529e-06
8.39362399262e-06
8.39373161696e-06
8.3938054483e-06
8.39384226973e-06
8.38542435804e-06
8.38593942904e-06
8.38644978991e-06
8.38695101067e-06
8.38743896855e-06
8.38790989281e-06
8.38836040959e-06
8.38878764959e-06
8.38918917744e-06
8.38956270679e-06
8.38990792263e-06
8.3902243006e-06
8.39051214515e-06
8.39077267503e-06
8.39100810814e-06
8.3912232425e-06
8.39141873303e-06
8.39159362578e-06
8.39174963596e-06
8.39189585376e-06
8.39204600697e-06
8.39220821661e-06
8.39238648033e-06
8.39258045666e-06
8.39278766001e-06
8.39300169314e-06
8.39321246512e-06
8.39339283419e-06
8.39354949404e-06
8.3936737864e-06
8.38530062154e-06
8.38576938137e-06
8.38623522868e-06
8.38669427523e-06
8.38714289193e-06
8.38757775771e-06
8.3879958948e-06
8.38839470792e-06
8.38877207917e-06
8.3891261252e-06
8.3894561453e-06
8.38976125217e-06
8.39004120949e-06
8.39029631627e-06
8.39052810566e-06
8.39073905113e-06
8.39093334254e-06
8.39111432344e-06
8.3912854272e-06
8.39143839886e-06
8.3915819038e-06
8.3917292262e-06
8.39189440723e-06
8.39208304327e-06
8.39229525304e-06
8.39252900156e-06
8.39277938552e-06
8.39303467962e-06
8.39326584444e-06
8.39347038119e-06
8.38522062773e-06
8.38564893913e-06
8.38607570114e-06
8.38649752247e-06
8.38691120717e-06
8.38731381518e-06
8.38770271686e-06
8.38807560486e-06
8.38843059802e-06
8.38876616308e-06
8.38908098551e-06
8.38937476844e-06
8.389647156e-06
8.38989815145e-06
8.39012855208e-06
8.3903385965e-06
8.39053176567e-06
8.39071093491e-06
8.39088216469e-06
8.39104705275e-06
8.39120387077e-06
8.39135005882e-06
8.39150124473e-06
8.39167388136e-06
8.39187589651e-06
8.39210896417e-06
8.39237197721e-06
8.39265985778e-06
8.39296028842e-06
8.39324374759e-06
8.38517261076e-06
8.38556525417e-06
8.38595750273e-06
8.38634631702e-06
8.38672885073e-06
8.38710249447e-06
8.38746490386e-06
8.38781402918e-06
8.38814814138e-06
8.3884658455e-06
8.38876592325e-06
8.38904826458e-06
8.38931224163e-06
8.38955787118e-06
8.38978576107e-06
8.38999653336e-06
8.3901913558e-06
8.39037100061e-06
8.3905405053e-06
8.39070446523e-06
8.39086800886e-06
8.39103145019e-06
8.39118471873e-06
8.39134419744e-06
8.39152899954e-06
8.39174958635e-06
8.39200923046e-06
8.39230727167e-06
8.39263853176e-06
8.39298899895e-06
8.385147628e-06
8.38550889918e-06
8.3858705848e-06
8.3862300061e-06
8.38658465173e-06
8.38693218923e-06
8.38727053686e-06
8.38759783783e-06
8.38791254082e-06
8.3882134219e-06
8.38849953615e-06
8.38876999356e-06
8.3890248666e-06
8.38926411693e-06
8.38948809308e-06
8.38969743068e-06
8.38989301048e-06
8.39007614815e-06
8.39024731536e-06
8.3904108121e-06
8.39057217618e-06
8.39073705547e-06
8.39090601017e-06
8.39107263749e-06
8.3912446663e-06
8.39144727695e-06
8.39169314392e-06
8.39198687729e-06
8.39232782193e-06
8.39270950938e-06
8.38513988527e-06
8.38547315058e-06
8.38580753255e-06
8.38614063816e-06
8.38647021059e-06
8.38679414745e-06
8.3871105672e-06
8.38741781465e-06
8.38771447517e-06
8.38799939901e-06
8.38827170902e-06
8.38853069636e-06
8.38877626493e-06
8.38900842344e-06
8.38922741134e-06
8.38943380451e-06
8.38962840167e-06
8.38981242303e-06
8.3899871068e-06
8.39015342778e-06
8.39031407031e-06
8.39047593303e-06
8.39064450228e-06
8.39082405035e-06
8.39100578477e-06
8.39119486203e-06
8.39142116153e-06
8.39169955777e-06
8.39203535469e-06
8.39242696507e-06
8.38514436507e-06
8.38545268799e-06
8.38576268755e-06
8.38607218186e-06
8.38637914432e-06
8.38668167027e-06
8.3869780709e-06
8.38726684357e-06
8.3875466995e-06
8.38781657718e-06
8.38807567888e-06
8.38832339952e-06
8.38855957784e-06
8.38878415943e-06
8.38899735527e-06
8.38919969067e-06
8.38939192349e-06
8.3895750948e-06
8.38975047652e-06
8.38991944151e-06
8.39008321432e-06
8.39024420746e-06
8.39040913717e-06
8.39058621727e-06
8.39077938736e-06
8.39097699641e-06
8.3911902707e-06
8.3914455854e-06
8.39176316099e-06
8.39214821252e-06
8.38515779816e-06
8.38544376915e-06
8.38573189369e-06
8.38602009714e-06
8.38630656033e-06
8.3865895985e-06
8.38686765141e-06
8.38713937864e-06
8.38740358976e-06
8.38765932067e-06
8.38790583415e-06
8.3881425839e-06
8.38836931827e-06
8.38858600023e-06
8.38879284018e-06
8.38899028876e-06
8.38917903428e-06
8.38936000856e-06
8.38953438157e-06
8.38970359975e-06
8.38986915173e-06
8.39003265097e-06
8.39019597427e-06
8.39036721055e-06
8.39055629406e-06
8.39076390805e-06
8.39098220748e-06
8.39122333723e-06
8.39151357184e-06
8.39187698846e-06
8.38517769108e-06
8.38544369123e-06
8.38571196071e-06
8.385980835e-06
8.38624865159e-06
8.38651388037e-06
8.38677509631e-06
8.38703106661e-06
8.38728070354e-06
8.38752311354e-06
8.38775761667e-06
8.38798372424e-06
8.38820107399e-06
8.38840970538e-06
8.38860980427e-06
8.38880170866e-06
8.38898608107e-06
8.38916376714e-06
8.38933584691e-06
8.38950366554e-06
8.38966867645e-06
8.38983284165e-06
8.38999750076e-06
8.3901651678e-06
8.39034537988e-06
8.39054762203e-06
8.39077270335e-06
8.3910149759e-06
8.39128720595e-06
8.39161817781e-06
8.3852020668e-06
8.38544986242e-06
8.38570021954e-06
8.38595159048e-06
8.38620243082e-06
8.38645136407e-06
8.38669708449e-06
8.38693845309e-06
8.38717448429e-06
8.38740434212e-06
8.38762738585e-06
8.38784315434e-06
8.38805131777e-06
8.38825185529e-06
8.38844493051e-06
8.38863084589e-06
8.38881016633e-06
8.38898367597e-06
8.38915236624e-06
8.38931746878e-06
8.38948038346e-06
8.3896429203e-06
8.38980704459e-06
8.38997408948e-06
8.39014804117e-06
8.39033839177e-06
8.39055533194e-06
8.39080023289e-06
8.39106943475e-06
8.39137535127e-06
8.38522948144e-06
8.38546080103e-06
8.38569486452e-06
8.38593026901e-06
8.3861655956e-06
8.38639955628e-06
8.38663097408e-06
8.38685878741e-06
8.38708209189e-06
8.38730011487e-06
8.38751224289e-06
8.3877180487e-06
8.38791721188e-06
8.3881096782e-06
8.38829556407e-06
8.38847515379e-06
8.38864892173e-06
8.38881756592e-06
8.38898197949e-06
8.38914328274e-06
8.38930280959e-06
8.38946215967e-06
8.38962339289e-06
8.38978820396e-06
8.38995898581e-06
8.39014023585e-06
8.39034123784e-06
8.39057380163e-06
8.39084060863e-06
8.39113923329e-06
8.3852588671e-06
8.38547521909e-06
8.38569443182e-06
8.38591524791e-06
8.3861363142e-06
8.38635648179e-06
8.38657464911e-06
8.38678985506e-06
8.38700124416e-06
8.38720810041e-06
8.38740984055e-06
8.38760606e-06
8.38779643531e-06
8.38798091468e-06
8.38815953229e-06
8.38833254612e-06
8.3885003663e-06
8.38866360067e-06
8.38882303796e-06
8.38897968583e-06
8.38913476581e-06
8.38928973234e-06
8.38944641922e-06
8.38960688814e-06
8.38977304207e-06
8.3899479991e-06
8.39013642224e-06
8.39034830354e-06
8.39059755499e-06
8.39088695729e-06
8.38528941937e-06
8.38549211974e-06
8.38569779774e-06
8.38590517781e-06
8.38611311718e-06
8.38632051676e-06
8.38652640128e-06
8.38672985414e-06
8.38693007574e-06
8.38712639743e-06
8.38731826328e-06
8.38750526911e-06
8.38768713562e-06
8.38786369753e-06
8.38803500695e-06
8.3882012869e-06
8.38836287797e-06
8.38852028925e-06
8.3886742137e-06
8.38882552607e-06
8.38897533071e-06
8.38912493435e-06
8.38927592386e-06
8.38943028566e-06
8.38958997771e-06
8.3897574871e-06
8.38993611705e-06
8.39013098111e-06
8.39035375714e-06
8.39061926814e-06
8.3853205023e-06
8.38551068141e-06
8.38570388196e-06
8.38589891781e-06
8.38609477125e-06
8.38629037956e-06
8.38648483994e-06
8.38667732454e-06
8.38686706191e-06
8.38705343205e-06
8.38723589681e-06
8.3874140602e-06
8.38758764108e-06
8.38775644874e-06
8.38792050569e-06
8.38807997932e-06
8.38823515107e-06
8.38838643758e-06
8.38853442905e-06
8.3886798917e-06
8.38882377228e-06
8.38896722821e-06
8.38911163458e-06
8.38925869951e-06
8.38941042163e-06
8.38956885035e-06
8.38973684452e-06
8.38991779729e-06
8.3901175184e-06
8.39035031368e-06
8.38535164092e-06
8.38553032067e-06
8.38571201736e-06
8.38589568332e-06
8.38608035128e-06
8.3862650199e-06
8.38644885029e-06
8.38663106615e-06
8.38681095618e-06
8.38698790951e-06
8.387161426e-06
8.38733109839e-06
8.3874966525e-06
8.38765789266e-06
8.38781478621e-06
8.38796744394e-06
8.38811607695e-06
8.38826103421e-06
8.3884028037e-06
8.38854202329e-06
8.38867950127e-06
8.38881621874e-06
8.3889533699e-06
8.38909236258e-06
8.3892349607e-06
8.38938313284e-06
8.38953909061e-06
8.38970577169e-06
8.38988661021e-06
8.39008880105e-06
8.3853825025e-06
8.38555061392e-06
8.38572171776e-06
8.38589485149e-06
8.38606912873e-06
8.38624361069e-06
8.38641752008e-06
8.38659011039e-06
8.38676072337e-06
8.38692876976e-06
8.3870937614e-06
8.38725530045e-06
8.3874130998e-06
8.38756696303e-06
8.38771680586e-06
8.38786268038e-06
8.38800473886e-06
8.38814325535e-06
8.3882786089e-06
8.38841132389e-06
8.38854205968e-06
8.38867163073e-06
8.38880102747e-06
8.38893141092e-06
8.38906422242e-06
8.38920117962e-06
8.38934420965e-06
8.38949559697e-06
8.38965812478e-06
8.38983518556e-06
8.38541283723e-06
8.38557117487e-06
8.38573248488e-06
8.38589584906e-06
8.38606047511e-06
8.38622546929e-06
8.38639009243e-06
8.38655365434e-06
8.38671552118e-06
8.3868751308e-06
8.3870320069e-06
8.3871857513e-06
8.38733606948e-06
8.3874827523e-06
8.38762568997e-06
8.38776486326e-06
8.38790037046e-06
8.3880323976e-06
8.38816123644e-06
8.38828729059e-06
8.38841107903e-06
8.38853324058e-06
8.3886545685e-06
8.38877600414e-06
8.38889864914e-06
8.38902391504e-06
8.38915333888e-06
8.38928890665e-06
8.38943267134e-06
8.3895870656e-06
8.38544244293e-06
8.38559174618e-06
8.38574396459e-06
8.38589828022e-06
8.38605390092e-06
8.38621003381e-06
8.38636595963e-06
8.3865210286e-06
8.38667464404e-06
8.38682625618e-06
8.38697540398e-06
8.38712168507e-06
8.38726479136e-06
8.38740450556e-06
8.3875407157e-06
8.38767331287e-06
8.38780232666e-06
8.38792788148e-06
8.38805017818e-06
8.38816950804e-06
8.3882862482e-06
8.38840087558e-06
8.38851398893e-06
8.38862630818e-06
8.38873863867e-06
8.38885205133e-06
8.38896771352e-06
8.38908710023e-06
8.38921199088e-06
8.38934397578e-06
8.3854711966e-06
8.38561211695e-06
8.38575589608e-06
8.3859017718e-06
8.38604900453e-06
8.38619684232e-06
8.38634460677e-06
8.38649168605e-06
8.3866375036e-06
8.38678153586e-06
8.38692332407e-06
8.38706246311e-06
8.38719863069e-06
8.38733156521e-06
8.38746128027e-06
8.38758743933e-06
8.38771006505e-06
8.38782921562e-06
8.38794501049e-06
8.38805762332e-06
8.38816731147e-06
8.38827439953e-06
8.38837928375e-06
8.38848248149e-06
8.38858453163e-06
8.38868618527e-06
8.38878821387e-06
8.3888915209e-06
8.38899763788e-06
8.38910803716e-06
8.38549901167e-06
8.38563213741e-06
8.38576805946e-06
8.38590606409e-06
8.38604544521e-06
8.386185524e-06
8.38632561452e-06
8.38646516317e-06
8.38660361233e-06
8.38674044979e-06
8.38687523351e-06
8.38700755497e-06
8.38713707218e-06
8.38726333668e-06
8.38738685135e-06
8.38750674791e-06
8.38762311752e-06
8.38773597772e-06
8.38784536101e-06
8.38795133859e-06
8.3880540514e-06
8.38815367781e-06
8.38825043067e-06
8.38834464927e-06
8.38843662793e-06
8.38852671184e-06
8.38861546113e-06
8.38870355476e-06
8.38879173587e-06
8.38888045427e-06
8.38552582566e-06
8.38565169872e-06
8.38578029311e-06
8.38591093409e-06
8.38604296742e-06
8.38617575206e-06
8.38630863472e-06
8.38644107469e-06
8.38657255248e-06
8.38670257044e-06
8.38683068231e-06
8.38695650494e-06
8.38707973898e-06
8.38720022395e-06
8.38731707547e-06
8.38743081278e-06
8.38754109164e-06
8.38764781326e-06
8.38775091927e-06
8.38785039841e-06
8.38794628051e-06
8.3880385932e-06
8.3881274267e-06
8.38821293426e-06
8.38829503724e-06
8.38837405578e-06
8.38845047795e-06
8.38852363171e-06
8.38859347062e-06
8.38866128163e-06
8.38555161882e-06
8.38567071629e-06
8.38579246062e-06
8.38591621438e-06
8.38604134979e-06
8.38616728224e-06
8.38629336864e-06
8.38641910563e-06
8.38654398269e-06
8.38666752162e-06
8.38678928888e-06
8.38690888873e-06
8.38702600392e-06
8.38714032946e-06
8.38725141252e-06
8.38735924908e-06
8.38746363697e-06
8.38756439448e-06
8.38766140175e-06
8.3877545737e-06
8.38784381254e-06
8.38792903806e-06
8.38801026989e-06
8.38808725241e-06
8.38816001359e-06
8.38822893095e-06
8.38829256487e-06
8.38835058526e-06
8.3884048296e-06
8.38845468075e-06
8.38557637736e-06
8.38568914278e-06
8.38580447087e-06
8.3859217631e-06
8.38604042275e-06
8.38615990103e-06
8.38627958318e-06
8.38639898281e-06
8.38651761028e-06
8.38663499904e-06
8.3867507191e-06
8.38686437811e-06
8.38697562614e-06
8.38708414479e-06
8.38718959057e-06
8.38729175187e-06
8.38739045182e-06
8.38748544055e-06
8.38757656682e-06
8.38766365008e-06
8.38774645892e-06
8.38782495512e-06
8.38789877923e-06
8.38796769091e-06
8.38803207408e-06
8.38809022046e-06
8.38814149003e-06
8.38818747202e-06
8.38822745405e-06
8.38826003392e-06
8.38560010287e-06
8.38570693784e-06
8.38581625084e-06
8.38592747049e-06
8.38604004355e-06
8.38615344348e-06
8.3862670775e-06
8.38638048318e-06
8.38649319129e-06
8.38660473982e-06
8.38671470254e-06
8.38682269287e-06
8.38692834271e-06
8.38703133251e-06
8.3871313196e-06
8.38722804039e-06
8.38732127008e-06
8.38741070543e-06
8.38749620433e-06
8.38757739213e-06
8.38765411749e-06
8.38772616921e-06
8.38779283875e-06
8.38785465063e-06
8.3879102538e-06
8.38795795962e-06
8.38799955825e-06
8.38803415273e-06
8.38806068264e-06
8.38807853637e-06
8.38562280922e-06
8.3857240864e-06
8.38582774771e-06
8.38593326242e-06
8.3860401001e-06
8.38614776627e-06
8.38625568782e-06
8.38636342402e-06
8.38647051563e-06
8.38657651695e-06
8.38668100495e-06
8.38678359361e-06
8.38688389856e-06
8.38698161502e-06
8.38707635495e-06
8.38716787424e-06
8.38725584354e-06
8.38733998554e-06
8.38742008624e-06
8.38749563311e-06
8.38756667328e-06
8.38763240552e-06
8.38769267378e-06
8.38774764545e-06
8.38779418797e-06
8.387833693e-06
8.38786628135e-06
8.38789053932e-06
8.38790584564e-06
8.38791042071e-06
8.38564452442e-06
8.38574057873e-06
8.38583893164e-06
8.38593907343e-06
8.38604050855e-06
8.38614275257e-06
8.38624527366e-06
8.38634764477e-06
8.38644940907e-06
8.38655014288e-06
8.38664941977e-06
8.38674686545e-06
8.38684207683e-06
8.38693475847e-06
8.387024476e-06
8.38711103726e-06
8.38719395548e-06
8.3872730912e-06
8.38734799258e-06
8.38741826438e-06
8.38748387282e-06
8.38754359138e-06
8.38759827647e-06
8.38764586447e-06
8.38768484631e-06
8.38771724714e-06
8.38774172268e-06
8.38775732624e-06
8.38776197598e-06
8.38775408909e-06
8.38566527278e-06
8.38575641967e-06
8.38584977302e-06
8.38594485148e-06
8.38604118491e-06
8.38613831051e-06
8.38623572305e-06
8.38633300511e-06
8.38642972082e-06
8.386525447e-06
8.38661977416e-06
8.38671232028e-06
8.38680268003e-06
8.38689055762e-06
8.38697549299e-06
8.38705731799e-06
8.38713542441e-06
8.38720982472e-06
8.38727973385e-06
8.38734515046e-06
8.38740544847e-06
8.38745982254e-06
8.38750911868e-06
8.38754955755e-06
8.38758243648e-06
8.38760844115e-06
8.38762610316e-06
8.38763323301e-06
8.38762815782e-06
8.38760976792e-06
8.38568508618e-06
8.38577161602e-06
8.38586025807e-06
8.38595056295e-06
8.38604207729e-06
8.38613436037e-06
8.38622693437e-06
8.38631939307e-06
8.38641131737e-06
8.3865022916e-06
8.38659191008e-06
8.38667979125e-06
8.38676553919e-06
8.38684883736e-06
8.38692922672e-06
8.38700653133e-06
8.38708008771e-06
8.38714998322e-06
8.38721518497e-06
8.38727608477e-06
8.38733124747e-06
8.3873810493e-06
8.38742469016e-06
8.38745900515e-06
8.38748682438e-06
8.38750739312e-06
8.38751830223e-06
8.3875177337e-06
8.38750456076e-06
8.38747741126e-06
8.38570400057e-06
8.38578617696e-06
8.38587037968e-06
8.38595617494e-06
8.38604313863e-06
8.3861308367e-06
8.38621882729e-06
8.38630671474e-06
8.38639409116e-06
8.38648055012e-06
8.38656569195e-06
8.38664913896e-06
8.38673050108e-06
8.38680943596e-06
8.38688552095e-06
8.38695850989e-06
8.38702779403e-06
8.38709338187e-06
8.38715422653e-06
8.38721081504e-06
8.38726125493e-06
8.38730695779e-06
8.38734492822e-06
8.38737432508e-06
8.38739791308e-06
8.3874131562e-06
8.38741788554e-06
8.38741090627e-06
8.38739100908e-06
8.38735665552e-06
8.38572205435e-06
8.38580012675e-06
8.3858801364e-06
8.38596167366e-06
8.38604432944e-06
8.3861276857e-06
8.38621133235e-06
8.38629488511e-06
8.38637794492e-06
8.38646011444e-06
8.38654100533e-06
8.38662023383e-06
8.38669742692e-06
8.38677221764e-06
8.3868442212e-06
8.38691311071e-06
8.38697838067e-06
8.38703986428e-06
8.38709670855e-06
8.38714914299e-06
8.38719543315e-06
8.38723706792e-06
8.38726987245e-06
8.38729554763e-06
8.38731509743e-06
8.3873253341e-06
8.38732480993e-06
8.38731252492e-06
8.38728714139e-06
8.38724702652e-06
8.3857392816e-06
8.38581348437e-06
8.38588953303e-06
8.38596704446e-06
8.38604562017e-06
8.3861248638e-06
8.3862043924e-06
8.38628383073e-06
8.38636279527e-06
8.38644089338e-06
8.38651774161e-06
8.3865929642e-06
8.38666619639e-06
8.38673705523e-06
8.38680519028e-06
8.38687019987e-06
8.38693169539e-06
8.38698930016e-06
8.38704245946e-06
8.3870909329e-06
8.38713358052e-06
8.38717118028e-06
8.38719963474e-06
8.38722234868e-06
8.38723787166e-06
8.3872436987e-06
8.38723884748e-06
8.38722224693e-06
8.38719253293e-06
8.38714801028e-06
8.38575571877e-06
8.38582626555e-06
8.3858985774e-06
8.38597228115e-06
8.38604699146e-06
8.38612233606e-06
8.38619795692e-06
8.38627349531e-06
8.38634856868e-06
8.38642279856e-06
8.38649581082e-06
8.38656722999e-06
8.38663669963e-06
8.38670383534e-06
8.38676829995e-06
8.3868296565e-06
8.38688759039e-06
8.3869415664e-06
8.38699130221e-06
8.38703606152e-06
8.38707549918e-06
8.38710928451e-06
8.38713411346e-06
8.38715412067e-06
8.38716594072e-06
8.3871680728e-06
8.38715969378e-06
8.38713969156e-06
8.38710671893e-06
8.38705904424e-06
8.38577140025e-06
8.38583849952e-06
8.38590727996e-06
8.38597738034e-06
8.38604842959e-06
8.38612007486e-06
8.38619199033e-06
8.38626382273e-06
8.38633520188e-06
8.38640575954e-06
8.38647512608e-06
8.38654293766e-06
8.38660883692e-06
8.38667244896e-06
8.38673343593e-06
8.38679136099e-06
8.38684592799e-06
8.3868965388e-06
8.38694306383e-06
8.38698442157e-06
8.38702097364e-06
8.38705109338e-06
8.38707331873e-06
8.38709044681e-06
8.38709904975e-06
8.38709819336e-06
8.38708701675e-06
8.38706445675e-06
8.38702920505e-06
8.38697952996e-06
8.38578636184e-06
8.38585021039e-06
8.3859156566e-06
8.38598234703e-06
8.38604992426e-06
8.38611806232e-06
8.38618646053e-06
8.3862547717e-06
8.38632264125e-06
8.38638970715e-06
8.38645561343e-06
8.38652000058e-06
8.38658251685e-06
8.38664279675e-06
8.38670049511e-06
8.38675519963e-06
8.38680658499e-06
8.38685409738e-06
8.38689758515e-06
8.38693589965e-06
8.3869697578e-06
8.38699659908e-06
8.38701671068e-06
8.3870311445e-06
8.38703705687e-06
8.38703380671e-06
8.387020477e-06
8.3869961216e-06
8.38695944893e-06
8.38690887907e-06
8.38580063847e-06
8.38586142552e-06
8.38592372378e-06
8.38598718078e-06
8.38605146809e-06
8.3861162812e-06
8.38618133948e-06
8.38624630473e-06
8.38631083536e-06
8.38637458355e-06
8.3864372037e-06
8.38649834277e-06
8.3865576541e-06
8.38661478463e-06
8.38666937983e-06
8.38672106116e-06
8.38676945555e-06
8.38681411445e-06
8.38685472561e-06
8.38689036738e-06
8.38692163343e-06
8.38694569878e-06
8.38696395975e-06
8.38697600146e-06
8.38697976522e-06
8.38697461065e-06
8.38695969274e-06
8.38693421908e-06
8.38689688394e-06
8.3868465696e-06
8.38581426336e-06
8.3858721664e-06
8.3859314883e-06
8.38599187954e-06
8.38605304507e-06
8.38611470585e-06
8.38617659304e-06
8.38623837638e-06
8.38629973168e-06
8.38636032938e-06
8.38641982915e-06
8.38647789092e-06
8.38653417045e-06
8.38658832512e-06
8.38663999641e-06
8.38668883965e-06
8.38673443425e-06
8.38677645317e-06
8.38681437332e-06
8.38684767012e-06
8.38687641963e-06
8.38689825927e-06
8.38691483698e-06
8.38692482609e-06
8.38692688554e-06
8.38692023165e-06
8.38690427027e-06
8.38687824747e-06
8.38684096811e-06
8.38679176696e-06
8.38582725935e-06
8.38588243932e-06
8.38593893833e-06
8.38599641765e-06
8.38605462205e-06
8.38611329777e-06
8.38617216681e-06
8.38623092764e-06
8.38628927035e-06
8.38634688037e-06
8.38640342531e-06
8.38645857436e-06
8.38651198685e-06
8.38656333394e-06
8.38661225731e-06
8.38665843295e-06
8.38670142381e-06
8.38674098252e-06
8.38677643088e-06
8.38680762223e-06
8.38683399091e-06
8.38685412525e-06
8.38686908557e-06
8.38687738876e-06
8.38687811944e-06
8.38687032668e-06
8.38685382199e-06
8.38682771037e-06
8.38679124073e-06
8.38674334528e-06
8.38583964191e-06
8.38589224739e-06
8.38594606154e-06
8.38600077244e-06
8.38605617902e-06
8.38611201273e-06
8.38616801186e-06
8.38622390064e-06
8.38627938981e-06
8.38633417144e-06
8.38638792077e-06
8.38644031525e-06
8.38649102416e-06
8.38653972494e-06
8.38658607123e-06
8.38662974752e-06
8.38667032529e-06
8.38670757555e-06
8.38674080265e-06
8.38677003136e-06
8.38679426023e-06
8.38681307518e-06
8.3868264587e-06
8.38683349315e-06
8.38683313057e-06
8.38682461403e-06
8.38680797386e-06
8.38678216256e-06
8.38674699986e-06
8.38670098756e-06
8.38585143338e-06
8.38590161909e-06
8.38595288937e-06
8.38600497927e-06
8.3860577289e-06
8.38611086157e-06
8.38616412828e-06
8.38621728911e-06
8.38627006843e-06
8.38632216368e-06
8.38637326309e-06
8.38642305079e-06
8.3864712068e-06
8.38651741305e-06
8.38656134636e-06
8.38660268772e-06
8.38664103719e-06
8.38667613372e-06
8.38670738183e-06
8.38673474603e-06
8.38675715158e-06
8.386774822e-06
8.3867868444e-06
8.38679283297e-06
8.38679155038e-06
8.38678286236e-06
8.38676628488e-06
8.38674118528e-06
8.38670763809e-06
8.38666396289e-06
8.3858626913e-06
8.38591065221e-06
8.38595953492e-06
8.38600915499e-06
8.38605938445e-06
8.38610995668e-06
8.38616062488e-06
8.38621118442e-06
8.38626137261e-06
8.38631089784e-06
8.38635946708e-06
8.38640676875e-06
8.38645249705e-06
8.38649634119e-06
8.3865379969e-06
8.386577164e-06
8.38661345231e-06
8.38664655849e-06
8.38667603838e-06
8.38670164829e-06
8.38672256772e-06
8.38673915961e-06
8.38675007246e-06
8.386755099e-06
8.38675328703e-06
8.38674472623e-06
8.38672838018e-06
8.38670439671e-06
8.38667265556e-06
8.3866313701e-06
8.38587352507e-06
8.38591947632e-06
8.38596613755e-06
8.38601343684e-06
8.38606128546e-06
8.38610943585e-06
8.38615763799e-06
8.38620571138e-06
8.38625341224e-06
8.38630047065e-06
8.38634660457e-06
8.38639151808e-06
8.38643491549e-06
8.38647650263e-06
8.38651598538e-06
8.38655309976e-06
8.38658746844e-06
8.38661873959e-06
8.38664662379e-06
8.38667062385e-06
8.38669035187e-06
8.38670588761e-06
8.38671586778e-06
8.38672010541e-06
8.38671811978e-06
8.3867096413e-06
8.38669390207e-06
8.38667127962e-06
8.38664149056e-06
8.38660283578e-06
8.38588401486e-06
8.38592809694e-06
8.38597264015e-06
8.38601772084e-06
8.38606330632e-06
8.38610916085e-06
8.38615503459e-06
8.38620074158e-06
8.38624608058e-06
8.38629079764e-06
8.38633462089e-06
8.38637726384e-06
8.38641844674e-06
8.38645789127e-06
8.38649531402e-06
8.38653046163e-06
8.38656301413e-06
8.38659257851e-06
8.38661900962e-06
8.38664155911e-06
8.38666031135e-06
8.38667488868e-06
8.38668415957e-06
8.38668786767e-06
8.38668582646e-06
8.38667753912e-06
8.38666260502e-06
8.3866412702e-06
8.38661356232e-06
8.3865777257e-06
8.38589403811e-06
8.38593616135e-06
8.38597849632e-06
8.38602132026e-06
8.38606472269e-06
8.38610840477e-06
8.38615203822e-06
8.38619552212e-06
8.38623867499e-06
8.38628125664e-06
8.38632298988e-06
8.38636358929e-06
8.38640277919e-06
8.386440301e-06
8.38647591131e-06
8.38650923361e-06
8.38654009768e-06
8.38656807471e-06
8.38659311262e-06
8.3866143106e-06
8.3866321352e-06
8.38664581682e-06
8.38665452425e-06
8.38665790755e-06
8.38665591878e-06
8.38664802979e-06
8.38663395087e-06
8.38661404759e-06
8.38658826788e-06
8.38655532618e-06
8.38590560458e-06
8.38594467708e-06
8.38598395763e-06
8.38602393553e-06
8.38606472344e-06
8.38610597706e-06
8.3861473058e-06
8.38618865095e-06
8.38622983671e-06
8.38627059635e-06
8.38631062369e-06
8.38634959468e-06
8.38638722253e-06
8.38642324218e-06
8.38645735836e-06
8.38648923738e-06
8.38651866052e-06
8.38654526899e-06
8.38656883622e-06
8.38658869421e-06
8.38660532303e-06
8.38661760731e-06
8.38662517829e-06
8.3866276839e-06
8.38662508453e-06
8.38661699503e-06
8.38660329204e-06
8.38658453552e-06
8.38655988963e-06
8.38652973472e-06
8.38591817005e-06
8.38595394671e-06
8.38598992564e-06
8.38602685434e-06
8.38606484439e-06
8.38610352268e-06
8.38614248156e-06
8.38618161976e-06
8.3862208455e-06
8.38625986338e-06
8.38629832991e-06
8.38633587653e-06
8.38637218059e-06
8.38640693417e-06
8.38643979375e-06
8.38647048657e-06
8.38649862279e-06
8.3865240146e-06
8.38654602935e-06
8.38656471982e-06
8.38657986621e-06
8.38659053106e-06
8.3865966521e-06
8.38659797247e-06
8.38659444567e-06
8.38658591507e-06
8.38657281331e-06
8.38655510366e-06
8.38653194752e-06
8.38650487706e-06
8.38592967373e-06
8.38596256327e-06
8.38599553967e-06
8.38602964878e-06
8.3860650694e-06
8.38610139333e-06
8.38613817962e-06
8.3861752649e-06
8.38621265416e-06
8.38625003284e-06
8.38628701637e-06
8.38632320781e-06
8.38635824631e-06
8.38639178115e-06
8.38642348754e-06
8.38645302689e-06
8.38648002576e-06
8.38650420847e-06
8.38652492125e-06
8.38654261951e-06
8.38655638395e-06
8.38656572822e-06
8.38657066983e-06
8.38657104797e-06
8.38656686337e-06
8.38655817475e-06
8.3865456718e-06
8.38652888121e-06
8.38650781345e-06
8.38648356785e-06
8.38594006002e-06
8.38597045255e-06
8.3860008332e-06
8.38603245681e-06
8.38606556195e-06
8.38609973043e-06
8.38613450706e-06
8.38616965053e-06
8.38620526589e-06
8.38624105552e-06
8.38627660159e-06
8.38631148875e-06
8.38634531018e-06
8.38637768771e-06
8.38640830996e-06
8.38643672967e-06
8.38646271366e-06
8.38648566498e-06
8.38650542306e-06
8.38652209589e-06
8.38653462699e-06
8.38654288515e-06
8.38654689244e-06
8.3865465604e-06
8.38654195947e-06
8.38653333762e-06
8.38652117157e-06
8.38650507176e-06
8.38648557381e-06
8.38646427438e-06
8.38594962264e-06
8.38597783805e-06
8.38600591854e-06
8.38603529249e-06
8.3860662874e-06