/*--------------------------------*- C++ -*----------------------------------*\
| =========                 |                                                 |
| \\      /  F ield         | OpenFOAM: The Open Source CFD Toolbox           |
|  \\    /   O peration     | Version:  2312                                  |
|   \\  /    A nd           | Website:  www.openfoam.com                      |
|    \\/     M anipulation  |                                                 |
\*---------------------------------------------------------------------------*/
FoamFile
{
    version     2.0;
    format      ascii;
    arch        "LSB;label=32;scalar=64";
    class       volScalarField;
    location    "0.005";
    object      thermo:psiLiqEff;
}
// * * * * * * * * * * * * * * * * * * * * * * * * * * * * * * * * * * * * * //

dimensions      [-2 4 2 0 0 0 0];

internalField   nonuniform List<scalar> 
19400
(
4.80668539234e-13
4.80670676266e-13
4.80672531345e-13
4.80674121636e-13
4.80675430188e-13
4.80676423543e-13
4.80677088755e-13
4.80677402259e-13
4.80677435427e-13
4.80677163514e-13
4.80676605653e-13
4.80675780752e-13
4.80674707337e-13
4.80673427046e-13
4.80672001822e-13
4.80670509538e-13
4.80669031445e-13
4.8066763843e-13
4.8066638877e-13
4.80665327463e-13
4.80664484127e-13
4.80663867778e-13
4.80663464377e-13
4.80663234477e-13
4.80663116872e-13
4.8066303404e-13
4.80662901167e-13
4.80662633765e-13
4.80662154836e-13
4.80661401406e-13
4.80702929022e-13
4.80706806161e-13
4.80709991914e-13
4.80712352039e-13
4.80713981692e-13
4.80714662933e-13
4.80714589049e-13
4.80713681465e-13
4.80711980449e-13
4.80709592327e-13
4.80706620455e-13
4.80703095777e-13
4.80699061148e-13
4.80694677089e-13
4.80690105118e-13
4.80685522945e-13
4.80681132638e-13
4.80677064143e-13
4.80673427059e-13
4.8067030732e-13
4.80667771225e-13
4.8066583719e-13
4.80664472183e-13
4.80663599234e-13
4.80663106329e-13
4.80662855098e-13
4.80662701401e-13
4.80662500678e-13
4.80662124068e-13
4.80661471045e-13
4.80722236242e-13
4.80728202556e-13
4.80733589602e-13
4.80738274415e-13
4.80742099461e-13
4.80744883794e-13
4.80746581751e-13
4.80747160545e-13
4.80746557098e-13
4.8074473037e-13
4.80741702101e-13
4.80737550053e-13
4.80732424905e-13
4.80726493023e-13
4.80719888081e-13
4.8071283522e-13
4.80705657084e-13
4.80698276174e-13
4.80691032765e-13
4.80684316903e-13
4.80678416533e-13
4.80673491875e-13
4.80669602667e-13
4.80666737791e-13
4.80664793554e-13
4.80663587226e-13
4.80662888155e-13
4.80662453858e-13
4.80662058972e-13
4.80661509501e-13
4.80726313486e-13
4.80733038339e-13
4.80739405968e-13
4.80745317214e-13
4.80750656044e-13
4.80755283392e-13
4.80759056881e-13
4.80761860108e-13
4.80763631451e-13
4.80764099547e-13
4.8076359085e-13
4.80761698668e-13
4.80758487073e-13
4.80753981265e-13
4.80748230367e-13
4.80741306794e-13
4.80733301825e-13
4.80724664338e-13
4.80715664085e-13
4.80706639743e-13
4.80697717477e-13
4.80689200257e-13
4.80681667649e-13
4.80675440335e-13
4.80670625532e-13
4.80667167287e-13
4.80664869925e-13
4.80663434362e-13
4.80662524415e-13
4.80661811103e-13
4.80724765024e-13
4.80731311539e-13
4.80737657456e-13
4.80743720575e-13
4.80749419101e-13
4.80754668131e-13
4.80759370195e-13
4.80763426426e-13
4.80766765214e-13
4.807692302e-13
4.80770855869e-13
4.80771190492e-13
4.80770770714e-13
4.80768969134e-13
4.80765846455e-13
4.80761380637e-13
4.80755552754e-13
4.80748407545e-13
4.80740054921e-13
4.80730629239e-13
4.80720431801e-13
4.80710226945e-13
4.80700358478e-13
4.80690792655e-13
4.80682322458e-13
4.80675458766e-13
4.80670314344e-13
4.80666753589e-13
4.806644477e-13
4.80662972792e-13
4.80722098386e-13
4.80728110946e-13
4.80734010514e-13
4.8073973443e-13
4.80745222595e-13
4.8075041567e-13
4.80755258442e-13
4.80759690654e-13
4.80763650741e-13
4.80767040525e-13
4.80769809931e-13
4.8077175187e-13
4.80773069697e-13
4.80773240007e-13
4.80772800524e-13
4.80771056544e-13
4.80768001264e-13
4.80763595264e-13
4.80757768962e-13
4.80750480413e-13
4.80741769201e-13
4.80731827426e-13
4.80720853759e-13
4.80709789215e-13
4.8069924959e-13
4.80689168139e-13
4.80680448812e-13
4.80673716897e-13
4.80668939764e-13
4.80665805084e-13
4.8071999092e-13
4.80725440283e-13
4.80730818115e-13
4.80736073835e-13
4.80741159817e-13
4.80746031582e-13
4.80750647702e-13
4.80754968261e-13
4.80758968285e-13
4.80762611026e-13
4.80765861287e-13
4.8076861816e-13
4.80770835539e-13
4.8077233654e-13
4.80773192222e-13
4.80773160602e-13
4.80772542439e-13
4.80770710418e-13
4.80767570337e-13
4.80763040574e-13
4.80756984163e-13
4.80749311119e-13
4.80740025766e-13
4.80729354887e-13
4.80717620643e-13
4.80706057958e-13
4.80695092437e-13
4.8068506391e-13
4.80676985158e-13
4.80671198232e-13
4.8071849837e-13
4.80723445395e-13
4.80728345262e-13
4.80733155093e-13
4.8073783501e-13
4.80742347422e-13
4.807466603e-13
4.80750740418e-13
4.8075456568e-13
4.80758114244e-13
4.80761382734e-13
4.80764352002e-13
4.80766996284e-13
4.80769218807e-13
4.80770978811e-13
4.80772102833e-13
4.80772487659e-13
4.80772320738e-13
4.80771418059e-13
4.80769294603e-13
4.80765829882e-13
4.80760869703e-13
4.80754211273e-13
4.80745739667e-13
4.8073550053e-13
4.8072385095e-13
4.80711391813e-13
4.80699815578e-13
4.80688937314e-13
4.80679883359e-13
4.80717484989e-13
4.80721991832e-13
4.8072646949e-13
4.80730880901e-13
4.80735191247e-13
4.80739368238e-13
4.80743383465e-13
4.80747210983e-13
4.80750828978e-13
4.80754222711e-13
4.80757381309e-13
4.807602955e-13
4.80762960328e-13
4.80765390192e-13
4.80767570359e-13
4.80769391427e-13
4.8077072891e-13
4.80771532734e-13
4.80771536271e-13
4.80771196257e-13
4.8076987307e-13
4.80767229444e-13
4.80763142986e-13
4.8075735148e-13
4.80749618496e-13
4.80739873885e-13
4.80728306343e-13
4.80715558254e-13
4.80703322105e-13
4.80691979499e-13
4.80716829484e-13
4.80720947741e-13
4.80725053103e-13
4.80729110984e-13
4.80733090524e-13
4.80736963595e-13
4.80740704514e-13
4.80744292065e-13
4.80747706051e-13
4.80750932237e-13
4.80753963049e-13
4.80756790719e-13
4.80759406525e-13
4.8076181896e-13
4.80764021778e-13
4.80766075599e-13
4.80767902469e-13
4.80769407678e-13
4.80770386271e-13
4.80770811271e-13
4.80770689626e-13
4.80769974887e-13
4.80767978906e-13
4.80764554327e-13
4.8075943013e-13
4.80752284917e-13
4.80742936639e-13
4.80731517885e-13
4.80718626475e-13
4.80705925981e-13
4.80716430348e-13
4.8072021234e-13
4.80723989003e-13
4.80727732313e-13
4.80731415485e-13
4.80735013697e-13
4.80738504236e-13
4.80741868112e-13
4.80745087809e-13
4.80748149876e-13
4.8075104796e-13
4.8075377508e-13
4.80756323704e-13
4.80758699193e-13
4.80760896959e-13
4.8076293881e-13
4.80764832491e-13
4.80766642397e-13
4.80768206937e-13
4.80769389739e-13
4.80770074196e-13
4.80770146017e-13
4.80769834449e-13
4.80768387741e-13
4.80765480248e-13
4.80760861946e-13
4.80754150341e-13
4.80745087665e-13
4.8073374486e-13
4.80720730696e-13
4.80716239224e-13
4.80719714786e-13
4.80723196654e-13
4.80726658491e-13
4.80730075265e-13
4.80733424465e-13
4.80736686266e-13
4.80739842785e-13
4.8074287991e-13
4.8074578495e-13
4.80748547972e-13
4.8075116724e-13
4.80753638197e-13
4.80755961333e-13
4.80758137239e-13
4.80760172153e-13
4.80762080103e-13
4.80763862508e-13
4.80765614742e-13
4.80767231953e-13
4.80768567394e-13
4.80769438228e-13
4.80769796999e-13
4.80769682436e-13
4.80768711852e-13
4.80766197613e-13
4.80761939203e-13
4.80755510697e-13
4.80746590512e-13
4.80735230442e-13
4.80716178257e-13
4.80719389623e-13
4.80722612397e-13
4.80725823006e-13
4.80728999747e-13
4.80732123006e-13
4.80735175159e-13
4.80738140224e-13
4.80741005404e-13
4.8074375942e-13
4.80746393077e-13
4.80748904193e-13
4.80751289457e-13
4.80753548253e-13
4.80755684048e-13
4.8075769877e-13
4.80759607157e-13
4.80761407494e-13
4.80763133314e-13
4.807648248e-13
4.80766497676e-13
4.80767933449e-13
4.80769021346e-13
4.80769562361e-13
4.80769700613e-13
4.80769107251e-13
4.80766870528e-13
4.80762836201e-13
4.80756534889e-13
4.80747612668e-13
4.80716232562e-13
4.80719205429e-13
4.80722192808e-13
4.80725175523e-13
4.80728134606e-13
4.80731052142e-13
4.80733912049e-13
4.80736699985e-13
4.80739404023e-13
4.80742014129e-13
4.8074452252e-13
4.80746925973e-13
4.80749221971e-13
4.80751409606e-13
4.80753492831e-13
4.80755473862e-13
4.80757364354e-13
4.80759168479e-13
4.80760902644e-13
4.80762582549e-13
4.80764259686e-13
4.80765967468e-13
4.80767537161e-13
4.80768769293e-13
4.807694792e-13
4.80769974234e-13
4.80769532197e-13
4.80767521468e-13
4.80763600402e-13
4.80757292547e-13
4.80716364582e-13
4.8071912382e-13
4.80721897683e-13
4.80724674688e-13
4.80727436719e-13
4.80730166975e-13
4.8073285042e-13
4.80735474384e-13
4.80738027656e-13
4.80740501515e-13
4.80742888818e-13
4.80745185526e-13
4.80747390515e-13
4.8074950261e-13
4.80751525174e-13
4.80753461621e-13
4.80755320174e-13
4.80757109249e-13
4.80758840288e-13
4.80760526913e-13
4.80762192291e-13
4.80763876122e-13
4.80765641411e-13
4.80767329441e-13
4.80768668897e-13
4.80769634678e-13
4.80770348654e-13
4.80770040217e-13
4.80768167274e-13
4.80764244805e-13
4.80716548949e-13
4.80719108554e-13
4.80721695736e-13
4.80724289713e-13
4.80726873449e-13
4.80729432523e-13
4.80731953676e-13
4.80734425507e-13
4.80736837773e-13
4.8073918253e-13
4.80741453449e-13
4.80743645894e-13
4.80745759353e-13
4.80747792942e-13
4.80749749411e-13
4.80751632671e-13
4.80753449265e-13
4.80755208708e-13
4.80756922007e-13
4.80758600459e-13
4.80760264812e-13
4.80761926459e-13
4.80763650277e-13
4.80765487722e-13
4.80767263058e-13
4.80768754966e-13
4.80769948139e-13
4.80770817683e-13
4.8077062099e-13
4.80768784028e-13
4.80716772606e-13
4.80719160923e-13
4.80721575806e-13
4.80723999578e-13
4.80726419443e-13
4.80728820998e-13
4.80731192228e-13
4.80733522632e-13
4.80735802896e-13
4.80738025519e-13
4.80740184779e-13
4.80742276235e-13
4.8074429927e-13
4.80746252975e-13
4.80748139713e-13
4.80749963916e-13
4.80751730743e-13
4.80753448935e-13
4.8075512944e-13
4.80756783434e-13
4.8075842919e-13
4.80760080783e-13
4.80761761311e-13
4.80763546178e-13
4.80765448895e-13
4.80767336943e-13
4.80768999447e-13
4.80770361765e-13
4.80771291487e-13
4.80771215867e-13
4.80717022008e-13
4.80719254064e-13
4.80721513784e-13
4.80723783142e-13
4.80726052218e-13
4.80728308759e-13
4.80730541551e-13
4.80732740621e-13
4.80734897363e-13
4.80737004771e-13
4.80739057366e-13
4.8074105134e-13
4.80742985734e-13
4.80744859342e-13
4.80746673899e-13
4.80748433549e-13
4.80750143626e-13
4.80751811902e-13
4.80753448441e-13
4.80755064526e-13
4.80756675715e-13
4.80758300156e-13
4.80759949974e-13
4.80761674888e-13
4.80763518117e-13
4.80765497308e-13
4.8076752824e-13
4.80769333158e-13
4.80770767933e-13
4.8077169512e-13
4.80717288077e-13
4.80719376453e-13
4.80721493404e-13
4.80723621626e-13
4.80725753237e-13
4.8072787707e-13
4.80729982224e-13
4.80732059457e-13
4.80734100768e-13
4.80736099537e-13
4.80738050569e-13
4.8073995016e-13
4.80741797206e-13
4.80743590779e-13
4.80745331756e-13
4.80747023666e-13
4.80748671985e-13
4.80750283596e-13
4.80751867566e-13
4.8075343477e-13
4.80754999195e-13
4.8075657803e-13
4.80758187714e-13
4.80759851641e-13
4.80761623607e-13
4.80763530734e-13
4.80765606381e-13
4.80767768112e-13
4.80769644869e-13
4.80771103365e-13
4.80717561998e-13
4.80719519483e-13
4.80721502605e-13
4.80723503985e-13
4.80725510557e-13
4.80727512396e-13
4.80729499469e-13
4.80731463107e-13
4.80733396143e-13
4.80735292154e-13
4.80737146416e-13
4.80738955275e-13
4.80740716449e-13
4.80742430177e-13
4.80744097227e-13
4.80745719945e-13
4.80747303092e-13
4.80748852928e-13
4.80750377686e-13
4.80751887346e-13
4.80753394814e-13
4.80754915225e-13
4.80756467055e-13
4.80758066716e-13
4.80759754653e-13
4.80761567522e-13
4.80763542486e-13
4.80765719427e-13
4.80767960133e-13
4.80769860776e-13
4.80717839643e-13
4.80719677891e-13
4.80721542318e-13
4.80723426039e-13
4.80725315558e-13
4.8072720405e-13
4.80729081013e-13
4.80730938554e-13
4.80732769794e-13
4.8073456865e-13
4.80736330598e-13
4.80738052097e-13
4.80739730331e-13
4.80741365728e-13
4.80742958629e-13
4.80744510841e-13
4.80746026391e-13
4.80747510776e-13
4.8074897119e-13
4.80750416849e-13
4.80751859077e-13
4.80753311602e-13
4.80754791084e-13
4.80756316018e-13
4.80757908053e-13
4.8075961365e-13
4.80761462522e-13
4.80763500646e-13
4.8076576497e-13
4.80768015011e-13
4.80718116177e-13
4.80719845592e-13
4.80721602738e-13
4.80723377433e-13
4.80725158954e-13
4.80726941936e-13
4.80728716369e-13
4.80730474633e-13
4.80732210227e-13
4.80733917232e-13
4.80735591315e-13
4.8073722881e-13
4.80738827032e-13
4.80740385777e-13
4.80741905113e-13
4.80743386536e-13
4.8074483307e-13
4.80746249513e-13
4.80747642065e-13
4.80749018821e-13
4.80750389618e-13
4.80751766842e-13
4.80753164755e-13
4.80754601274e-13
4.80756094548e-13
4.80757674371e-13
4.80759382218e-13
4.80761253744e-13
4.80763344054e-13
4.80765660919e-13
4.80718388463e-13
4.80720017247e-13
4.80721673854e-13
4.80723349221e-13
4.80725032037e-13
4.80726717445e-13
4.80728396507e-13
4.80730061999e-13
4.8073170769e-13
4.80733327988e-13
4.80734918505e-13
4.80736475546e-13
4.80737996473e-13
4.80739480634e-13
4.80740927648e-13
4.80742338513e-13
4.80743715605e-13
4.80745062771e-13
4.80746385165e-13
4.80747689774e-13
4.80748984828e-13
4.80750281349e-13
4.80751591247e-13
4.80752930238e-13
4.80754315554e-13
4.8075576739e-13
4.80757317575e-13
4.80759007527e-13
4.80760881138e-13
4.80763012395e-13
4.80718654237e-13
4.80720190675e-13
4.80721754713e-13
4.80723338219e-13
4.80724929232e-13
4.80726523996e-13
4.80728114174e-13
4.80729692945e-13
4.80731254187e-13
4.807327926e-13
4.80734303717e-13
4.80735783879e-13
4.80737230353e-13
4.80738642092e-13
4.80740018388e-13
4.8074135963e-13
4.80742667519e-13
4.80743944914e-13
4.80745196045e-13
4.80746426627e-13
4.80747643404e-13
4.8074885556e-13
4.80750073348e-13
4.80751309369e-13
4.80752579382e-13
4.80753898656e-13
4.80755293006e-13
4.80756785616e-13
4.80758429478e-13
4.80760278603e-13
4.80718911582e-13
4.8072036314e-13
4.80721841798e-13
4.80723338835e-13
4.8072484542e-13
4.8072635602e-13
4.80727863521e-13
4.80729361122e-13
4.80730843036e-13
4.80732304114e-13
4.80733739877e-13
4.8073514667e-13
4.8073652156e-13
4.80737863225e-13
4.80739170814e-13
4.80740443848e-13
4.80741683249e-13
4.80742891188e-13
4.80744070839e-13
4.80745226707e-13
4.80746364009e-13
4.80747490064e-13
4.80748613582e-13
4.80749743646e-13
4.80750894977e-13
4.80752078174e-13
4.80753313293e-13
4.80754618198e-13
4.8075602305e-13
4.80757587731e-13
4.80719159276e-13
4.80720532498e-13
4.80721932133e-13
4.80723349653e-13
4.80724777465e-13
4.80726209298e-13
4.80727639686e-13
4.80729061345e-13
4.80730468652e-13
4.80731856746e-13
4.80733221054e-13
4.80734557924e-13
4.80735864164e-13
4.80737137917e-13
4.80738379362e-13
4.80739585795e-13
4.80740758011e-13
4.8074189743e-13
4.80743006162e-13
4.80744087542e-13
4.8074514549e-13
4.80746185172e-13
4.80747213776e-13
4.80748237972e-13
4.80749269198e-13
4.80750314121e-13
4.80751390598e-13
4.80752516478e-13
4.80753697139e-13
4.80754959086e-13
4.80719396469e-13
4.80720697271e-13
4.80722023638e-13
4.8072336768e-13
4.80724722238e-13
4.80726080727e-13
4.80727438854e-13
4.80728789263e-13
4.80730126426e-13
4.80731445575e-13
4.80732742165e-13
4.80734012589e-13
4.80735253257e-13
4.80736460867e-13
4.80737638912e-13
4.80738780814e-13
4.80739887537e-13
4.80740959879e-13
4.80741998903e-13
4.80743007077e-13
4.80743986483e-13
4.8074494073e-13
4.80745876221e-13
4.80746794956e-13
4.8074770572e-13
4.80748619422e-13
4.80749540991e-13
4.80750472983e-13
4.8075142828e-13
4.80752452435e-13
4.80719622488e-13
4.80720856371e-13
4.80722114815e-13
4.80723390662e-13
4.80724677112e-13
4.80725967188e-13
4.80727257719e-13
4.80728541197e-13
4.80729812342e-13
4.80731066441e-13
4.80732298856e-13
4.80733506247e-13
4.80734685135e-13
4.80735834244e-13
4.80736946048e-13
4.80738024903e-13
4.80739068179e-13
4.807400752e-13
4.80741046554e-13
4.80741983157e-13
4.80742885473e-13
4.80743757622e-13
4.80744600961e-13
4.80745415221e-13
4.80746216566e-13
4.8074699782e-13
4.80747746322e-13
4.80748517319e-13
4.80749336641e-13
4.80750164286e-13
4.80719837062e-13
4.80721008893e-13
4.80722204467e-13
4.80723416847e-13
4.80724639776e-13
4.80725866155e-13
4.80727093372e-13
4.80728314093e-13
4.80729523078e-13
4.80730715677e-13
4.80731887392e-13
4.80733034627e-13
4.8073415376e-13
4.80735242211e-13
4.80736295609e-13
4.80737314453e-13
4.80738296378e-13
4.80739240453e-13
4.80740146545e-13
4.80741013194e-13
4.80741842309e-13
4.80742634534e-13
4.8074338606e-13
4.80744108746e-13
4.80744798209e-13
4.80745428549e-13
4.80746077355e-13
4.80746758641e-13
4.80747362532e-13
4.80747924413e-13
4.8072003999e-13
4.80721154299e-13
4.8072229146e-13
4.80723444794e-13
4.80724608548e-13
4.80725775471e-13
4.80726943464e-13
4.80728105226e-13
4.80729255703e-13
4.80730390222e-13
4.80731504398e-13
4.807325944e-13
4.80733656569e-13
4.80734687837e-13
4.80735684769e-13
4.8073664629e-13
4.80737568985e-13
4.80738453265e-13
4.80739295783e-13
4.80740095885e-13
4.80740855914e-13
4.80741567092e-13
4.80742239012e-13
4.80742872088e-13
4.80743429043e-13
4.80743989658e-13
4.80744568593e-13
4.80745050633e-13
4.80745448403e-13
4.80745814787e-13
4.80720231186e-13
4.80721292114e-13
4.8072237501e-13
4.80723473727e-13
4.80724582096e-13
4.8072569345e-13
4.80726805946e-13
4.80727912347e-13
4.80729007728e-13
4.80730087371e-13
4.80731147096e-13
4.80732182671e-13
4.80733190934e-13
4.80734167719e-13
4.80735110777e-13
4.80736017164e-13
4.8073688357e-13
4.80737710931e-13
4.80738491493e-13
4.80739230821e-13
4.80739921339e-13
4.80740557932e-13
4.80741162092e-13
4.80741681097e-13
4.80742167122e-13
4.80742686591e-13
4.80743100595e-13
4.80743419234e-13
4.80743656321e-13
4.8074379591e-13
4.80720410759e-13
4.80721422074e-13
4.80722454455e-13
4.80723502165e-13
4.80724559017e-13
4.80725618613e-13
4.80726679123e-13
4.80727733516e-13
4.80728776942e-13
4.80729804779e-13
4.80730812998e-13
4.80731796984e-13
4.80732754171e-13
4.8073367899e-13
4.80734571176e-13
4.80735424161e-13
4.80736238223e-13
4.80737010072e-13
4.8073773254e-13
4.80738415436e-13
4.80739034992e-13
4.80739613861e-13
4.80740135217e-13
4.80740559591e-13
4.80741032248e-13
4.80741432916e-13
4.80741706171e-13
4.80741878377e-13
4.80741921653e-13
4.80741866954e-13
4.80720578872e-13
4.80721544003e-13
4.80722529403e-13
4.8072352943e-13
4.80724538267e-13
4.80725549609e-13
4.80726561444e-13
4.80727566999e-13
4.807285615e-13
4.80729540474e-13
4.80730499923e-13
4.80731435152e-13
4.80732343875e-13
4.80733219376e-13
4.80734063429e-13
4.80734865039e-13
4.807356308e-13
4.80736347529e-13
4.80737018816e-13
4.80737644119e-13
4.80738199939e-13
4.80738729084e-13
4.80739150827e-13
4.80739547822e-13
4.80739964209e-13
4.80740235103e-13
4.80740380269e-13
4.80740388299e-13
4.80740300054e-13
4.80740118598e-13
4.80720735751e-13
4.80721657891e-13
4.80722599487e-13
4.80723555099e-13
4.80724518999e-13
4.80725485331e-13
4.807264516e-13
4.8072741127e-13
4.80728359749e-13
4.80729292638e-13
4.80730206016e-13
4.80731095217e-13
4.80731957852e-13
4.80732786932e-13
4.8073358505e-13
4.80734338137e-13
4.8073505844e-13
4.80735721705e-13
4.80736348379e-13
4.80736912374e-13
4.80737420813e-13
4.80737888139e-13
4.80738230266e-13
4.80738622616e-13
4.8073894292e-13
4.80739096649e-13
4.80739104243e-13
4.80739015069e-13
4.8073883444e-13
4.80738528245e-13
4.8072088168e-13
4.80721763741e-13
4.80722664482e-13
4.80723578605e-13
4.80724500561e-13
4.8072542487e-13
4.80726348454e-13
4.80727265056e-13
4.80728170227e-13
4.80729059763e-13
4.80729929591e-13
4.8073077541e-13
4.80731594285e-13
4.80732379858e-13
4.80733133762e-13
4.80733842016e-13
4.80734518114e-13
4.80735132233e-13
4.80735716753e-13
4.80736220741e-13
4.80736695108e-13
4.80737083338e-13
4.80737392065e-13
4.80737757622e-13
4.80737965832e-13
4.80738000297e-13
4.80737930117e-13
4.80737774038e-13
4.80737499926e-13
4.8073708171e-13
4.80721017011e-13
4.807218616e-13
4.80722724245e-13
4.80723599634e-13
4.80724482435e-13
4.80725367472e-13
4.80726251074e-13
4.80727127283e-13
4.80727991762e-13
4.80728840456e-13
4.80729669229e-13
4.80730474144e-13
4.8073125155e-13
4.80731996319e-13
4.80732707831e-13
4.80733374932e-13
4.80734007493e-13
4.80734578327e-13
4.80735119345e-13
4.80735572363e-13
4.80736012248e-13
4.80736320894e-13
4.80736628051e-13
4.80736934272e-13
4.80737025992e-13
4.80736986975e-13
4.80736866555e-13
4.80736642989e-13
4.80736286685e-13
4.8073577469e-13
4.80721142165e-13
4.80721951649e-13
4.80722778633e-13
4.80723617854e-13
4.8072446405e-13
4.80725312423e-13
4.80726158606e-13
4.80726996953e-13
4.80727823208e-13
4.8072863344e-13
4.80729423583e-13
4.80730189876e-13
4.80730928184e-13
4.80731634568e-13
4.80732305759e-13
4.80732934918e-13
4.80733524962e-13
4.8073405799e-13
4.8073455377e-13
4.80734967318e-13
4.8073536304e-13
4.80735616467e-13
4.80735923747e-13
4.80736137258e-13
4.80736143671e-13
4.80736062349e-13
4.80735896574e-13
4.80735613107e-13
4.80735189336e-13
4.80734602279e-13
4.80721257498e-13
4.80722034092e-13
4.80722827665e-13
4.80723632981e-13
4.80724445001e-13
4.80725259123e-13
4.80726070302e-13
4.8072687313e-13
4.80727663507e-13
4.80728437592e-13
4.80729191371e-13
4.80729921268e-13
4.80730622845e-13
4.80731292925e-13
4.80731926273e-13
4.80732519842e-13
4.80733069467e-13
4.80733568585e-13
4.80734019187e-13
4.80734402265e-13
4.80734747144e-13
4.80734969399e-13
4.8073525932e-13
4.80735370708e-13
4.80735331643e-13
4.80735220201e-13
4.80735011684e-13
4.80734679517e-13
4.80734203002e-13
4.80733558954e-13
4.80721363511e-13
4.80722109094e-13
4.80722871309e-13
4.80723644808e-13
4.80724424889e-13
4.80725207016e-13
4.8072598543e-13
4.80726755e-13
4.80727511707e-13
4.80728251818e-13
4.80728971461e-13
4.80729667072e-13
4.80730334225e-13
4.8073096993e-13
4.80731568077e-13
4.80732127746e-13
4.80732640038e-13
4.80733107289e-13
4.80733515289e-13
4.80733873199e-13
4.807341644e-13
4.80734367621e-13
4.80734626578e-13
4.80734654177e-13
4.80734589228e-13
4.80734450417e-13
4.80734206472e-13
4.80733836811e-13
4.8073332141e-13
4.80732637736e-13
4.80721460631e-13
4.80722176953e-13
4.80722909592e-13
4.8072365317e-13
4.80724403447e-13
4.8072515562e-13
4.80725903365e-13
4.80726641761e-13
4.80727366931e-13
4.80728075204e-13
4.80728762815e-13
4.80729426215e-13
4.80730061111e-13
4.80730664254e-13
4.80731229825e-13
4.80731756925e-13
4.80732235532e-13
4.80732671429e-13
4.80733041815e-13
4.80733375568e-13
4.80733615287e-13
4.80733814464e-13
4.80734010876e-13
4.80733995861e-13
4.80733912028e-13
4.80733746776e-13
4.80733474879e-13
4.80733077976e-13
4.807325371e-13
4.80731830196e-13
4.80721549398e-13
4.80722237972e-13
4.80722942655e-13
4.80723658038e-13
4.80724380374e-13
4.80725104495e-13
4.807258235e-13
4.80726532769e-13
4.80727228504e-13
4.8072790701e-13
4.80728564637e-13
4.80729197804e-13
4.80729802388e-13
4.80730374876e-13
4.80730910132e-13
4.80731406061e-13
4.80731854486e-13
4.80732258926e-13
4.80732598152e-13
4.80732904934e-13
4.80733102121e-13
4.80733297328e-13
4.80733428753e-13
4.80733389491e-13
4.80733289382e-13
4.80733102248e-13
4.80732810091e-13
4.80732396123e-13
4.80731842975e-13
4.80731126591e-13
4.80721630346e-13
4.80722292512e-13
4.80722970693e-13
4.80723659766e-13
4.8072435559e-13
4.80725053261e-13
4.80725745399e-13
4.80726427624e-13
4.80727095986e-13
4.8072774675e-13
4.80728376331e-13
4.80728981071e-13
4.80729557197e-13
4.80730100836e-13
4.80730607685e-13
4.80731074114e-13
4.80731495145e-13
4.80731868496e-13
4.80732182616e-13
4.80732458024e-13
4.80732625654e-13
4.80732808786e-13
4.80732884501e-13
4.80732829946e-13
4.80732713493e-13
4.80732511076e-13
4.80732206961e-13
4.80731786044e-13
4.80731232068e-13
4.807305127e-13
4.80721704072e-13
4.80722341023e-13
4.80722993976e-13
4.80723658009e-13
4.80724328955e-13
4.80725001639e-13
4.80725668838e-13
4.80726326079e-13
4.80726969088e-13
4.80727594007e-13
4.80728197291e-13
4.80728775434e-13
4.80729324734e-13
4.80729841259e-13
4.80730321355e-13
4.80730760151e-13
4.80731155679e-13
4.80731499374e-13
4.80731792449e-13
4.80732033566e-13
4.80732184567e-13
4.80732343546e-13
4.80732376042e-13
4.80732310988e-13
4.80732182139e-13
4.80731970741e-13
4.80731661279e-13
4.80731242175e-13
4.80730696723e-13
4.80729990756e-13
4.80721771204e-13
4.80722383934e-13
4.80723012752e-13
4.80723652973e-13
4.80724300265e-13
4.80724949366e-13
4.80725593693e-13
4.80726227971e-13
4.80726847472e-13
4.80727448269e-13
4.80728027024e-13
4.80728580174e-13
4.8072910425e-13
4.80729595343e-13
4.80730050187e-13
4.80730463263e-13
4.80730834424e-13
4.80731151034e-13
4.80731424241e-13
4.80731632064e-13
4.8073177469e-13
4.80731898003e-13
4.80731902336e-13
4.80731829418e-13
4.80731693175e-13
4.8073147737e-13
4.80731168346e-13
4.80730758298e-13
4.80730226276e-13
4.80729575136e-13
4.80721832411e-13
4.80722421751e-13
4.80723027319e-13
4.80723644658e-13
4.80724268891e-13
4.80724896399e-13
4.80725519993e-13
4.80726133027e-13
4.80726730601e-13
4.80727308904e-13
4.80727864726e-13
4.8072839449e-13
4.80728894956e-13
4.80729362262e-13
4.80729793281e-13
4.80730182535e-13
4.80730529996e-13
4.80730822779e-13
4.8073107472e-13
4.80731254654e-13
4.80731390044e-13
4.80731472572e-13
4.80731461102e-13
4.80731382486e-13
4.807312435e-13
4.80731025621e-13
4.80730723011e-13
4.80730327849e-13
4.80729823416e-13
4.80729228815e-13
4.80721888443e-13
4.80722455215e-13
4.80723038279e-13
4.8072363328e-13
4.80724236045e-13
4.80724843568e-13
4.80725447983e-13
4.80726041058e-13
4.80726617965e-13
4.80727175241e-13
4.80727709602e-13
4.80728217554e-13
4.80728696009e-13
4.8072914115e-13
4.80729549789e-13
4.80729916915e-13
4.80730241495e-13
4.80730513358e-13
4.8073074224e-13
4.80730901441e-13
4.80731025274e-13
4.80731070398e-13
4.807310483e-13
4.80730967995e-13
4.80730827363e-13
4.80730611817e-13
4.80730322079e-13
4.80729943855e-13
4.80729481431e-13
4.80728936863e-13
4.80721940166e-13
4.80722485404e-13
4.80723046729e-13
4.80723620382e-13
4.80724203455e-13
4.80724792385e-13
4.80725378587e-13
4.80725952658e-13
4.80726509982e-13
4.80727047403e-13
4.80727561483e-13
4.80728049013e-13
4.80728506879e-13
4.80728931288e-13
4.80729318948e-13
4.80729665432e-13
4.80729968253e-13
4.80730221193e-13
4.80730426584e-13
4.8073057099e-13
4.80730676574e-13
4.80730691865e-13
4.80730662968e-13
4.80730582587e-13
4.80730439687e-13
4.80730231925e-13
4.80729957387e-13
4.80729600146e-13
4.80729183912e-13
4.80728697887e-13
4.80721988472e-13
4.80722513358e-13
4.80723053957e-13
4.8072360777e-13
4.80724173017e-13
4.80724744598e-13
4.80725313364e-13
4.80725869405e-13
4.80726408221e-13
4.80726926722e-13
4.80727421387e-13
4.80727889547e-13
4.80728327787e-13
4.80728732526e-13
4.80729100408e-13
4.80729427443e-13
4.80729709774e-13
4.80729945089e-13
4.80730127905e-13
4.80730260576e-13
4.80730342243e-13
4.80730338833e-13
4.80730303865e-13
4.80730223815e-13
4.80730080409e-13
4.80729881769e-13
4.80729625662e-13
4.80729292649e-13
4.80728919495e-13
4.80728489161e-13
4.80722033759e-13
4.80722539087e-13
4.80723060293e-13
4.80723596236e-13
4.80724145112e-13
4.80724700247e-13
4.80725252177e-13
4.8072579165e-13
4.80726313241e-13
4.80726813929e-13
4.8072729028e-13
4.80727739947e-13
4.80728159415e-13
4.8072854543e-13
4.80728894303e-13
4.80729202627e-13
4.80729465485e-13
4.80729684073e-13
4.80729845408e-13
4.80729967582e-13
4.80730024328e-13
4.80730009092e-13
4.80729966274e-13
4.80729884835e-13
4.80729742333e-13
4.80729553232e-13
4.80729318152e-13
4.80729016203e-13
4.80728685947e-13
4.80728301757e-13
4.80722075466e-13
4.8072256041e-13
4.80723064709e-13
4.80723585127e-13
4.80724115428e-13
4.8072465189e-13
4.8072518933e-13
4.80725713957e-13
4.80726219919e-13
4.80726704341e-13
4.80727164301e-13
4.80727597237e-13
4.80727999963e-13
4.80728368998e-13
4.8072869956e-13
4.80728989646e-13
4.80729234326e-13
4.80729436299e-13
4.80729578425e-13
4.80729690044e-13
4.80729725288e-13
4.80729702554e-13
4.80729652467e-13
4.80729569319e-13
4.80729430607e-13
4.80729253345e-13
4.80729032848e-13
4.80728763212e-13
4.80728472482e-13
4.8072811414e-13
4.80722120676e-13
4.80722576314e-13
4.8072305322e-13
4.80723548587e-13
4.80724056631e-13
4.80724573774e-13
4.80725096307e-13
4.80725607699e-13
4.80726100603e-13
4.80726572518e-13
4.80727021026e-13
4.80727443504e-13
4.80727835882e-13
4.80728193616e-13
4.80728512851e-13
4.80728788995e-13
4.8072901891e-13
4.80729200953e-13
4.80729328041e-13
4.80729417812e-13
4.80729425508e-13
4.80729393483e-13
4.80729330313e-13
4.80729234185e-13
4.80729093299e-13
4.80728919868e-13
4.80728703844e-13
4.8072846177e-13
4.80728197389e-13
4.80727883786e-13
4.80722173911e-13
4.80722592057e-13
4.80723033183e-13
4.80723497725e-13
4.80723982479e-13
4.80724481688e-13
4.80724990446e-13
4.80725493543e-13
4.80725978256e-13
4.80726441991e-13
4.80726882515e-13
4.80727297201e-13
4.80727680972e-13
4.8072802864e-13
4.8072833662e-13
4.8072859946e-13
4.80728816393e-13
4.80728976137e-13
4.80729094568e-13
4.80729148858e-13
4.80729135916e-13
4.80729092559e-13
4.80729014314e-13
4.80728901267e-13
4.80728754014e-13
4.80728579084e-13
4.80728369828e-13
4.8072814711e-13
4.80727913725e-13
4.80727658138e-13
4.80722217873e-13
4.80722602993e-13
4.80723014183e-13
4.80723452154e-13
4.80723914375e-13
4.80724395025e-13
4.80724888771e-13
4.80725383314e-13
4.80725859836e-13
4.80726315597e-13
4.80726748892e-13
4.80727156629e-13
4.80727533e-13
4.80727872784e-13
4.80728170672e-13
4.80728422072e-13
4.8072862347e-13
4.80728767968e-13
4.80728872892e-13
4.80728893426e-13
4.8072886821e-13
4.80728812699e-13
4.80728721622e-13
4.8072859723e-13
4.80728445124e-13
4.80728270418e-13
4.80728075328e-13
4.807278705e-13
4.80727665958e-13
4.80727456975e-13
4.80722263901e-13
4.80722617902e-13
4.80722998652e-13
4.80723408743e-13
4.80723847608e-13
4.80724309551e-13
4.80724788297e-13
4.80725275372e-13
4.80725745965e-13
4.80726195361e-13
4.80726622524e-13
4.80727023779e-13
4.80727393305e-13
4.80727725602e-13
4.8072801303e-13
4.80728254596e-13
4.80728438325e-13
4.8072857528e-13
4.80728654766e-13
4.80728653203e-13
4.80728619216e-13
4.80728552116e-13
4.8072845009e-13
4.8072831772e-13
4.80728162515e-13
4.80727990006e-13
4.80727810518e-13
4.80727615292e-13
4.80727447384e-13
4.80727254245e-13
4.80722304633e-13
4.80722628982e-13
4.80722982167e-13
4.80723366896e-13
4.8072378309e-13
4.80724226651e-13