/*--------------------------------*- C++ -*----------------------------------*\
| =========                 |                                                 |
| \\      /  F ield         | OpenFOAM: The Open Source CFD Toolbox           |
|  \\    /   O peration     | Version:  2312                                  |
|   \\  /    A nd           | Website:  www.openfoam.com                      |
|    \\/     M anipulation  |                                                 |
\*---------------------------------------------------------------------------*/
FoamFile
{
    version     2.0;
    format      ascii;
    arch        "LSB;label=32;scalar=64";
    class       volVectorField;
    location    "0.005";
    object      U;
}
// * * * * * * * * * * * * * * * * * * * * * * * * * * * * * * * * * * * * * //

dimensions      [0 1 -1 0 0 0 0];

internalField   nonuniform List<vector> 
19400
(
(3.50540804897 -3.35979575517 0)
(3.69367873064 -3.21374360803 1.59770239531e-19)
(3.84745778895 -3.0262288151 -9.24944142432e-15)
(3.95685570342 -2.80710315355 -9.26835702579e-15)
(4.01860179103 -2.5622851492 1.85355510782e-14)
(4.03071678441 -2.29826980838 -3.24364585655e-14)
(3.99205153046 -2.02188894016 1.85349334652e-14)
(3.90260113884 -1.7402704203 0)
(3.76346570092 -1.46023626648 4.63334620979e-15)
(3.57800044495 -1.18880083353 0)
(3.350918263 -0.932417743816 0)
(3.08856294293 -0.697002749775 -1.38996485127e-14)
(2.79877905605 -0.487491501381 1.1582988824e-14)
(2.49022582956 -0.307393274456 -1.57657291977e-20)
(2.17179315054 -0.159121633757 -5.79161351287e-16)
(1.85509994632 -0.0446785814497 -5.78966154338e-16)
(1.54623154974 0.0369066222222 1.3204495868e-20)
(1.25241453489 0.0881593857157 6.94361016704e-15)
(0.979732891227 0.113261048133 -4.62796215209e-15)
(0.732300045023 0.116688673044 0)
(0.513256719406 0.102405387259 4.62694489148e-15)
(0.324241068028 0.0745701609183 0)
(0.165526827077 0.0375792313572 0)
(0.0365476101261 -0.00444308019395 1.85027541319e-14)
(-0.0643344870921 -0.0476239850534 -4.16164049565e-14)
(-0.138813029705 -0.0885584714694 1.84891769514e-14)
(-0.189337905678 -0.124747469125 9.24444488752e-15)
(-0.219034216379 -0.154566645475 9.25140240039e-15)
(-0.231691649478 -0.177533627848 9.26440951257e-15)
(-0.231413402888 -0.194526625555 0)
(6.66369953804 -6.02883478132 0)
(7.08199495501 -5.92607169326 -6.52593294464e-19)
(7.45734221171 -5.76073927526 -2.62865007392e-14)
(7.77537404083 -5.53176152262 1.76501598327e-14)
(8.03317369053 -5.24992761087 -8.88773927345e-15)
(8.22756710742 -4.92176202155 0)
(8.35117624788 -4.55092054226 0)
(8.3953210327 -4.14790991717 0)
(8.35476109074 -3.72075285728 8.96577900101e-15)
(8.22648931925 -3.27835984416 -1.79319965632e-14)
(8.00925946278 -2.82995362892 8.96525807756e-15)
(7.70397404905 -2.38528584722 -4.48270216773e-15)
(7.31408271265 -1.95430561315 -2.24118229584e-15)
(6.84547119929 -1.54650863299 1.12058171316e-15)
(6.3077178857 -1.17078209263 1.68088425929e-15)
(5.71086838217 -0.834613347061 1.68032966907e-15)
(5.07346319632 -0.545754099532 -1.11988158183e-15)
(4.41733327197 -0.310388255907 2.23848572282e-15)
(3.76601916421 -0.132615675344 -1.34158918638e-14)
(3.13350417145 -0.0108307262087 8.93623863328e-15)
(2.53535780333 0.0595639527232 -2.23285747864e-14)
(1.98446363018 0.0860526593772 2.67840002904e-14)
(1.48908580775 0.0776505715946 0)
(1.05514880838 0.0427357697578 0)
(0.685470498634 -0.0101913077826 0)
(0.379378313988 -0.073194749384 8.93427851155e-15)
(0.133953124141 -0.139822461057 1.78733308861e-14)
(-0.0545963625971 -0.205714830849 -4.46562641374e-14)
(-0.191317488328 -0.269000522035 2.67792497205e-14)
(-0.283380531412 -0.330417003415 0)
(7.95236524935 -6.5008543958 -8.22660668597e-15)
(8.45257235005 -6.46692687981 8.2287248645e-15)
(8.92651295189 -6.37381735537 0)
(9.36714501705 -6.22659131853 3.97795101812e-19)
(9.76296522947 -6.0280581517 2.48420691218e-14)
(10.1013447586 -5.77776059975 2.4871938404e-14)
(10.3761815595 -5.48079098039 -1.65790603593e-14)
(10.5817089946 -5.14300145266 -8.29871296266e-15)
(10.711160333 -4.77013154626 -6.06395956177e-19)
(10.7578628245 -4.36841980794 -1.66685147742e-14)
(10.7153918164 -3.94419662867 -1.66948396825e-14)
(10.578220353 -3.50520239125 0)
(10.3422560142 -3.0601787482 4.17505109495e-15)
(10.0047092305 -2.617377841 -8.34968741643e-15)
(9.56526764645 -2.18551803382 1.56550454539e-15)
(9.02550132793 -1.77288599854 1.56545620807e-15)
(8.39079897263 -1.38729482331 -4.17439348944e-15)
(7.66885491806 -1.03568718642 4.17314258651e-15)
(6.87186222497 -0.725393419186 0)
(6.02719986014 -0.46547333847 1.66683748374e-14)
(5.16630277193 -0.263231924469 -1.66556791579e-14)
(4.32594328709 -0.123530896653 1.43947934102e-19)
(3.52432585226 -0.0421923846507 8.30663337725e-15)
(2.78124584179 -0.0107954334078 -1.66059248758e-14)
(2.11068934156 -0.0187806559034 8.30223113282e-15)
(1.52164608776 -0.0564617786558 8.30442694767e-15)
(1.01870014702 -0.115243032605 -3.32328917307e-14)
(0.602988914183 -0.188736774594 0)
(0.272591366838 -0.273649733462 -8.31475698718e-15)
(0.0237987270219 -0.369685404283 8.28030989222e-15)
(8.44767723852 -6.14231760334 -7.74886588343e-15)
(8.93886833605 -6.15823871389 1.55050628266e-14)
(9.41426538946 -6.12400096108 -3.10188865619e-14)
(9.86828204003 -6.04203385072 7.75674809019e-15)
(10.2952291469 -5.9126877172 1.55273247957e-14)
(10.6882339526 -5.73901513847 -3.88797584369e-14)
(11.0391207647 -5.52438241403 6.24931775513e-19)
(11.3404714596 -5.27198700632 1.28717905002e-20)
(11.5859245743 -4.9870453799 3.10553047395e-14)
(11.7688734068 -4.67305156101 0)
(11.8826628369 -4.33445586593 0)
(11.920253255 -3.97598034444 0)
(11.8749708398 -3.6024909029 3.84073489889e-15)
(11.7400311545 -3.21914015434 -3.83669314748e-15)
(11.5088915062 -2.83142539112 1.91866709471e-15)
(11.1752338354 -2.44522307 1.92095904093e-15)
(10.7339840405 -2.06683419021 -7.69897453823e-15)
(10.1818048403 -1.70289601012 3.8589781894e-15)
(9.51799027698 -1.35998650198 0)
(8.74635257629 -1.04410020505 0)
(7.87425262708 -0.76099624061 0)
(6.92188047864 -0.519146829046 7.85703106378e-20)
(5.92896595267 -0.328597382665 2.82060663197e-19)
(4.94660799648 -0.197392807687 1.58574875685e-19)
(4.00888350152 -0.124864091142 -2.31860200654e-14)
(3.14035478798 -0.103349368127 1.54491299619e-14)
(2.35975436681 -0.122837026013 5.40710432052e-14)
(1.68052504656 -0.176290888645 -3.09095022498e-14)
(1.11105331426 -0.25905266489 -1.54640039999e-14)
(0.655552293083 -0.369405252664 7.71308696563e-15)
(8.62521258968 -5.56374131078 6.11758004192e-19)
(9.0779079858 -5.60043389882 -1.44332105465e-14)
(9.52196079936 -5.59520114825 2.88969385785e-14)
(9.95259554337 -5.54977516205 1.44593891685e-14)
(10.3652888187 -5.46577773681 7.23524447828e-15)
(10.7552183654 -5.34580139295 -6.1982664361e-19)
(11.1175630412 -5.19209431505 -1.4471681917e-14)
(11.4468022049 -5.00883720686 7.22486448077e-15)
(11.7390332083 -4.79491932941 -7.21727299149e-15)
(11.9886126266 -4.55490834493 -7.1866712859e-15)
(12.1906295429 -4.29205731803 0)
(12.340081674 -4.01094290134 0)
(12.4300696639 -3.7178438623 0)
(12.4522636929 -3.41226735311 -1.78492972971e-15)
(12.4000113719 -3.09735062799 2.21596079281e-15)
(12.2655351907 -2.77606925749 4.41172636952e-16)
(12.0399478269 -2.45167411067 -1.76178995817e-15)
(11.7132143506 -2.12805179386 0)
(11.2753187172 -1.8096809223 0)
(10.7174687187 -1.50152068966 0)
(10.0336999535 -1.2089846254 0)
(9.22281360383 -0.938338333711 7.15891177768e-15)
(8.29258508795 -0.696459476348 -7.19328028839e-15)
(7.25724787387 -0.490144673817 -1.44205882101e-14)
(6.15985353839 -0.330436083574 2.88473873069e-14)
(5.07429177892 -0.229165237482 -7.19904253185e-15)
(4.04527583765 -0.187202387494 -1.43780946988e-14)
(3.10564595004 -0.198896073732 2.87429739913e-14)
(2.27953499665 -0.257821925897 1.43731390628e-14)
(1.58646623131 -0.361347347521 -5.73794307289e-14)
(8.72424214661 -5.01050790529 -1.33904233641e-14)
(9.13076072619 -5.05578435102 0)
(9.5321154337 -5.06497732201 0)
(9.92451383642 -5.03951940619 4.02829426175e-14)
(10.3043558852 -4.98113334576 -4.03224596352e-14)
(10.6682224828 -4.89203551273 2.69042636797e-14)
(11.0128678101 -4.77454983399 -1.34628614583e-14)
(11.3352062753 -4.63193361232 2.69275960249e-14)
(11.6327653045 -4.46794989445 -2.68665053833e-14)
(11.9018272372 -4.284821237 2.67315468466e-14)
(12.1380609615 -4.08311408732 -1.3268674741e-14)
(12.3360127969 -3.86474792828 1.31621013428e-14)
(12.4928815236 -3.62463357492 -3.31610898683e-15)
(12.6046911626 -3.37523075991 4.9345622502e-15)
(12.6687637106 -3.11860972727 -1.63418383451e-15)
(12.6737885656 -2.85867621061 -8.30642287495e-16)
(12.6104477802 -2.5947298638 4.91969955803e-15)
(12.4700119664 -2.32705540259 -3.25397274768e-15)
(12.2407868993 -2.05666576702 -1.12795193962e-19)
(11.9085552208 -1.78598544452 9.25086774759e-20)
(11.4580351307 -1.51847473053 6.51515391022e-15)
(10.8748902417 -1.25846360862 -3.27347061877e-14)
(10.1486611846 -1.01149827854 -1.49850582998e-19)
(9.27535301758 -0.78456810933 -1.32541787454e-14)
(8.26283611791 -0.585906884705 4.70185628004e-20)
(7.13346675873 -0.424587719142 -1.33988422946e-14)
(5.93881571897 -0.313092215428 1.34173590367e-14)
(4.78650688979 -0.265861882202 0)
(3.72059563212 -0.283203192308 0)
(2.7831634947 -0.36096625305 1.33456414194e-14)
(8.80853273694 -4.52486706028 0)
(9.17293461596 -4.57379191695 -2.49149666531e-14)
(9.53398937089 -4.59118269574 2.49380301192e-14)
(9.88854793639 -4.57823718524 1.24800683897e-14)
(10.2336453272 -4.53647134536 -3.74785717459e-14)
(10.5665286558 -4.46774023584 0)
(10.8847078732 -4.37415508141 2.50335202938e-14)
(11.1857887572 -4.25796458698 -3.75840105624e-14)
(11.4680757265 -4.12212766165 -3.03773654789e-20)
(11.7300921509 -3.96968936768 6.26006783977e-15)
(11.9701828012 -3.80372061566 1.24905939099e-14)
(12.1865294057 -3.6274450079 -3.10731717736e-14)
(12.3758848693 -3.44033700453 6.15843264545e-15)
(12.532935993 -3.24312963168 -6.08309802474e-15)
(12.6523378327 -3.0348321708 3.00501083776e-15)
(12.7292420938 -2.81411785503 3.79699212472e-15)
(12.7661627896 -2.5911053462 3.54746242329e-20)
(12.7509981191 -2.36897463201 6.15954947757e-15)
(12.6704476536 -2.145721929 -6.05825520293e-15)
(12.5138675767 -1.91961559745 2.25260582881e-19)
(12.2653545306 -1.69050795871 1.79694133909e-14)
(11.9052671902 -1.46054170764 3.00140509906e-14)
(11.4129009208 -1.23328279779 -1.20642889239e-14)
(10.7690261656 -1.01335916094 -1.0638042398e-19)
(9.96006025834 -0.807365622223 0)
(8.98348372841 -0.624697016591 -1.23251291202e-14)
(7.85479220099 -0.476179937554 3.72527259511e-14)
(6.61061788749 -0.374583525443 2.49294819953e-14)
(5.35859528553 -0.337945220887 -2.49267859091e-14)
(4.19952413797 -0.374446877044 0)
(8.88756991518 -4.10454940036 2.31599239983e-14)
(9.21563179342 -4.15506238895 -3.47703797059e-14)
(9.5415590267 -4.17770906378 0)
(9.86264036099 -4.17348830146 1.1610537972e-14)
(10.1763369271 -4.14367471462 -2.71374721668e-19)
(10.4803175385 -4.08984371451 0)
(10.772450664 -4.01375216531 -1.16434585287e-14)
(11.050947641 -3.91749408984 0)
(11.3139416723 -3.80303252558 -5.92977662986e-20)
(11.560665086 -3.67338772265 1.16697011801e-14)
(11.7899446257 -3.53030928358 5.83348316698e-15)
(12.0013917289 -3.37721375866 5.82703953204e-15)
(12.1948390358 -3.21676550869 -2.90553445766e-15)
(12.3692385363 -3.05151093772 -1.02324618452e-19)
(12.5211241371 -2.88123334199 -1.4305124695e-15)
(12.645623948 -2.7060674556 -7.02062939245e-16)
(12.7355461603 -2.52188501265 9.07150497217e-20)
(12.7845710145 -2.32839203691 2.80951198442e-15)
(12.7979571593 -2.1338276607 -5.55002699512e-15)
(12.7584547713 -1.94280679081 -5.68518248193e-15)
(12.6525859489 -1.75164867766 1.11684082498e-14)
(12.4655662024 -1.556842574 -2.21810302144e-14)
(12.1753218776 -1.35896429251 0)
(11.7559052222 -1.16100443533 1.11457847945e-14)
(11.1810711528 -0.967333382418 0)
(10.4284465712 -0.78459033297 -1.13121948595e-14)
(9.48637120559 -0.622279525454 0)
(8.36204219606 -0.493766287754 0)
(7.09338284185 -0.414459133542 -1.15890049839e-14)
(5.77074501073 -0.402836884767 2.32057019922e-14)
(8.96249693986 -3.73938796124 2.15618038594e-14)
(9.25939067508 -3.79035878336 -3.23699216562e-14)
(9.55505831583 -3.81650812126 0)
(9.84713528076 -3.81865858317 3.2425756232e-14)
(10.1334040409 -3.79788233124 -2.16368936041e-14)
(10.4118363113 -3.75550919628 2.16579348643e-14)
(10.6805837198 -3.69302624887 1.08391008585e-14)
(10.9380709749 -3.61224579683 -1.08491634691e-14)
(11.1828482032 -3.51483594442 1.0859872924e-14)
(11.4139457418 -3.40327919756 -1.08679359044e-14)
(11.63071105 -3.27939229993 -2.17337608776e-14)
(11.8324600499 -3.14519611001 1.62972145852e-14)
(12.0189944875 -3.00273865257 -2.71569112618e-15)
(12.1904276473 -2.85444868289 2.71343554642e-15)
(12.347642667 -2.70348043385 6.76082386567e-16)
(12.4908935225 -2.55255022575 0)
(12.6151919684 -2.39920138323 7.6522489444e-20)
(12.7133812715 -2.24245991581 -7.78497834045e-15)
(12.7783996372 -2.07828645951 1.52495755367e-14)
(12.804281002 -1.90735551086 -8.24943248298e-20)
(12.795210078 -1.73729511671 -1.04209449367e-14)
(12.7245412676 -1.57141781915 1.04348250911e-14)
(12.5813467479 -1.40326660095 -1.0301529199e-14)
(12.342397193 -1.23139984784 -1.028229971e-14)
(11.9778988145 -1.05836064641 2.06494561208e-14)
(11.4555135263 -0.888494516083 -5.1992634473e-14)
(10.7453768451 -0.728564980796 -6.29344248633e-20)
(9.82777584308 -0.589344346299 0)
(8.70492758457 -0.485826605377 -1.06892251225e-14)
(7.41299996254 -0.436554925736 2.15621575831e-14)
(9.03327050683 -3.41994888187 2.00873136388e-14)
(9.30328666309 -3.47062444287 4.02063557132e-14)
(9.57278366227 -3.49904846009 -2.01196505158e-14)
(9.83968378146 -3.50589142985 -2.01367703038e-14)
(10.1020386657 -3.49206149666 1.0077928232e-14)
(10.3580542201 -3.45867281534 2.01736290549e-14)
(10.6061225147 -3.40701486981 -1.00960495145e-14)
(10.8448083818 -3.33856349804 0)
(11.0729723855 -3.25494198086 -1.01149133105e-14)
(11.2894782751 -3.1577592667 1.01243728764e-14)
(11.4939530791 -3.04915239757 -2.11469096162e-19)
(11.6858200018 -2.93071576495 -5.06258547177e-15)
(11.8648247079 -2.80417864493 -5.06116532125e-15)
(12.0308475944 -2.67135551533 0)
(12.1843962655 -2.53402133729 -8.76797580062e-12)
(12.325913482 -2.39415217282 8.76194104651e-12)
(12.457929147 -2.25529942512 -2.51542000738e-15)
(12.5791597223 -2.11847409072 -4.98146826761e-15)
(12.6822497841 -1.97986268514 -4.8993718651e-15)
(12.7590390249 -1.83825520753 1.90590549608e-14)
(12.7988132356 -1.68831451562 9.55383791434e-15)
(12.8074225687 -1.53516084931 -9.58519946985e-15)
(12.7635316066 -1.38718782754 0)
(12.6517756333 -1.23930237955 9.58705003324e-15)
(12.4497650993 -1.08779313633 -1.90956975852e-14)
(12.1246416073 -0.934851803751 2.87556945027e-14)
(11.6388600313 -0.785259236328 1.93161279009e-14)
(10.9558528829 -0.646693346305 -3.89913415225e-14)
(10.0495640076 -0.531277614313 -3.93827078996e-14)
(8.91768555569 -0.456608581795 0)
(9.09979409579 -3.1386210475 -2.24684719128e-19)
(9.34646073103 -3.18847128157 -1.87405937184e-14)
(9.59316252045 -3.21825429277 -2.0102880329e-19)
(9.83806819451 -3.22852296465 0)
(10.0794517088 -3.22003751249 1.87877369907e-14)
(10.3157215352 -3.19373940719 1.88042165725e-14)
(10.545451794 -3.15073754447 -1.882124352e-14)
(10.767361408 -3.0922558404 0)
(10.9804347796 -3.01974123694 0)
(11.1836657091 -2.93444713645 0)
(11.3766106618 -2.83840911676 1.88830012445e-14)
(11.5589018595 -2.73283596881 -1.41589755861e-14)
(11.7301976 -2.61928734214 -2.61205605275e-21)
(11.8904372741 -2.49934548655 2.35915208659e-15)
(12.0399374466 -2.37455432973 -8.79255099452e-12)
(12.1789789321 -2.24638686297 8.7896829818e-12)
(12.3085015316 -2.11624878878 -2.35767590976e-15)
(12.430011119 -1.98644927136 9.40926020814e-15)
(12.5460789094 -1.86004950748 -1.40227196508e-14)
(12.6522583302 -1.73544436312 1.53551314944e-19)
(12.7362180771 -1.60764409508 0)
(12.7911014462 -1.47561945902 0)
(12.8125325911 -1.33691600172 0)
(12.7896270791 -1.20165735531 -1.82971001362e-14)
(12.7002538465 -1.06833905589 1.78653334797e-14)
(12.5239202312 -0.931699910466 0)
(12.2250918058 -0.793861741684 0)
(11.7612559722 -0.660671870409 -1.79791765521e-14)
(11.0898539119 -0.541037264502 1.81551345011e-14)
(10.1789831247 -0.449968037843 1.83624358683e-14)
(9.16208644665 -2.8893403333 0)
(9.38831979277 -2.93798362638 0)
(9.61502588395 -2.96843528765 -1.74948163615e-14)
(9.84057994996 -2.98115247921 -1.75090001958e-14)
(10.0634455144 -2.97676333218 5.85759289783e-19)
(10.282201164 -2.95608355318 3.17875215019e-19)
(10.4955800023 -2.92001072043 0)
(10.7024410102 -2.86964952545 -3.51396006957e-14)
(10.9018249672 -2.80617061046 8.79281693565e-15)
(11.0929920612 -2.73081199898 -8.80062200073e-15)
(11.2752152396 -2.64492542529 0)
(11.4482703772 -2.54997368595 0)
(11.6119672095 -2.44719984353 4.40270120712e-15)
(11.7662385334 -2.33793452448 -2.20081732892e-15)
(11.9112353396 -2.2235569588 -2.13080566411e-20)
(12.0473311706 -2.10535194494 -2.1999827152e-15)
(12.1748880984 -1.98441574843 2.19946986389e-15)
(12.295171539 -1.86229542813 -4.39821594764e-15)
(12.4083559832 -1.73936973737 0)
(12.5199273278 -1.62057599173 0)
(12.6264196539 -1.50418637639 8.64190016596e-15)
(12.7179906249 -1.38708804528 1.69759208067e-14)
(12.7839999534 -1.26645627196 4.66816092242e-20)
(12.817582064 -1.13794957908 0)
(12.8123037153 -1.01130250794 3.42409799055e-14)
(12.7390906269 -0.887824123337 -1.66593258532e-14)
(12.5798596111 -0.761085932862 -1.65487620117e-14)
(12.2962166917 -0.633624228014 1.66209525851e-14)
(11.840633168 -0.512718835826 0)
(11.1644985763 -0.410445013581 0)
(9.22025502475 -2.66723396029 0)
(9.42848723901 -2.71440466196 0)
(9.637535246 -2.74500656402 1.63297914202e-14)
(9.84595069869 -2.75940740057 -1.63426435757e-14)
(10.0523573597 -2.75813805272 -1.63556256849e-14)
(10.2554868954 -2.74187240368 -1.63686315764e-14)
(10.4541833687 -2.7114108899 1.63834506191e-14)
(10.6474505448 -2.66766556421 1.63981271147e-14)
(10.8343927503 -2.61160580137 8.2054182381e-15)
(11.0143514686 -2.54438163728 1.64235143325e-14)
(11.1866587142 -2.46696017696 8.21908867648e-15)
(11.3510771623 -2.38085251382 0)
(11.5074108227 -2.28706080352 0)
(11.6556331864 -2.18675685241 0)
(11.7958299179 -2.08104450393 1.02694340625e-15)
(11.9283770236 -1.9711334081 1.02673815159e-15)
(12.0535437615 -1.85791958759 0)
(12.172359281 -1.74274304668 0)
(12.2850092421 -1.62601704499 0)
(12.3934799401 -1.50931411179 -8.20773352437e-15)
(12.5006225651 -1.39455124545 1.19444304498e-19)
(12.6080162774 -1.28356762316 0)
(12.7059021146 -1.17265286183 -1.59389817995e-14)
(12.7807716277 -1.05820885001 1.57061285271e-14)
(12.8263377838 -0.935517227788 -1.60133143812e-14)
(12.8358197696 -0.812593444719 1.59633666047e-14)
(12.77373254 -0.694176536638 -1.55588032351e-14)
(12.624194235 -0.572564559694 1.54400187322e-14)
(12.3454102488 -0.45051126201 0)
(11.8842186594 -0.338760619839 0)
(9.27446705766 -2.46835097753 -1.52301116102e-14)
(9.46674057986 -2.51387138276 1.59065540468e-19)
(9.66009669361 -2.54423553004 0)
(9.85323497596 -2.55973483516 -1.52643842563e-14)
(10.0449279644 -2.56080826588 3.0552239971e-14)
(10.2340212091 -2.54802130551 1.52885341136e-14)
(10.4194737218 -2.52208685988 -1.53010734119e-14)
(10.6003878267 -2.48372873261 8.74846247662e-20)
(10.7759449359 -2.43382570156 0)
(10.9455328396 -2.37331245809 0)
(11.1085642417 -2.30310856539 7.674903717e-15)
(11.2648063405 -2.22443549387 -7.67836727488e-15)
(11.4140292599 -2.13817671654 3.83864028256e-15)
(11.5562197793 -2.04538064026 3.83808938638e-15)
(11.6914361714 -1.94691782256 -9.59331790158e-16)
(11.8200200582 -1.84393130723 -1.91829005861e-15)
(11.9422717398 -1.73715225759 -3.83585156014e-15)
(12.0589291645 -1.62768041063 -3.83490535404e-15)
(12.1705313883 -1.51610799089 -7.66785341438e-15)
(12.2779517436 -1.40322080971 7.66686762644e-15)
(12.3828858981 -1.29011620311 0)
(12.48745616 -1.17738551228 0)
(12.5969321437 -1.06901812358 3.03532974616e-14)
(12.7001131907 -0.95985676693 -1.49506234506e-14)
(12.7831833063 -0.846786190846 -1.47854185941e-14)
(12.8399238109 -0.726290865359 -1.87092183058e-19)
(12.8607038642 -0.602822507295 -2.98018826367e-14)
(12.8051785592 -0.483724774638 0)
(12.6579281456 -0.361364817641 2.88626394694e-14)
(12.3731490162 -0.2403543629 -1.45307734243e-14)
(9.32491810964 -2.28945742805 -1.42349087029e-14)
(9.50296415019 -2.33321260296 2.84902209441e-14)
(9.68230379455 -2.36304584677 1.5276483874e-19)
(9.86175633455 -2.37917476005 1.42651259729e-14)
(10.0402068095 -2.38199925052 -2.85515351126e-14)
(10.2166289269 -2.37194546328 -1.42868144718e-14)
(10.3900648284 -2.34965786535 2.85967414774e-14)
(10.5596969448 -2.31572574286 -2.00127655345e-19)
(10.7247905175 -2.2709381276 0)
(10.8847574787 -2.21604413554 7.16599743088e-15)
(11.0391112664 -2.15192256427 -1.43433071675e-14)
(11.187535863 -2.07947374287 1.43526451697e-14)
(11.3298737532 -1.99957635488 -2.15263064827e-14)
(11.4660770265 -1.91310751763 -5.38031030667e-15)
(11.5962035872 -1.8208315108 2.68982201868e-15)
(11.7205345522 -1.72367232761 3.58570850181e-15)
(11.8393889508 -1.62232269785 8.96212191509e-15)
(11.9533091638 -1.51761063137 4.16261811552e-20)
(12.0629995732 -1.41019052425 1.43343876452e-14)
(12.1690267276 -1.30060189737 -8.38836087778e-20)
(12.2728694185 -1.18952758634 -2.14874040051e-14)
(12.3755630051 -1.07709350192 0)
(12.4797852856 -0.964297179157 -1.4281224759e-14)
(12.5912487941 -0.855738609864 2.83817210417e-14)
(12.6993669811 -0.743901580496 -1.40186409638e-14)
(12.7905149015 -0.628543860284 2.775810044e-14)
(12.8571304631 -0.505118846151 2.79681882666e-14)
(12.8853267847 -0.375907565716 -2.7855825935e-14)
(12.8312264643 -0.249954992788 -4.89236985937e-20)
(12.6779675177 -0.121693392934 -1.35386857531e-14)
(9.37182494269 -2.12788195333 0)
(9.53712927694 -2.16980485384 -2.66442118873e-14)
(9.70387086649 -2.19889820894 -1.33312273664e-14)
(9.87099400123 -2.21530998362 -1.33403950448e-14)
(10.0374759758 -2.2193990061 5.3402137265e-14)
(10.2023925869 -2.21149344757 -1.33604104083e-14)
(10.364871864 -2.1921510279 -8.60001860817e-20)
(10.5241596141 -2.16187802562 0)
(10.6795971221 -2.12132584425 1.33905441252e-14)
(10.8306099038 -2.07116137909 1.19168754957e-19)
(10.9767923662 -2.01215984919 0)
(11.1177714179 -1.94496779954 -6.7098558916e-15)
(11.2534424845 -1.87048258675 6.70978377982e-15)
(11.3837307402 -1.78942533437 5.03155063466e-15)
(11.5086947769 -1.70243488506 -1.67684961795e-15)
(11.6285367452 -1.61026870318 -1.67651941904e-15)
(11.7435856594 -1.51353936152 -1.6762344648e-15)
(11.8543137751 -1.4128634179 -6.70341160484e-15)
(11.9614333912 -1.30879172956 6.70129346224e-15)
(12.0654857992 -1.20173131117 0)
(12.1675050473 -1.09222517764 -1.81236744141e-19)
(12.2685538458 -0.98051285007 -1.3372298488e-14)
(12.3699762164 -0.866624970951 -1.33539929608e-14)
(12.4750037773 -0.751426646331 -2.6655425192e-14)
(12.5889096533 -0.638325143873 3.97658822667e-14)
(12.701315221 -0.521153526977 -2.62646339721e-14)
(12.8002945115 -0.398828359608 -1.30211341331e-14)
(12.8745538377 -0.26619257954 1.3083587586e-14)
(12.9054007446 -0.125050865906 2.60615312935e-14)
(12.8464772863 0.0132157306057 0)
(9.41541025035 -1.98140280501 -2.4918227415e-14)
(9.56923480885 -2.02147616678 4.98667351931e-14)
(9.7246112177 -2.04966647507 -2.49503132172e-14)
(9.88056750286 -2.06610466876 0)
(10.0361865936 -2.07106856555 -1.24929560358e-14)
(10.1906182807 -2.06483552297 -1.36138899141e-19)
(10.3430654766 -2.04786845223 -1.25098359874e-14)
(10.4928289175 -2.02062603076 1.36972841765e-19)
(10.6393105717 -1.98362047445 1.25280431983e-14)
(10.7819656999 -1.93745559827 -2.50748810835e-14)
(10.9204174392 -1.88277770898 -6.27310955008e-15)
(11.0543220189 -1.82013341888 2.51102691992e-14)
(11.1835501625 -1.75029110895 -6.27904041738e-15)
(11.3080153714 -1.67388313556 0)
(11.4277816597 -1.59141969566 1.56903216991e-15)
(11.5430402766 -1.50352098657 -1.46084647964e-24)
(11.6540286054 -1.4107093388 0)
(11.7611716757 -1.31347884701 -6.26902863247e-15)
(11.8650457646 -1.21227282354 5.13626093914e-21)
(11.9662622832 -1.107396747 -1.87839971121e-14)
(12.0656531034 -0.999147081099 -1.2513524435e-14)
(12.1642566527 -0.887755342831 5.0008789328e-14)
(12.2631369918 -0.773167043195 -2.49760958645e-14)
(12.3640866878 -0.655339857661 1.24683643273e-14)
(12.4703302196 -0.534469227129 -2.48920838999e-14)
(12.5867987115 -0.413342932023 3.71742822879e-14)
(12.7036013857 -0.286781135659 0)
(12.8088895233 -0.151804853859 2.43971750526e-14)
(12.8865887145 -0.00356858337949 -4.89512936775e-14)
(12.9134759281 0.155083527583 2.44538848522e-14)
(9.45589836194 -1.84815662925 -2.33279411187e-14)
(9.59933332893 -1.88638027847 1.79114169354e-19)
(9.74440989603 -1.91355794575 -5.01130275432e-21)
(9.89022067751 -1.92981933198 0)
(10.0359341035 -1.93535719035 0)
(10.1807636069 -1.93042369846 -2.34060410567e-14)
(10.3239865885 -1.91538749852 2.3423475004e-14)
(10.4649507813 -1.89064791238 -2.34392506977e-14)
(10.6030977167 -1.85664904756 0)
(10.7379278106 -1.8138783527 0)
(10.8690789206 -1.76289914652 1.17447481394e-14)
(10.9962445059 -1.70417358872 -1.17522488003e-14)
(11.1192721942 -1.63834883879 2.93893435753e-15)
(11.2380583069 -1.56593143974 2.93795490076e-15)
(11.3526184422 -1.48740933713 -2.93693934718e-15)
(11.4630944578 -1.40325059108 0)
(11.5697307991 -1.31390046633 2.93418860028e-15)
(11.6728850337 -1.21972414557 2.93256774078e-15)
(11.773035861 -1.12102289988 5.86168457438e-15)
(11.8707811861 -1.01802999159 -1.38288508427e-19)
(11.9668319785 -0.910874681257 1.17069712604e-14)
(12.0621261002 -0.799643472339 -1.16966194973e-14)
(12.1576503113 -0.684222584381 1.16848173603e-14)
(12.2547231258 -0.564390024434 -2.33412902217e-14)
(12.3553739046 -0.439711170919 2.33026279055e-14)
(12.4626917977 -0.309741002905 0)
(12.5816554436 -0.176805238795 0)
(12.7021580976 -0.0356211024991 3.40293302922e-19)
(12.810267404 0.117569224954 4.56553013289e-14)
(12.8848783505 0.287748566143 -4.58719538842e-14)
(9.49351046867 -1.7265756546 4.37119858198e-14)
(9.62752038962 -1.762969258 -3.31764128731e-19)
(9.76320620298 -1.78908161878 2.18837462672e-14)
(9.89975637396 -1.8049974073 -2.18981158641e-14)
(10.0363911098 -1.81089140501 -2.19127334776e-14)
(10.172403799 -1.80694578371 2.1926769614e-14)
(10.3071169756 -1.7934838808 -3.29126529626e-14)
(10.4399315354 -1.77082193676 1.02096200968e-20)
(10.5703164431 -1.73936157292 1.09848064165e-14)
(10.6978116949 -1.69949543044 -1.09914663058e-14)
(10.8220616246 -1.65170379366 -2.19964875963e-14)
(10.9427491991 -1.59638334369 5.50198429607e-15)
(11.0597397994 -1.53409384778 -1.59165843961e-20)
(11.1729079195 -1.4652148558 0)
(11.2822595023 -1.39017569412 1.3748783324e-15)
(11.3878759404 -1.3093272683 0)
(11.4899714763 -1.22304447101 0)
(11.5888456377 -1.13159582475 -1.09829045177e-14)
(11.6848958756 -1.03517392494 6.16561347003e-20)
(11.7786527771 -0.933903100816 2.19370993038e-14)
(11.8707490703 -0.827800880178 -1.09600294175e-14)
(11.9619807439 -0.716786512028 -1.09508520098e-14)
(12.0532766536 -0.600640745203 1.09409340365e-14)
(12.1457160017 -0.478975623048 1.09295196121e-14)
(12.2408132767 -0.351260148451 -2.18304674926e-14)
(12.3405747583 -0.216482591045 2.1797527661e-14)
(12.4482721871 -0.073758053641 -2.17670126093e-14)
(12.5689068576 0.0752868240365 -2.16810120292e-14)
(12.6909586411 0.236341285768 3.81999776691e-19)
(12.7960806805 0.414339603103 2.14121787296e-14)
(9.5284367888 -1.61532176155 -2.04859245144e-14)
(9.65385676905 -1.64992154292 2.04979946383e-14)
(9.78096815521 -1.67492818389 0)
(9.90903510617 -1.69039174288 0)
(10.0373428428 -1.69645089668 2.05354201513e-14)
(10.1652169505 -1.69326264992 2.05481763136e-14)
(10.2920536486 -1.681081908 0)
(10.4172768374 -1.6601666179 4.11483894317e-14)
(10.5403949629 -1.63086616237 -1.02935849065e-14)
(10.6609758045 -1.59351856189 0)
(10.7786595592 -1.54848904286 1.03043003547e-14)
(10.8931719529 -1.49618470758 5.1547443343e-15)
(11.0043051438 -1.43696398291 5.27318050302e-20)
(11.1119668692 -1.37123046627 0)
(11.2161274654 -1.2993059944 1.19974446998e-24)
(11.316834481 -1.22146502433 1.28762099245e-15)
(11.4142516603 -1.13798863367 0)
(11.5086214598 -1.04906771112 1.02893254127e-14)
(11.6002646359 -0.954791637667 -1.54245167496e-14)
(11.6896277194 -0.855202189066 -1.02758641391e-14)
(11.7772580025 -0.750203440303 0)
(11.8638132615 -0.639585248401 1.02600410426e-14)
(11.9501224632 -0.523012266224 -2.05012420069e-14)
(12.037083451 -0.399926791483 -2.04825093511e-14)
(12.125906333 -0.269651203791 -2.04588968255e-14)
(12.2180986625 -0.131158855641 -2.04325828016e-14)
(12.315669867 0.017125286075 0)
(12.4224093215 0.176467313187 0)
(12.5428867393 0.346231284396 2.02927545526e-14)
(12.6617427981 0.533327570964 -2.01810530851e-14)
(9.56087933392 -1.51324656789 1.92135059725e-14)
(9.678431334 -1.54610772304 -2.56700410011e-19)
(9.79768639783 -1.56998348606 -3.84691495677e-14)
(9.9179535269 -1.58492542364 1.92445392889e-14)
(10.0385799949 -1.59101525796 -1.92570770258e-14)
(10.1589376738 -1.58838757999 -1.9267708118e-14)
(10.2784527096 -1.5772521752 -1.92787558463e-14)
(10.3966003825 -1.55781542918 -2.89345027009e-14)
(10.5129055082 -1.53037760358 9.65059367154e-15)
(10.6269617214 -1.49521504382 0)
(10.7384105236 -1.45262660249 -9.66016551193e-15)
(10.8470028861 -1.40297828552 5.8847109716e-20)
(10.9524771899 -1.34650271023 -4.83415410735e-15)
(11.054766436 -1.28360369776 4.83328097531e-15)
(11.1537969858 -1.21451687101 0)
(11.2495861943 -1.13945625208 -1.20714010791e-15)
(11.342234865 -1.05859777178 4.82614021958e-15)
(11.4319328917 -0.97206988189 -4.82306220598e-15)
(11.5189252638 -0.879890888358 -9.16466592825e-20)
(11.6035766239 -0.78200859774 9.63323160342e-15)
(11.6863362742 -0.678255391625 0)
(11.7677209483 -0.568295825084 9.61827856393e-15)
(11.8484295388 -0.451701041898 9.60951406997e-15)
(11.929205303 -0.327778056216 3.84034765678e-14)
(12.0109868756 -0.195676852 5.75506587414e-14)
(12.094944164 -0.054263243182 -1.91640007703e-14)
(12.1825880994 0.0980070005847 1.91390686616e-14)
(12.2757396033 0.263400036441 -5.73482730511e-14)