/*--------------------------------*- C++ -*----------------------------------*\
| =========                 |                                                 |
| \\      /  F ield         | OpenFOAM: The Open Source CFD Toolbox           |
|  \\    /   O peration     | Version:  2312                                  |
|   \\  /    A nd           | Website:  www.openfoam.com                      |
|    \\/     M anipulation  |                                                 |
\*---------------------------------------------------------------------------*/
FoamFile
{
    version     2.0;
    format      ascii;
    arch        "LSB;label=32;scalar=64";
    class       volScalarField;
    location    "0.006";
    object      alphat;
}
// * * * * * * * * * * * * * * * * * * * * * * * * * * * * * * * * * * * * * //

dimensions      [1 -1 -1 0 0 0 0];

internalField   nonuniform List<scalar> 
48128
(
1.14518e-07
1.48329e-07
1.98285e-07
2.00814e-07
1.85494e-07
1.61258e-07
1.33659e-07
1.07229e-07
8.26504e-08
5.7397e-08
1.32513e-07
8.37642e-07
2.77577e-06
5.09137e-06
7.0306e-06
8.62511e-06
9.97352e-06
1.11531e-05
1.22337e-05
1.32598e-05
1.42643e-05
1.52699e-05
1.62919e-05
1.73409e-05
1.84309e-05
1.9572e-05
2.07784e-05
2.2084e-05
2.34839e-05
2.50097e-05
2.66585e-05
2.84405e-05
3.03755e-05
3.2479e-05
3.4748e-05
3.72358e-05
3.99619e-05
4.29541e-05
4.61092e-05
4.95388e-05
5.31686e-05
5.69515e-05
6.09468e-05
6.52006e-05
6.96329e-05
7.42698e-05
7.8873e-05
8.38075e-05
8.86278e-05
9.35734e-05
9.81444e-05
0.000103153
0.000107834
0.000112779
0.000117068
0.000122755
0.000128985
0.000134986
0.000140914
0.000146482
0.000151854
0.000156894
0.000161655
0.000166221
0.000170591
0.000174789
0.000178741
0.000182461
0.000184869
0.000177487
0.000170705
0.000164488
0.000158923
0.000153688
0.000148861
0.000144318
0.000140057
0.000136108
0.000132353
0.000128857
0.000125544
0.000122527
0.000119568
0.000116859
0.000114225
0.000111823
0.000109482
0.00010736
0.000105284
0.000103391
0.000101532
9.98389e-05
9.81925e-05
9.66646e-05
9.51614e-05
9.37199e-05
9.23068e-05
9.10088e-05
8.98354e-05
8.87696e-05
8.7785e-05
8.68531e-05
8.59309e-05
8.50424e-05
8.42098e-05
8.34291e-05
8.27142e-05
8.20414e-05
8.14186e-05
8.08317e-05
8.02987e-05
7.98076e-05
7.93735e-05
7.89744e-05
7.86159e-05
7.82773e-05
7.79428e-05
7.75243e-05
7.70924e-05
7.65185e-05
7.6066e-05
7.61486e-05
7.58697e-05
7.5568e-05
7.55395e-05
7.54318e-05
7.53005e-05
7.51764e-05
7.50248e-05
7.48645e-05
7.46882e-05
7.45186e-05
7.43531e-05
7.41833e-05
7.40134e-05
7.38326e-05
7.36736e-05
7.35396e-05
7.34174e-05
7.33036e-05
7.31966e-05
7.31022e-05
7.30166e-05
7.29396e-05
7.28765e-05
7.28254e-05
7.27735e-05
7.2723e-05
7.26565e-05
7.25875e-05
7.25053e-05
7.24297e-05
7.23578e-05
7.22871e-05
7.22112e-05
7.21202e-05
7.20239e-05
7.18931e-05
7.17544e-05
7.1623e-05
7.14759e-05
7.13448e-05
7.12759e-05
7.1188e-05
7.11119e-05
7.10582e-05
7.10106e-05
7.09818e-05
7.09514e-05
7.09234e-05
7.08871e-05
7.08448e-05
7.07931e-05
7.07348e-05
7.06622e-05
7.05783e-05
7.04899e-05
7.0403e-05
7.03046e-05
7.02131e-05
7.01433e-05
7.00832e-05
7.00293e-05
7.00012e-05
6.99765e-05
6.99512e-05
6.9931e-05
6.99146e-05
6.98956e-05
6.98681e-05
6.98252e-05
6.97686e-05
6.97092e-05
6.96369e-05
6.95664e-05
6.94938e-05
6.94331e-05
6.93783e-05
6.93298e-05
6.92931e-05
6.92624e-05
6.92378e-05
6.92231e-05
6.9211e-05
6.91951e-05
6.91771e-05
6.91463e-05
6.91168e-05
6.90794e-05
6.89969e-05
6.89462e-05
6.88931e-05
6.88349e-05
6.87856e-05
6.8741e-05
6.87019e-05
6.86739e-05
6.86489e-05
6.8626e-05
6.86057e-05
6.859e-05
6.857e-05
6.85516e-05
6.85229e-05
6.84694e-05
6.84309e-05
6.83822e-05
6.83279e-05
6.82835e-05
6.82401e-05
6.81975e-05
6.81572e-05
6.81259e-05
6.8098e-05
6.80724e-05
6.80491e-05
6.80279e-05
6.80059e-05
6.79851e-05
6.79352e-05
8.587e-07
6.75106e-07
4.70898e-07
3.15593e-07
2.34625e-07
1.91917e-07
1.96065e-07
3.32469e-07
7.01765e-07
1.31218e-06
2.82885e-06
5.83812e-06
1.07122e-05
1.83431e-05
2.6908e-05
3.61526e-05
4.55324e-05
5.47258e-05
6.37844e-05
7.28121e-05
8.20256e-05
9.15167e-05
0.000101619
0.000112296
0.000123809
0.000136168
0.000149573
0.000164089
0.000179241
0.000196355
0.000214927
0.000234512
0.000255558
0.000278057
0.000301206
0.000325699
0.000349451
0.00037549
0.000402321
0.000430904
0.000460941
0.000491448
0.000522784
0.000555079
0.000587224
0.000620615
0.000653372
0.000688732
0.000723564
0.000760124
0.000793205
0.000829695
0.00086393
0.000900241
0.000931707
0.000963256
0.000993095
0.00102025
0.00104594
0.00106936
0.00109083
0.00110989
0.00112708
0.00114267
0.00115683
0.00116975
0.00118086
0.00119035
0.00119819
0.0012048
0.00121152
0.00121585
0.0012198
0.00122178
0.0012223
0.00122199
0.00121917
0.00121614
0.00121097
0.00120576
0.00119842
0.00119172
0.00118327
0.00117539
0.00116574
0.00115658
0.00114605
0.00113613
0.00112511
0.00111481
0.00110361
0.00109301
0.00108184
0.00107109
0.00105993
0.00104875
0.00103714
0.00102568
0.00101451
0.00100376
0.000993359
0.000983391
0.000973384
0.000963381
0.000953626
0.000943997
0.000934795
0.000925718
0.000917102
0.000908602
0.000900614
0.00089283
0.000885632
0.000878622
0.000872226
0.000865824
0.000860018
0.000853252
0.000846614
0.000838986
0.000832086
0.000827759
0.000821422
0.000815488
0.000811156
0.000807088
0.000803225
0.000799802
0.000796193
0.000792549
0.000788682
0.000784853
0.000780987
0.00077709
0.0007731
0.000769079
0.000765072
0.000761325
0.000757627
0.000754177
0.000750801
0.000747652
0.000744618
0.000741765
0.000739142
0.000735028
0.000730968
0.000726904
0.000722837
0.000718904
0.000714953
0.000711103
0.000707306
0.00070368
0.000700175
0.000696685
0.000693277
0.00068967
0.000686164
0.000682582
0.000679048
0.00067538
0.000671979
0.00066858
0.000665256
0.000662193
0.000659165
0.00065651
0.000653893
0.000651528
0.000649314
0.000647163
0.00064523
0.000643184
0.000641416
0.000639427
0.000637588
0.000635615
0.000633597
0.000631534
0.000629367
0.000627346
0.000625232
0.000623523
0.000621818
0.000620224
0.000618737
0.000617377
0.000616119
0.000615013
0.000613918
0.000612891
0.000611632
0.000610665
0.000609478
0.00060829
0.000606962
0.000605638
0.000604319
0.00060308
0.000601888
0.000600762
0.000599755
0.00059886
0.000598083
0.000597383
0.000596712
0.000596145
0.000595409
0.000594816
0.000594086
0.000593275
0.000592438
0.000591523
0.000590594
0.000589638
0.00058881
0.000587987
0.000587262
0.000586581
0.000585999
0.000585536
0.000585086
0.000584704
0.000584286
0.000583822
0.000583252
0.000582721
0.000582113
0.000581452
0.000580753
0.000580031
0.000579377
0.000578768
0.000578194
0.000577704
0.000577255
0.000576892
0.000576594
0.000576117
1.14711e-06
1.28308e-06
1.36483e-06
9.63978e-07
6.4953e-07
6.97848e-07
1.28336e-06
2.57359e-06
4.76417e-06
8.5572e-06
1.54092e-05
2.80477e-05
4.81671e-05
7.70189e-05
0.000108436
0.000139513
0.000168373
0.000195003
0.000219768
0.000243425
0.000266769
0.000289457
0.00031323
0.000337463
0.000362965
0.000389604
0.000417737
0.000447554
0.000478632
0.000511855
0.000546602
0.000582894
0.000621073
0.000660721
0.000700711
0.000742742
0.000785589
0.000831625
0.000878349
0.000927282
0.000978412
0.00103007
0.00108243
0.00113606
0.00118878
0.00124317
0.00129544
0.00135147
0.00140579
0.00146277
0.00151376
0.00156909
0.00162089
0.00167496
0.00172229
0.00177091
0.00181644
0.00185879
0.00189918
0.00193665
0.00197089
0.00200164
0.00202972
0.00205537
0.00207887
0.00210042
0.00211935
0.00213602
0.00215018
0.00216062
0.00217022
0.0021756
0.00218085
0.0021828
0.00218311
0.00218185
0.00217747
0.00217251
0.00216437
0.00215631
0.00214498
0.00213466
0.0021212
0.00210866
0.00209314
0.00207853
0.00206156
0.00204571
0.00202788
0.00201122
0.00199292
0.00197562
0.00195722
0.00193946
0.00192073
0.00190175
0.001882
0.00186248
0.00184344
0.00182507
0.00180716
0.00178974
0.00177204
0.00175422
0.00173672
0.00171933
0.00170262
0.00168596
0.00167006
0.00165419
0.00163918
0.00162436
0.00161054
0.00159689
0.00158431
0.00157145
0.00155977
0.00154597
0.00153257
0.00151753
0.00150317
0.00149378
0.00148129
0.00146877
0.00145919
0.00145017
0.0014413
0.00143299
0.00142432
0.00141563
0.00140656
0.00139756
0.00138852
0.00137945
0.00137025
0.001361
0.00135183
0.00134308
0.00133452
0.00132633
0.00131828
0.00131061
0.00130315
0.00129605
0.00128922
0.00128286
0.00127675
0.00127104
0.00126527
0.0012598
0.00125424
0.00124889
0.00124371
0.0012387
0.00123378
0.00122872
0.00122366
0.00121805
0.00121228
0.0012064
0.00120044
0.00119447
0.00118922
0.00118383
0.00117891
0.00117424
0.00117007
0.00116617
0.00116264
0.00115931
0.00115612
0.00115304
0.00114989
0.00114681
0.00114344
0.00113986
0.00113608
0.00113221
0.00112813
0.00112403
0.00112009
0.00111631
0.00111279
0.00110971
0.00110689
0.00110429
0.00110193
0.00109985
0.00109792
0.00109605
0.00109404
0.00109183
0.00108946
0.00108697
0.00108431
0.00108153
0.00107872
0.00107599
0.00107333
0.00107094
0.00106878
0.00106683
0.00106521
0.0010638
0.00106251
0.00106133
0.00106004
0.00105884
0.00105734
0.00105559
0.00105388
0.00105197
0.00104997
0.00104796
0.00104605
0.00104417
0.00104262
0.00104116
0.00103994
0.00103881
0.00103795
0.00103708
0.00103638
0.00103552
0.00103442
0.00103336
0.00103207
0.00103069
0.0010293
0.00102789
0.00102647
0.00102507
0.00102385
0.00102279
0.00102183
0.00102105
0.00102036
0.0010198
0.00101929
0.00101827
1.36132e-06
2.13035e-06
2.86712e-06
2.09184e-06
1.90395e-06
2.96878e-06
5.25549e-06
9.38168e-06
1.62953e-05
2.85679e-05
5.08452e-05
8.6066e-05
0.000134003
0.000190052
0.000243605
0.000291642
0.000333731
0.000371836
0.00040689
0.000439738
0.000472013
0.000503694
0.000536372
0.000569596
0.000604197
0.00064007
0.000677471
0.000716547
0.00075709
0.000799631
0.000843556
0.000889256
0.000936095
0.000984807
0.0010341
0.00108546
0.00113797
0.00119372
0.00124971
0.00130736
0.00136711
0.0014274
0.00148811
0.00155031
0.00161116
0.00167346
0.00173255
0.00179526
0.00185584
0.00191872
0.00197549
0.00203599
0.00209287
0.00215155
0.00220409
0.0022587
0.00230924
0.00235733
0.00240348
0.0024464
0.00248603
0.00252252
0.00255659
0.00258821
0.00261755
0.00264473
0.00266906
0.00269157
0.00271131
0.0027268
0.00274188
0.00275206
0.00276252
0.00276872
0.00277355
0.00277591
0.00277564
0.00277452
0.00276978
0.00276514
0.00275721
0.00275027
0.00273941
0.00272928
0.00271592
0.00270324
0.00268807
0.0026738
0.00265739
0.00264187
0.00262452
0.00260811
0.00259029
0.00257301
0.00255421
0.00253473
0.00251419
0.00249383
0.00247411
0.00245509
0.00243657
0.00241834
0.00239948
0.0023803
0.00236135
0.0023424
0.00232415
0.00230585
0.00228837
0.00227074
0.0022541
0.00223752
0.00222213
0.00220683
0.00219271
0.0021782
0.00216491
0.00214867
0.00213262
0.00211475
0.00209657
0.00208554
0.00207154
0.00205655
0.00204516
0.00203481
0.00202427
0.00201407
0.00200332
0.00199252
0.00198112
0.00196969
0.00195811
0.00194641
0.00193447
0.00192239
0.00191035
0.00189883
0.00188752
0.00187662
0.00186587
0.00185557
0.00184549
0.00183585
0.00182652
0.00181774
0.00180921
0.00180117
0.001793
0.00178521
0.00177725
0.00176957
0.00176206
0.00175479
0.00174754
0.00174015
0.00173264
0.00172444
0.00171595
0.00170736
0.00169861
0.00168982
0.00168198
0.00167413
0.00166677
0.00165981
0.00165351
0.00164761
0.00164218
0.00163701
0.00163202
0.00162714
0.00162215
0.00161722
0.00161187
0.00160627
0.00160039
0.00159443
0.00158812
0.00158188
0.00157585
0.00157015
0.00156473
0.00155992
0.0015554
0.00155124
0.00154737
0.00154395
0.00154063
0.00153745
0.00153405
0.00153038
0.00152657
0.0015224
0.00151811
0.00151364
0.00150924
0.00150495
0.00150077
0.00149703
0.00149358
0.00149047
0.00148772
0.00148532
0.00148304
0.00148096
0.00147875
0.00147661
0.0014741
0.00147111
0.00146821
0.00146517
0.00146203
0.00145887
0.00145589
0.00145299
0.00145054
0.00144823
0.00144623
0.00144439
0.00144291
0.00144139
0.00144016
0.00143865
0.0014368
0.00143502
0.00143297
0.00143081
0.00142865
0.00142649
0.00142433
0.00142225
0.00142041
0.0014188
0.00141732
0.00141609
0.00141497
0.00141403
0.00141316
0.00141155
1.53254e-06
4.06006e-06
5.78085e-06
4.1353e-06
5.33782e-06
8.18484e-06
1.3496e-05
2.29311e-05
3.98937e-05
7.00164e-05
0.000116274
0.000179437
0.000249833
0.000319363
0.000382641
0.0004387
0.000489024
0.000533475
0.000574688
0.000613626
0.000651686
0.000689194
0.000727357
0.000766059
0.000805894
0.000846861
0.000889091
0.00093274
0.000977647
0.00102419
0.00107166
0.00112037
0.00116993
0.00122145
0.00127338
0.00132735
0.00138219
0.00144011
0.00149786
0.00155636
0.00161686
0.00167768
0.00173883
0.00180141
0.0018617
0.00192268
0.00197962
0.00203951
0.0020971
0.00215624
0.00220964
0.00226673
0.00232034
0.00237542
0.00241291
0.00246324
0.00249206
0.0025348
0.00257121
0.00260818
0.00264824
0.0026862
0.00273306
0.00277501
0.00281974
0.00285386
0.00289445
0.00293317
0.00296404
0.00298539
0.00300557
0.00302076
0.00303638
0.00304688
0.0030568
0.00306336
0.00306822
0.00307199
0.00307248
0.00307315
0.00307135
0.00307029
0.00306523
0.00306039
0.00305255
0.00304497
0.00303512
0.00302583
0.00301454
0.00300378
0.00299133
0.00297962
0.00296635
0.00295344
0.00293859
0.00292269
0.00290561
0.00288855
0.00287224
0.00285649
0.00284122
0.00282602
0.00280994
0.00279341
0.00277697
0.00276042
0.00274449
0.00272839
0.00271306
0.00269747
0.00268282
0.00266817
0.00265465
0.00264119
0.00262883
0.00261612
0.00260426
0.00258936
0.00257399
0.00255716
0.00253875
0.00252845
0.0025167
0.00250294
0.00249243
0.00248329
0.00247391
0.00246451
0.00245451
0.00244442
0.00243353
0.00242252
0.00241119
0.00239962
0.00238771
0.00237554
0.00236334
0.00235163
0.00234011
0.002329
0.00231798
0.00230742
0.00229705
0.00228712
0.00227749
0.00226844
0.00225962
0.00225131
0.00224279
0.00223465
0.00222622
0.00221811
0.00221005
0.0022023
0.0021944
0.00218638
0.00217804
0.00216892
0.00215936
0.00214969
0.00213976
0.00212966
0.00212069
0.00211181
0.0021034
0.00209547
0.00208826
0.00208155
0.00207537
0.0020695
0.00206382
0.00205822
0.00205245
0.00204669
0.00204037
0.00203375
0.00202674
0.00201963
0.00201202
0.00200453
0.00199725
0.00199046
0.00198392
0.00197812
0.00197265
0.00196768
0.00196301
0.00195885
0.0019548
0.0019509
0.00194668
0.00194213
0.00193736
0.00193221
0.0019268
0.00192121
0.00191569
0.00191032
0.00190509
0.00190046
0.00189611
0.00189223
0.00188873
0.00188571
0.00188279
0.00188013
0.00187728
0.00187451
0.00187135
0.00186752
0.00186369
0.00185979
0.00185576
0.00185172
0.00184792
0.00184424
0.00184114
0.00183821
0.00183565
0.00183329
0.00183139
0.00182943
0.00182781
0.00182588
0.00182348
0.00182115
0.00181852
0.00181576
0.00181297
0.00181023
0.00180749
0.00180488
0.00180257
0.00180055
0.0017987
0.00179715
0.00179576
0.00179457
0.00179347
0.00179145
1.6844e-06
7.61459e-06
9.99802e-06
7.88291e-06
1.07606e-05
1.65084e-05
2.71737e-05
4.64356e-05
8.10795e-05
0.000133887
0.000204901
0.000284222
0.000364434
0.00043968
0.000507655
0.000569118
0.000622535
0.000670982
0.000716005
0.000758557
0.000799925
0.000840611
0.000881487
0.00092269
0.000964554
0.00100725
0.00105075
0.00109529
0.00114058
0.00118694
0.00123357
0.00128139
0.0013296
0.00137968
0.0014297
0.00148103
0.00153248
0.00158682
0.00164035
0.0016933
0.00174826
0.00180289
0.001858
0.00191451
0.00195129
0.00197186
0.00199287
0.0020125
0.00203038
0.00204537
0.00207154
0.00210269
0.00212402
0.00215375
0.00217565
0.0022357
0.00226076
0.00229175
0.00233238
0.00235567
0.00240102
0.00242881
0.00247888
0.00251482
0.00255828
0.00258702
0.00262443
0.00265986
0.00269491
0.00273546
0.00276989
0.00281195
0.00284837
0.00288516
0.00292114
0.0029535
0.00299146
0.00302473
0.00305806
0.00309218
0.00312903
0.00316066
0.00317123
0.00317247
0.00317127
0.00316996
0.00316678
0.00316392
0.00315931
0.00315504
0.00314906
0.00314374
0.00313673
0.00312992
0.00312076
0.00311043
0.00309886
0.00308717
0.00307625
0.0030656
0.00305534
0.00304493
0.00303359
0.00302175
0.00300982
0.00299767
0.00298599
0.00297405
0.00296273
0.00295111
0.00294027
0.00292938
0.00291945
0.00290957
0.00290066
0.00289132
0.00288238
0.00287065
0.00285794
0.00284426
0.00282827
0.00281987
0.00281192
0.00280165
0.00279344
0.00278683
0.00278019
0.0027732
0.00276561
0.00275792
0.00274932
0.00274052
0.00273122
0.00272157
0.00271153
0.00270117
0.00269069
0.00268064
0.00267071
0.00266113
0.00265164
0.00264255
0.00263364
0.0026251
0.00261685
0.00260912
0.00260163
0.0025946
0.00258732
0.00258039
0.00257311
0.00256616
0.0025591
0.00255239
0.00254539
0.00253824
0.00253061
0.00252216
0.00251316
0.00250401
0.00249451
0.00248466
0.00247601
0.00246761
0.00245957
0.00245204
0.00244519
0.00243893
0.00243319
0.0024278
0.00242256
0.00241741
0.00241198
0.00240652
0.00240039
0.0023939
0.00238696
0.00237982
0.00237213
0.00236454
0.0023571
0.00235024
0.0023436
0.0023378
0.00233235
0.00232748
0.0023229
0.00231884
0.00231488
0.00231104
0.00230687
0.00230224
0.00229733
0.00229201
0.00228632
0.00228045
0.0022746
0.00226896
0.00226342
0.00225862
0.00225403
0.00225002
0.00224639
0.00224335
0.00224036
0.00223768
0.00223475
0.00223186
0.00222861
0.00222454
0.00222036
0.00221612
0.00221178
0.00220737
0.00220327
0.0021993
0.002196
0.00219287
0.0021902
0.0021877
0.00218576
0.00218375
0.00218207
0.00218011
0.00217758
0.00217504
0.00217222
0.00216923
0.00216617
0.0021632
0.00216023
0.00215741
0.00215496
0.00215284
0.0021509
0.00214933
0.00214793
0.00214675
0.00214568
0.00214364
1.84047e-06
1.17962e-05
1.43063e-05
1.28789e-05
1.86663e-05
2.93867e-05
4.84151e-05
8.36851e-05
0.000138664
0.000212852
0.000296594
0.000383815
0.000467872
0.000545329
0.000616324
0.000678676
0.000733877
0.000784476
0.000831419
0.000875656
0.000918312
0.000960047
0.00100136
0.00104265
0.00108406
0.0011259
0.00116801
0.00121067
0.0012534
0.00129672
0.00133978
0.00138359
0.00142706
0.00147196
0.00151618
0.00156143
0.00160584
0.00165328
0.00169939
0.0017134
0.00172426
0.00172266
0.00173114
0.0017422
0.00175625
0.00176604
0.00178003
0.00179554
0.00181055
0.00182641
0.00184508
0.00188332
0.00190056
0.00193132
0.00194071
0.00200597
0.00202818
0.00203703
0.00207694
0.00208948
0.00212739
0.00214521
0.0021876
0.00221313
0.00224942
0.00227098
0.00229969
0.00232736
0.0023565
0.00239009
0.00242047
0.00245809
0.0024915
0.00252661
0.00256073
0.00259343
0.00263075
0.00266484
0.00270022
0.00273778
0.00277526
0.00281121
0.00284594
0.00288134
0.00291672
0.00295049
0.00298481
0.00301801
0.00304879
0.00308076
0.00311177
0.00313176
0.00313283
0.00313363
0.00313176
0.00312863
0.00312429
0.00311967
0.00311569
0.00311177
0.00310804
0.00310393
0.00309895
0.0030934
0.00308754
0.00308126
0.0030752
0.00306864
0.00306255
0.00305604
0.00305017
0.00304413
0.00303881
0.00303351
0.00302905
0.00302385
0.00301873
0.00301126
0.00300268
0.00299347
0.00298177
0.00297605
0.00297232
0.0029669
0.00296184
0.00295835
0.00295522
0.00295148
0.00294725
0.00294288
0.00293759
0.002932
0.00292574
0.00291911
0.00291205
0.00290468
0.00289712
0.00288984
0.00288261
0.00287568
0.00286883
0.00286231
0.00285595
0.0028499
0.0028441
0.00283873
0.0028336
0.00282883
0.00282387
0.00281914
0.00281413
0.00280935
0.00280439
0.0027997
0.0027947
0.00278944
0.00278366
0.00277708
0.00276985
0.00276245
0.00275468
0.00274627
0.00273908
0.0027324
0.00272585
0.00271981
0.00271434
0.00270954
0.00270523
0.00270125
0.00269737
0.00269361
0.00268945
0.00268522
0.00268028
0.00267494
0.00266909
0.00266291
0.00265629
0.00264965
0.00264307
0.00263709
0.00263135
0.00262645
0.00262194
0.002618
0.00261433
0.00261116
0.00260807
0.00260508
0.00260173
0.00259787
0.00259369
0.00258897
0.00258389
0.00257861
0.00257327
0.00256819
0.00256313
0.00255893
0.00255484
0.0025514
0.00254831
0.00254592
0.00254348
0.00254141
0.00253901
0.00253662
0.00253392
0.00253024
0.0025264
0.00252246
0.00251847
0.00251433
0.00251055
0.00250687
0.00250395
0.00250115
0.0024989
0.00249677
0.00249526
0.00249368
0.00249238
0.00249086
0.00248869
0.00248641
0.00248388
0.00248114
0.00247831
0.00247555
0.00247281
0.00247022
0.00246806
0.00246622
0.00246461
0.00246337
0.00246233
0.00246152
0.0024608
0.00245927
2.06931e-06
1.57447e-05
1.95738e-05
1.97451e-05
3.0474e-05
4.7936e-05
7.97167e-05
0.000133212
0.000206509
0.000291707
0.000382556
0.000472755
0.000557681
0.000636283
0.000707028
0.000769111
0.000824993
0.000876198
0.000923539
0.000967944
0.00101023
0.00105122
0.00109116
0.00113064
0.00116967
0.00120867
0.00124732
0.00128604
0.00132409
0.0013623
0.00139949
0.00143704
0.00147364
0.00151127
0.00154744
0.00155798
0.00155357
0.00155325
0.00153421
0.00153111
0.00153275
0.00152661
0.00153849
0.00155073
0.00156756
0.00157851
0.00159419
0.00161876
0.00163228
0.00165159
0.00165795
0.0017041
0.00171483
0.00174266
0.00174671
0.00179492
0.00181233
0.00180416
0.00183332
0.00183708
0.00186354
0.00187345
0.00190372
0.00191944
0.00194624
0.00196254
0.00198151
0.0020025
0.00202499
0.00205092
0.00207628
0.00210509
0.00213365
0.00216047
0.0021898
0.00221685
0.00224756
0.00227821
0.00230551
0.0023432
0.00236948
0.00240817
0.00243387
0.00247837
0.00250555
0.00255183
0.00258163
0.00262862
0.0026578
0.00270433
0.00273713
0.00278277
0.00281109
0.00285318
0.00287862
0.00291728
0.00295108
0.00298844
0.00301002
0.00301487
0.00301918
0.00302282
0.00302558
0.00302755
0.00302893
0.00302972
0.00303055
0.00303072
0.0030312
0.00303107
0.00303135
0.00303135
0.0030317
0.00303208
0.00303288
0.00303262
0.00303209
0.00302996
0.00302678
0.00302313
0.00301724
0.00301499
0.00301556
0.00301562
0.00301472
0.00301474
0.00301534
0.00301546
0.00301517
0.00301468
0.00301331
0.00301156
0.003009
0.0030061
0.00300271
0.0029991
0.00299523
0.00299138
0.00298755
0.00298398
0.00298045
0.00297719
0.00297402
0.00297114
0.00296843
0.00296606
0.00296388
0.00296195
0.00295993
0.00295802
0.0029559
0.00295397
0.00295173
0.00294971
0.00294732
0.00294463
0.00294143
0.00293747
0.00293287
0.00292803
0.00292279
0.00291687
0.00291198
0.00290769
0.0029035
0.0028997
0.00289635
0.00289373
0.0028915
0.00288957
0.00288772
0.00288597
0.0028838
0.0028815
0.0028785
0.00287508
0.00287102
0.00286672
0.00286198
0.00285711
0.0028522
0.0028479
0.00284386
0.00284058
0.00283769
0.00283535
0.00283327
0.00283162
0.00283003
0.00282853
0.00282666
0.0028243
0.00282151
0.00281813
0.00281441
0.00281048
0.00280638
0.00280257
0.00279874
0.00279581
0.00279289
0.00279067
0.00278873
0.00278758
0.00278627
0.0027854
0.00278411
0.00278279
0.00278124
0.00277859
0.00277574
0.00277273
0.00276972
0.00276649
0.00276364
0.00276085
0.00275887
0.00275696
0.00275566
0.0027544
0.00275382
0.00275314
0.00275271
0.00275212
0.00275081
0.00274929
0.00274755
0.00274558
0.00274346
0.00274142
0.00273939
0.00273753
0.00273611
0.00273501
0.00273414
0.00273365
0.00273335
0.00273332
0.00273334
0.00273288
2.34606e-06
2.06437e-05
2.65085e-05
3.00456e-05
4.63898e-05
7.34578e-05
0.000120949
0.000190658
0.000273951
0.000365426
0.000459207
0.000549663
0.000634037
0.00071258
0.000781311
0.000842626
0.000898093
0.000948738
0.000995269
0.00103849
0.00107899
0.00111779
0.00115485
0.00119097
0.00122603
0.00126059
0.00129415
0.00132736
0.00135917
0.00139086
0.00142074
0.00145048
0.00145885
0.00144268
0.0014156
0.00139103
0.00137924
0.00137335
0.00135412
0.00135637
0.00136607
0.00136806
0.00139645
0.00140794
0.0014224
0.0014374
0.00144431
0.00147749
0.00148284
0.00150042
0.00149082
0.00152961
0.00153103
0.00155023
0.00155012
0.0015646
0.0015906
0.00158469
0.00160088
0.00160362
0.00162475
0.00163488
0.0016561
0.00167213
0.00169181
0.00171047
0.00172413
0.00174547
0.00176449
0.00178957
0.00181132
0.00183504
0.00186273
0.001879
0.0019102
0.00192822
0.0019567
0.00198296
0.00200159
0.00204035
0.0020534
0.00209046
0.00211
0.00214892
0.00216696
0.0022059
0.00222772
0.00226599
0.00228861
0.00232518
0.00235297
0.00238927
0.00241702
0.00245427
0.0024815
0.00252129
0.00256176
0.00260295
0.00263615
0.00267203
0.00270044
0.00273185
0.00276275
0.00279599
0.0028263
0.00284799
0.00285806
0.00286699
0.0028758
0.00288369
0.00289169
0.00289932
0.00290685
0.00291413
0.00292142
0.00292715
0.00293231
0.00293684
0.00294037
0.0029431
0.00294456
0.00294736
0.00295293
0.00295862
0.0029629
0.00296724
0.00297205
0.00297667
0.00298095
0.002985
0.00298816
0.002991
0.00299278
0.00299433
0.00299523
0.00299606
0.00299654
0.00299677
0.00299693
0.00299729
0.00299761
0.00299815
0.00299869
0.00299947
0.00300032
0.00300139
0.00300258
0.00300394
0.00300522
0.0030066
0.00300776
0.00300915
0.00301005
0.00301112
0.00301176
0.00301209
0.00301192
0.00301106
0.00300969
0.00300801
0.00300589
0.00300312
0.00300113
0.00299972
0.00299838
0.00299736
0.00299671
0.00299662
0.00299694
0.00299746
0.0029981
0.0029988
0.00299912
0.00299919
0.00299864
0.00299769
0.00299599
0.00299419
0.00299191
0.00298943
0.00298682
0.0029848
0.00298301
0.00298185
0.00298104
0.00298085
0.00298083
0.00298117
0.00298155
0.00298201
0.00298214
0.00298175
0.00298091
0.00297947
0.00297768
0.00297569
0.00297345
0.00297148
0.00296946
0.00296833
0.00296717
0.00296665
0.00296638
0.0029669
0.00296725
0.00296801
0.00296832
0.00296855
0.00296866
0.00296761
0.00296631
0.00296478
0.00296329
0.00296152
0.00296015
0.00295878
0.00295824
0.00295771
0.00295783
0.00295793
0.00295871
0.00295939
0.00296024
0.00296102
0.00296105
0.00296075
0.00296031
0.00295958
0.00295866
0.0029578
0.00295697
0.00295628
0.00295605
0.00295611
0.0029564
0.00295708
0.00295791
0.00295904
0.00296017
0.00296136
2.65204e-06
2.63865e-05
3.26387e-05
4.36301e-05
6.72653e-05
0.000106152
0.000168687
0.000247721
0.000337156
0.00043136
0.000525404
0.000614704
0.000698285
0.000774496
0.00084123
0.0009012
0.00095537
0.00100447
0.00104907
0.00108988
0.00112739
0.00116262
0.00119547
0.00122683
0.00125652
0.00128529
0.0013124
0.00133896
0.00136356
0.00138762
0.00136415
0.00133039
0.00129968
0.00127429
0.00124663
0.00122618
0.00122463
0.00122628
0.00121701
0.00122513
0.00124966
0.00125448
0.00128204
0.00129071
0.00129521
0.00131804
0.00130912
0.00134121
0.00133218
0.00134418
0.00132935
0.00135307
0.00135476
0.00137281
0.00138458
0.00136628
0.00140483
0.00141125
0.00141089
0.0014205
0.00142696
0.00144818
0.00145629
0.00147568
0.00148717
0.00151372
0.00152258
0.00154932
0.00156142
0.00159296
0.0016062
0.00163203
0.00165934
0.00166817
0.00170575
0.00171253
0.00174868
0.00176067
0.00179218
0.00180999
0.0018267
0.00184942
0.00187212
0.00189748
0.00192114
0.00194651
0.00196566
0.00198751
0.00200747
0.00202801
0.00204885
0.00206917
0.0020901
0.00211063
0.00213558
0.00216233
0.00219625
0.00222525
0.00225513
0.00228303
0.00230959
0.0023378
0.00237046
0.00240387
0.00243806
0.00247147
0.00250393
0.00253584
0.00256807
0.00259928
0.00262401
0.00264206
0.00265948
0.00267582
0.00269174
0.00270527
0.00271824
0.00273085
0.00274312
0.00275442
0.00276453
0.0027748
0.00278661
0.0027986
0.00280921
0.00281917
0.00282926
0.00283927
0.00284897
0.00285848
0.00286714
0.00287546
0.00288259
0.00288945
0.00289567
0.00290181
0.00290751
0.00291269
0.00291764
0.00292269
0.00292757
0.00293257
0.00293744
0.00294245
0.00294744
0.00295245
0.0029575
0.0029626
0.00296764
0.00297273
0.00297765
0.0029827
0.00298723
0.00299173
0.00299581
0.00299961
0.00300284
0.00300554
0.00300787
0.00300981
0.00301128
0.00301223
0.00301356
0.00301544
0.00301739
0.00301952
0.00302191
0.00302469
0.0030279
0.0030312
0.00303464
0.00303808
0.00304121
0.00304407
0.00304627
0.00304818
0.00304934
0.00305041
0.00305104
0.00305141
0.00305154
0.00305225
0.00305309
0.00305443
0.00305611
0.00305836
0.00306074
0.00306341
0.00306609
0.00306883
0.0030713
0.00307325
0.0030748
0.00307572
0.00307629
0.00307668
0.00307679
0.00307709
0.00307735
0.00307839
0.00307941
0.00308097
0.00308278
0.00308527
0.00308767
0.00309039
0.00309268
0.00309485
0.003097
0.003098
0.0030987
0.00309909
0.00309956
0.00309973
0.00310026
0.00310076
0.00310207
0.00310333
0.00310525
0.00310711
0.00310961
0.003112
0.00311451
0.00311702
0.00311883
0.00312014
0.0031214
0.00312232
0.00312304
0.00312379
0.00312456
0.00312547
0.00312681
0.00312843
0.00313024
0.00313247
0.00313477
0.00313741
0.00313999
0.00314336
2.93748e-06
3.29017e-05
4.093e-05
6.04668e-05
9.28863e-05
0.000144223
0.000216937
0.000301666
0.000393767
0.000488491
0.000581211
0.0006686
0.000750647
0.000823815
0.000888456
0.000946513
0.000998597
0.0010452
0.00108677
0.001124
0.00115727
0.00118758
0.00121487
0.00124014
0.00126316
0.00128495
0.0013047
0.00132369
0.00128882
0.00124837
0.00120397
0.00116559
0.00114089
0.00112485
0.00111073
0.00110137
0.00110969
0.0011178
0.00111429
0.00112254
0.00116964
0.00116823
0.00116702
0.00118761
0.00117578
0.0012002
0.00118149
0.00120754
0.0011955
0.00121727
0.00120908
0.0012143
0.00121332
0.00122297
0.00123873
0.00121026
0.00122443
0.00124512
0.00122938
0.00124874
0.00123816
0.00126796
0.00125734
0.00128107
0.00127395
0.00131632
0.00131326
0.0013059
0.0013051
0.00129952
0.00130092
0.00130007
0.00130445
0.0013074
0.00131132
0.0013181
0.00132324
0.00133309
0.00134298
0.00135669
0.0013673
0.00138115
0.0013956
0.00141274
0.00142941
0.00144965
0.00146949
0.00149262
0.00151576
0.00154093
0.00156719
0.00159519
0.00162378
0.00165449
0.00168551
0.00171839
0.00175335
0.00178796
0.00182296
0.00185729
0.00189121
0.00192478
0.00195983
0.00199498
0.00203003
0.00206437
0.00209828
0.00213113
0.00216377
0.00219507
0.00222597
0.00225522
0.00228342
0.00231016
0.00233599
0.00235939
0.00238248
0.00240532
0.00242815
0.00245033
0.00247102
0.00249124
0.00251101
0.00253065
0.00254897
0.00256647
0.00258318
0.00260001
0.00261631
0.00263274
0.00264806
0.0026633
0.00267711
0.0026907
0.00270363
0.00271625
0.0027284
0.00273981
0.00275072
0.00276155
0.00277197
0.00278242
0.00279247
0.00280264
0.00281244
0.00282227
0.00283186
0.00284147
0.0028509
0.00286043
0.00286964
0.00287903
0.00288763
0.00289622
0.00290418
0.00291199
0.00291922
0.00292606
0.00293254
0.00293867
0.00294428
0.0029495
0.00295471
0.00296033
0.00296598
0.00297165
0.0029775
0.00298352
0.0029899
0.00299627
0.00300284
0.00300935
0.00301552
0.00302146
0.0030268
0.00303192
0.00303631
0.00304058
0.0030445
0.00304809
0.00305142
0.00305517
0.00305898
0.00306315
0.00306758
0.00307255
0.00307758
0.00308283
0.00308807
0.0030933
0.00309838
0.00310298
0.0031072
0.0031108
0.00311409
0.00311719
0.00312
0.00312291
0.00312579
0.0031293
0.00313283
0.00313674
0.0031409
0.0031456
0.00315033
0.00315523
0.00315984
0.00316416
0.00316868
0.00317205