/*--------------------------------*- C++ -*----------------------------------*\
| =========                 |                                                 |
| \\      /  F ield         | OpenFOAM: The Open Source CFD Toolbox           |
|  \\    /   O peration     | Version:  2312                                  |
|   \\  /    A nd           | Website:  www.openfoam.com                      |
|    \\/     M anipulation  |                                                 |
\*---------------------------------------------------------------------------*/
FoamFile
{
    version     2.0;
    format      ascii;
    arch        "LSB;label=32;scalar=64";
    class       volScalarField;
    location    "0.006";
    object      cSound;
}
// * * * * * * * * * * * * * * * * * * * * * * * * * * * * * * * * * * * * * //

dimensions      [0 1 -1 0 0 0 0];

internalField   nonuniform List<scalar> 
48128
(
378.11
378.164
378.011
377.916
377.944
377.93
377.958
378.011
377.982
377.78
376.832
375.908
375.3
374.774
374.341
373.523
372.81
372.129
371.491
370.902
370.374
369.873
369.393
368.951
368.552
368.202
367.91
367.693
367.55
367.475
367.453
367.529
367.682
367.907
368.193
368.541
368.947
369.405
369.879
370.401
370.947
371.497
372.042
372.582
373.101
373.587
374.039
374.455
374.825
375.152
375.405
375.625
375.768
375.862
375.873
375.83
375.713
375.533
375.294
375
374.654
374.262
373.828
373.354
372.838
372.28
371.687
371.072
370.425
369.763
369.066
368.354
367.628
366.876
366.128
365.35
364.588
363.815
363.04
362.291
361.538
360.817
360.085
359.377
358.661
357.986
357.305
356.667
356.032
355.429
354.828
354.259
353.701
353.161
352.623
352.091
351.562
351.061
350.596
350.173
349.779
349.395
349.011
348.638
348.279
347.938
347.618
347.317
347.031
346.76
346.508
346.272
346.06
345.865
345.685
345.517
345.336
345.141
344.934
344.691
344.328
344.351
344.261
344.059
344.077
344.039
343.983
343.917
343.84
343.755
343.665
343.572
343.479
343.385
343.291
343.195
343.105
343.032
342.97
342.914
342.862
342.818
342.781
342.751
342.723
342.71
342.711
342.714
342.719
342.724
342.73
342.74
342.752
342.768
342.777
342.787
342.784
342.777
342.762
342.745
342.721
342.707
342.716
342.723
342.737
342.764
342.799
342.845
342.895
342.948
342.996
343.042
343.076
343.11
343.125
343.141
343.141
343.141
343.132
343.13
343.136
343.149
343.168
343.201
343.242
343.285
343.333
343.384
343.435
343.48
343.516
343.537
343.562
343.566
343.572
343.57
343.576
343.586
343.604
343.628
343.658
343.696
343.741
343.79
343.838
343.883
343.922
343.954
343.994
343.993
344
344.011
344.016
344.027
344.043
344.066
344.094
344.129
344.167
344.209
344.256
344.296
344.339
344.375
344.393
344.414
344.435
344.443
344.456
344.472
344.491
344.514
344.542
344.575
344.611
344.65
344.691
344.731
344.768
344.813
377.893
377.988
377.86
377.757
377.798
377.849
377.977
378.146
377.943
377.239
375.976
374.79
373.747
372.544
371.272
370.249
369.348
368.554
367.877
367.307
366.84
366.443
366.097
365.817
365.608
365.475
365.417
365.41
365.507
365.681
365.932
366.271
366.674
367.144
367.662
368.228
368.827
369.466
370.116
370.77
371.432
372.074
372.683
373.253
373.77
374.23
374.621
374.949
375.202
375.39
375.479
375.495
375.409
375.255
375.011
374.693
374.278
373.785
373.214
372.576
371.873
371.116
370.31
369.455
368.555
367.609
366.629
365.62
364.577
363.535
362.47
361.408
360.345
359.267
358.202
357.114
356.05
354.989
353.937
352.91
351.903
350.923
349.946
348.99
348.047
347.139
346.246
345.391
344.556
343.747
342.953
342.19
341.447
340.722
340.003
339.291
338.583
337.905
337.267
336.672
336.111
335.564
335.02
334.488
333.973
333.478
333.005
332.555
332.122
331.705
331.311
330.936
330.587
330.259
329.949
329.659
329.358
329.044
328.718
328.357
327.863
327.761
327.559
327.244
327.148
327.012
326.861
326.704
326.542
326.373
326.201
326.028
325.854
325.681
325.506
325.331
325.159
325.005
324.862
324.727
324.597
324.478
324.369
324.268
324.174
324.093
324.018
323.951
323.882
323.815
323.747
323.685
323.628
323.575
323.519
323.462
323.397
323.328
323.251
323.172
323.089
323.001
322.953
322.902
322.848
322.822
322.794
322.791
322.789
322.793
322.797
322.799
322.797
322.792
322.779
322.763
322.739
322.712
322.678
322.643
322.62
322.606
322.592
322.599
322.611
322.628
322.651
322.681
322.712
322.74
322.763
322.774
322.789
322.784
322.782
322.773
322.771
322.772
322.78
322.793
322.812
322.838
322.874
322.915
322.957
323
323.039
323.074
323.12
323.123
323.133
323.148
323.156
323.168
323.186
323.209
323.238
323.273
323.313
323.357
323.407
323.455
323.504
323.554
323.583
323.614
323.649
323.667
323.69
323.715
323.743
323.775
323.811
323.851
323.896
323.944
323.996
324.048
324.099
324.169
377.781
377.876
377.794
377.713
377.784
377.905
378.126
377.973
377.03
375.515
374.048
372.769
371.692
370.891
370.198
369.518
368.938
368.437
367.99
367.612
367.321
367.073
366.872
366.726
366.64
366.612
366.651
366.76
366.951
367.214
367.542
367.939
368.389
368.893
369.428
369.996
370.581
371.184
371.783
372.366
372.935
373.469
373.951
374.376
374.728
375.008
375.202
375.32
375.34
375.284
375.118
374.874
374.513
374.076
373.548
372.938
372.227
371.444
370.583
369.662
368.681
367.657
366.59
365.484
364.34
363.157
361.956
360.736
359.497
358.27
357.028
355.807
354.588
353.369
352.168
350.956
349.777
348.611
347.461
346.342
345.259
344.199
343.154
342.13
341.135
340.172
339.234
338.333
337.458
336.607
335.776
334.978
334.2
333.442
332.692
331.951
331.215
330.514
329.851
329.229
328.64
328.064
327.491
326.934
326.392
325.872
325.373
324.896
324.435
323.991
323.568
323.164
322.787
322.428
322.088
321.767
321.436
321.095
320.74
320.355
319.854
319.712
319.475
319.152
319.008
318.833
318.647
318.458
318.265
318.069
317.87
317.672
317.475
317.278
317.081
316.882
316.689
316.512
316.344
316.184
316.029
315.885
315.75
315.623
315.504
315.398
315.3
315.209
315.117
315.029
314.938
314.855
314.775
314.7
314.623
314.545
314.46
314.371
314.276
314.178
314.077
313.97
313.901
313.829
313.753
313.706
313.656
313.633
313.607
313.592
313.577
313.56
313.541
313.519
313.491
313.46
313.423
313.384
313.339
313.293
313.255
313.229
313.199
313.195
313.195
313.2
313.211
313.228
313.247
313.266
313.279
313.284
313.289
313.282
313.275
313.262
313.253
313.249
313.253
313.261
313.274
313.295
313.324
313.36
313.397
313.435
313.471
313.505
313.548
313.553
313.564
313.579
313.588
313.602
313.619
313.643
313.671
313.706
313.745
313.788
313.837
313.887
313.937
313.988
314.022
314.058
314.096
314.119
314.147
314.176
314.208
314.243
314.283
314.327
314.375
314.426
314.481
314.537
314.594
314.671
377.719
377.812
377.803
377.757
377.87
378.055
377.897
376.975
375.29
373.701
372.518
371.679
371.074
370.631
370.25
369.786
369.376
369.021
368.713
368.455
368.271
368.114
367.997
367.926
367.903
367.941
368.044
368.211
368.445
368.741
369.093
369.501
369.951
370.447
370.963
371.496
372.03
372.564
373.08
373.558
374.003
374.398
374.725
374.977
375.137
375.211
375.173
375.048
374.802
374.473
374.021
373.48
372.812
372.06
371.222
370.297
369.27
368.181
367.018
365.808
364.545
363.256
361.935
360.591
359.221
357.823
356.429
355.025
353.629
352.259
350.89
349.561
348.24
346.937
345.654
344.379
343.148
341.936
340.75
339.604
338.506
337.428
336.375
335.35
334.365
333.415
332.494
331.612
330.759
329.93
329.122
328.346
327.594
326.861
326.139
325.428
324.721
324.053
323.421
322.827
322.264
321.712
321.165
320.633
320.116
319.62
319.144
318.689
318.247
317.824
317.418
317.031
316.668
316.322
315.996
315.683
315.362
315.032
314.686
314.317
313.851
313.702
313.471
313.183
313.015
312.838
312.653
312.464
312.273
312.079
311.883
311.688
311.493
311.298
311.104
310.908
310.719
310.543
310.376
310.216
310.062
309.916
309.78
309.651
309.528
309.419
309.318
309.224
309.129
309.038
308.945
308.859
308.777
308.698
308.618
308.536
308.449
308.358
308.261
308.162
308.06
307.952
307.878
307.803
307.725
307.673
307.618
307.588
307.556
307.535
307.513
307.49
307.466
307.438
307.406
307.37
307.33
307.287
307.239
307.19
307.148
307.119
307.085
307.076
307.071
307.073
307.079
307.091
307.105
307.119
307.128
307.13
307.131
307.124
307.115
307.1
307.091
307.085
307.087
307.093
307.105
307.123
307.15
307.183
307.218
307.254
307.287
307.321
307.361
307.368
307.38
307.396
307.407
307.421
307.44
307.464
307.493
307.528
307.567
307.611
307.66
307.709
307.76
307.812
307.848
307.886
307.926
307.953
307.984
308.016
308.051
308.089
308.131
308.177
308.227
308.281
308.339
308.397
308.456
308.538
377.684
377.779
377.886
377.876
377.994
377.827
376.991
375.325
373.729
372.623
371.887
371.407
371.099
370.809
370.558
370.252
369.985
369.747
369.539
369.364
369.252
369.158
369.097
369.075
369.104
369.189
369.329
369.53
369.787
370.101
370.461
370.866
371.302
371.772
372.251
372.728
373.187
373.627
374.031
374.373
374.657
374.876
375.002
375.034
374.945
374.757
374.429
373.997
373.415
372.736
371.92
371.005
369.951
368.81
367.589
366.285
364.877
363.435
361.917
360.379
358.8
357.225
355.641
354.055
352.467
350.861
349.295
347.731
346.208
344.729
343.267
341.874
340.493
339.152
337.839
336.549
335.321
334.118
332.949
331.833
330.777
329.739
328.738
327.771
326.849
325.962
325.107
324.29
323.504
322.74
321.999
321.288
320.604
319.94
319.288
318.648
318.012
317.417
316.851
316.32
315.816
315.323
314.836
314.363
313.904
313.465
313.041
312.637
312.244
311.87
311.51
311.167
310.846
310.539
310.252
309.971
309.684
309.391
309.078
308.75
308.346
308.205
308.002
307.77
307.594
307.441
307.277
307.108
306.937
306.764
306.589
306.413
306.237
306.062
305.887
305.709
305.54
305.382
305.229
305.084
304.944
304.813
304.688
304.572
304.46
304.36
304.268
304.182
304.097
304.014
303.93
303.853
303.779
303.708
303.635
303.56
303.481
303.397
303.31
303.218
303.124
303.026
302.956
302.888
302.818
302.769
302.718
302.69
302.662
302.642
302.622
302.601
302.578
302.553
302.523
302.489
302.451
302.412
302.367
302.321
302.282
302.255
302.224
302.215
302.211
302.213
302.219
302.231
302.244
302.258
302.268
302.27
302.273
302.266
302.259
302.246
302.239
302.235
302.238
302.245
302.257
302.276
302.303
302.336
302.371
302.408
302.441
302.476
302.514
302.524
302.539
302.556
302.57
302.587
302.607
302.633
302.664
302.7
302.741
302.785
302.835
302.886
302.938
302.99
303.029
303.069
303.111
303.142
303.175
303.211
303.248
303.289
303.334
303.382
303.435
303.491
303.551
303.612
303.673
303.759
377.667
377.817
377.971
377.936
377.821
377.124
375.603
373.989
372.867
372.17
371.743
371.487
371.295
371.12
370.972
370.784
370.618
370.464
370.329
370.217
370.159
370.116
370.101
370.126
370.195
370.316
370.487
370.71
370.982
371.303
371.658
372.047
372.452
372.873
373.29
373.684
374.032
374.338
374.585
374.743
374.809
374.776
374.625
374.355
373.93
373.379
372.651
371.791
370.748
369.583
368.275
366.854
365.286
363.637
361.899
360.138
358.253
356.373
354.435
352.493
350.577
348.669
346.829
345.001
343.22
341.414
339.714
338.03
336.426
334.894
333.394
332.005
330.631
329.328
328.063
326.836
325.692
324.581
323.514
322.511
321.583
320.668
319.794
318.952
318.16
317.396
316.667
315.972
315.309
314.663
314.04
313.444
312.879
312.329
311.792
311.263
310.735
310.249
309.782
309.346
308.935
308.534
308.138
307.757
307.384
307.029
306.686
306.359
306.04
305.74
305.45
305.176
304.919
304.673
304.444
304.216
303.983
303.749
303.49
303.225
302.904
302.779
302.626
302.463
302.304
302.188
302.062
301.927
301.793
301.656
301.517
301.375
301.233
301.09
300.948
300.803
300.667
300.537
300.412
300.294
300.181
300.075
299.974
299.881
299.791
299.713
299.64
299.572
299.505
299.44
299.374
299.315
299.257
299.201
299.144
299.085
299.021
298.953
298.882
298.806
298.728
298.646
298.588
298.534
298.479
298.441
298.4
298.382
298.362
298.35
298.338
298.325
298.31
298.293
298.271
298.246
298.216
298.185
298.148
298.111
298.081
298.059
298.037
298.033
298.034
298.04
298.051
298.067
298.084
298.101
298.115
298.121
298.132
298.126
298.126
298.118
298.115
298.116
298.123
298.134
298.15
298.172
298.202
298.238
298.275
298.314
298.349
298.387
298.426
298.442
298.46
298.48
298.498
298.519
298.544
298.573
298.606
298.645
298.689
298.736
298.788
298.841
298.896
298.95
298.992
299.035
299.08
299.114
299.151
299.19
299.231
299.276
299.324
299.375
299.431
299.49
299.552
299.616
299.681
299.771
377.683
377.848
377.989
377.779
377.293
376.026
374.386
373.198
372.469
372.054
371.817
371.669
371.577
371.491
371.412
371.308
371.212
371.123
371.048
370.99
370.977
370.979
371.005
371.069
371.172
371.32
371.511
371.748
372.022
372.335
372.669
373.019
373.367
373.708
374.024
374.292
374.481
374.593
374.606
374.491
374.243
373.847
373.292
372.581
371.659
370.561
369.242
367.745
366.03
364.159
362.148
360.038
357.768
355.465
353.011
350.78
348.346
345.899
343.538
341.11
338.878
336.588
334.549
332.483
330.564
328.592
326.814
325.067
323.459
321.964
320.526
319.253
317.991
316.845
315.734
314.689
313.739
312.833
311.977
311.197
310.502
309.815
309.162
308.535
307.959
307.401
306.879
306.385
305.919
305.466
305.033
304.618
304.225
303.84
303.471
303.096
302.722
302.383
302.055
301.754
301.471
301.193
300.919
300.657
300.398
300.152
299.913
299.689
299.468
299.266
299.066
298.883
298.709
298.544
298.39
298.234
298.073
297.917
297.732
297.546
297.328
297.224
297.146
297.055
296.945
296.871
296.794
296.707
296.623
296.533
296.444
296.348
296.253
296.155
296.057
295.956
295.865
295.774
295.687
295.607
295.531
295.459
295.392
295.332
295.273
295.225
295.18
295.139
295.099
295.06
295.02
294.987
294.954
294.921
294.887
294.849
294.809
294.761
294.715
294.661
294.607
294.548
294.508
294.475
294.44
294.419
294.396
294.391
294.386
294.388
294.389
294.389
294.388
294.384
294.373
294.364
294.345
294.329
294.306
294.282
294.265
294.255
294.245
294.249
294.259
294.274
294.294
294.318
294.342
294.367
294.389
294.403
294.423
294.423
294.433
294.433
294.438
294.447
294.461
294.479
294.502
294.529
294.565
294.606
294.648
294.692
294.732
294.775
294.816
294.842
294.865
294.89
294.914
294.941
294.971
295.005
295.044
295.087
295.135
295.186
295.242
295.299
295.358
295.415
295.462
295.509
295.557
295.597
295.639
295.682
295.728
295.777
295.829
295.884
295.944
296.007
296.073
296.139
296.208
296.303
377.72
377.796
377.85
377.397
376.45
374.905
373.62
372.801
372.34
372.106
371.976
371.91
371.887
371.863
371.839
371.794
371.753
371.716
371.69
371.679
371.702
371.744
371.804
371.898
372.024
372.189
372.388
372.623
372.882
373.165
373.452
373.733
373.983
374.199
374.355
374.431
374.37
374.191
373.842
373.299
372.555
371.579
370.403
369.012
367.353
365.443
363.281
360.909
358.293
355.519
352.566
349.691
346.597
343.579
340.303
337.652
334.699
331.594
328.907
326.012
323.537
320.913
318.767
316.526
314.564
312.525
310.75
309.035
307.518
306.136
304.852
303.768
302.706
301.805
300.929
300.162
299.479
298.87
298.298
297.835
297.421
297.053
296.68
296.383
296.087
295.844
295.597
295.402
295.196
295.026
294.844
294.693
294.524
294.377
294.222
294.061
293.891
293.759
293.614
293.489
293.366
293.245
293.121
293.008
292.889
292.78
292.671
292.572
292.471
292.386
292.297
292.223
292.15
292.083
292.022
291.955
291.88
291.816
291.718
291.633
291.527
291.469
291.471
291.453
291.417
291.395
291.376
291.347
291.323
291.292
291.263
291.225
291.186
291.143
291.101
291.053
291.015
290.974
290.935
290.901
290.869
290.842
290.816
290.797
290.778
290.767
290.757
290.751
290.744
290.74
290.732
290.732
290.729
290.727
290.721
290.712
290.7
290.678
290.666
290.639
290.615
290.587
290.57
290.561
290.552
290.553
290.554
290.567
290.583
290.601
290.621
290.639
290.657
290.671
290.676
290.688
290.682
290.688
290.681
290.676
290.676
290.682
290.688
290.705
290.728
290.756
290.788
290.822
290.858
290.894
290.927
290.953
290.984
290.996
291.016
291.029
291.045
291.065
291.089
291.117
291.149
291.185
291.229
291.278
291.328
291.378
291.426
291.475
291.522
291.56
291.59
291.622
291.654
291.689
291.726
291.767
291.813
291.862
291.916
291.973
292.034
292.096
292.16
292.222
292.277
292.328
292.382
292.428
292.476
292.525
292.576
292.631
292.688
292.749
292.813
292.881
292.951
293.022
293.094
293.196
377.749
377.64
377.559
376.806
375.506
374.143
373.195
372.641
372.371
372.233
372.18
372.172
372.198
372.216
372.229
372.232
372.235
372.24
372.253
372.28
372.332
372.403
372.488
372.6
372.738
372.907
373.097
373.309
373.528
373.749
373.948
374.116
374.209
374.229
374.12
373.879
373.41
372.749
371.8
370.576
369.067
367.23
365.211
362.868
360.215
357.241
353.998
350.634
346.986
343.261
339.229
335.698
331.834
328.233
324.217
321.215
317.897
314.249
311.331
308.096
305.568
302.787
300.683
298.446
296.576
294.661
293.008
291.484
290.17
289.015
288.014
287.153
286.407
285.745
285.167
284.685
284.263
283.987
283.634
283.526
283.328
283.314
283.15
283.234
283.148
283.28
283.255
283.42
283.432
283.594
283.649
283.813
283.874
284.031
284.086
284.215
284.286
284.413
284.481
284.575
284.636
284.706
284.758
284.829
284.878
284.932
284.974
285.021
285.06
285.11
285.149
285.2
285.244
285.29
285.344
285.369
285.393
285.427
285.436
285.476
285.472
285.501
285.568
285.639
285.681
285.727
285.768
285.813
285.851
285.894
285.93
285.962
285.984
286.005
286.027
286.041
286.066
286.08
286.096
286.116
286.136
286.159
286.183
286.21
286.238
286.27
286.302
286.337
286.368
286.405
286.437
286.475
286.507
286.541
286.568
286.595
286.615
286.627
286.653
286.657
286.672
286.675
286.688
286.709
286.731
286.758
286.786
286.822
286.862
286.903
286.945
286.986
287.025
287.061
287.088
287.123
287.138
287.165
287.18
287.198
287.219
287.245
287.27
287.303
287.342
287.387
287.434
287.483
287.533
287.582
287.629
287.67
287.716
287.744
287.777
287.804
287.835
287.869
287.906
287.946
287.991
288.038
288.092
288.151
288.21
288.271
288.327
288.386
288.44
288.493
288.531
288.572
288.615
288.659
288.706
288.756
288.81
288.868
288.93
288.994
289.062
289.13
289.201
289.269
289.333
289.39
289.45
289.505
289.56
289.616
289.674
289.735
289.799
289.866
289.936
290.009
290.085
290.162
290.239
290.349
377.769
377.439
377.148
376.115
374.769
373.685
372.998
372.645
372.467
372.401
372.396
372.434
372.489
372.537
372.58
372.617
372.653
372.691
372.735
372.788
372.862
372.95
373.048
373.166
373.3
373.452
373.61
373.77
373.911
374.027
374.08
374.056
373.883
373.566
373.006
372.226
371.106
369.687
367.841
365.638
363.114
360.166
357.166
353.63
349.77
345.698
341.245
337.003
332.348
327.84
322.776
318.833
314.327
310.418
306.073
302.685
299.376
295.659
292.769
289.576
287.216
284.633
282.704
280.785
279.124
277.587
276.169
275.045
274.001
273.217
272.521
271.918
271.554
271.032
270.832
270.52
270.365
270.36
270.127
270.346
270.232
270.494
270.479
270.792
270.845
271.196
271.329
271.69
271.877
272.226
272.475
272.823
273.08
273.42
273.677
274.007
274.304
274.637
274.913
275.209
275.465
275.728
275.973
276.234
276.47
276.703
276.913
277.12
277.314
277.514
277.695
277.881
278.053
278.223
278.389
278.523
278.659
278.791
278.925
279.077
279.198
279.319
279.467
279.627
279.751
279.871
279.985
280.104
280.216
280.334
280.443
280.55
280.641
280.733
280.823
280.908
280.999
281.075
281.152
281.231
281.309
281.388
281.466
281.546
281.625
281.706
281.784
281.864
281.94
282.021
282.097
282.179
282.25
282.324
282.39
282.455
282.513
282.566
282.629
282.674
282.726
282.769
282.817
282.871
282.926
282.984
283.043
283.107
283.173
283.241
283.309
283.376
283.439
283.5
283.554
283.613
283.655
283.704
283.747
283.791
283.835
283.884
283.931
283.985
284.043
284.107
284.173
284.239
284.305
284.371
284.435
284.492
284.555
284.601
284.651
284.696
284.744
284.794
284.847
284.902
284.961
285.022
285.088
285.159
285.23
285.303
285.37
285.44
285.504
285.572
285.622
285.675
285.729
285.785
285.843
285.904
285.968
286.036
286.107
286.18
286.257
286.333
286.412
286.488
286.562
286.627
286.694
286.76
286.823
286.887
286.953
287.022
287.094
287.168
287.245
287.325
287.407
287.49
287.574
287.693
377.74
377.205
376.68
375.461
374.29
373.446
372.962
372.706
372.602
372.58
372.613
372.68
372.753
372.823
372.887
372.948
373.007
373.068
373.132
373.203
373.286
373.379
373.477
373.583
373.692
373.802
373.895
373.963
373.971
373.908
373.698
373.336
372.702
371.824
370.555
368.948
366.906
364.435
361.424
357.969
354.391
350.231
346.027
341.301
336.181
331.224
325.583
320.753
315.215
310.311
304.643
300.56
295.827
292.037
287.927
284.279
281.342
278.059
275.324
272.712
270.527
268.642
266.917
265.575
264.162
263.273
262.109
261.573
260.718
260.44
259.918
259.655
259.584
259.157
259.33
259.022
259.193
259.198
259.21
259.555
259.443
259.848
259.899
260.315
260.413
260.846
261.038
261.462
261.717
262.136
262.445
262.871
263.188
263.614
263.964
264.391
264.798
265.239
265.634
266.048
266.428
266.822
267.206
267.607
267.988
268.368
268.726
269.082
269.422
269.765
270.083
270.402
270.699
270.99
271.263
271.507
271.752
271.996
272.251
272.518
272.764
272.981
273.213
273.459
273.671
273.868
274.06
274.258
274.447
274.643
274.826
275.012
275.176
275.345
275.505
275.664
275.826
275.968
276.111
276.253
276.392
276.53
276.666
276.802
276.936
277.07
277.197
277.326
277.451
277.579
277.703
277.831
277.945
278.062
278.17
278.276
278.377
278.474
278.577
278.665
278.76
278.845
278.931
279.022
279.114
279.207
279.298
279.393
279.489
279.586
279.682
279.778
279.869
279.958
280.04
280.127
280.198
280.274
280.347
280.419
280.489
280.564
280.636
280.713
280.793
280.878
280.965
281.051
281.136
281.22
281.303
281.38
281.462
281.528
281.597
281.663
281.73
281.798
281.869
281.941
282.016
282.093
282.174
282.259
282.344
282.43
282.51
282.592
282.67
282.753
282.817
282.883
282.952
283.021
283.092
283.166
283.241
283.32
283.402
283.486
283.572
283.658
283.746
283.831
283.917
283.991
284.068
284.145
284.217
284.291
284.367
284.445
284.525
284.608
284.693
284.781
284.871
284.961
285.052
285.182
377.683
376.965
376.207
375.012
374.022
373.363
372.979
372.807
372.751
372.76
372.819
372.901
372.987
373.069
373.147
373.222
373.295
373.369
373.443
373.52
373.602
373.686
373.764
373.838
373.894
373.927
373.905
373.817
373.582
373.196
372.53
371.604
370.26
368.546
366.297
363.573
360.369
356.651
352.369
347.516
343.036
337.673
331.982
326.454
320.211
314.664
308.174
303.115
297.18
292.429
286.799
282.847
278.227
274.831
271.224
267.988
265.241
262.974
260.433
258.759
256.839
255.805
254.293
253.772
252.446
252.459
251.422
251.623
250.845
251.164
250.639
250.922
250.772
250.872
251.048
250.894
251.32
251.119
251.528
251.861
251.731
252.211
252.218
252.653
252.716
253.163
253.297
253.713
253.901
254.311
254.539
254.947
255.207
255.615
255.92
256.335
256.72
257.15
257.544
257.964
258.354
258.773
259.19
259.632
260.064
260.502
260.93
261.362
261.787
262.212
262.625
263.035
263.43
263.813
264.173
264.51
264.848
265.194
265.554
265.927
266.283
266.6
266.906
267.229
267.525
267.798
268.066
268.34
268.606
268.877
269.135
269.399
269.636
269.882
270.114
270.347
270.581
270.79
271.001
271.206
271.408
271.607
271.804
271.998
272.187
272.375
272.553
272.734
272.909
273.087
273.261
273.437
273.597
273.76
273.911
274.061
274.206
274.349
274.495
274.629
274.767
274.898
275.025
275.155
275.285
275.416
275.542
275.671
275.798
275.926
276.053
276.179
276.299
276.418
276.531
276.648
276.75
276.857
276.96
277.064
277.163
277.265
277.365
277.466
277.571
277.679
277.789
277.896
278.001
278.106
278.21
278.309
278.411
278.499
278.589
278.678
278.766
278.855
278.945
279.036
279.13
279.224
279.321
279.421
279.522
279.622
279.717
279.814
279.907
280.006
280.086
280.168
280.251
280.336
280.422
280.509
280.598
280.689
280.783
280.879
280.976
281.074
281.171
281.267
281.366
281.451
281.537
281.627
281.71
281.795
281.881
281.969
282.06
282.152
282.246
282.343
282.441
282.54
282.639
282.781
377.54
376.714
375.778
374.678
373.842
373.325
373.041
372.925
372.902
372.932
373.006
373.097
373.188
373.276
373.359
373.44
373.518
373.594
373.668
373.74
373.806
373.863
373.9
373.913
373.875
373.778
373.546
373.17
372.512
371.588
370.223
368.465
366.16
363.343
359.888
355.822
351.296
346.444
340.971
334.749
329.321
322.973
315.83
309.939
302.97
297.356
290.669
285.756
279.856
275.629
270.442
266.903
262.752
259.888
256.827
254.497
252.054
250.86
248.562
248.029
246.389
246.285
244.971
245.3
244.218
244.915
244.117
244.864
244.284
245.047
244.631
245.374
245.066
245.813
245.711
246.149
246.587
246.431
246.991
247.181
247.218
247.77
247.684
248.176
248.184
248.639
248.673
249.066
249.136
249.498
249.581
249.925
250.025
250.352
250.52
250.838
251.076
251.401
251.655
251.969
252.235
252.557
252.877
253.236
253.588
253.963
254.345
254.737
255.138
255.544
255.955
256.369
256.779
257.176
257.565
257.937
258.317
258.72
259.14
259.575
260.004
260.399
260.757
261.129
261.486
261.822
262.153
262.489
262.817
263.154
263.477
263.81
264.115
264.43
264.729
265.03
265.33
265.604
265.879
266.145
266.408
266.666
266.921
267.171
267.416
267.656
267.886
268.117
268.343
268.571
268.795
269.02
269.225
269.434
269.63
269.824
270.015
270.203
270.393
270.574
270.758
270.937
271.105
271.276
271.445
271.615
271.778
271.941
272.1
272.261
272.419
272.577
272.729
272.879
273.024
273.172
273.307
273.445
273.581
273.718
273.848
273.978
274.107
274.236
274.366
274.499
274.632
274.762
274.89
275.016
275.142
275.264
275.389
275.5
275.613
275.727
275.837
275.948
276.059
276.171
276.284
276.398
276.512
276.629
276.745
276.862
276.973
277.086
277.196
277.311
277.409
277.508
277.608
277.709
277.81
277.912
278.016
278.121
278.229
278.338
278.447
278.556
278.665
278.774
278.885
278.981
279.081
279.182
279.278
279.374
279.473
279.572
279.673
279.776
279.881
279.987
280.095
280.202
280.311
280.465
377.36
376.44
375.423
374.449
373.758
373.336
373.123
373.048
373.045
373.09
373.172
373.264
373.354
373.441
373.524
373.603
373.677
373.746
373.808
373.86
373.895
373.903
373.867
373.777
373.569
373.231
372.629
371.765
370.454
368.738
366.432
363.586
360.107
356.002
351.268
345.833
339.9
334.162
327.697
320.425
313.63
306.843
299.007
293.056
285.882
280.549
274.143
269.684
264.227
260.647
256.044
253.253
249.733
247.696
245.123
243.876
241.953
241.396
239.689
240.142
238.923
239.517
238.53
239.48
238.705
239.857
239.3
240.502
240.148
241.312
241.009
242.103
241.863
242.918
242.732
243.576
243.852
244.083
244.726
244.568
245.092
245.646
245.507
246.069
246.068
246.535
246.516
246.926
246.936
247.287
247.28
247.59
247.582
247.869
247.917
248.173
248.259
248.491
248.58
248.78
248.884
249.07
249.219
249.427
249.6
249.819
250.042
250.282
250.534
250.799
251.081
251.371
251.666
251.966
252.263
252.555
252.879
253.238
253.624
254.032
254.455
254.845
255.211
255.574
255.939
256.295
256.647
257.007
257.361
257.728
258.086
258.457
258.806
259.166
259.512
259.861
260.209
260.534
260.86
261.176
261.489
261.796
262.102
262.401
262.695
262.981
263.26
263.536
263.809
264.083
264.353
264.624
264.872
265.126
265.362
265.6
265.835
266.067
266.301
266.527
266.755
266.981
267.192
267.403
267.611
267.818
268.019
268.216
268.408
268.602
268.792
268.981
269.164
269.347
269.524
269.703
269.873
270.044
270.213
270.383
270.545
270.705
270.864
271.02
271.176
271.335
271.492
271.646
271.797
271.946
272.095
272.241
272.389
272.525
272.663
272.801
272.936
273.07
273.203
273.336
273.47
273.604
273.737
273.871
274.004
274.138
274.267
274.396
274.524
274.655
274.774
274.89
275.008
275.126
275.244
275.363
275.482
275.602
275.724
275.847
275.969
276.091
276.212
276.334
276.458
276.568
276.681
276.796
276.905
277.014
277.125
277.237
277.349
277.464
277.579
277.697
277.814
277.931
278.049
278.218
377.198
376.167
375.156
374.291
373.708
373.369
373.212
373.168
373.178
373.231
373.314
373.403
373.487
373.568
373.643
373.712
373.773
373.826
373.864
373.88
373.859
373.787
373.623
373.344
372.831
372.077
370.89
369.297
367.101
364.358
360.912
356.773
351.991
346.641
340.658
334.045
326.662
320.221
312.896
305.251
296.829
290.302
282.442
276.607
269.691
264.912
259.236
255.395
250.751
247.812
244.021
242.138
239.262
238.139
235.991
235.683
234.388
233.489
233.913
234.058
233.855
234.921
234.214
235.677
235.154
236.703
236.361
237.962
237.688
239.176
238.917
240.247
240.058
241.292
241.15
242.252
242.136
242.918
243.615
243.437
244.114
244.603
244.52
245.155
245.138
245.656
245.632
246.109
246.098
246.488
246.446
246.778
246.734
247.03
247.027
247.288
247.304
247.513
247.517
247.689
247.707
247.839
247.885
248.011
248.059
248.182
248.276
248.393
248.51
248.633
248.765
248.902
249.029
249.17
249.281
249.405
249.574
249.78
250.016
250.276
250.559
250.84
251.087
251.348
251.621
251.902
252.188
252.492
252.794
253.124
253.445
253.789
254.125
254.475
254.82
255.171
255.522
255.862
256.201
256.534
256.869
257.199
257.531
257.856
258.179
258.493
258.805
259.112
259.42
259.728
260.032
260.338
260.622
260.911
261.181
261.456
261.728
262
262.273
262.539
262.807
263.074
263.325
263.574
263.818
264.06
264.296
264.526
264.749
264.973
265.193
265.414
265.627
265.841
266.049
266.26
266.462
266.666
266.868
267.07
267.264
267.454
267.642
267.827
268.01
268.193
268.374
268.552
268.727
268.899
269.072
269.242
269.413
269.574
269.737
269.901
270.06
270.218
270.374
270.528
270.684
270.838
270.991
271.143
271.294
271.446
271.593
271.739
271.885
272.033
272.174
272.308
272.445
272.581
272.717
272.852
272.987
273.123
273.26
273.398
273.534
273.669
273.803
273.939
274.077
274.201
274.327
274.457
274.579
274.702
274.827
274.951
275.076
275.203
275.33
275.459
275.586
275.714
275.842
276.027
377.024
375.925
374.947
374.18
373.692
373.418
373.302
373.276
373.297
373.355
373.435
373.515
373.59
373.658
373.719
373.771
373.811
373.834
373.831
373.789
373.678
373.463
373.065
372.451
371.443
370.049
368.055
365.508
362.237
358.29
353.584
348.087
341.925
335.563
328.37
320.866
312.179
305.089
296.789
289.172
280.333
274.005
266.63
261.245
255.303
251.137
246.569
243.271
239.657
237.072
234.457
233.148
231.093
230.797
229.373
230.018
229.116
229.659
230.125
229.802
231.077
231.761
231.281
233.08
232.621
234.545
234.231
236.149
235.897
237.651
237.419
239.041
238.891
240.302
240.176
241.461
241.388
242.4
242.85
242.96
243.77
244.007
244.206
244.906
244.846
245.433