/*--------------------------------*- C++ -*----------------------------------*\
| =========                 |                                                 |
| \\      /  F ield         | OpenFOAM: The Open Source CFD Toolbox           |
|  \\    /   O peration     | Version:  2312                                  |
|   \\  /    A nd           | Website:  www.openfoam.com                      |
|    \\/     M anipulation  |                                                 |
\*---------------------------------------------------------------------------*/
FoamFile
{
    version     2.0;
    format      ascii;
    arch        "LSB;label=32;scalar=64";
    class       volScalarField;
    location    "0.006";
    object      k;
}
// * * * * * * * * * * * * * * * * * * * * * * * * * * * * * * * * * * * * * //

dimensions      [0 2 -2 0 0 0 0];

internalField   nonuniform List<scalar> 
48128
(
7.21346
9.34796
12.5607
12.7976
11.8294
10.3034
8.55367
6.88133
5.32308
3.71272
8.52659
54.0818
180.924
338.724
479.494
601.298
707.067
800.914
886.537
966.293
1042
1115.1
1186.21
1255.54
1323.47
1390.19
1456.02
1521.3
1586.57
1652.69
1718.65
1784.46
1850.85
1917.54
1984.53
2053.78
2126.23
2202.29
2276.7
2353.03
2428.12
2499.26
2569.56
2641.42
2713.13
2780.25
2839.74
2899.17
2949.02
2990.19
3011.67
3040.66
3054.11
3070.11
3058.9
3099.46
3160.13
3208.75
3251.2
3279.55
3300.07
3309.8
3311.09
3307.92
3300.94
3291.36
3277.77
3260.57
3238.72
3209.55
3177.6
3142.31
3108.27
3073.05
3037.65
3002.5
2965.94
2930.26
2893.73
2857.65
2820.46
2785.41
2749.88
2716.94
2683.45
2652.11
2620.34
2590.63
2560.61
2532.82
2505.14
2479.24
2453.86
2430.04
2407.12
2385.62
2365.14
2345.9
2327.75
2310.29
2293.5
2277.45
2262.18
2247.6
2234.07
2221.18
2209.26
2197.75
2187.05
2176.78
2167.26
2158.14
2149.64
2141.36
2133.58
2125.93
2118.67
2111.18
2104.37
2096.18
2094.65
2091.25
2085.39
2081.67
2077.19
2072.16
2066.98
2062.15
2057.29
2052.79
2048.48
2044.67
2041.15
2037.94
2034.95
2032.16
2029.84
2027.69
2025.63
2023.57
2021.61
2019.67
2017.77
2015.83
2014.03
2012.06
2009.91
2007.51
2004.91
2002.17
1999.36
1996.58
1993.77
1990.99
1988.18
1985.4
1982.71
1979.97
1977.48
1975.43
1973.31
1972
1970.64
1969.18
1967.71
1966.13
1964.43
1962.52
1960.39
1958.06
1955.58
1952.98
1950.46
1947.87
1945.56
1943.3
1941.4
1939.73
1938.22
1937.06
1936.04
1934.99
1933.91
1932.73
1931.33
1929.73
1927.95
1926
1923.9
1921.7
1919.4
1917.4
1915.33
1913.71
1912.24
1911.1
1910.12
1909.17
1908.2
1907.16
1906.01
1904.7
1903.22
1901.53
1899.69
1897.72
1895.7
1893.82
1891.68
1889.94
1888.75
1887.54
1886.53
1885.6
1884.65
1883.64
1882.54
1881.27
1879.84
1878.27
1876.55
1874.76
1872.9
1870.91
1869.14
1867.65
1866.09
1864.86
1863.79
1862.72
1861.62
1860.48
1859.26
1857.94
1856.48
1854.91
1853.23
1851.49
1849.69
1847.1
19.5557
9.82039
5.48486
3.82806
2.97101
2.53326
2.77804
5.11669
13.3047
32.7613
82.2964
180.892
332.905
515.028
691.922
866.51
1037.35
1204.96
1371.91
1539.98
1712.79
1891.07
2078.91
2274.2
2480.39
2695.97
2922.84
3161.13
3404.76
3664.67
3933.6
4207.8
4491.58
4780.13
5069.52
5362.19
5653.02
5952.09
6246.61
6541.24
6833.34
7112.11
7378.2
7631.97
7864.95
8084.98
8284.41
8482.86
8663.27
8830.83
8946.44
9067.22
9154.13
9237.47
9258.86
9274.49
9279.08
9256.03
9209.69
9136.97
9043.64
8930.24
8800.95
8660.43
8512.32
8359.79
8200.96
8037.23
7868.37
7696.66
7526.49
7351.89
7180.85
7007.63
6837.15
6668.35
6500.39
6334.93
6172.46
6013.76
5856.59
5705.21
5557.58
5415.84
5276.88
5143.12
5012.52
4887.3
4765.59
4649.27
4536.94
4429.33
4326.08
4226.94
4131.9
4039.91
3951.39
3866.3
3785.28
3708.02
3634.9
3565.15
3498.45
3434.03
3372.82
3313.88
3258.2
3204.61
3154.14
3105.56
3059.86
3016.1
2975.15
2935.94
2899.43
2864.17
2831.08
2797.54
2765.33
2732.64
2700.13
2674.8
2648.55
2621.17
2598.97
2578.21
2558.32
2539.84
2521.63
2503.89
2486.12
2468.92
2451.87
2435.41
2418.98
2403.16
2387.53
2372.9
2358.74
2345.55
2332.77
2320.86
2309.44
2298.72
2288.7
2278.96
2269.29
2260.02
2250.83
2242.05
2233.32
2225.07
2217.01
2209.46
2201.96
2194.7
2187.43
2180.04
2172.67
2165.28
2158.04
2150.73
2144.51
2138.16
2132.68
2127.19
2122.56
2118.16
2114.22
2110.65
2107.2
2103.97
2100.72
2097.46
2094
2090.36
2086.53
2082.56
2078.44
2074.19
2070.34
2066.49
2063.11
2060.1
2057.41
2054.96
2052.8
2050.88
2049.18
2047.47
2045.62
2043.58
2041.38
2038.92
2036.27
2033.46
2030.61
2027.84
2025.18
2022.79
2020.64
2018.73
2017.18
2015.88
2014.72
2013.58
2012.38
2011.09
2009.56
2007.69
2005.7
2003.57
2001.35
1999.09
1996.93
1994.85
1993.12
1991.49
1990.15
1988.89
1987.93
1986.96
1986.03
1984.92
1983.57
1982.08
1980.42
1978.62
1976.77
1974.89
1973.02
1971.25
1969.64
1968.24
1966.94
1965.84
1964.81
1963.92
1962.94
1961.32
26.1192
13.7552
8.53706
5.17848
3.59266
4.35874
10.851
31.7506
75.2573
150.158
277.503
478.965
744.665
1066.22
1385.1
1692.92
1984.75
2263.35
2532.84
2798.03
3063.5
3330.86
3607.9
3892.02
4187.5
4493.46
4811.68
5143.1
5483.23
5835.32
6196.89
6566.61
6945.99
7332.49
7720.41
8113.68
8510.15
8914.5
9311.24
9701.54
10089.9
10462.3
10811.2
11140.7
11437.7
11714.7
11956.6
12190.9
12397.9
12590.8
12714.3
12826.4
12898.3
12952.2
12940.1
12903
12842.1
12745.6
12620
12464.3
12284.5
12081.7
11860.8
11626.2
11382.6
11134.3
10880
10622.5
10360.8
10093.6
9828.15
9558.51
9296.43
9033.49
8778.27
8526.29
8280.42
8038.31
7803.89
7575.6
7352.61
7137.39
6928.84
6728.21
6532.84
6344.71
6162.29
5987.43
5818.23
5656.61
5500.77
5351.83
5208.69
5071.47
4939.54
4811.85
4689.07
4570.83
4457.95
4350.05
4247.46
4149.31
4055.21
3964.29
3877.54
3793.85
3714.33
3637.6
3564.86
3494.67
3428.11
3364.16
3303.61
3245.54
3190.74
3137.65
3087.86
3037.63
2989.59
2941.78
2893.56
2853.56
2812.93
2771.11
2734.93
2701.07
2668.4
2637.51
2607.39
2578.3
2549.6
2521.85
2494.6
2468.25
2442.23
2417.01
2392.29
2368.56
2345.6
2323.67
2302.44
2282.16
2262.62
2243.98
2226.11
2209.18
2192.84
2177.25
2162.02
2147.37
2133.02
2119.18
2105.71
2092.84
2080.23
2067.96
2055.88
2043.71
2031.7
2019.69
2007.93
1996.07
1985.29
1974.71
1964.56
1954.9
1945.93
1937.48
1929.63
1922.2
1915.16
1908.37
1901.77
1895.37
1888.89
1882.4
1875.85
1869.27
1862.62
1855.92
1849.5
1843.29
1837.37
1831.87
1826.76
1821.99
1817.5
1813.42
1809.59
1806
1802.38
1798.69
1794.97
1791.06
1787.05
1782.95
1778.81
1774.8
1770.86
1767.14
1763.7
1760.44
1757.59
1755.03
1752.68
1750.48
1748.36
1746.19
1744.04
1741.55
1738.96
1736.31
1733.54
1730.72
1727.98
1725.31
1722.92
1720.64
1718.65
1716.76
1715.23
1713.73
1712.39
1711.02
1709.44
1707.77
1706.03
1704.14
1702.18
1700.19
1698.18
1696.28
1694.45
1692.84
1691.3
1690
1688.77
1687.76
1686.72
1685.19
31.0367
18.0533
12.5319
7.73186
8.03347
18.4807
48.3007
108.251
204.983
361.116
603.625
942.663
1344.39
1764.12
2155.38
2519.86
2859.72
3184.58
3500.44
3812.6
4126.13
4444.41
4773.36
5112.95
5466.71
5835.01
6218.09
6616.61
7029.21
7456.39
7896.35
8348.48
8811.1
9286.83
9765.92
10248.2
10732.3
11226.1
11711
12177.9
12641.6
13089
13500.8
13885.9
14224.2
14534.5
14796
15039.2
15244.6
15428.3
15534.7
15609.2
15637.8
15631.3
15564.5
15452.8
15307.4
15123.5
14908.9
14663.9
14395.7
14106.3
13800.1
13481
13153.6
12823.8
12490.7
12158.8
11826.3
11490.7
11161.5
10830.5
10510.2
10191.3
9883.8
9580.59
9288.6
9001.21
8725.43
8457.33
8198.24
7947.7
7706.01
7472.88
7247.37
7030.1
6820.91
6620.17
6427.05
6242.28
6064.75
5895
5732.03
5575.69
5425.14
5279.23
5139.12
5004
4875.17
4751.89
4634.59
4522.09
4414.03
4309.53
4209.63
4113.19
4021.34
3932.65
3848.39
3766.9
3689.41
3614.78
3543.84
3475.71
3411.03
3348.4
3289.42
3230.13
3173.24
3117
3059.69
3011.87
2963.69
2914.11
2870.37
2829.23
2789.25
2751.05
2713.87
2678
2642.75
2608.66
2575.31
2543.02
2511.31
2480.51
2450.37
2421.29
2393.15
2366.06
2339.8
2314.52
2290.1
2266.63
2244.02
2222.42
2201.58
2181.65
2162.21
2143.51
2125.23
2107.57
2090.34
2073.82
2057.63
2041.9
2026.44
2011
1995.8
1980.71
1965.92
1951.07
1937.28
1923.84
1910.68
1898.13
1886.21
1874.89
1864.18
1853.95
1844.21
1834.78
1825.63
1816.78
1807.93
1799.22
1790.51
1781.95
1773.3
1764.81
1756.44
1748.51
1740.68
1733.39
1726.45
1719.91
1713.63
1707.84
1702.26
1697.06
1691.84
1686.72
1681.58
1676.38
1671.17
1665.92
1660.72
1655.61
1650.64
1645.91
1641.42
1637.14
1633.21
1629.56
1626.16
1622.93
1619.86
1616.8
1613.86
1610.68
1607.42
1604.18
1600.86
1597.51
1594.26
1591.06
1588.13
1585.3
1582.73
1580.27
1578.14
1576.08
1574.22
1572.4
1570.43
1568.43
1566.41
1564.3
1562.13
1559.97
1557.77
1555.67
1553.64
1551.81
1550.02
1548.48
1546.99
1545.74
1544.48
1542.72
34.9458
25.9444
18.9011
13.8782
25.3804
58.6753
124.168
231.46
400.996
664.133
1029.64
1475.45
1918.15
2344.84
2750.47
3137.13
3506.62
3864.45
4216.27
4566.54
4920.56
5282.51
5657.63
6047.46
6455.26
6881.3
7326.34
7791.09
8274.87
8777.71
9296.54
9829.86
10375.7
10939.1
11507.7
12075.9
12641
13217
13785.5
14318.4
14841.1
15347.5
15802.4
16221.9
16577.6
16892.9
17146.6
17364.8
17532.3
17661.9
17713.7
17709
17654.2
17549.6
17388.4
17169.5
16909.3
16612.9
16287.3
15940
15572.2
15193.7
14804
14410.6
14012.9
13618.2
13226
12839.8
12458.2
12079.4
11709.6
11343.6
10990
10640.5
10305.7
9976.07
9662.53
9353.91
9060.44
8775.32
8502.76
8238.5
7985.39
7740.69
7506.16
7279.69
7063.45
6855.23
6656.27
6465.24
6282.52
6107.32
5939.4
5778.12
5622.57
5471.72
5327.04
5187.18
5054.06
4926.43
4804.95
4688.19
4575.9
4467.19
4363.09
4262.5
4166.55
4073.8
3985.53
3899.98
3818.51
3739.77
3664.82
3592.61
3523.93
3457.4
3394.47
3331.48
3270.7
3210.93
3149.33
3097.61
3046.52
2993.94
2946.3
2901.42
2857.81
2815.89
2775.12
2735.79
2697.15
2659.75
2623.18
2587.74
2553
2519.23
2486.16
2454.18
2423.25
2393.35
2364.36
2336.32
2309.21
2283.02
2257.74
2233.44
2209.98
2187.49
2165.57
2144.45
2123.78
2103.84
2084.31
2065.6
2047.21
2029.4
2011.85
1994.45
1977.32
1960.36
1943.75
1927.09
1911.45
1896.28
1881.32
1867.01
1853.27
1840.16
1827.66
1815.63
1804.15
1792.99
1782.18
1771.65
1761.23
1750.97
1740.79
1730.84
1720.81
1711.05
1701.34
1692.19
1683.07
1674.53
1666.3
1658.54
1651.04
1644.03
1637.22
1630.81
1624.42
1618.21
1611.94
1605.79
1599.63
1593.48
1587.46
1581.49
1575.74
1570.23
1564.94
1559.87
1555.14
1550.66
1546.45
1542.42
1538.57
1534.77
1531.18
1527.39
1523.51
1519.75
1515.95
1512.13
1508.43
1504.8
1501.43
1498.15
1495.12
1492.2
1489.58
1487.06
1484.73
1482.5
1480.17
1477.81
1475.51
1473.14
1470.74
1468.37
1465.98
1463.7
1461.48
1459.44
1457.45
1455.69
1453.97
1452.49
1451.02
1449
38.4047
37.9634
30.5236
30.2636
62.9186
126.394
231.255
398.38
658.154
1023.84
1471.65
1920.45
2358.5
2784.61
3198.23
3599.92
3991.18
4375.84
4758.11
5141.3
5531.42
5932.86
6351
6788.08
7247.02
7729.09
8235.37
8766.66
9321.75
9900.47
10498.2
11113.3
11740.9
12388.3
13043.7
13693.7
14330.7
14974.6
15615.9
16200.8
16757.7
17294.4
17756.9
18168.9
18503.8
18781.8
18982.8
19119.3
19190.4
19195.3
19131.7
18985.5
18776.2
18521.8
18237.5
17882
17484.3
17067.2
16622.5
16173.1
15708.3
15251.4
14788.2
14324.7
13864.9
13412.8
12976.6
12554
12143.2
11750.2
11366.6
10998.4
10643.4
10296.4
9968.41
9645.03
9344.2
9046.51
8768.37
8496.52
8241.63
7992.43
7755.55
7523.75
7304.2
7090.38
6888.32
6692.02
6506.08
6326.22
6155.17
5990.24
5832.99
5681.39
5535
5392.86
5256.5
5124.09
4998.08
4876.73
4761.12
4649.74
4542.56
4438.62
4338.84
4242.24
4149.85
4060.34
3974.94
3891.91
3812.68
3735.81
3662.5
3591.6
3524.12
3458.48
3396.23
3334.03
3273.77
3214.68
3153.4
3101.28
3050.62
2998.96
2950.34
2904.81
2860.81
2818.26
2776.88
2736.9
2697.6
2659.5
2622.16
2585.93
2550.41
2515.87
2481.99
2449.17
2417.39
2386.59
2356.71
2327.72
2299.67
2272.46
2246.18
2220.77
2196.25
2172.62
2149.63
2127.42
2105.7
2084.69
2064.1
2044.36
2024.91
2006.13
1987.53
1969.27
1951.21
1933.38
1915.92
1898.4
1881.8
1865.79
1849.93
1834.75
1820.03
1805.96
1792.49
1779.47
1767.03
1754.86
1743.1
1731.54
1720.25
1709.03
1698.01
1687.2
1676.34
1665.81
1655.28
1645.37
1635.44
1626.13
1617.13
1608.59
1600.3
1592.46
1584.86
1577.63
1570.48
1563.52
1556.5
1549.67
1542.86
1536.09
1529.48
1522.96
1516.64
1510.58
1504.72
1499.09
1493.78
1488.73
1483.94
1479.33
1474.91
1470.57
1466.48
1462.2
1457.86
1453.68
1449.51
1445.33
1441.3
1437.33
1433.63
1430.02
1426.64
1423.37
1420.38
1417.51
1414.81
1412.27
1409.62
1406.97
1404.42
1401.84
1399.22
1396.68
1394.12
1391.68
1389.31
1387.12
1384.96
1383.03
1381.13
1379.47
1377.82
1375.57
41.9122
54.2703
52.7266
61.3165
120.722
215.409
366.737
606.426
950.727
1383.1
1825.7
2263.9
2693.64
3116.42
3533.31
3944.85
4352.49
4758.37
5165.58
5577.29
5999.17
6436.34
6893.9
7374.75
7882.27
8419
8985.74
9582.98
10208.5
10862
11537.9
12233.1
12938.5
13661.7
14395.6
15119.7
15814.8
16502.4
17189
17803.9
18357.7
18874
19278.7
19610.7
19851
20011.2
20077.9
20052.2
19965.4
19795.5
19556.7
19212.3
18807.8
18334.3
17841
17275.7
16669.8
16082.4
15483.2
14900.1
14332.1
13786.3
13268.7
12758.6
12281.7
11808.6
11374.1
10961.3
10567.9
10209.3
9856.8
9537.97
9227.89
8934.57
8661.36
8392.5
8151.97
7909.71
7692.55
7475.27
7279.6
7082.88
6902.28
6720.19
6552.79
6384.35
6228.78
6073.01
5928.19
5784.48
5649.8
5516.63
5389.45
5263.96
5143.07
5024.14
4910.06
4797.77
4690.85
4587.32
4488.61
4393.15
4301.31
4211.82
4125.47
4041.42
3960.58
3881.91
3806.5
3732.9
3662.33
3593.58
3527.65
3463.73
3402.61
3342.85
3286.07
3229.43
3174.53
3120.43
3064.31
3015.07
2968.23
2921.02
2874.94
2831.8
2790.49
2750.21
2711.18
2673.25
2636
2599.73
2564.08
2529.45
2495.44
2462.33
2429.77
2398.13
2367.4
2337.55
2308.57
2280.37
2253.04
2226.45
2200.72
2175.69
2151.59
2128.18
2105.54
2083.45
2062
2041.05
2020.61
2000.88
1981.48
1962.73
1944.11
1926.01
1907.93
1890.19
1872.77
1855.22
1838.52
1822.5
1806.54
1791.25
1776.3
1762.03
1748.32
1735
1722.25
1709.76
1697.67
1685.71
1674.16
1662.54
1651.26
1640.09
1629
1618.17
1607.34
1597.07
1586.85
1577.21
1567.87
1558.95
1550.27
1542
1534
1526.32
1518.79
1511.39
1504.07
1496.8
1489.69
1482.59
1475.65
1468.84
1462.19
1455.83
1449.64
1443.67
1438.04
1432.64
1427.5
1422.53
1417.76
1413.08
1408.68
1404.1
1399.47
1395.02
1390.62
1386.22
1381.97
1377.8
1373.89
1370.06
1366.46
1362.97
1359.73
1356.64
1353.68
1350.93
1348.08
1345.22
1342.52
1339.77
1337.01
1334.35
1331.68
1329.14
1326.67
1324.38
1322.11
1320.07
1318.05
1316.27
1314.51
1312.1
47.0203
76.6129
86.2747
107.248
193.671
322.878
529.713
838.484
1239.27
1670.22
2100.39
2524.77
2944.11
3361.18
3777.35
4194.25
4612.86
5034.15
5460.89
5896.55
6345.38
6813.89
7306.36
7827.57
8381.28
8970.59
9596.03
10257.5
10950.9
11677
12427.1
13198.1
13974.5
14760.3
15554.2
16336.1
17067.2
17758
18428.2
19016.1
19488.6
19895.4
20138.9
20316.9
20383.4
20337.2
20196.7
19908.7
19512.4
19003.8
18446
17776.8
17065.7
16318.3
15581.2
14831.1
14066.8
13316.7
12642.4
11964.1
11376.6
10791.1
10292.9
9791.55
9362.09
8928.36
8554.38
8201.83
7881.55
7601.56
7327.82
7101.53
6874.63
6677.88
6493.74
6318.99
6170.04
6018.27
5891.87
5762.1
5652.2
5538.99
5439.91
5337.12
5246.68
5152.83
5068.38
4981.16
4901.44
4820.07
4743.97
4665.88
4589.44
4511.3
4435.43
4358.54
4283.93
4208.36
4135.71
4062.47
3992.23
3923.08
3856.24
3789.92
3725.16
3661.4
3599.63
3539.05
3480.44
3422.8
3366.96
3312.38
3259.26
3207.93
3157.85
3108.98
3062.15
3015.84
2970.88
2925.75
2879.45
2836.33
2796.55
2756.87
2717.31
2679.38
2643.69
2608.41
2574.6
2541.22
2508.71
2476.62
2445.14
2414.43
2384.14
2354.64
2325.44
2296.96
2269.19
2242.13
2215.78
2190.07
2165.07
2140.67
2116.98
2093.8
2071.5
2049.66
2028.66
2007.97
1987.99
1968.28
1949.13
1930.46
1912.23
1894.45
1876.9
1859.82
1842.69
1825.97
1809.41
1792.79
1776.81
1761.5
1746.25
1731.55
1717.15
1703.34
1690.04
1677.09
1664.65
1652.46
1640.63
1628.96
1617.61
1606.29
1595.18
1584.28
1573.45
1562.8
1552.18
1542.03
1531.98
1522.41
1513.13
1504.22
1495.56
1487.25
1479.21
1471.45
1463.92
1456.44
1449.14
1441.79
1434.68
1427.57
1420.59
1413.74
1407.05
1400.63
1394.37
1388.32
1382.57
1377.07
1371.8
1366.7
1361.8
1356.99
1352.47
1347.78
1343.08
1338.52
1334.05
1329.59
1325.28
1321.05
1317.05
1313.15
1309.46
1305.88
1302.52
1299.33
1296.26
1293.41
1290.47
1287.51
1284.75
1281.95
1279.12
1276.43
1273.73
1271.16
1268.66
1266.33
1264.03
1261.95
1259.88
1258.05
1256.23
1253.76
53.171
106.698
129.647
166.411
279.18
448.309
711.108
1070.65
1476.63
1894.43
2308.25
2717.29
3124.47
3533.15
3944.88
4362.48
4786.46
5217.71
5658.7
6113.02
6583.57
7078.4
7601.64
8159.97
8757
9396.34
10077.9
10800.9
11558.8
12353.4
13171
14008.1
14843.4
15670.9
16487.5
17283.5
17997.6
18617.1
19174.8
19635.6
19923.5
20119.2
20113.8
19990.6
19735.1
19315.5
18788.2
18094.7
17316.4
16441.2
15541.8
14599.4
13659.4
12751.5
11857.4
11084.6
10355.9
9611.24
9006.13
8387.58
7890.13
7384.69
6983.08
6574.95
6247.25
5914.46
5641.96
5382.08
5162.95
4967.94
4788.43
4645.17
4500.86
4388.3
4278.92
4185.44
4107.22
4029.68
3972.29
3912.27
3867.54
3821.21
3785.3
3747.66
3718.06
3686.69
3660.92
3633.59
3609.27
3583.94
3560.12
3535.31
3511.03
3486.01
3460.78
3434.73
3408.16
3380.06
3350.96
3320.42
3289.16
3257.07
3224.13
3190.08
3155.19
3119.47
3083.19
3046.51
3010.02
2973.39
2937.19
2901.57
2866.12
2831.6
2797.03
2763.22
2730.04
2698.13
2666.22
2633.94
2600.86
2568
2538.11
2508.21
2478.21
2448.61
2420.91
2393.3
2366.99
2340.65
2315.11
2289.56
2264.46
2239.76
2215.32
2191.4
2167.54
2144.09
2121.08
2098.55
2076.5
2054.86
2033.74
2012.99
1992.8
1972.86
1953.66
1934.74
1916.54
1898.53
1881.11
1863.85
1847.04
1830.55
1814.47
1798.66
1783.22
1767.94
1752.84
1737.93
1723.16
1708.33
1693.9
1680.01
1666.23
1652.83
1639.69
1626.98
1614.74
1602.79
1591.27
1580.02
1569.02
1558.26
1547.64
1537.24
1526.8
1516.74
1506.64
1496.68
1486.74
1477.2
1467.75
1458.66
1449.85
1441.37
1433.11
1425.13
1417.44
1409.97
1402.77
1395.58
1388.61
1381.56
1374.75
1367.93
1361.22
1354.62
1348.17
1341.95
1335.89
1330
1324.37
1319
1313.83
1308.83
1304.01
1299.3
1294.86
1290.27
1285.69
1281.22
1276.86
1272.51
1268.3
1264.15
1260.23
1256.4
1252.76
1249.24
1245.9
1242.74
1239.68
1236.87
1233.96
1231.03
1228.31
1225.56
1222.79
1220.15
1217.51
1215.01
1212.56
1210.28
1208.02
1205.97
1203.93
1202.13
1200.33
1197.91
59.9551
141.816
178.208
235.776
376.693
587.029
895.355
1266.53
1664.46
2064.09
2459.51
2852.11
3245.09
3642.26
4046.28
4460.09
4884.37
5320.25
5770.04
6237.33
6724.84
7241.45
7791.84
8384.27
9022.03
9708.86
10443.6
11225.7
12044.2
12899.7
13773
14654.9
15519
16345.4
17118.4
17835.7
18439.9
18896
19243.5
19441.9
19371.5
19168.8
18813.5
18276.6
17615.6
16781.3
15848.1
14807.8
13728.4
12631.3
11586.9
10634.5
9728.89
8891.49
8106.58
7420.28
6833.88
6222.14
5745.36
5258.62
4888.59
4512.66
4226.52
3936.98
3716.68
3493.15
3319.65
3151.62
3021.43
2899.66
2799.32
2714.66
2638.1
2579.59
2523.74
2483.21
2446.99
2418.64
2400.46
2380.76
2372.35
2363.65
2362.36
2362.49
2365.44
2369.64
2375.87
2382.46
2389.94
2396.88
2404.4
2412.04
2420.57
2428.86
2437.46
2445.46
2454
2459.93
2464.63
2467.28
2467.65
2466.92
2465.31
2462.41
2458.08
2452.14
2444.56
2435.47
2425.15
2413.71
2401.31
2387.88
2373.31
2357.8
2341.56
2324.91
2308.07
2292.01
2275.47
2258.36
2239.97
2220.84
2202.71
2184.5
2165.88
2147.01
2129.04
2111.05
2093.8
2076.41
2059.46
2042.29
2025.29
2008.27
1991.38
1974.65
1957.78
1940.93
1924.24
1907.71
1891.41
1875.23
1859.35
1843.54
1828.1
1812.66
1797.73
1782.91
1768.61
1754.37
1740.61
1726.81
1713.37
1700.04
1687.05
1674.21
1661.71
1649.17
1636.95
1624.7
1612.57
1600.32
1588.23
1576.51
1564.9
1553.48
1542.27
1531.33
1520.77
1510.44
1500.45
1490.69
1481.11
1471.8
1462.51
1453.49
1444.36
1435.57
1426.72
1417.96
1409.15
1400.68
1392.26
1384.09
1376.15
1368.49
1361.02
1353.76
1346.78
1339.96
1333.43
1326.89
1320.56
1314.16
1307.95
1301.75
1295.61
1289.56
1283.63
1277.89
1272.29
1266.81
1261.56
1256.53
1251.7
1247.03
1242.51
1238.11
1233.95
1229.7
1225.45
1221.26
1217.19
1213.13
1209.18
1205.3
1201.61
1198.01
1194.57
1191.24
1188.07
1185.08
1182.17
1179.52
1176.78
1174.02
1171.46
1168.88
1166.28
1163.8
1161.33
1158.98
1156.68
1154.54
1152.41
1150.49
1148.56
1146.87
1145.17
1142.91
66.258
180.176
230.931
312.584
482.373
729.605
1058.09
1425.51
1806.81
2186.14
2562.22
2936.99
3313.63
3696.89
4090
4495.91
4915.87
5351.34
5804.8
6279.96
6780.56
7315.73
7890.72
8515.3
9192.37
9925.1
10711.4
11549.3
12420.3
13319.3
14224.6
15109.8
15936.7
16677
17318.6
17874.2
18242.9
18380.2
18333.1
18142.2
17689.2
17053
16320.9
15379.8
14335.4
13196.6
12025.3
10933.6
9827.95
8840.14
7866.49
7047.26
6292.85
5620.63
5028.79
4485.95
4061.2
3629.26
3298.96
2972.25
2726.71
2487
2305.25
2126.83
1994.2
1863.68
1766.74
1667.98
1596.87
1524.43
1473.36
1421.65
1386.49
1353.48
1326.64
1309.21
1290.43
1284.06
1277.57
1275.25
1277.42
1281.73
1289.58
1299.78
1312.99
1327.89
1345.02
1363.3
1383.28
1403.9
1426.05
1448.52
1472.29
1496.31
1521.28
1546.32
1572.53
1596.54
1620.75
1642.45
1663.13
1682.22
1701.6
1719.89
1737.42
1753.37
1768.06
1780.86
1792.29
1801.71
1809.74
1815.6
1819.9
1822.58
1824.09
1824.54
1824.67
1824.63
1824.02
1822.51
1819.44
1814.96
1809.89
1804.21
1797.65
1790.44
1783.05
1775.47
1768.05
1760.46
1752.9
1745.03
1736.99
1728.73
1720.35
1711.78
1702.89
1693.71
1684.33
1674.81
1665.18
1655.45
1645.67
1635.78
1625.93
1615.95
1606.18
1596.34
1586.81
1577.22
1567.9
1558.43
1549.16
1539.8
1530.67
1521.6
1512.75
1503.83
1495.1
1486.31
1477.48
1468.51
1459.49
1450.64
1441.83
1433.04
1424.36
1415.79
1407.49
1399.33
1391.42
1383.69
1376.07
1368.68
1361.27
1354.08
1346.81
1339.74
1332.63
1325.52
1318.33
1311.35
1304.38
1297.55
1290.89
1284.43
1278.12
1271.95
1266.02
1260.21
1254.68
1249.12
1243.75
1238.33
1233.05
1227.76
1222.51
1217.29
1212.17
1207.17
1202.29
1197.49
1192.86
1188.41
1184.15
1180.03
1176.04
1172.17
1168.51
1164.79
1161.08
1157.38
1153.79
1150.2
1146.71
1143.26
1139.96
1136.75
1133.67
1130.69
1127.83
1125.15
1122.53
1120.17
1117.75
1115.29
1113.01
1110.73
1108.42
1106.22
1104.03
1101.94
1099.89
1097.98
1096.08
1094.37
1092.65
1091.16
1089.65
1087.67
71.5025
219.406
285.924
392.867
590.208
860.462
1191.37
1547.55
1908.55
2266.77
2622.63
2978.18
3336.59
3703.94
4084.34
4480.02
4892.06
5322.73
5775.23
6254.11
6764.6
7316.49
7915.65
8572.66
9289.86
10069
10902.8
11785.8
12696.5
13607.7
14480.7
15296.3
16015.3
16580.9
16959.2
17203.1
17211.8
16981.4
16536
15923.9
15112.9
14102.3
13022.2
11855.6
10651.9
9531.73
8386.06
7428.6
6459.93
5666.36
4896.5
4271.58
3717.26
3243.86
2847.89
2493.13
2207.6
1952.56
1749.82
1559.19
1416.94
1279.52
1177.74
1079.26
1007.72
938.213
887.79
836.6
799.716
762.029
735.433
707.556
690.171
671.411
659.003
648.62
637.863
633.654
628.694
627.808
628.787
630.784
634.908
640.727
648.56
657.732
668.74
681.057
695.156
710.413
727.496
745.762
765.824
787.046
809.872
833.706
858.957
884.711
911.26
937.783
964.771
991.691
1019.15
1046.22
1073.57
1100.14
1126.44
1151.37
1175.64
1197.99
1219.46
1238.6
1256.73
1273.58
1289.36
1304.29
1318.76
1332.97
1346.35
1358.65
1369.29
1377.16
1383.8
1389.4
1394.32
1397.76
1401.12
1403.72
1406.41
1408.49
1410.67
1412.12
1413.47
1414.18
1414.85
1414.79
1414.24
1413.08
1411.4
1409.26
1406.71
1403.81
1400.58
1397.04
1393.25
1389.21
1385.05
1380.75
1376.46
1372.05
1367.63
1363.01
1358.31
1353.49
1348.69
1343.89
1339.17
1334.39
1329.63
1324.76
1319.77
1314.55
1309.17
1303.71
1298.17
1292.54
1286.86
1281.13
1275.55
1270
1264.63
1259.34
1254.13
1249.06
1243.98
1239.04
1234.04
1229.11
1224.15
1219.09
1213.95
1208.84
1203.7
1198.6
1193.57
1188.66
1183.84
1179.11
1174.56
1170.09
1165.86
1161.61
1157.51
1153.36
1149.3
1145.21
1141.12
1137.04
1132.98
1129
1125.1
1121.22
1117.46
1113.82
1110.36
1107.01
1103.77
1100.63
1097.68
1094.71
1091.72
1088.72
1085.8
1082.88
1080.01
1077.17
1074.44
1071.78
1069.21
1066.73
1064.34
1062.11
1059.93
1058
1056.02
1054.02
1052.14
1050.28
1048.4
1046.59
1044.79
1043.07
1041.38
1039.81
1038.25
1036.84
1035.42
1034.21
1032.98
1031.42
76.5119
258.866
341.924
471.684
689.332
970.376
1296.11
1635.29
1974.36
2311.07
2645.67
2981.05
3323.34
3675.28
4040.35
4421.66
4821.78
5244.09
5692.68
6173.68
6693.58
7263.38
7889.04
8582.2
9340.95
10163.5
11041
11952.3
12858.3
13722.6
14502.9
15156.9
15660
15936.2
15968.9
15835.5
15530.8
14923.8
14092.4
13093.7
12020.5
10832.9
9603.83
8475.88
7325.4
6370.75
5401.15
4649.52
3909.42
3343.76
2820.58
2402.48
2046.89
1752.25
1514.34
1311.38
1143.58
1011.75
901.506
804.212
731.95
664.459
614.922
568.254
533.938
501.37
477.192
453.041
434.862
416.42
402.56
388.246
378.156
367.361
360.198
352.785
346.444
341.933
337.15
334.403
332.702
330.8
330.557
330.941
332.181
334.096
336.938
340.498
345.016
350.295
356.61
363.802
372.172
381.513
392.082
403.605
416.379
430.106
445.004
460.822
477.764
495.678
514.745
534.736
555.796
577.708
600.391
623.611
647.249
671.046
695.115
718.618
741.912
764.766
787.274
809.837
832.565
855.07
877.351
898.579
918.907
936.525
952.45
966.726
981.112
993.741
1006.37
1017.92
1029.64
1040.45
1051.41
1061.46
1071.32
1080.29
1088.98
1096.81
1104.07
1110.41
1116.15
1121.17
1125.72
1129.58
1133.07
1135.89
1138.45
1140.39
1142.24
1143.62
1145.02
1145.8
1146.63
1146.87
1146.99
1146.85
1146.63
1146.34
1145.99
1145.55
1145.03
1144.34
1143.48
1142.29
1140.79
1139.04
1137.05
1134.85
1132.46
1129.9
1127.3
1124.65
1122.09
1119.52
1116.99
1114.55
1112.08
1109.69
1107.24
1104.76
1102.21
1099.53
1096.7
1093.78
1090.76
1087.68
1084.57
1081.49
1078.43
1075.43
1072.51
1069.65
1066.99
1064.31
1061.73
1059.11
1056.53
1053.89
1051.22
1048.51
1045.77
1043.04
1040.34
1037.61
1034.94
1032.33
1029.88
1027.51
1025.23
1023.01
1020.97
1018.94
1016.86
1014.75
1012.68
1010.6
1008.54
1006.48
1004.48
1002.53
1000.63
998.799
997.029
995.395
993.799
992.425
991.026
989.599
988.264
986.95
985.619
984.321
983.029
981.79
980.579
979.448
978.319
977.311
976.297
975.464
974.596
973.593
89.2278
295.74
394.518
541.779
772.977
1056.86
1372.59
1692.27
2009.02
2323.44
2638.73
2957.17
3280.29
3613.34
3960.6
4325.7
4712.13
5124.7
5568.99
6053.51
6585.82
7179.11
7837.97
8570.27
9374.12
10240.1
11140.3
12036.6
12888.2
13637.9
14231.3
14638.2
14854.9
14779.3
14510.3
14009.4
13353.5
12440
11328.6
10096.3
8906.28
7752.22
6572.73
5608.59
4659.23
3925.8
3214.79
2687.85
2197.08
1841.17
1526.93
1284.78
1086.38
926.361
801.967
699.523
615.496
556.059
502.098
461.42
428.606
398.614
375.772
354.368
337.955
322.054
309.53
296.882
286.853
276.547
268.094
259.5
252.698
245.684
240.255
234.596
230.389
226.36
222.237
218.823
216.143
213.396
211.388
209.346
208.148
206.899
206.383
205.862
205.949
206.234
206.89
207.901
209.379
211.284
213.706
216.554
219.933
223.796
228.254
233.253
238.897
245.158
252.16
259.877
268.44
277.822
288.073
299.167
311.105
323.864
337.441
351.738
366.782
382.551
399.152
416.737
435.282
454.638
474.655
495.068
515.883
535.795
555.347
573.683
592.285
609.924
627.743
644.793
662.103
678.82
695.789
712.083
728.433
743.805
758.912
772.944
786.813
799.674
812.048
823.52
834.55
844.631
854.344
863.064
871.52
879.006
886.397
892.906
899.47
905.225
911.08
916.11
921.15
925.616
930.055
934.23
938.436
942.375
946.3
949.905
953.386
956.388
958.85
960.891
962.561
963.878
964.905
965.583
966.173
966.566
966.972
967.296
967.618
967.964
968.276
968.631
968.822
969.016
969.001
968.846
968.483
967.938
967.202
966.32
965.32
964.254
963.141
962.044
960.949
959.893
958.97
958.035
957.155
956.242
955.306
954.307
953.234
952.076
950.839
949.549
948.218
946.834
945.435
944.043
942.766
941.544
940.383
939.267
938.291
937.343
936.334
935.29
934.235
933.155
932.052
930.927
929.815
928.714
927.636
926.586
925.574
924.665
923.793
923.1
922.4
921.677
921.009
920.359
919.693
919.025
918.359
917.711
917.08
916.49
915.904
915.391
914.884
914.519
914.09
913.794
103.118
326.058
440.05
600.829
839.627
1121.09
1422.39
1721.94
2016.76
2312.5
2609.2
2907.07
3209.7
3523.13
3852.04
4200.66
4573.46
4977.37
5420.28
5913.86
6465.9
7089.66
7790.36
8571.86
9421.96
10317.1
11204.2
12038.9
12769.7
13328.9
13669.3
13770.7
13679.3
13313.7
12716.6
11872.4
10885.6
9728.09
8510.1
7276.37
6090.14
5110.66
4138.02
3395.51
2720.99
2220.87
1780.43
1462.71
1188.25
995.968
830.771
710.548
610.601
532.996
472.173
423.179
384.787
355.511
331.369
315.324
299.079
284.346
272.369
260.258
250.382
240.236
232.275
224.036
217.135
210.067
204.215
197.941
193.029
187.99
184.021
179.788
176.525
173.413
170.273
167.449
165.041
162.626
160.661
158.641
156.962
155.242
153.912
152.551
151.504
150.436
149.627
148.872
148.32
147.949
147.718
147.733
147.866
148.14
148.605
149.254
150.116
151.177
152.483
154.036
155.897
158.07
160.584
163.447
166.682
170.311
174.361
178.842
183.81
189.314
195.462
202.363
210.052
218.517
227.762
237.774
248.53
259.833
271.568
283.739
296.446
309.622
323.33
337.496
352.242
367.466
383.282
399.512
416.147
432.99
450.101
466.949
483.979
500.452
516.813
532.453
547.909
562.472
576.833
590.166
603.341
615.402
627.43
638.333
649.325
659.484
669.775
679.226
688.749
697.568
706.392
714.782
723.231
731.294
739.267
746.861
754.171
761.018
767.293
773.027
778.321
783.148
787.62
791.622
795.443
798.968
802.432
805.776
809.042
812.345
815.518
818.713
821.628
824.513
827.154
829.614
831.743
833.656
835.256
836.69
837.871
838.956
839.891
840.833
841.687
842.553
843.455
844.355
845.283
846.146
846.982
847.713
848.346
848.837
849.204
849.46
849.641
849.697
849.689
849.654
849.667
849.704
849.775
849.888
850.076
850.326
850.498
850.618
850.712
850.741
850.716
850.647
850.542
850.413
850.266
850.114
849.974
849.894
849.877
849.947
850.053
850.138
850.243
850.366
850.462
850.531
850.592
850.634
850.679
850.727
850.778
850.85
850.95
851.131
851.255
851.73
114.785
348.081
477.181
647.318
888.607
1163.52
1447.93
1727.47
2005.85
2282.46
2557.93
2834.62
3116.8
3411.05
3722.42
4056.09
4417.68
4817.4
5265.82
5777.47
6360.1
7030.13
7785.28
8624.28
9514.01
10413.2
11233.6
11948.6
12499.4
12802.3
12831.1
12646.6
12262.8
11570.8
10660.6
9538.92
8277.53
7035.03
5853.02
4790.89
3793.18
3049.04
2390.15
1906.36
1506.12
1215.1
983.061
816.257
680.335
583.885
501.23
443.815
391.281
353.623
321.766
298.453
279.466
263.941
252.097
241.714
230.281
221.884
213.381
204.764
197.607
190.306
184.434
178.503
173.582
168.528
164.333
160.176
156.69
153.142
150.194
147.201
144.806
142.339
140.154
138.288
136.367
134.486
132.987
131.421
129.946
128.457
127.252
126.031
124.95
123.851
122.91
121.952
121.157
120.347
119.731
119.082
118.58