/*--------------------------------*- C++ -*----------------------------------*\
| =========                 |                                                 |
| \\      /  F ield         | OpenFOAM: The Open Source CFD Toolbox           |
|  \\    /   O peration     | Version:  2312                                  |
|   \\  /    A nd           | Website:  www.openfoam.com                      |
|    \\/     M anipulation  |                                                 |
\*---------------------------------------------------------------------------*/
FoamFile
{
    version     2.0;
    format      ascii;
    arch        "LSB;label=32;scalar=64";
    class       volScalarField;
    location    "0.006";
    object      minKappa;
}
// * * * * * * * * * * * * * * * * * * * * * * * * * * * * * * * * * * * * * //

dimensions      [0 0 0 0 0 0 0];

internalField   nonuniform List<scalar> 
48128
(
0.614667
0.614513
0.614756
0.614719
0.614675
0.614697
0.614652
0.614565
0.614612
0.614942
0.616488
0.618003
0.619005
0.619874
0.62059
0.62195
0.62314
0.624279
0.625352
0.626345
0.627237
0.628087
0.628903
0.629657
0.630339
0.630937
0.631438
0.631812
0.632057
0.632187
0.632223
0.632093
0.63183
0.631443
0.630952
0.630357
0.629868
0.628831
0.627875
0.626879
0.62586
0.624857
0.623888
0.622959
0.622095
0.621308
0.620607
0.619891
0.619281
0.618856
0.61871
0.618576
0.618529
0.618578
0.618771
0.619068
0.619506
0.620062
0.620733
0.621506
0.622377
0.623336
0.624374
0.625489
0.626779
0.628187
0.62967
0.631218
0.632849
0.634493
0.636194
0.637912
0.639645
0.641429
0.643202
0.645037
0.646849
0.648673
0.650498
0.652292
0.654072
0.655811
0.657562
0.659287
0.661007
0.66267
0.66432
0.665906
0.667467
0.668984
0.670483
0.671928
0.673345
0.674731
0.676113
0.677491
0.678866
0.68019
0.681439
0.682604
0.683703
0.684777
0.685852
0.686904
0.687927
0.688912
0.689853
0.69075
0.691613
0.692445
0.693232
0.693981
0.694675
0.695326
0.695941
0.696516
0.697115
0.697744
0.698399
0.699136
0.700169
0.700344
0.700735
0.701393
0.701548
0.701796
0.70208
0.70238
0.702695
0.703025
0.703365
0.703709
0.704054
0.704401
0.70475
0.705102
0.705447
0.705753
0.706036
0.706299
0.706552
0.706782
0.706991
0.707182
0.707356
0.707505
0.707642
0.707764
0.70789
0.70801
0.708134
0.708246
0.708346
0.708439
0.708536
0.708639
0.708757
0.708887
0.709033
0.709185
0.709346
0.709518
0.677857
0.677843
0.677816
0.677762
0.677693
0.677602
0.677504
0.677399
0.677305
0.677214
0.677146
0.677078
0.709733
0.677018
0.677018
0.677017
0.677035
0.677039
0.677028
0.677003
0.676964
0.676898
0.676819
0.676734
0.676639
0.676539
0.676437
0.67635
0.676278
0.676237
0.676187
0.676181
0.676168
0.676171
0.676161
0.67614
0.676106
0.676058
0.675998
0.675925
0.675836
0.675739
0.675646
0.675557
0.67548
0.675416
0.67534
0.675342
0.675327
0.675306
0.675296
0.675275
0.675243
0.675198
0.675142
0.675074
0.674998
0.674917
0.674826
0.674746
0.674662
0.674592
0.674556
0.674515
0.674473
0.674458
0.674433
0.674402
0.674365
0.674319
0.674264
0.6742
0.674129
0.674054
0.673974
0.673896
0.673823
0.673735
0.614667
0.614513
0.614756
0.614719
0.614675
0.614697
0.614604
0.614346
0.614612
0.614942
0.616488
0.618003
0.619005
0.619874
0.62059
0.62195
0.62314
0.624279
0.625352
0.626345
0.627237
0.628087
0.628903
0.629657
0.630339
0.630937
0.631438
0.631812
0.632057
0.632187
0.632223
0.632093
0.63183
0.63109
0.630156
0.629157
0.628118
0.627038
0.625954
0.624884
0.623826
0.622817
0.621882
0.621031
0.620289
0.619654
0.619167
0.618972
0.61894
0.618856
0.61871
0.618576
0.618529
0.618578
0.618771
0.619068
0.619506
0.620062
0.620733
0.621506
0.622377
0.623336
0.624374
0.625489
0.626779
0.628187
0.62967
0.631218
0.632849
0.634493
0.636194
0.637912
0.639645
0.641429
0.643202
0.645037
0.646849
0.648673
0.650498
0.652292
0.654072
0.655811
0.657562
0.659287
0.661007
0.66267
0.66432
0.665906
0.667467
0.668984
0.670483
0.671928
0.673345
0.674731
0.676113
0.677491
0.678866
0.68019
0.681439
0.682604
0.683703
0.684777
0.685852
0.686904
0.687927
0.688912
0.689853
0.69075
0.691613
0.692445
0.693232
0.693981
0.694675
0.695326
0.695941
0.696516
0.697115
0.697744
0.698399
0.699136
0.700169
0.700344
0.700735
0.701393
0.701548
0.701796
0.70208
0.70238
0.702695
0.703025
0.703365
0.703709
0.704054
0.704401
0.70475
0.705102
0.705447
0.705753
0.706036
0.706299
0.706552
0.706782
0.706991
0.707182
0.707356
0.707505
0.707642
0.707764
0.70789
0.70801
0.708134
0.708246
0.708346
0.708439
0.708536
0.708639
0.708757
0.708887
0.709033
0.709185
0.709346
0.709518
0.677857
0.677843
0.677816
0.677762
0.677693
0.677602
0.677504
0.677399
0.677305
0.677214
0.677146
0.677078
0.709733
0.677018
0.677018
0.677017
0.677035
0.677039
0.677028
0.677003
0.676964
0.676898
0.676819
0.676734
0.676639
0.676539
0.676437
0.67635
0.676278
0.676237
0.676187
0.676181
0.676168
0.676171
0.676161
0.67614
0.676106
0.676058
0.675998
0.675925
0.675836
0.675739
0.675646
0.675557
0.67548
0.675416
0.67534
0.675342
0.675327
0.675306
0.675296
0.675275
0.675243
0.675198
0.675142
0.675074
0.674998
0.674917
0.674826
0.674746
0.674662
0.674592
0.674556
0.674515
0.674473
0.674458
0.674433
0.674402
0.674365
0.674319
0.674264
0.6742
0.674129
0.674054
0.673974
0.673896
0.673823
0.673735
0.614889
0.614732
0.614912
0.615015
0.614923
0.614691
0.614379
0.614346
0.614708
0.616266
0.618598
0.620776
0.622874
0.624969
0.626626
0.628069
0.629329
0.630435
0.631205
0.63169
0.632037
0.632335
0.632558
0.632694
0.632738
0.632695
0.632546
0.632257
0.631848
0.631323
0.630738
0.630049
0.629106
0.628241
0.627333
0.626385
0.625419
0.624444
0.623485
0.622571
0.621696
0.620892
0.620184
0.619585
0.619273
0.619152
0.619167
0.618972
0.61894
0.618944
0.619007
0.619195
0.619564
0.620052
0.620692
0.621461
0.622398
0.623464
0.624663
0.625974
0.627395
0.628908
0.630505
0.632186
0.633948
0.635794
0.637696
0.639651
0.641666
0.643682
0.645745
0.647799
0.649864
0.651958
0.654037
0.65616
0.658244
0.660327
0.662399
0.66443
0.666441
0.668457
0.670467
0.672454
0.674406
0.676308
0.678178
0.679985
0.681753
0.683479
0.685177
0.686818
0.688427
0.690001
0.69157
0.693128
0.694683
0.696178
0.697595
0.698928
0.700197
0.70144
0.70268
0.703894
0.705077
0.706218
0.707315
0.708366
0.709384
0.710367
0.711306
0.712205
0.713046
0.713845
0.714606
0.715323
0.716063
0.716829
0.717625
0.718497
0.71965
0.719959
0.720495
0.721254
0.721552
0.721942
0.722359
0.722786
0.723221
0.723664
0.724116
0.724566
0.725015
0.725464
0.725914
0.726368
0.726811
0.727218
0.727601
0.727966
0.728318
0.728648
0.728954
0.729241
0.729511
0.72975
0.729972
0.730176
0.730384
0.730584
0.730788
0.730979
0.731158
0.731328
0.731501
0.731679
0.731871
0.732074
0.732292
0.732516
0.732749
0.732995
0.73315
0.733313
0.733485
0.733588
0.733698
0.733746
0.733797
0.733825
0.733854
0.733887
0.733923
0.733969
0.734029
0.734096
0.734177
0.734263
0.730444
0.730537
0.730607
0.730653
0.730702
0.7307
0.730685
0.73066
0.73062
0.730567
0.730509
0.730454
0.730412
0.730395
0.730372
0.730385
0.730395
0.730421
0.730434
0.730436
0.730423
0.730399
0.730361
0.730307
0.730233
0.730144
0.730053
0.72996
0.729875
0.729796
0.729694
0.729685
0.729661
0.729625
0.729606
0.729577
0.729536
0.729483
0.729417
0.729337
0.729247
0.729147
0.729034
0.728923
0.728809
0.728694
0.728622
0.728545
0.728462
0.728414
0.728357
0.728295
0.728227
0.72815
0.728064
0.727968
0.727862
0.727749
0.727627
0.727505
0.727382
0.727214
0.615012
0.614863
0.614837
0.614943
0.614725
0.614493
0.614379
0.614768
0.616912
0.620078
0.622348
0.62412
0.625533
0.626583
0.627404
0.628008
0.628561
0.62904
0.629447
0.629785
0.630009
0.630199
0.630347
0.630425
0.63042
0.630316
0.630108
0.629793
0.629374
0.628854
0.628109
0.627406
0.626642
0.625808
0.624948
0.624078
0.623216
0.62237
0.621566
0.620846
0.620193
0.619705
0.619497
0.619445
0.619273
0.619152
0.619191
0.619196
0.619383
0.6197
0.620211
0.620861
0.621716
0.622706
0.623847
0.625134
0.626599
0.628184
0.629906
0.63173
0.633662
0.635666
0.637748
0.639899
0.642121
0.644418
0.646744
0.649114
0.65151
0.653891
0.656301
0.658673
0.661052
0.663432
0.665792
0.668172
0.670496
0.672804
0.675088
0.677317
0.679477
0.681608
0.683712
0.685779
0.68779
0.689742
0.691652
0.693493
0.695286
0.697038
0.698756
0.700415
0.702035
0.703619
0.705192
0.70675
0.708304
0.709786
0.711193
0.712544
0.713841
0.715116
0.716387
0.717628
0.718839
0.720004
0.721127
0.722204
0.72325
0.724259
0.725226
0.726154
0.727023
0.727856
0.728643
0.729395
0.730169
0.730967
0.731801
0.7327
0.733846
0.734202
0.734771
0.735506
0.735885
0.736325
0.736782
0.737248
0.737718
0.738196
0.738681
0.739163
0.739643
0.740124
0.740603
0.741088
0.741558
0.741993
0.742408
0.742804
0.743188
0.74355
0.74389
0.74421
0.744515
0.744787
0.74504
0.745275
0.745512
0.745741
0.745974
0.74619
0.746396
0.746593
0.746794
0.746999
0.747217
0.747446
0.747688
0.747937
0.748194
0.748463
0.748646
0.748836
0.749033
0.749163
0.749302
0.749377
0.749457
0.749511
0.749566
0.749624
0.749684
0.749753
0.749835
0.749924
0.750025
0.750131
0.750252
0.750374
0.748872
0.748939
0.750638
0.750659
0.750672
0.750669
0.750653
0.750625
0.750591
0.750556
0.750533
0.750531
0.748851
0.748868
0.748887
0.748921
0.748943
0.748954
0.748948
0.748931
0.7489
0.748853
0.748785
0.748702
0.748615
0.748526
0.748443
0.748361
0.748262
0.748247
0.748219
0.748181
0.748157
0.748123
0.74808
0.748023
0.747953
0.74787
0.747776
0.747671
0.747553
0.747434
0.747312
0.747189
0.747105
0.747016
0.746923
0.746862
0.746792
0.746718
0.746639
0.74655
0.746453
0.746345
0.746227
0.7461
0.745966
0.745829
0.74569
0.745499
0.615084
0.614905
0.614645
0.614736
0.614594
0.614493
0.614936
0.617074
0.62031
0.622551
0.624156
0.625264
0.625992
0.62635
0.626666
0.627049
0.627382
0.627693
0.627983
0.628227
0.628372
0.628488
0.628553
0.628549
0.628466
0.628291
0.628027
0.627667
0.627219
0.626541
0.625923
0.625235
0.624507
0.623733
0.62295
0.622189
0.621477
0.620807
0.620204
0.619925
0.619815
0.619705
0.619497
0.619445
0.619432
0.619526
0.619829
0.620289
0.620975
0.621812
0.622869
0.624085
0.625532
0.627129
0.628874
0.630775
0.632866
0.635053
0.637387
0.639797
0.642308
0.644859
0.647467
0.65012
0.65282
0.655585
0.658332
0.661111
0.663867
0.666579
0.669296
0.67193
0.674566
0.677165
0.679735
0.682295
0.684768
0.687213
0.689616
0.69194
0.694167
0.696369
0.69852
0.700618
0.70264
0.704597
0.706501
0.708332
0.710107
0.71184
0.713535
0.715168
0.716754
0.718301
0.719832
0.721343
0.722851
0.724274
0.72563
0.726908
0.728123
0.729318
0.730505
0.731661
0.732789
0.733871
0.734917
0.735917
0.736893
0.737826
0.738725
0.739584
0.740395
0.741193
0.741939
0.742665
0.743411
0.744176
0.744987
0.745844
0.746912
0.74727
0.747814
0.748454
0.748899
0.749314
0.749754
0.750205
0.750661
0.751123
0.751593
0.75206
0.752528
0.752996
0.753462
0.753935
0.754389
0.754812
0.755219
0.755607
0.755983
0.756338
0.756673
0.756989
0.757292
0.757562
0.757813
0.758048
0.758282
0.758509
0.758739
0.75895
0.759155
0.75935
0.75955
0.759753
0.75997
0.760197
0.760435
0.760682
0.760935
0.761202
0.76139
0.761576
0.761769
0.761904
0.762046
0.762126
0.762209
0.762269
0.762329
0.762391
0.762456
0.76253
0.762615
0.762708
0.762812
0.762923
0.763046
0.763171
0.763278
0.763356
0.763444
0.763471
0.763489
0.763489
0.763477
0.763453
0.763424
0.763394
0.763374
0.763375
0.762401
0.762419
0.762438
0.762473
0.762494
0.762506
0.7625
0.762483
0.762454
0.762407
0.762339
0.762257
0.762169
0.762079
0.761996
0.76191
0.761813
0.761791
0.761758
0.761716
0.761686
0.761646
0.761597
0.761535
0.761461
0.761372
0.761272
0.761163
0.761039
0.760914
0.760785
0.760656
0.760563
0.760466
0.760363
0.760292
0.760213
0.760128
0.760039
0.75994
0.759833
0.759715
0.759587
0.75945
0.759305
0.759157
0.759007
0.758799
0.615112
0.614831
0.614602
0.614687
0.614594
0.61505
0.616971
0.620066
0.622324
0.623831
0.624807
0.625291
0.625517
0.625715
0.625878
0.626102
0.626322
0.626528
0.626706
0.626849
0.626909
0.626943
0.626934
0.626859
0.626713
0.626486
0.626181
0.625792
0.625184
0.624632
0.624031
0.623386
0.622724
0.62205
0.621393
0.620788
0.620359
0.620174
0.620152
0.619925
0.619815
0.619787
0.619808
0.620005
0.62043
0.621042
0.621919
0.622995
0.624355
0.625904
0.627698
0.629684
0.631926
0.63433
0.6369
0.639583
0.642492
0.645453
0.648563
0.651725
0.654932
0.65816
0.661364
0.66459
0.667806
0.671094
0.674272
0.677464
0.680566
0.68358
0.68657
0.689404
0.692234
0.694972
0.697663
0.700309
0.702824
0.705293
0.707697
0.709991
0.712152
0.71429
0.716358
0.718364
0.720274
0.722123
0.723907
0.725618
0.727265
0.728876
0.730441
0.731946
0.733391
0.7348
0.736185
0.737553
0.73892
0.740195
0.741416
0.742562
0.74365
0.744718
0.745775
0.746799
0.7478
0.748759
0.749686
0.750572
0.751438
0.752258
0.753052
0.753806
0.754514
0.755194
0.755828
0.756454
0.757096
0.757748
0.758456
0.759192
0.760093
0.760424
0.760868
0.761361
0.76181
0.76215
0.762527
0.762922
0.763318
0.763722
0.764132
0.764545
0.76496
0.765375
0.765788
0.766209
0.766607
0.766985
0.76735
0.767694
0.768027
0.768341
0.768638
0.768916
0.769185
0.769422
0.769642
0.769849
0.770052
0.770252
0.770453
0.770636
0.770814
0.770985
0.771161
0.77134
0.771532
0.771734
0.771948
0.77217
0.772398
0.77264
0.772812
0.772974
0.773143
0.773262
0.77339
0.773454
0.773523
0.773571
0.773619
0.773669
0.773724
0.773786
0.773858
0.773942
0.774034
0.774133
0.774243
0.774355
0.774452
0.774521
0.774595
0.774617
0.774625
0.77462
0.774603
0.774572
0.774537
0.774502
0.774475
0.77447
0.773834
0.773851
0.77386
0.773887
0.7739
0.773904
0.773892
0.773869
0.773832
0.773779
0.773706
0.773617
0.773524
0.773427
0.773339
0.773245
0.773147
0.773112
0.77307
0.773022
0.772981
0.772933
0.772875
0.772805
0.772722
0.772625
0.772517
0.7724
0.772268
0.772135
0.771997
0.771861
0.771757
0.771651
0.77154
0.771457
0.771367
0.771272
0.771171
0.771062
0.770943
0.770815
0.770676
0.770529
0.770373
0.770215
0.770053
0.769829
0.615063
0.614831
0.614602
0.614687
0.615015
0.616587
0.619508
0.621832
0.623377
0.624308
0.624741
0.624899
0.624971
0.62504
0.625125
0.625251
0.625366
0.625471
0.625557
0.625615
0.625606
0.625569
0.625497
0.625364
0.625172
0.624908
0.62458
0.624026
0.623559
0.623034
0.622483
0.62192
0.621373
0.620851
0.620568
0.620441
0.620359
0.620174
0.620152
0.620133
0.620283
0.620639
0.621224
0.62204
0.623163
0.624542
0.626263
0.628256
0.630604
0.633209
0.636082
0.639166
0.642552
0.646076
0.649857
0.6535
0.657486
0.661529
0.665596
0.669781
0.673805
0.677925
0.681779
0.685693
0.689454
0.693337
0.696952
0.700556
0.703964
0.707209
0.710386
0.71329
0.71619
0.718907
0.721563
0.724121
0.726495
0.728797
0.731008
0.733068
0.734955
0.736826
0.738618
0.740352
0.741973
0.743546
0.745041
0.746468
0.747828
0.749157
0.750437
0.751668
0.752838
0.753983
0.755096
0.75621
0.757322
0.758345
0.759334
0.76025
0.761117
0.761967
0.762805
0.763614
0.764409
0.765167
0.765903
0.766601
0.767286
0.767924
0.768547
0.76913
0.76968
0.770206
0.770696
0.771187
0.771693
0.772195
0.772765
0.773348
0.774042
0.774338
0.774638
0.774966
0.775314
0.77556
0.775825
0.776112
0.776395
0.776692
0.776989
0.777297
0.777607
0.777929
0.778254
0.778586
0.778893
0.779192
0.77948
0.779748
0.780007
0.780249
0.780479
0.780688
0.780894
0.781069
0.781232
0.781384
0.781531
0.781679
0.781824
0.781956
0.782081
0.782209
0.782334
0.782471
0.782615
0.782774
0.782939
0.783114
0.783298
0.783492
0.783627
0.783748
0.783874
0.783959
0.784051
0.784084
0.784124
0.784144
0.784164
0.784189
0.784214
0.784248
0.784297
0.784351
0.784419
0.784488
0.78457
0.784657
0.784727
0.784773
0.784819
0.784824
0.784815
0.784792
0.784755
0.784708
0.784657
0.784605
0.784562
0.784539
0.784089
0.784097
0.784084
0.784096
0.784092
0.784079
0.784052
0.784014
0.783962
0.783896
0.783809
0.783708
0.783602
0.783494
0.783394
0.783288
0.783182
0.783127
0.783072
0.783013
0.782957
0.782894
0.782822
0.782739
0.782644
0.782535
0.782415
0.782286
0.782144
0.781999
0.781849
0.781703
0.781585
0.781467
0.781345
0.781248
0.781144
0.781036
0.780922
0.7808
0.780669
0.780528
0.780377
0.780217
0.78005
0.779879
0.779705
0.779463
0.615007
0.614873
0.614602
0.615072
0.616165
0.618715
0.621151
0.622823
0.623818
0.624275
0.624402
0.624444
0.624424
0.62443
0.624439
0.624474
0.624506
0.624533
0.624543
0.624531
0.624467
0.624372
0.624251
0.624078
0.623857
0.623577
0.623089
0.622692
0.622262
0.621805
0.621352
0.620965
0.620809
0.620777
0.620568
0.620441
0.620451
0.620507
0.620785
0.62133
0.622154
0.623298
0.624747
0.626516
0.628701
0.631266
0.634259
0.637621
0.641425
0.645555
0.650028
0.654581
0.659554
0.664561
0.670039
0.67478
0.68009
0.685648
0.690785
0.696284
0.701222
0.706453
0.710973
0.715683
0.719984
0.724485
0.72852
0.732495
0.736123
0.739497
0.742718
0.745531
0.748327
0.750809
0.753234
0.755461
0.757477
0.759361
0.761146
0.762707
0.764106
0.765443
0.766745
0.767924
0.76904
0.770068
0.771057
0.771947
0.772815
0.773625
0.774421
0.77516
0.775891
0.776585
0.777272
0.777973
0.778685
0.779305
0.779927
0.780489
0.781024
0.781552
0.782076
0.782573
0.783074
0.783545
0.784007
0.784437
0.784866
0.785248
0.785633
0.785976
0.786307
0.786617
0.786905
0.787202
0.787519
0.787814
0.788193
0.788558
0.788993
0.789211
0.789314
0.78946
0.789657
0.789786
0.789917
0.790072
0.790219
0.790383
0.790543
0.790723
0.790904
0.791095
0.791284
0.791485
0.79166
0.791837
0.792009
0.792163
0.792316
0.792456
0.79259
0.792703
0.792818
0.792905
0.792986
0.793056
0.793126
0.793192
0.793267
0.793315
0.793369
0.793425
0.793485
0.793557
0.79363
0.793736
0.793817
0.793934
0.79405
0.794168
0.794254
0.794317
0.794382
0.794415
0.794448
0.794445
0.794434
0.794413
0.79439
0.794369
0.794351
0.794342
0.794358
0.794355
0.7944
0.794411
0.79446
0.794505
0.794531
0.794541
0.79455
0.794528
0.794487
0.794433
0.794367
0.794291
0.794213
0.794135
0.794065
0.794013
0.793664
0.793648
0.793608
0.793592
0.793562
0.793523
0.793472
0.79341
0.793336
0.793249
0.793142
0.79302
0.792895
0.792767
0.792649
0.792525
0.792406
0.792319
0.792248
0.792171
0.792094
0.792012
0.791921
0.791819
0.791706
0.791581
0.791443
0.791298
0.79114
0.79098
0.790815
0.790656
0.790518
0.790385
0.790249
0.790133
0.790013
0.789888
0.789759
0.78962
0.789474
0.789318
0.789152
0.788977
0.788795
0.78861
0.788422
0.788159
0.614959
0.615043
0.61494
0.615877
0.617807
0.620287
0.622142
0.623288
0.623849
0.623998
0.624022
0.623988
0.62392
0.623864
0.623817
0.623784
0.623752
0.623716
0.623667
0.623601
0.623495
0.623362
0.623209
0.623016
0.62279
0.62236
0.622042
0.621698
0.621354
0.621111
0.621023
0.620965
0.620809
0.620777
0.620762
0.620898
0.621338
0.622037
0.623119
0.624597
0.626492
0.628873
0.631599
0.634815
0.63857
0.642875
0.647706
0.652915
0.658697
0.664807
0.671498
0.677759
0.684691
0.691419
0.698984
0.704968
0.711728
0.719148
0.725502
0.732961
0.739042
0.745863
0.751138
0.756974
0.761861
0.767119
0.771612
0.776016
0.779766
0.783255
0.786285
0.788904
0.791385
0.793352
0.795396
0.796929
0.798424
0.79953
0.80066
0.80138
0.802034
0.802429
0.803079
0.803142
0.803562
0.803479
0.803757
0.803553
0.803747
0.803544
0.803645
0.803426
0.803517
0.803321
0.803431
0.803349
0.803493
0.803506
0.803617
0.803665
0.803755
0.80383
0.803933
0.803996
0.804096
0.804176
0.804272
0.804347
0.804437
0.804487
0.80456
0.804593
0.804636
0.804666
0.804679
0.804738
0.804811
0.804853
0.80498
0.805045
0.8052
0.805241
0.805147
0.805072
0.805065
0.805033
0.805004
0.804982
0.804965
0.804948
0.804939
0.804949
0.804972
0.805005
0.805034
0.805081
0.8051
0.805137
0.805171
0.805192
0.805209
0.805215
0.805218
0.805207
0.805195
0.805172
0.805146
0.805111
0.805084
0.805041
0.805014
0.804965
0.804931
0.80489
0.804867
0.804846
0.80484
0.804864
0.80484
0.804885
0.804895
0.80494
0.804951
0.804939
0.804924
0.804891
0.804853
0.80479
0.804717
0.804638
0.804556
0.804477
0.804403
0.804336
0.804297
0.804234
0.804228
0.804184
0.804179
0.80401
0.80414
0.804098
0.804059
0.803995
0.803912
0.803813
0.803707
0.803594
0.803478
0.803364
0.803256
0.803167
0.802864
0.802809
0.802736
0.80268
0.802614
0.802541
0.802456
0.802362
0.802256
0.80214
0.802005
0.801856
0.801705
0.801551
0.801408
0.801258
0.80112
0.800994
0.8009
0.800798
0.800695
0.800586
0.80047
0.800344
0.800207
0.800059
0.7999
0.799734
0.799556
0.799376
0.799191
0.799013
0.79885
0.7987
0.798546
0.798406
0.798266
0.798121
0.797971
0.797813
0.797648
0.797473
0.797289
0.797096
0.796897
0.796695
0.79649
0.796202
0.614959
0.615297
0.615538
0.617015
0.619273
0.621299
0.622661
0.623411
0.623633
0.623683
0.62365
0.623562
0.623455
0.623357
0.623267
0.623185
0.623106
0.623023
0.622933
0.622829
0.622698
0.622547
0.622384
0.622196
0.621836
0.621589
0.62134
0.621218
0.621204
0.621111
0.621023
0.621014
0.62108
0.621327
0.621882
0.622733
0.624059
0.625806
0.628167
0.631086
0.634556
0.638721
0.643149
0.648413
0.654345
0.660886
0.668179
0.675551
0.683782
0.69215
0.701629
0.709624
0.718833
0.72777
0.738077
0.745834
0.754267
0.763991
0.771512
0.78049
0.786949
0.794771
0.800316
0.806393
0.811397
0.816638
0.821076
0.825151
0.828486
0.831508
0.833833
0.836119
0.837629
0.839344
0.840485
0.841441
0.842381
0.842411
0.843475
0.842985
0.843336
0.84274
0.84288
0.842074
0.841976
0.841026
0.840702
0.839699
0.839228
0.838268
0.837601
0.836666
0.835976
0.835074
0.834438
0.833584
0.832854
0.832012
0.831361
0.830645
0.830061
0.829464
0.828934
0.828362
0.82787
0.827389
0.82698
0.826579
0.826214
0.825829
0.82549
0.825131
0.824803
0.824476
0.824139
0.823903
0.823669
0.82343
0.823222
0.822943
0.822774
0.822558
0.822247
0.821911
0.821671
0.821431
0.821207
0.820972
0.820755
0.820522
0.820314
0.820113
0.81995
0.819787
0.819627
0.819485
0.819319
0.819188
0.819054
0.818913
0.818773
0.818627
0.818479
0.818326
0.818172
0.818012
0.817858
0.817697
0.817545
0.81738
0.817227
0.817058
0.816913
0.816763
0.816632
0.816503
0.816396
0.816306
0.816181
0.816115
0.816023
0.81596
0.815877
0.815774
0.815667
0.81555
0.815428
0.815288
0.815139
0.814986
0.814833
0.814681
0.814539
0.814403
0.814291
0.81416
0.81408
0.813978
0.813793
0.813705
0.813613
0.813507
0.81352
0.813401
0.813264
0.813113
0.812955
0.812793
0.812631
0.81247
0.812316
0.812038
0.811884
0.81178
0.811663
0.811559
0.811447
0.81133
0.811203
0.811067
0.810921
0.810768
0.810598
0.810415
0.81023
0.810042
0.809868
0.809687
0.80952
0.809349
0.809225
0.809092
0.808956
0.808814
0.808667
0.808511
0.808345
0.808169
0.807983
0.807789
0.807587
0.807383
0.807174
0.806972
0.806779
0.806607
0.80643
0.80626
0.806096
0.805927
0.805754
0.805572
0.805383
0.805186
0.804981
0.804767
0.804547
0.804325
0.8041
0.803783
0.614982
0.61566
0.616307
0.618201
0.620278
0.621879
0.622855
0.623262
0.623374
0.623374
0.623296
0.623172
0.623038
0.622912
0.622793
0.62268
0.622569
0.622458
0.622342
0.622219
0.622081
0.621934
0.621788
0.621488
0.621333
0.621278
0.621314
0.621218
0.621204
0.62121
0.621341
0.621661
0.622333
0.62333
0.624861
0.626871
0.629553
0.632883
0.637089
0.64206
0.647509
0.653972
0.660653
0.668487
0.677211
0.686223
0.696576
0.706163
0.717332
0.728535
0.741775
0.751731
0.763568
0.773678
0.78504
0.795363
0.803691
0.814269
0.822419
0.831389
0.838316
0.845278
0.850929
0.856344
0.86096
0.865171
0.86913
0.872013
0.874944
0.876797
0.878522
0.880262
0.880374
0.882639
0.882066
0.883346
0.883177
0.88283
0.88343
0.882252
0.8826
0.881361
0.881121
0.879761
0.879382
0.877963
0.877235
0.87582
0.874871
0.873479
0.872338
0.870917
0.869792
0.86838
0.867177
0.865779
0.864431
0.863001
0.861731
0.860417
0.859225
0.858012
0.856846
0.855641
0.854518
0.853415
0.852396
0.851399
0.850466
0.849522
0.848672
0.847823
0.847049
0.846284
0.845575
0.844959
0.844344
0.843749
0.843124
0.842462
0.841872
0.841358
0.840761
0.840125
0.839604
0.839118
0.838647
0.838162
0.837701
0.83722
0.836776
0.836329
0.835945
0.835547
0.83517
0.834802
0.834422
0.834094
0.833764
0.833434
0.833109
0.832785
0.832465
0.832143
0.831826
0.831506
0.831203
0.830894
0.830596
0.830288
0.82999
0.829682
0.829408
0.829128
0.828872
0.828621
0.828388
0.828168
0.827926
0.827731
0.827517
0.827332
0.827135
0.826924
0.826711
0.82649
0.826273
0.826042
0.825805
0.825565
0.825327
0.825091
0.824867
0.82465
0.824453
0.824242
0.824077
0.823819
0.823651
0.823483
0.823315
0.823136
0.822961
0.822864
0.822663
0.82245
0.822229
0.82201
0.821792
0.821576
0.821366
0.821064
0.820855
0.820694
0.820522
0.82036
0.820193
0.820023
0.819845
0.81966
0.819466
0.819267
0.819055
0.818831
0.818605
0.818377
0.818165
0.817946
0.817741
0.817523
0.81736
0.817189
0.817012
0.816832
0.816647
0.816455
0.816254
0.816044
0.815825
0.8156
0.815368
0.815134
0.814897
0.814667
0.814438
0.814239
0.814035
0.813831
0.813639
0.813442
0.81324
0.81303
0.812815
0.812592
0.81236
0.812122
0.811879
0.811633
0.811385
0.811033
0.615053
0.616069
0.617121
0.619109
0.620897
0.622147
0.622842
0.62306
0.623112
0.623078
0.622968
0.622823
0.622676
0.622534
0.622399
0.622269
0.622143
0.622018
0.621895
0.621772
0.621648
0.621531
0.621435
0.621301
0.621333
0.621278
0.621314
0.621339
0.621527
0.621901
0.622631
0.623706
0.625366
0.627552
0.630544
0.634265
0.638832
0.644304
0.650871
0.658517
0.66611
0.675309
0.685131
0.695629
0.707638
0.719301
0.733858
0.745951
0.7605
0.773147
0.788472
0.799725
0.813278
0.823785
0.835225
0.846356
0.855368
0.864172
0.872796
0.880102
0.887001
0.89202
0.897557
0.900771
0.905842
0.906949
0.911045
0.911262
0.914396
0.914012
0.916095
0.915875
0.91614
0.916911
0.915791
0.917387
0.915867
0.916671
0.915457
0.914008
0.914769
0.913168
0.912983
0.911521
0.911203
0.90962
0.90897
0.907453
0.906581
0.905051
0.904002
0.902458
0.901279
0.899716
0.898423
0.896819
0.895247
0.893587
0.892003
0.890395
0.888861
0.887281
0.885713
0.884087
0.882504
0.880934
0.879433
0.877937
0.876488
0.875052
0.873694
0.872351
0.871084
0.86986
0.868732
0.867693
0.866666
0.865633
0.864565
0.863464
0.862438
0.861542
0.860645
0.859693
0.858847
0.858078
0.857322
0.856552
0.85581
0.855053
0.854344
0.853616
0.852977
0.852313
0.851688
0.851067
0.850436
0.849882
0.849325
0.848779
0.848245
0.847717
0.847199
0.846684
0.846182
0.845683
0.845211
0.844734
0.844272
0.843801
0.843342
0.842875
0.842454
0.842027
0.84163
0.841241
0.840865
0.8405
0.840122
0.839783
0.83943
0.839106
0.83878
0.838447
0.838113
0.837774
0.837447
0.837112
0.836776
0.836437
0.836103
0.835771
0.835453
0.835143
0.83485
0.834478
0.834217
0.833944
0.833682
0.83342
0.833165
0.832903
0.832646
0.83238
0.832185
0.831899
0.831607
0.831322
0.83104
0.83076
0.830398
0.830136
0.829863
0.829637
0.8294
0.829171
0.828941
0.828709
0.828472
0.828231
0.827981
0.827729
0.827467
0.827196
0.826923
0.826648
0.826391
0.826128
0.825877
0.825609
0.825399
0.825181
0.824959
0.824734
0.824505
0.82427
0.824029
0.82378
0.823524
0.823261
0.822994
0.822727
0.822458
0.822193
0.821925
0.821694
0.821457
0.821216
0.820991
0.82076
0.820525
0.820284
0.820037
0.819784
0.819524
0.819257
0.818986
0.818714
0.818439
0.818049
0.615147
0.616467
0.617864
0.619756
0.621269
0.622248
0.622702
0.62285
0.622866
0.622803
0.622673
0.622521
0.62237
0.622224
0.622085
0.621952
0.621826
0.621704
0.621591
0.621489
0.621405
0.621351
0.62135
0.621301
0.621349
0.621402
0.621612
0.621999
0.622742
0.623837
0.625541
0.627808
0.630914
0.634814
0.639792
0.645817
0.652818
0.660759
0.670035
0.680884
0.690895
0.703115
0.717204
0.73044
0.746597
0.76065
0.778036
0.791628
0.80846
0.821409
0.837581
0.849492
0.863535
0.874097
0.885055
0.894731
0.904094
0.909388
0.918662
0.922312
0.929108
0.93074
0.936259
0.936141
0.940808
0.938994
0.942482
0.940475
0.94311
0.940943
0.942742
0.94056
0.941862
0.939595
0.939822
0.938921
0.936956
0.938271
0.936305
0.934945
0.935713
0.933636
0.933861
0.932148
0.932098
0.930426
0.930201
0.928772
0.928402
0.927041
0.926565
0.925239
0.924672
0.923396
0.922566
0.921293
0.920149
0.918802
0.917583
0.916247
0.915
0.913601
0.912148
0.910604
0.90904
0.907439
0.905811
0.904165
0.902505
0.900845
0.89919
0.897544
0.895929
0.894397
0.892907
0.891498
0.890107
0.888665
0.887184
0.885667
0.884208
0.882876
0.881687
0.880431
0.879252
0.878169
0.877106
0.87603
0.874988
0.873928
0.872923
0.871895
0.870967
0.870011
0.869111
0.86821
0.86731
0.866504
0.865698
0.864914
0.864149
0.863398
0.862661
0.861935
0.861227
0.860535
0.859875
0.859212
0.858568
0.857917
0.857279
0.856638
0.856055
0.855464
0.854913
0.854369
0.853836
0.853314
0.852674
0.852182
0.851679
0.851197
0.850736
0.850268
0.849896
0.849426
0.848977
0.848525
0.84808
0.847632
0.84719
0.846753
0.846331
0.845916
0.845439
0.845034
0.844668
0.844293
0.843926
0.843558
0.843208
0.842854
0.842504
0.842152
0.841794
0.841427
0.841138
0.840777
0.840342
0.83999
0.839643
0.839307
0.838964
0.838663
0.838355
0.838049
0.837749
0.837447
0.837144
0.836839
0.836527
0.836214
0.835896
0.835571
0.835245
0.834918
0.834609
0.834297
0.833992
0.833672
0.833406
0.833136
0.832862
0.832585
0.832307
0.832025
0.831738
0.831445
0.831145
0.830841
0.830534
0.830228
0.829922
0.829618
0.829308
0.82904
0.828765
0.828482
0.828219
0.827951
0.827679
0.827402
0.827121
0.826833
0.82654
0.826241
0.82594
0.825638
0.825333
0.824899
0.615447
0.616887
0.618509
0.620222
0.621489
0.622252
0.622547
0.622641
0.622636
0.622554
0.622416
0.622266
0.62212
0.62198
0.621849
0.621726
0.621613
0.621512
0.621429
0.621372
0.621331
0.621351
0.62135
0.621414
0.621618
0.62198
0.622675
0.623711
0.625362
0.62759
0.630714
0.634675
0.639722
0.645867
0.65329
0.662117
0.672113
0.682552
0.694715
0.708993
0.722429
0.737998
0.756829
0.771947
0.791139
0.806504
0.82585
0.840032
0.858147
0.870631
0.887202
0.898237
0.911718
0.920637
0.930874
0.937232
0.945713
0.947232
0.957891
0.955521
0.962286
0.960833
0.96532
0.96252
0.966116
0.962281
0.96493
0.960913
0.962478
0.958493
0.959778
0.955916
0.956964
0.953166
0.953982
0.951185
0.949355
0.949519
0.947131
0.947705
0.945975
0.943726
0.944365
0.942347
0.942325
0.940634
0.940701
0.939266
0.939191
0.937931
0.937896
0.93676
0.936723
0.935659
0.935385
0.934427
0.933976
0.933063
0.932574
0.931772
0.931221
0.930428
0.929686
0.928759
0.927889
0.926899
0.925845
0.924732
0.923559
0.922332
0.921031
0.919696
0.918326
0.916952
0.915553
0.914202
0.912766
0.911212
0.909569
0.907864
0.906121
0.904557
0.903065
0.901623
0.900187
0.89882
0.897486
0.896147
0.894838
0.89351
0.89222
0.890908
0.889693
0.888453
0.887279
0.886099
0.884927
0.883859
0.882788
0.881757
0.880744
0.879757
0.878781
0.877832
0.876902
0.876003
0.875136
0.874277
0.873434
0.87259