/*--------------------------------*- C++ -*----------------------------------*\
| =========                 |                                                 |
| \\      /  F ield         | OpenFOAM: The Open Source CFD Toolbox           |
|  \\    /   O peration     | Version:  2312                                  |
|   \\  /    A nd           | Website:  www.openfoam.com                      |
|    \\/     M anipulation  |                                                 |
\*---------------------------------------------------------------------------*/
FoamFile
{
    version     2.0;
    format      ascii;
    arch        "LSB;label=32;scalar=64";
    class       volScalarField;
    location    "0.006";
    object      nut;
}
// * * * * * * * * * * * * * * * * * * * * * * * * * * * * * * * * * * * * * //

dimensions      [0 2 -1 0 0 0 0];

internalField   nonuniform List<scalar> 
48128
(
3.34186e-06
4.32914e-06
5.80106e-06
5.89268e-06
5.44529e-06
4.73871e-06
3.93121e-06
3.15851e-06
2.43911e-06
1.69768e-06
3.90813e-06
2.4687e-05
8.16582e-05
0.000150138
0.000208537
0.000257263
0.000298623
0.000334755
0.000367516
0.000398076
0.000427295
0.000455795
0.00048391
0.000511816
0.000539759
0.000567882
0.00059639
0.000625728
0.000655867
0.000687279
0.000719619
0.000752892
0.000787342
0.000822921
0.000859449
0.000897684
0.000937799
0.000979894
0.00102173
0.00106481
0.00110764
0.00114914
0.0011903
0.00123179
0.00127261
0.00131179
0.00134742
0.00138297
0.00141426
0.00144256
0.00146352
0.00148661
0.00150378
0.00152133
0.00152951
0.00155315
0.00158196
0.0016062
0.00162783
0.00164451
0.00165824
0.00166821
0.00167518
0.00168037
0.001684
0.00168646
0.00168734
0.00168682
0.00167507
0.0015782
0.00149036
0.00141193
0.00134192
0.0012777
0.00121983
0.00116613
0.00111751
0.00107248
0.0010312
0.000992861
0.00095762
0.000925242
0.000894868
0.000866915
0.000840668
0.000816608
0.000793837
0.000773019
0.000753247
0.000735087
0.000717783
0.000701884
0.00068683
0.000672824
0.0006595
0.000646939
0.000635015
0.000624011
0.000613924
0.000604623
0.000595968
0.000587754
0.000579881
0.000572409
0.000565447
0.00055891
0.000552873
0.000547178
0.000541875
0.000536853
0.000532217
0.000527854
0.000523858
0.00052008
0.000516563
0.000513211
0.000509897
0.00050646
0.00050313
0.000499271
0.000496249
0.000495185
0.000492936
0.000490486
0.000489197
0.000487516
0.0004857
0.000483913
0.000482078
0.000480293
0.000478526
0.000476877
0.000475294
0.000473787
0.000472332
0.000470921
0.000469643
0.000468516
0.000467457
0.000466452
0.000465487
0.00046459
0.000463737
0.00046293
0.000462168
0.000461462
0.000460747
0.000460018
0.00045924
0.000458442
0.000457618
0.000456832
0.000456064
0.000455316
0.000454543
0.000453763
0.000452965
0.000452128
0.000451306
0.000450574
0.000449807
0.000449205
0.000448789
0.000448326
0.000447876
0.000447505
0.000447124
0.000446787
0.00044641
0.000446014
0.000445569
0.00044509
0.000444591
0.000444069
0.000443536
0.000443005
0.000442505
0.000442048
0.000441591
0.000441211
0.000440927
0.000440674
0.000440435
0.000440257
0.000440063
0.000439841
0.000439609
0.00043936
0.000439082
0.00043876
0.000438378
0.000437995
0.000437618
0.00043724
0.000436905
0.000436609
0.000436384
0.000436192
0.000436026
0.000435876
0.00043573
0.000435586
0.000435445
0.000435281
0.000435081
0.000434851
0.00043458
0.000434316
0.000434037
0.000433639
0.000433406
0.00043319
0.000432985
0.000432827
0.000432689
0.000432569
0.000432457
0.000432338
0.000432205
0.000432058
0.000431904
0.000431716
0.00043152
0.000431278
0.000430991
0.00043078
0.000430561
0.000430342
0.000430183
0.00043004
0.000429902
0.000429777
0.000429659
0.000429538
0.000429408
0.000429267
0.000429114
0.000428947
0.00042876
0.000428456
2.51063e-05
1.97209e-05
1.37756e-05
9.2523e-06
6.87823e-06
5.6307e-06
5.757e-06
9.77561e-06
2.06328e-05
3.85011e-05
8.25136e-05
0.000169857
0.000311288
0.000533743
0.00078481
0.00105546
0.00133286
0.00160533
0.00187297
0.00213742
0.00240404
0.00267476
0.00295826
0.00325208
0.0035622
0.00388683
0.00422903
0.00458997
0.00495122
0.00534618
0.0057588
0.00617188
0.0065964
0.00702656
0.00744144
0.00785424
0.00821479
0.00859135
0.00895105
0.0093088
0.00966006
0.00998263
0.0102848
0.0105679
0.0108169
0.0110491
0.011249
0.0114518
0.0116288
0.0117959
0.0118966
0.0120158
0.012093
0.0121751
0.0121867
0.0121824
0.0121535
0.0120908
0.0120118
0.0119119
0.0117954
0.0116613
0.0115163
0.011365
0.0112102
0.0110546
0.0108938
0.0107295
0.0105618
0.0103992
0.0102451
0.0100865
0.00993356
0.0097763
0.00962103
0.00946638
0.00930787
0.00915208
0.00899485
0.00884105
0.00868393
0.00853429
0.00838471
0.00824229
0.00809743
0.00795907
0.00781919
0.00768615
0.00755272
0.00742649
0.00730052
0.00718059
0.00706229
0.00694901
0.00683837
0.00673127
0.006626
0.00652312
0.00642299
0.00632634
0.00623317
0.00614401
0.00605784
0.00597375
0.00589284
0.00581376
0.00573818
0.00566431
0.00559414
0.00552538
0.00546034
0.00539675
0.00533693
0.0052784
0.00522378
0.00516982
0.00511983
0.0050685
0.00502009
0.00496951
0.00492378
0.00487879
0.00483295
0.00478952
0.00475055
0.00471389
0.00467914
0.00464712
0.00461536
0.00458451
0.00455363
0.00452376
0.00449415
0.00446539
0.00443662
0.0044088
0.004381
0.00435469
0.00432865
0.00430415
0.00428011
0.00425739
0.00423531
0.00421427
0.00419435
0.00416579
0.00413736
0.00410889
0.00408084
0.00405362
0.00402682
0.00400065
0.00397484
0.00395016
0.00392635
0.00390337
0.00388113
0.00385931
0.0038386
0.00381787
0.00379799
0.00377761
0.00375735
0.00373776
0.00371788
0.00369931
0.00368035
0.00366318
0.00364596
0.00362992
0.00361491
0.00360027
0.00358735
0.00357389
0.00356283
0.00355109
0.00354074
0.00352992
0.00351943
0.0035088
0.00349736
0.00348654
0.00347492
0.00346483
0.00345452
0.00344467
0.00343512
0.00342604
0.00341745
0.00340988
0.00340268
0.0033966
0.0033894
0.00338445
0.00337855
0.00337301
0.00336671
0.00336036
0.00335392
0.00334746
0.00334103
0.00333468
0.00332857
0.00332283
0.00331771
0.00331294
0.00330867
0.00330502
0.00330078
0.00329848
0.00329516
0.00329166
0.00328828
0.00328442
0.00328038
0.00327607
0.00327199
0.00326777
0.00326389
0.00326006
0.00325652
0.00325368
0.00325077
0.00324848
0.00324679
0.0032447
0.00324246
0.00324065
0.00323841
0.00323591
0.0032332
0.00323035
0.00322749
0.00322471
0.00322196
0.00321951
0.00321712
0.00321517
0.00321342
0.00321138
3.35029e-05
3.74675e-05
3.99135e-05
2.82572e-05
1.90418e-05
2.0486e-05
3.7729e-05
7.56517e-05
0.000139618
0.000249062
0.000446834
0.000812236
0.00139379
0.00222938
0.0031553
0.00408524
0.00495042
0.0057472
0.00648515
0.00718326
0.00786271
0.00851163
0.00917874
0.00984234
0.0105219
0.0112093
0.0119097
0.0126248
0.0133363
0.014063
0.0147851
0.0154928
0.0161957
0.0168722
0.0174965
0.0181043
0.0186677
0.0192336
0.019751
0.020243
0.0207126
0.0211249
0.0214874
0.0218083
0.0220615
0.0222771
0.0224262
0.0225703
0.0226663
0.0227446
0.0227186
0.0227068
0.0226392
0.0225685
0.0224101
0.0222485
0.0220551
0.0218256
0.0215754
0.021306
0.0210143
0.0207042
0.020385
0.0200623
0.0197403
0.0194226
0.019104
0.0187873
0.0184701
0.0181504
0.0178398
0.0175248
0.0172256
0.016924
0.0166342
0.016347
0.0160644
0.015786
0.0155115
0.0152441
0.0149758
0.0147193
0.0144647
0.014222
0.0139776
0.0137444
0.0135103
0.0132876
0.0130649
0.0128539
0.0126437
0.0124433
0.0122455
0.0120556
0.0118693
0.0116881
0.0115103
0.0113364
0.0111671
0.011003
0.010844
0.0106903
0.0105409
0.0103943
0.0102526
0.0101135
0.00997984
0.00984832
0.00972276
0.00959867
0.00948071
0.00936426
0.00925407
0.00914517
0.00904288
0.00894027
0.00884547
0.00874617
0.00865313
0.00855659
0.00846602
0.00837974
0.00829129
0.00820441
0.00812683
0.00805209
0.0079799
0.00791175
0.00784392
0.00777795
0.00771218
0.00764826
0.00758506
0.00752352
0.0074622
0.00740257
0.00734331
0.0072864
0.00723049
0.00717678
0.00712401
0.00707336
0.0070238
0.0069763
0.00692998
0.00688601
0.00684317
0.00680241
0.00676208
0.00672349
0.00668528
0.00664833
0.00661236
0.00657757
0.00654362
0.00651017
0.00647719
0.00644394
0.00641068
0.00637758
0.00634501
0.00631282
0.00628218
0.00625173
0.00622266
0.0061947
0.0061684
0.00614306
0.00611916
0.00609616
0.00607411
0.00605272
0.00603192
0.00601157
0.00599127
0.00597072
0.00595017
0.00592965
0.00590899
0.00588844
0.00586823
0.00584862
0.0058298
0.00581227
0.00579569
0.00577997
0.00576499
0.00575115
0.00573792
0.00572541
0.00571273
0.00570029
0.00568724
0.00567478
0.00566189
0.00564898
0.00563585
0.00562306
0.00561047
0.0055985
0.00558732
0.00557677
0.00556725
0.00555845
0.0055502
0.00554248
0.0055347
0.00552764
0.00551948
0.00551198
0.00550441
0.00549612
0.00548781
0.0054794
0.0054713
0.00546312
0.00545589
0.00544884
0.00544272
0.00543678
0.00543183
0.00542691
0.00542267
0.00541796
0.00541343
0.00540888
0.00540387
0.00539874
0.00539354
0.00538826
0.00538297
0.00537772
0.00537275
0.00536839
0.00536423
0.00536078
0.00535751
0.00535487
0.00535228
0.0053483
3.9756e-05
6.22542e-05
8.3868e-05
6.13501e-05
5.58566e-05
8.72436e-05
0.000154363
0.000274245
0.000473006
0.000825987
0.00146835
0.00248706
0.00388193
0.00553676
0.00712992
0.00857515
0.00984946
0.0110032
0.0120598
0.013039
0.0139852
0.0148959
0.0158145
0.0167219
0.0176373
0.018553
0.0194694
0.0203841
0.0212837
0.0221755
0.0230388
0.0238719
0.0246607
0.0254096
0.0260938
0.026738
0.0273302
0.0278975
0.0283905
0.0288257
0.0292166
0.0295366
0.0297878
0.0299853
0.0301008
0.0301591
0.0301339
0.0300861
0.0299867
0.0298552
0.0296264
0.0293936
0.0291154
0.0288245
0.0284672
0.0281136
0.0277262
0.0273214
0.0269036
0.0264739
0.0260303
0.0255813
0.0251339
0.024691
0.0242564
0.0238329
0.023417
0.0230131
0.022616
0.0222201
0.0218422
0.0214644
0.0211079
0.020752
0.0204142
0.0200796
0.0197593
0.0194433
0.0191367
0.0188383
0.0185445
0.0182621
0.0179847
0.0177184
0.0174544
0.0172006
0.0169494
0.0167084
0.0164701
0.0162419
0.0160168
0.0158008
0.0155885
0.0153837
0.0151823
0.0149853
0.0147921
0.014603
0.0144192
0.0142407
0.0140677
0.0138993
0.0137347
0.0135727
0.0134156
0.0132608
0.0131118
0.0129645
0.0128236
0.0126836
0.0125502
0.0124177
0.0122921
0.0121672
0.0120496
0.0119309
0.0118209
0.0117042
0.0115944
0.0114806
0.0113694
0.0112693
0.0111657
0.0110611
0.0109684
0.010879
0.0107911
0.0107069
0.0106228
0.0105408
0.0104586
0.0103783
0.0102986
0.0102207
0.0101428
0.0100666
0.0099907
0.00991746
0.00984533
0.00977563
0.00970679
0.00964039
0.00957504
0.00951212
0.00945038
0.00939126
0.00933315
0.00927762
0.00922232
0.00916923
0.00911638
0.00906522
0.00901497
0.00896643
0.00891848
0.00887156
0.00882471
0.00877785
0.00873064
0.00868391
0.00863762
0.00859192
0.00854801
0.00850491
0.00846301
0.0084229
0.00838472
0.00834794
0.00831287
0.00827891
0.0082462
0.00821414
0.00818286
0.00815204
0.00812128
0.00809041
0.00805947
0.00802883
0.00799773
0.00796741
0.00793741
0.00790865
0.00788047
0.00785421
0.0078288
0.00780479
0.00778157
0.0077601
0.007739
0.00771917
0.00769895
0.00767923
0.00765896
0.00763873
0.00761845
0.0075981
0.00757798
0.00755828
0.007539
0.0075208
0.00750351
0.00748731
0.00747204
0.00745796
0.00744445
0.00743185
0.00741927
0.00740757
0.00739448
0.00738161
0.00736902
0.0073561
0.00734318
0.00733021
0.00731779
0.00730547
0.00729439
0.00728362
0.00727396
0.00726472
0.00725668
0.00724861
0.0072418
0.00723399
0.00722638
0.00721899
0.00721111
0.00720318
0.00719525
0.00718738
0.00717951
0.00717196
0.00716474
0.00715834
0.00715222
0.00714699
0.00714203
0.00713787
0.00713379
0.00712775
4.47338e-05
0.000118721
0.000169206
0.000121357
0.000156704
0.000240328
0.000394443
0.000665409
0.00115177
0.0020201
0.00335903
0.00520348
0.00727339
0.00934949
0.0112558
0.0129671
0.014508
0.0158693
0.0171239
0.0182954
0.0194199
0.0205049
0.0215812
0.0226388
0.0236904
0.0247288
0.0257501
0.0267507
0.0277174
0.0286519
0.0295323
0.0303525
0.031109
0.0318096
0.0324319
0.0329963
0.0334966
0.033946
0.0343075
0.0345791
0.0347906
0.0349247
0.0349845
0.0349787
0.0348742
0.0346898
0.0344187
0.0341074
0.0337539
0.0333553
0.0328842
0.0324008
0.0318934
0.0313719
0.0306589
0.03009
0.0293025
0.0287091
0.0280678
0.0274708
0.0269362
0.0264153
0.0260084
0.0255837
0.0252143
0.0247827
0.0244431
0.0241118
0.0237509
0.0233485
0.0229617
0.0225805
0.02222
0.0218632
0.0215294
0.0211991
0.020891
0.0205864
0.0202985
0.020019
0.0197515
0.0194928
0.0192437
0.019002
0.0187666
0.0185377
0.0183151
0.0180992
0.0178889
0.0176855
0.0174877
0.0172967
0.0171104
0.0169298
0.016752
0.0165771
0.016406
0.0162377
0.0160745
0.0159155
0.0157615
0.015611
0.0154636
0.015318
0.0151765
0.0150367
0.0149019
0.0147683
0.0146402
0.0145124
0.0143904
0.0142686
0.014153
0.0140377
0.0139288
0.013819
0.0137164
0.0136076
0.0135037
0.0133967
0.0132874
0.0131941
0.0130981
0.0129988
0.0129095
0.0128241
0.0127396
0.0126579
0.0125763
0.0124965
0.0124161
0.0123374
0.0122588
0.0121816
0.0121042
0.0120282
0.011952
0.0118783
0.0118055
0.0117348
0.0116648
0.011597
0.01153
0.0114653
0.0114015
0.0113402
0.0112798
0.0112219
0.011164
0.0111082
0.0110522
0.0109981
0.0109444
0.0108927
0.0108409
0.0107906
0.0107396
0.0106889
0.0106372
0.0105862
0.0105353
0.0104848
0.0104362
0.0103887
0.0103421
0.0102974
0.0102547
0.0102135
0.0101742
0.010136
0.0100991
0.0100628
0.0100272
0.00999198
0.00995664
0.00992116
0.00988546
0.00985013
0.00981393
0.00977876
0.00974385
0.00971065
0.0096777
0.00964701
0.00961718
0.0095891
0.00956174
0.00953637
0.00951127
0.00948756
0.00946329
0.00943953
0.00941503
0.0093909
0.00936623
0.00934162
0.00931732
0.00929353
0.0092702
0.00924835
0.00922733
0.0092078
0.00918906
0.00917194
0.00915524
0.00913974
0.00912414
0.00910959
0.00909366
0.0090776
0.00906169
0.00904572
0.00902974
0.00901372
0.00899853
0.00898351
0.00896998
0.00895685
0.00894502
0.00893364
0.0089238
0.0089138
0.00890537
0.00889579
0.00888631
0.0088771
0.0088674
0.00885767
0.00884792
0.00883845
0.00882895
0.00881997
0.00881141
0.00880388
0.00879665
0.00879051
0.0087847
0.00877978
0.00877501
0.00876806
4.91387e-05
0.000222655
0.000292674
0.000231399
0.00031565
0.00048273
0.000789233
0.00134089
0.00233769
0.00386627
0.00593884
0.00827398
0.0106636
0.0129395
0.0150127
0.0169077
0.0185615
0.0200601
0.0214434
0.0227352
0.0239677
0.0251522
0.0263104
0.0274389
0.0285433
0.0296182
0.0306564
0.031653
0.0325938
0.0334753
0.034277
0.0350062
0.0356543
0.0362288
0.036711
0.0371041
0.0374187
0.0376584
0.0378004
0.0378205
0.0377685
0.037629
0.0374255
0.0371531
0.0364737
0.0354272
0.0344309
0.0333577
0.032308
0.03119
0.0303082
0.0294543
0.0285303
0.0277127
0.0268589
0.0264451
0.0256783
0.0250058
0.0244643
0.023786
0.0233563
0.0227974
0.0224709
0.0220472
0.021721
0.0213033
0.0209942
0.0206914
0.020423
0.0202198
0.0199904
0.019851
0.0196785
0.0195459
0.0194235
0.0193009
0.0192386
0.0191513
0.0190974
0.019049
0.0190393
0.0189968
0.0188609
0.0186721
0.0184927
0.0183153
0.0181471
0.017982
0.0178247
0.0176714
0.017524
0.0173808
0.0172431
0.0171083
0.0169754
0.0168437
0.0167149
0.0165869
0.0164632
0.0163421
0.0162252
0.0161105
0.0159983
0.0158868
0.0157782
0.0156702
0.0155659
0.0154621
0.0153625
0.0152625
0.0151668
0.0150709
0.0149795
0.0148881
0.0148017
0.0147141
0.0146322
0.0145449
0.0144608
0.0143742
0.0142825
0.014207
0.0141305
0.0140504
0.0139758
0.0139057
0.0138367
0.0137692
0.0137019
0.0136359
0.0135692
0.0135036
0.0134375
0.0133726
0.0133071
0.0132427
0.0131777
0.0131147
0.0130522
0.0129914
0.0129309
0.0128723
0.0128141
0.0127578
0.0127021
0.0126484
0.0125955
0.0125446
0.0124936
0.0124444
0.0123949
0.012347
0.012299
0.012253
0.0122064
0.0121614
0.012115
0.0120693
0.012022
0.0119755
0.0119285
0.0118815
0.0118364
0.0117924
0.011749
0.0117074
0.0116672
0.0116288
0.0115919
0.0115562
0.0115217
0.0114876
0.011454
0.0114207
0.0113871
0.0113532
0.0113191
0.0112851
0.0112501
0.011216
0.011182
0.0111497
0.0111175
0.0110877
0.0110586
0.0110314
0.0110047
0.01098
0.0109555
0.0109323
0.0109085
0.010885
0.0108608
0.0108369
0.0108122
0.0107877
0.0107632
0.0107395
0.0107159
0.0106941
0.0106729
0.0106534
0.0106345
0.0106176
0.0106008
0.0105854
0.0105697
0.0105552
0.0105394
0.0105231
0.0105068
0.0104905
0.0104744
0.010458
0.0104426
0.0104274
0.0104138
0.0104005
0.0103888
0.0103773
0.0103678
0.0103579
0.0103497
0.0103404
0.010331
0.0103219
0.0103123
0.0103026
0.0102929
0.0102836
0.0102742
0.0102655
0.0102572
0.0102501
0.0102433
0.0102377
0.0102324
0.0102281
0.010224
0.0102181
5.36307e-05
0.000344783
0.000418609
0.000377722
0.000545803
0.000854683
0.00139936
0.00241269
0.00400148
0.00616291
0.00862505
0.0112244
0.0137602
0.0161292
0.0183179
0.0202602
0.0219857
0.023565
0.0250197
0.0263742
0.0276561
0.0288787
0.0300565
0.0311904
0.0322811
0.0333246
0.0343115
0.0352353
0.0360801
0.036842
0.0375073
0.038079
0.0385498
0.0389209
0.0391893
0.0393501
0.0394204
0.0393986
0.03928
0.0383412
0.0372457
0.0358743
0.0347155
0.0335722
0.0325169
0.031332
0.0302726
0.0291864
0.0281506
0.0271037
0.0261666
0.0254573
0.0245431
0.0237941
0.0228562
0.0225328
0.0218198
0.0209898
0.0205001
0.0198035
0.0193741
0.0188077
0.0184847
0.018052
0.0177417
0.0173507
0.0170538
0.0167694
0.0165352
0.016352
0.0161689
0.0160652
0.0159389
0.0158612
0.0157867
0.0157288
0.0157147
0.015688
0.0156964
0.0157166
0.0157547
0.0157836
0.0158324
0.0158816
0.0159475
0.0160018
0.0160743
0.0161372
0.0162016
0.0162703
0.0163465
0.0163618
0.0162918
0.0162193
0.0161474
0.0160738
0.0160018
0.0159279
0.0158577
0.0157883
0.015722
0.0156561
0.0155918
0.0155265
0.0154623
0.0153971
0.0153338
0.0152697
0.0152081
0.0151452
0.0150848
0.0150234
0.0149647
0.0149056
0.0148497
0.0147922
0.014739
0.0146815
0.0146266
0.0145683
0.0145045
0.0144525
0.0144023
0.0143489
0.0142961
0.0142477
0.0142007
0.0141542
0.0141082
0.0140627
0.0140166
0.0139708
0.0139243
0.0138786
0.0138321
0.0137863
0.0137396
0.0136941
0.0136487
0.0136046
0.0135605
0.0135176
0.0134749
0.0134335
0.0133924
0.0133527
0.0133136
0.0132759
0.0132383
0.0132018
0.0131651
0.0131293
0.0130935
0.013059
0.013024
0.0129901
0.012955
0.0129205
0.012884
0.0128483
0.0128117
0.0127745
0.0127391
0.0127048
0.0126705
0.0126377
0.0126058
0.0125756
0.0125466
0.0125186
0.0124916
0.0124649
0.0124385
0.0124122
0.0123857
0.0123585
0.0123312
0.0123036
0.0122754
0.0122475
0.0122195
0.0121929
0.0121665
0.0121422
0.0121186
0.0120965
0.0120749
0.012055
0.0120353
0.0120168
0.0119976
0.0119787
0.011959
0.0119393
0.0119188
0.0118986
0.0118779
0.0118583
0.0118384
0.0118205
0.0118026
0.0117868
0.0117712
0.0117578
0.0117441
0.0117322
0.0117195
0.0117081
0.0116955
0.0116822
0.0116689
0.0116553
0.0116421
0.0116284
0.0116158
0.0116031
0.0115923
0.0115815
0.0115725
0.0115635
0.0115565
0.0115491
0.0115434
0.0115367
0.0115297
0.011523
0.0115159
0.0115085
0.0115011
0.0114941
0.011487
0.0114805
0.0114746
0.0114697
0.0114653
0.011462
0.0114591
0.0114572
0.0114554
0.0114531
6.01863e-05
0.000459838
0.000571637
0.000577055
0.000886958
0.0013871
0.00229896
0.00384173
0.00597108
0.00846995
0.0111696
0.0138877
0.0164789
0.0189058
0.02111
0.0230616
0.0248233
0.0264349
0.0279144
0.0292852
0.0305677
0.031777
0.0329229
0.0340083
0.0350318
0.0359895
0.036871
0.0376682
0.0383639
0.0389556
0.0394308
0.0397932
0.0400417
0.0401632
0.0401767
0.039401
0.0382319
0.0370335
0.0354083
0.0341432
0.0329007
0.0314909
0.0304554
0.0293826
0.0284261
0.0273059
0.0263135
0.0254053
0.0243885
0.023434
0.0223705
0.0217838
0.0208567
0.0201248
0.0192023
0.0187307
0.0180557
0.0171572
0.0166464
0.0159706
0.0155321
0.0149945
0.0146583
0.014241
0.013944
0.0136074
0.0133299
0.013083
0.0128852
0.0127228
0.0125829
0.0124874
0.0123973
0.0123333
0.0122879
0.0122577
0.0122544
0.0122626
0.0122723
0.0123384
0.012357
0.0124437
0.0124821
0.0126168
0.0126745
0.0128274
0.0129087
0.0130721
0.0131591
0.0133283
0.0134406
0.0136116
0.0137089
0.0138688
0.0139597
0.0141144
0.0142515
0.0144022
0.0144789
0.0144732
0.014467
0.0144582
0.0144491
0.0144367
0.0144233
0.0144076
0.0143926
0.0143755
0.0143591
0.0143401
0.0143218
0.0143015
0.0142818
0.0142613
0.0142413
0.0142197
0.0142007
0.0141791
0.0141592
0.0141342
0.0141054
0.0140805
0.0140601
0.0140373
0.0140117
0.0139882
0.0139671
0.0139454
0.0139246
0.0139033
0.0138818
0.0138596
0.0138368
0.0138143
0.0137907
0.0137677
0.0137431
0.0137191
0.0136948
0.0136712
0.0136473
0.0136241
0.0136007
0.013578
0.0135553
0.0135333
0.0135117
0.0134908
0.0134702
0.01345
0.0134298
0.0134099
0.0133898
0.0133706
0.013351
0.0133319
0.013312
0.0132923
0.013271
0.01325
0.013228
0.013205
0.0131833
0.0131626
0.0131414
0.0131213
0.0131016
0.0130833
0.0130659
0.0130492
0.0130332
0.0130175
0.013002
0.0129864
0.0129705
0.0129541
0.0129372
0.0129202
0.0129024
0.0128846
0.0128664
0.0128495
0.0128325
0.0128173
0.0128024
0.012789
0.0127757
0.0127641
0.0127524
0.0127418
0.0127307
0.0127196
0.0127078
0.0126958
0.0126831
0.0126704
0.0126571
0.0126448
0.012632
0.0126211
0.0126099
0.0126007
0.0125914
0.0125844
0.0125768
0.0125711
0.0125643
0.0125588
0.0125523
0.0125449
0.0125374
0.0125295
0.0125221
0.0125138
0.0125068
0.0124994
0.012494
0.0124882
0.0124845
0.0124803
0.0124783
0.0124757
0.0124748
0.012473
0.0124707
0.0124686
0.0124662
0.0124635
0.0124606
0.0124581
0.0124555
0.0124534
0.0124519
0.0124514
0.0124512
0.0124522
0.0124534
0.0124558
0.012458
0.0124619
6.80834e-05
0.000602028
0.000771741
0.000874091
0.00134346
0.00211923
0.00348599
0.00550467
0.00793864
0.0106458
0.0134607
0.0162142
0.0188141
0.0212594
0.0234218
0.0253652
0.0271279
0.0287346
0.030201
0.0315471
0.0327883
0.0339395
0.0350087
0.0359993
0.0369095
0.0377349
0.0384656
0.0390909
0.0395972
0.0399798
0.040226
0.0403405
0.0397992
0.0384496
0.0368095
0.0351669
0.0338663
0.0325802
0.030994
0.0298889
0.0288512
0.0276419
0.0269496
0.025881
0.0248891
0.0238533
0.0227332
0.0219617
0.0208744
0.0199397
0.0187441
0.0181005
0.0171654
0.0164296
0.01558
0.0148702
0.0143668
0.0136232
0.0131113
0.0125416
0.0121629
0.0117319
0.0114206
0.0110982
0.0108368
0.010602
0.0103715
0.0102017
0.0100507
0.00994322
0.0098461
0.00976863
0.00972866
0.00965301
0.00965944
0.00962466
0.0096417
0.00966502
0.00966074
0.00975761
0.00974196
0.00984454
0.00987906
0.0100044
0.0100438
0.0101782
0.0102442
0.0103818
0.0104595
0.010597
0.0107038
0.010846
0.0109594
0.0111118
0.0112286
0.0114018
0.0115806
0.0117598
0.011906
0.0120614
0.0121848
0.0123211
0.0124564
0.0126015
0.0127348
0.012829
0.012871
0.0129079
0.0129427
0.012973
0.0130023
0.0130287
0.0130537
0.0130764
0.0130975
0.0131162
0.0131357
0.0131545
0.0131726
0.0131859
0.0131961
0.0132039
0.0132155
0.0132251
0.0132309
0.0132363
0.0132436
0.0132499
0.0132571
0.0132631
0.0132689
0.0132734
0.0132772
0.0132805
0.0132827
0.0132849
0.0132851
0.0132853
0.0132845
0.013284
0.0132826
0.0132815
0.0132796
0.013278
0.0132759
0.0132737
0.0132718
0.0132699
0.0132684
0.0132667
0.0132651
0.0132632
0.013261
0.0132592
0.013257
0.013255
0.0132526
0.0132499
0.0132462
0.0132423
0.0132375
0.0132314
0.0132257
0.0132207
0.0132153
0.0132101
0.0132051
0.0132008
0.0131973
0.0131941
0.0131916
0.013189
0.0131867
0.0131842
0.0131814
0.0131782
0.0131741
0.0131703
0.0131655
0.0131604
0.0131546
0.0131499
0.0131448
0.013141
0.0131373
0.0131349
0.0131324
0.0131312
0.0131299
0.0131296
0.0131288
0.0131281
0.0131265
0.0131247
0.0131222
0.0131197
0.0131163
0.0131138
0.0131106
0.0131091
0.013107
0.0131067
0.0131061
0.0131077
0.0131085
0.0131111
0.0131125
0.0131153
0.0131171
0.013118
0.0131187
0.0131188
0.0131195
0.0131191
0.0131199
0.0131201
0.0131222
0.0131238
0.0131273
0.01313
0.013135
0.0131393
0.0131452
0.0131502
0.0131548
0.0131594
0.0131638
0.0131677
0.0131714
0.0131753
0.0131792
0.0131836
0.0131883
0.013194
0.0131999
0.0132069
0.013214
0.0132224
0.0132303
0.0132429
7.67869e-05
0.000767596
0.000947001
0.00126347
0.00194077
0.00305781
0.00486343
0.00716355
0.00979351
0.0126085
0.0154566
0.0181998
0.0207959
0.0231884
0.0253053
0.0272203
0.0289548
0.0305249
0.0319434
0.0332267
0.0343873
0.0354389
0.0363887
0.0372411
0.0379955
0.0386457
0.0391842
0.0396025
0.039887
0.0400322
0.0387506
0.0370804
0.0354944
0.0339307
0.0323118
0.0308044
0.0297827
0.0286929
0.0273505
0.0263712
0.0256306
0.0244842
0.0237556
0.0226484
0.0214863
0.0205829
0.0192811
0.0185129
0.0173275
0.0164089
0.0152801
0.0145682
0.0137597
0.0131287
0.0125298
0.0116702
0.0113448
0.0108355
0.0103253
0.00992127
0.00954101
0.00928341
0.00897237
0.00875395
0.00851918
0.00840153
0.00820997
0.00813423
0.00799754
0.00797194
0.00787656
0.00784398
0.0078398
0.007759
0.00782307
0.00776119
0.00783187
0.00781126
0.00788139
0.00789266
0.00791527
0.00796444
0.00802381
0.00809185
0.0081694
0.00824677
0.00831185
0.00838132
0.00845683
0.00852961
0.00861226
0.00869081
0.00878018
0.00886572
0.0089791
0.00909793
0.00924914
0.00937771
0.00951459
0.00964108
0.00976444
0.00989424
0.0100426
0.0101934
0.0103489
0.0105009
0.0106489
0.0107941
0.0109391
0.0110791
0.0111897
0.0112708
0.0113479
0.0114192
0.0114874
0.0115512
0.0116147
0.0116765
0.011738
0.0117942
0.0118464
0.0118946
0.0119416
0.0119857
0.0120264
0.0120651
0.0121034
0.0121408
0.0121781
0.0122145
0.0122499
0.0122841
0.0123171
0.0123491
0.0123798
0.0124098
0.0124376
0.0124644
0.0124897
0.0125145
0.0125378
0.0125609
0.0125826
0.0126038
0.0126241
0.0126436
0.0126629
0.0126818
0.0127007
0.0127192
0.0127376
0.0127552
0.0127725
0.0127895
0.0128061
0.0128229
0.0128392
0.0128551
0.0128705
0.0128853
0.012899
0.0129115
0.0129234
0.0129356
0.0129472
0.0129584
0.0129696
0.0129806
0.0129924
0.0130039
0.0130162
0.0130282
0.0130405
0.0130525
0.0130643
0.0130756
0.0130862
0.013097
0.0131068
0.0131161
0.0131243
0.0131334
0.0131417
0.0131508
0.0131598
0.01317
0.0131797
0.0131904
0.0132009
0.0132123
0.0132234
0.0132345
0.0132448
0.0132549
0.0132644
0.0132737
0.0132821
0.013291
0.0132991
0.0133086
0.0133174
0.0133275
0.0133373
0.0133488
0.0133598
0.0133722
0.0133835
0.013396
0.0134077
0.0134188
0.0134294
0.0134393
0.0134497
0.0134591
0.0134694
0.013479
0.0134903
0.0135008
0.0135131
0.0135246
0.0135381
0.0135508
0.013565
0.0135785
0.0135917
0.0136045
0.0136173
0.0136296
0.0136415
0.0136536
0.0136656
0.013678
0.0136906
0.0137041
0.0137176
0.0137322
0.0137466
0.0137624
0.0137776
0.013801
8.48732e-05
0.000954541
0.00118364
0.00174393
0.00267339
0.00415163
0.00625892
0.00873737
0.0114682
0.0143211
0.0171532
0.0198577
0.0224235
0.0247379
0.0268029
0.0286695
0.0303498
0.031853
0.0331887
0.0343703
0.0354091
0.0363185
0.0371054
0.0377762
0.0383323
0.0387668
0.0390801
0.0392642
0.0378013
0.0360746
0.0342209
0.0324388
0.0310406
0.0297431
0.0284882
0.027261
0.0264636
0.0255003
0.0242806
0.0232739
0.0229262
0.0216988
0.0204424
0.0195412
0.0181734
0.017326
0.0160032
0.0152367
0.0141423
0.0134515
0.0125453
0.0117854
0.0110785
0.0104966
0.0100569
0.0092775
0.00886188
0.00858176
0.00808414
0.00785661
0.00746553
0.00734694
0.00700755
0.0068961
0.00663225
0.00665391
0.00646188
0.00627219
0.00612573
0.00597154
0.0058648
0.00575301
0.00568009
0.00560879
0.00555334
0.00551888
0.00548098
0.00547489
0.00546581
0.00547474
0.00548978
0.00551347
0.00554533
0.00558657
0.00563812
0.00569826
0.00576656
0.00584349
0.00592947
0.00602139
0.00612226
0.0062297
0.0063466
0.00646995
0.00660178
0.00673935
0.0068869
0.00703176
0.00718422
0.00733293
0.00748387
0.00763331
0.00778851
0.00794333
0.00809945
0.00825308
0.00840576
0.00855417
0.00870057
0.00884126
0.00897906
0.00910936
0.00923441
0.00935284
0.0094674
0.00957753
0.00968745
0.0097952
0.00990216
0.0100049
0.0101021
0.0101945
0.010281
0.0103632
0.0104412
0.010517
0.010589
0.0106607
0.0107304
0.0108003
0.010868
0.0109352
0.0110004
0.0110643
0.0111267
0.0111873
0.0112455
0.0113022
0.0113562
0.0114091
0.0114595
0.0115092
0.0115563
0.0116029
0.0116471
0.0116908
0.0117331
0.0117749
0.0118158
0.0118566
0.0118961
0.0119353
0.0119733
0.0120108
0.0120476
0.0120846
0.0121209
0.012157
0.0121924
0.0122275
0.0122608
0.0122932
0.0123241
0.0123548
0.0123845
0.0124132
0.0124415
0.012469
0.0124971
0.0125244
0.0125524
0.0125799
0.0126076
0.0126351
0.0126624
0.0126893
0.0127156
0.0127419
0.0127674
0.0127919
0.0128154
0.0128392
0.012862
0.0128851
0.0129078
0.0129312
0.0129541
0.0129776
0.0130009
0.0130249
0.0130487
0.0130726
0.0130958
0.0131189
0.0131413
0.0131635
0.0131847
0.0132061
0.0132268
0.0132482
0.0132691
0.0132905
0.0133117
0.0133341
0.0133563
0.0133793
0.0134018
0.0134249
0.0134479
0.01347
0.0134918
0.0135127
0.0135341
0.0135543
0.0135754
0.0135955
0.0136171
0.0136379
0.0136601
0.0136815
0.0137046
0.0137269
0.0137505
0.0137737
0.0137965
0.0138188
0.0138413
0.0138632
0.0138846
0.0139062
0.0139275
0.0139492
0.0139709
0.0139933
0.0140156
0.0140389
0.0140619
0.0140863
0.0141098
0.0141458
9.16377e-05
0.00114731
0.00151458
0.00229983
0.00350147
0.00528105
0.00757242
0.0101628
0.0129305
0.0157718
0.0185568
0.0212098
0.0237087
0.0259443
0.0279536
0.0297591
0.0313604
0.0327624
0.033973
0.0350051
0.0358716
0.0365887
0.037167
0.03761
0.0379296
0.0381185
0.0368371
0.0350085
0.0331278
0.0313449
0.0297979
0.0283935
0.0274541
0.0264437
0.0253984
0.0242429
0.0235117
0.0228978
0.0218285
0.0206717
0.0202291
0.0189389
0.0172494
0.0165917
0.0152583
0.0145215
0.0134178
0.0126888
0.0117109
0.0111059
0.0103613
0.00955897
0.00890367
0.00829478
0.00788793
0.00742618
0.00684975
0.00675298
0.00629929
0.00608836
0.00576464
0.00543856
0.00519501
0.00495196
0.00477612
0.00460097
0.0044783
0.00434801
0.0042577
0.00416163
0.00409589
0.00402433
0.00398108
0.00393204
0.00390075
0.00387275
0.00384315
0.00383095
0.00381623
0.00381205
0.00381368
0.00381787
0.00382793
0.00384301
0.00386419
0.00389013
0.00392236
0.00395997
0.00400448
0.00405466
0.00411221
0.00417616
0.00424673
0.00432569
0.00441047
0.00450555
0.00460566
0.0047158
0.00483032
0.00495202
0.0050795
0.00521203
0.00535356
0.00549863
0.00564975
0.00580242
0.00595979
0.00611622
0.00627556
0.00643124
0.00658862
0.00673972
0.00689054
0.00703894
0.00718563
0.00733137
0.00747778
0.00762545
0.00777166
0.00791535
0.00805396
0.00818087
0.00830374
0.00842085
0.0085354
0.00864379
0.00875134
0.00885618
0.00896073
0.00906337
0.00916622
0.00926618
0.0093662
0.00946309
0.00956011
0.00965278
0.00974344
0.00983178
0.00991684
0.0099996
0.0100793
0.0101572
0.0102322
0.0103058
0.0103764
0.0104462
0.0105133
0.0105803
0.0106449
0.01071
0.0107724
0.0108349
0.010895
0.010955
0.0110136
0.0110724
0.0111303
0.0111884
0.0112452
0.0113018
0.0113565
0.01141
0.011462
0.0115124
0.0115614