/*--------------------------------*- C++ -*----------------------------------*\
| =========                 |                                                 |
| \\      /  F ield         | OpenFOAM: The Open Source CFD Toolbox           |
|  \\    /   O peration     | Version:  2312                                  |
|   \\  /    A nd           | Website:  www.openfoam.com                      |
|    \\/     M anipulation  |                                                 |
\*---------------------------------------------------------------------------*/
FoamFile
{
    version     2.0;
    format      ascii;
    arch        "LSB;label=32;scalar=64";
    class       volScalarField;
    location    "0.006";
    object      omega;
}
// * * * * * * * * * * * * * * * * * * * * * * * * * * * * * * * * * * * * * //

dimensions      [0 0 -1 0 0 0 0];

internalField   nonuniform List<scalar> 
48128
(
2.15852e+06
2.15931e+06
2.16524e+06
2.17177e+06
2.17241e+06
2.1743e+06
2.17583e+06
2.17866e+06
2.18239e+06
2.18695e+06
2.18175e+06
2.19069e+06
2.21563e+06
2.25608e+06
2.29932e+06
2.33729e+06
2.36776e+06
2.39254e+06
2.41224e+06
2.42741e+06
2.43859e+06
2.44649e+06
2.4513e+06
2.4531e+06
2.45196e+06
2.44804e+06
2.44138e+06
2.43125e+06
2.41904e+06
2.40469e+06
2.38828e+06
2.37014e+06
2.35076e+06
2.33016e+06
2.30907e+06
2.28786e+06
2.26725e+06
2.24748e+06
2.22827e+06
2.20981e+06
2.19216e+06
2.17489e+06
2.15875e+06
2.14438e+06
2.13194e+06
2.11944e+06
2.10754e+06
2.09634e+06
2.0852e+06
2.07284e+06
2.05782e+06
2.04537e+06
2.03096e+06
2.01804e+06
1.99992e+06
1.99559e+06
1.99761e+06
1.99773e+06
1.99726e+06
1.99425e+06
1.9901e+06
1.98405e+06
1.97655e+06
1.96857e+06
1.96018e+06
1.95164e+06
1.94256e+06
1.93297e+06
1.92251e+06
1.91056e+06
1.89807e+06
1.88504e+06
1.8725e+06
1.85984e+06
1.84737e+06
1.83504e+06
1.82259e+06
1.81037e+06
1.79812e+06
1.786e+06
1.7737e+06
1.76197e+06
1.75025e+06
1.73926e+06
1.7282e+06
1.71775e+06
1.70725e+06
1.69733e+06
1.68737e+06
1.67806e+06
1.66883e+06
1.66012e+06
1.65162e+06
1.64357e+06
1.63587e+06
1.62863e+06
1.62177e+06
1.61528e+06
1.60911e+06
1.60313e+06
1.59736e+06
1.5918e+06
1.58655e+06
1.58153e+06
1.57686e+06
1.57239e+06
1.56823e+06
1.56421e+06
1.56045e+06
1.55682e+06
1.55343e+06
1.55017e+06
1.54708e+06
1.54406e+06
1.54119e+06
1.53836e+06
1.53566e+06
1.533e+06
1.53062e+06
1.5279e+06
1.52738e+06
1.52577e+06
1.52371e+06
1.52233e+06
1.52052e+06
1.51855e+06
1.51655e+06
1.51464e+06
1.51277e+06
1.51104e+06
1.50941e+06
1.50797e+06
1.50664e+06
1.50544e+06
1.50432e+06
1.50331e+06
1.50245e+06
1.50165e+06
1.50088e+06
1.5001e+06
1.49935e+06
1.49861e+06
1.49788e+06
1.49712e+06
1.49641e+06
1.49563e+06
1.49478e+06
1.49385e+06
1.49286e+06
1.49183e+06
1.49078e+06
1.48975e+06
1.4887e+06
1.48767e+06
1.48663e+06
1.48562e+06
1.48465e+06
1.48372e+06
1.4829e+06
1.48223e+06
1.48157e+06
1.4812e+06
1.48074e+06
1.48028e+06
1.47979e+06
1.47924e+06
1.47864e+06
1.47794e+06
1.47716e+06
1.4763e+06
1.47538e+06
1.47443e+06
1.47351e+06
1.47258e+06
1.47177e+06
1.471e+06
1.47037e+06
1.46983e+06
1.46937e+06
1.46904e+06
1.46874e+06
1.46842e+06
1.46809e+06
1.46768e+06
1.46719e+06
1.46662e+06
1.46598e+06
1.46527e+06
1.46449e+06
1.46369e+06
1.46286e+06
1.46217e+06
1.46146e+06
1.46093e+06
1.46046e+06
1.46012e+06
1.45984e+06
1.45956e+06
1.45928e+06
1.45895e+06
1.45857e+06
1.45812e+06
1.4576e+06
1.45698e+06
1.45631e+06
1.4556e+06
1.45487e+06
1.4542e+06
1.45345e+06
1.45289e+06
1.45251e+06
1.45213e+06
1.45183e+06
1.45157e+06
1.45129e+06
1.45098e+06
1.45062e+06
1.4502e+06
1.44971e+06
1.44916e+06
1.44854e+06
1.4479e+06
1.44723e+06
1.44652e+06
1.44593e+06
1.44542e+06
1.44491e+06
1.44452e+06
1.44419e+06
1.44387e+06
1.44353e+06
1.44318e+06
1.44279e+06
1.44235e+06
1.44185e+06
1.44131e+06
1.44071e+06
1.4401e+06
1.43945e+06
1.43855e+06
778916
497969
398156
413742
431943
449900
482550
523414
644834
850918
997367
1.06496e+06
1.06944e+06
964937
881643
820982
778288
750601
732481
720482
712463
707007
702746
699307
696309
693616
691137
688703
687662
685475
683059
681770
680914
680294
681255
682712
688151
692801
697864
702694
707381
712449
717389
722187
727100
731732
736457
740746
744984
748635
752013
754607
756975
758721
759750
761300
763494
765546
766722
767047
766707
765801
764219
762029
759337
756228
752812
749077
744980
740118
734641
728887
722888
716798
710646
704425
698376
692185
686222
680208
674417
668505
662823
657079
651674
646196
641054
635857
630976
626039
621454
616849
612560
608279
604224
600170
596346
592708
589334
586124
583154
580264
577507
574852
572359
570006
567811
565755
563829
562054
560379
558873
557465
556217
555044
554018
552963
551947
550852
549882
548386
548252
548019
547271
547090
546940
546749
546539
546356
546163
545964
545768
545570
545398
545230
545082
544973
544907
544914
544952
545025
545136
545282
545462
545663
545881
546100
546324
546554
546777
547009
547254
547511
547786
548044
548320
548568
548816
549072
549305
549550
549794
550153
550579
551041
551484
551978
552478
552988
553502
553968
554435
554826
555271
555563
555962
556223
556500
556797
557052
557396
557732
558154
558460
558825
559202
559581
559946
560314
560609
560881
561055
561344
561401
561515
561602
561740
561899
562080
562264
562467
562650
562859
563077
563284
563446
563610
563651
563813
563733
563657
563684
563654
563661
563687
563744
563802
563877
563938
564010
564089
564135
564165
564164
564077
563965
563892
563773
563658
563579
563493
563464
563425
563394
563363
563324
563287
563234
563149
563021
779610
367123
213889
183262
188673
212767
287605
419694
539023
602895
621043
589687
534272
478257
438977
414399
400926
393818
390560
389521
389624
391330
393071
395436
397980
400869
404013
407382
411150
414941
419130
423848
428878
434589
441256
448163
455876
463487
471431
479254
487141
495258
503143
510847
518446
525861
533153
540131
546975
553574
559640
564870
569731
573904
577421
579952
582273
583974
584928
585011
584577
583537
581837
579506
576616
573265
569518
565410
560953
556107
550911
545428
539686
533768
527724
521580
515450
509204
503105
496953
490966
484901
479018
473084
467378
461622
456119
450602
445331
440070
435059
430096
425354
420673
416163
411687
407380
403198
399206
395351
391687
388136
384713
381391
378200
375129
372183
369362
366651
364079
361588
359256
356990
354891
352845
350957
349090
347310
345492
343803
341785
340531
339264
337758
336530
335450
334390
333366
332410
331489
330594
329729
328883
328071
327280
326510
325778
325066
324403
323776
323194
322641
322137
321658
321229
320822
320441
320070
319727
319383
319062
318754
318451
318178
317902
317651
317403
317152
316924
316686
316459
316193
316019
315865
315710
315577
315467
315394
315342
315314
315299
315292
315285
315286
315274
315272
315260
315242
315219
315181
315171
315167
315170
315173
315193
315224
315264
315314
315374
315436
315502
315544
315614
315618
315628
315623
315624
315628
315636
315645
315661
315674
315702
315740
315787
315830
315890
315901
315979
315958
315921
315915
315889
315859
315827
315810
315791
315781
315770
315768
315774
315784
315784
315805
315777
315735
315704
315654
315596
315537
315472
315427
315379
315334
315292
315253
315216
315183
315141
315090
780679
289993
149424
126028
143823
211829
312903
394723
433363
437193
411090
379027
346320
318620
302301
293857
290342
289423
290258
292400
295035
298364
301835
305764
309951
314505
319378
324596
330262
336244
342741
349720
357293
365485
374263
383280
392690
402405
412497
422465
432686
443146
453233
463092
472551
481928
491009
499870
508379
516772
524352
531041
537097
542291
546753
549658
552092
553542
554159
553900
553035
551430
549063
545989
542276
538070
533403
528344
522916
517132
511008
504578
497925
491101
484163
477131
470087
462946
455953
448944
442085
435203
428475
421757
415217
408713
402428
396219
390225
384333
378649
373082
367708
362441
357334
352294
347422
342669
338103
333684
329450
325347
321377
317515
313786
310177
306697
303339
300101
296990
293972
291100
288302
285661
283084
280649
278271
275980
273687
271501
269117
267263
265427
263456
261694
260063
258477
256942
255475
254061
252687
251357
250064
248812
247596
246410
245265
244144
243074
242036
241048
240086
239174
238289
237453
236648
235888
235152
234454
233772
233122
232490
231874
231287
230716
230162
229633
229099
228598
228089
227600
227082
226635
226203
225768
225353
224958
224594
224253
223936
223643
223369
223105
222862
222617
222390
222162
221944
221726
221504
221286
221088
220885
220696
220525
220366
220217
220080
219959
219850
219750
219648
219557
219457
219358
219254
219151
219045
218947
218848
218753
218655
218576
218499
218439
218375
218331
218263
218252
218202
218132
218074
218007
217935
217861
217790
217720
217653
217588
217526
217474
217432
217380
217362
217319
217265
217222
217167
217106
217042
216974
216911
216846
216783
216719
216662
216603
216554
216502
216439
781195
218532
111705
114359
161964
244147
314794
347847
348157
328762
306529
283550
263721
250798
244361
241930
241703
243518
246221
249600
253376
257622
262155
267128
272484
278271
284517
291248
298544
306357
314792
323857
333525
343893
354827
365978
377383
389353
401821
414077
426582
439446
451697
463764
475353
486969
498179
509120
519416
529509
538669
546560
553537
559111
564161
566764
568697
569334
569042
567994
566031
563244
559535
555038
549804
544102
537945
531408
524537
517353
509965
502361
494599
486686
478681
470590
462521
454373
446360
438348
430487
422644
414961
407362
399975
392696
385662
378759
372089
365567
359253
353092
347121
341299
335636
330077
324701
319454
314415
309537
304853
300314
295914
291630
287489
283473
279599
275848
272233
268735
265352
262098
258942
255926
252996
250192
247475
244824
242207
239680
237016
234773
232592
230325
228227
226247
224325
222462
220663
218924
217230
215585
213984
212430
210919
209444
208012
206611
205265
203953
202692
201459
200278
199124
198021
196949
195924
194931
193978
193052
192159
191291
190446
189632
188841
188071
187331
186591
185887
185180
184499
183799
183156
182534
181910
181308
180725
180168
179637
179127
178645
178180
177734
177307
176890
176489
176096
175718
175344
174976
174606
174262
173912
173580
173263
172961
172672
172395
172134
171890
171655
171430
171209
170994
170787
170578
170377
170172
169979
169785
169598
169408
169238
169066
168914
168760
168626
168479
168379
168259
168127
168008
167884
167758
167631
167507
167384
167264
167146
167031
166922
166827
166723
166652
166567
166475
166397
166312
166224
166134
166042
165953
165862
165773
165682
165598
165511
165435
165358
165259
781557
170503
104292
130785
199330
261831
293013
297102
281540
264813
247802
232107
221173
215202
213035
212916
215024
218137
221891
226139
230787
235878
241388
247389
253896
260958
268635
276961
285997
295755
306276
317467
329298
341946
355306
369061
382983
397643
413115
428359
443695
459602
474462
489026
502901
516876
530341
543145
554917
565867
575730
583103
589430
593538
597685
598156
597746
596559
594177
591163
587067
582404
576776
570576
563790
556701
549263
541520
533505
525226
516763
508093
499300
490368
481411
472377
463454
454462
445641
436804
428180
419570
411197
402941
394978
387129
379582
372152
365003
357992
351243
344646
338279
332083
326060
320171
314481
308924
303590
298416
293439
288616
283941
279391
274990
270720
266599
262599
258743
254998
251383
247883
244501
241240
238089
235046
232107
229224
226389
223642
220787
218292
215889
213443
211103
208893
206756
204679
202664
200712
198803
196948
195137
193375
191657
189981
188348
186750
185210
183705
182253
180831
179463
178124
176835
175577
174368
173192
172058
170954
169884
168843
167827
166846
165889
164959
164055
163163
162302
161445
160617
159777
158985
158219
157455
156717
155996
155301
154633
153984
153366
152762
152182
151614
151070
150532
150012
149507
149007
148521
148032
147571
147105
146661
146232
145820
145420
145034
144664
144310
143968
143639
143314
142999
142696
142393
142103
141810
141531
141253
140985
140714
140465
140214
139984
139752
139541
139322
139143
138952
138754
138571
138386
138203
138021
137842
137666
137495
137325
137161
137000
136853
136700
136578
136446
136309
136189
136066
135940
135816
135691
135570
135447
135328
135207
135092
134976
134870
134764
134621
781496
157404
125957
162332
221181
252034
262076
251349
237594
224423
211674
201696
195756
193216
192888
194709
197969
201926
206461
211468
216921
222875
229365
236443
244176
252636
261887
271971
282939
294827
307616
321257
335631
351012
367336
384234
401183
418857
437601
456369
474753
493815
511040
527196
542248
556751
570699
582330
592749
601150
609354
613146
616013
616925
618132
615911
612226
608363
603288
597839
591501
584881
577514
569701
561353
552726
543993
535165
526238
517282
508222
499166
490067
480897
471879
462774
453957
445030
436447
427770
419462
411069
403025
394915
387193
379420
372029
364609
357558
350528
343822
337165
330806
324549
318509
312567
306843
301217
295810
290552
285499
280603
275870
271267
266809
262479
258290
254223
250295
246475
242783
239199
235731
232377
229137
225988
222951
219966
217039
214194
211267
208620
206094
203571
201100
198755
196503
194303
192170
190095
188064
186083
184144
182255
180409
178607
176845
175121
173453
171821
170243
168696
167203
165738
164325
162940
161608
160304
159049
157816
156626
155458
154322
153218
152140
151094
150067
149067
148085
147117
146177
145229
144321
143450
142579
141739
140912
140115
139346
138593
137873
137165
136485
135811
135169
134526
133909
133301
132704
132123
131539
130984
130428
129894
129377
128876
128388
127914
127458
127016
126591
126173
125769
125368
124986
124602
124235
123866
123513
123161
122824
122482
122166
121846
121550
121251
120974
120693
120446
120191
119932
119689
119447
119210
118974
118744
118517
118297
118078
117869
117659
117467
117269
117099
116922
116742
116580
116416
116250
116091
115929
115774
115618
115467
115314
115169
115022
114886
114750
114563
781246
166608
150926
185854
218354
232771
230414
218257
207546
197194
188044
181799
178659
177786
178936
181872
185828
190435
195630
201349
207584
214429
221923
230167
239248
249256
260260
272312
285448
299751
315162
331667
348999
367509
387145
407701
428177
449068
471019
492623
512078
531749
548036
562698
576202
587579
598765
605485
612039
615698
619778
618742
616758
612780
607795
600608
591818
583305
574344
565313
556118
547068
537941
528724
519580
510173
501291
492392
483646
475256
466736
458705
450529
442674
434917
427181
419862
412387
405408
398238
391547
384680
378192
371505
365213
358747
352643
346392
340512
334539
328870
323083
317531
311896
306522
301101
295895
290655
285637
280688
275954
271339
266884
262521
258274
254130
250103
246187
242385
238688
235094
231611
228211
224940
221740
218639
215634
212696
209819
206998
204139
201437
198900
196396
193932
191546
189280
187045
184895
182778
180719
178693
176712
174777
172880
171027
169209
167428
165698
164004
162361
160750
159188
157656
156174
154715
153312
151930
150603
149292
148028
146779
145568
144382
143227
142099
140994
139917
138851
137809
136786
135766
134777
133826
132881
131965
131064
130192
129347
128520
127723
126941
126183
125436
124714
123999
123302
122621
121950
121292
120638
120007
119383
118778
118191
117619
117062
116518
115995
115482
114991
114503
114036
113565
113118
112669
112237
111804
111388
110975
110578
110178
109803
109426
109074
108718
108386
108051
107747
107437
107125
106829
106536
106250
105965
105689
105415
105151
104887
104636
104383
104149
103910
103697
103480
103260
103058
102856
102653
102458
102262
102073
101885
101702
101518
101344
101167
101001
100837
100608
780968
177231
167993
190382
207807
211543
203990
194499
186005
177951
171481
167587
166070
166192
168428
171987
176440
181582
187368
193775
200790
208559
217136
226670
237256
249009
261999
276301
291911
308991
327425
347246
367983
390067
413294
437472
460476
482530
504591
525783
542146
557888
569659
579938
589877
596078
602638
602931
601980
598424
594031
586925
578548
568959
558549
548619
537798
526592
516213
505570
495630
485427
476080
466451
457577
448321
439987
431549
423747
416310
408931
402332
395524
389475
383309
377492
371968
366343
361256
355953
351108
346107
341364
336446
331785
326973
322367
317633
313083
308449
304003
299497
295196
290840
286646
282415
278275
274088
270023
265953
262026
258155
254349
250568
246836
243158
239546
236018
232565
229199
225897
222706
219563
216542
213554
210673
207834
205111
202406
199755
197092
194489
192056
189655
187304
184992
182798
180628
178545
176479
174476
172492
170553
168650
166783
164954
163155
161388
159666
157976
156332
154717
153148
151604
150107
148629
147204
145799
144444
143105
141810
140528
139284
138059
136869
135696
134556
133430
132327
131241
130172
129112
128076
127074
126083
125118
124171
123249
122354
121478
120628
119798
118985
118192
117411
116651
115895
115163
114439
113726
113021
112335
111660
111001
110361
109736
109128
108530
107955
107389
106847
106305
105787
105264
104765
104265
103781
103297
102831
102368
101922
101475
101050
100627
100227
99825.9
99447.5
99067.2
98715.5
98359.2
98004.5
97663
97325.5
96996.8
96669.4
96352.4
96037.7
95734.9
95432
95143.2
94853.2
94581.7
94307
94056.6
93803
93547.8
93310.2
93073.3
92837
92608.7
92381.3
92160.7
91941.7
91729.6
91517.3
91313.9
91110.3
90916.6
90726
90457
780798
184754
175187
186611
194094
191977
184100
176802
169955
163707
159123
156711
156045
157073
159899
163852
168689
174292
180633
187720
195562
204336
214128
225135
237450
251227
266525
283460
301957
322234
344199
367854
392203
417255
442175
466863
489130
508418
526054
543102
553783
563726
571336
575496
578929
577601
575257
569489
562064
552381
542165
531059
519234
506606
492878
481206
468828
455041
442586
429402
418112
406187
396118
385643
376890
367692
359980
352101
345691
339395
333798
329016
324175
320329
316338
313123
309886
306963
304374
301642
299254
296776
294419
291959
289548
287051
284532
281918
279240
276467
273648
270778
267954
265094
262219
259313
256372
253370
250323
247240
244141
241071
238049
235045
232048
229066
226098
223166
220265
217414
214600
211864
209140
206477
203836
201270
198721
196293
193855
191481
189085
186710
184456
182259
180093
177953
175904
173881
171931
169996
168121
166254
164429
162626
160857
159120
157408
155717
154067
152440
150856
149291
147772
146268
144811
143365
141969
140588
139253
137931
136651
135381
134145
132924
131738
130564
129425
128289
127186
126089
125015
123945
122896
121874
120868
119882
118915
117971
117051
116153
115275
114420
113578
112760
111947
111160
110373
109610
108854
108109
107370
106650
105942
105247
104572
103910
103267
102633
102021
101418
100839
100260
99703.4
99145.1
98606.4
98069.6
97546.2
97025.5
96520
96019.7
95535.6
95052.5
94588.7
94130
93691.8
93255.5
92838.6
92423.8
92033
91640
91250.7
90872.5
90499
90134.8
89772.3
89421
89072.2
88736
88400.4
88079.3
87757.5
87454.3
87148.5
86866.1
86581.1
86296.6
86027.4
85760.3
85495
85237.5
84981.8
84733.1
84487
84248
84009.9
83780.6
83552.3
83333.7
83118.8
82814
780671
188757
175259
179241
180435
175739
169053
163150
157550
152652
149373
147902
147775
149442
152595
156819
161974
168001
174903
182714
191492
201433
212657
225414
239807
256021
274087
294144
316105
340085
365647
392395
418181
443004
465778
486843
505441
519248
531270
543700
547186
549219
551564
549265
545724
538809
530076
519176
506880
492999
478037
462550
446302
429655
412691
395793
381305
365655
352374
338478
327052
315197
305526
295536
287603
279387
272770
265932
260682
255282
251220
247114
244096
241315
238890
237224
235438
234536
233739
232934
232690
232472
232553
232663
232878
233033
233244
233302
233289
233152
232929
232518
231981
231270
230434
229447
228336
227047
225598
223982
222228
220378
218476
216521
214511
212450
210339
208186
205997
203784
201551
199312
197078
194869
192670
190502
188354
186278
184204
182163
180105
178033
176043
174098
172170
170242
168386
166544
164770
163000
161290
159579
157903
156244
154614
153011
151428
149857
148318
146796
145310
143838
142404
140981
139599
138223
136893
135571
134296
133025
131799
130574
129384
128201
127052
125913
124805
123700
122626
121555
120505
119457
118425
117415
116422
115445
114485
113544
112626
111729
110850
109993
109146
108324
107505
106711
105918
105144
104378
103622
102871
102136
101414
100702
100009
99327.9
98665.2
98011.3
97379.1
96754.4
96153.2
95553.1
94973.3
94393.2
93830.3
93270
92721.3
92176.5
91644.9
91119.7
90608.8
90101.3
89609.6
89125.5
88658.9
88198.3
87752.2
87313
86891.5
86473
86057.6
85651.5
85250.4
84858.8
84469.3
84090.8
83715.4
83352.3
82990.8
82643.3
82296.2
81966.5
81636
81326.8
81016.5
80708.2
80412.2
80120.6
79831
79548.8
79269.2
78996.6
78727.1
78464.9
78204.6
77952.8
77702.9
77462.4
77226.3
76890.1
780274
191236
172747
170825
168560
162934
157331
152276
147601
143723
141330
140415
140733
142765
146111
150543
155995
162465
169995
178663
188578
199966
212975
227936
244924
264149
285630
309432
335006
362119
389063
415697
439734
461182
479174
494664
509562
517620
522209
526767
525457
522086
518582
510975
501336
489097
474997
459206
441309
421962
400851
381100
361749
343430
326597
309627
295415
280936
268696
256094
245799
235268
226705
217945
210990
203916
198243
192410
187828
183108
179554
175820
173363
170754
168943
167483
165974
165404
164742
164690
164877
165219
165862
166725
167838
169077
170494
171985
173594
175209
176911
178576
180332
181947
183625
185040
186500
187606
188654
189374
189934
190270
190368
190269
190020
189599
189007
188249
187336
186277
185086
183776
182385
180934
179435
177905
176357
174806
173238
171648
170014
168339
166648
164995
163358
161707
160104
158501
156953
155404
153898
152395
150911
149441
147995
146568
145148
143726
142324
140931
139565
138207
136880
135559
134271
132987
131743
130502
129307
128110
126957
125798
124673
123550
122457
121373
120318
119265
118240
117217
116213
115210
114218
113244
112284
111338
110407
109490
108595
107718
106858
106017
105188
104379
103576
102793
102013
101248
100493
99743.8
99000.1
98269.1
97549.6
96838.6
96144.5
95461.3
94795.3
94137.7
93500
92869.3
92260.9
91654.3
91066
90478.4
89905.6
89335.8
88775.6
88220.2
87675.4
87137.7
86612.2
86091.7
85583.8
85085.3
84600.9
84126.3
83661.8
83207.6
82765.9
82331.8
81899.3
81474.7
81055.3
80644.8
80236.9
79839.1
79445
79062.3
78682.3
78314.9
77949.5
77599.4
77250.9
76920.7
76591.5
76265.3
75948.6
75637.9
75329.4
75027.7
74729.2
74437.3
74149.1
73868.1
73589.5
73319.1
73051.4
72792.9
72539
72176.6
780486
192733
167926
162347
158377
152898
147932
143392
139362
136247
134446
133872
134533
136759
140242
144877
150667
157677
166001
175784
187186
200473
215846
233670
253972
276963
302265
329539
357167
384833
410234
434119
454719
471050
483621
493999
503896
504653
503314
500635
496494
488221
478211
465338
449912
432140
411435
389530
365975
344636
322615
302938
284367
267295
252375
238197
225449
214295
204096
193957
185640
177168
170176
163064
157292
151471
146723
141895
137975
133979
130808
127541
125112
122565
120762
118979
117427
116344
115236
114550
114200
113841
113894
114088
114507
115104
115923
116916
118116
119467
121014
122708
124594
126604
128772
131005
133343
135687
138102
140401
142741
144920
147131
149119
151076
152820
154444
155815
157035
157973
158765
159259
159609
159678
159602
159419
159124
158716
158193
157552
156777
155862
154838
153755
152633
151474
150297
149103
147918
146721
145530
144329
143120
141904
140689
139474
138263
137042
135826
134612
133409
132210
131027
129847
128688
127532
126404
125282
124192
123094
122031
120958
119913
118866
117844
116830
115841
114854
113892
112930
111987
111043
110105
109181
108267
107365
106475
105596
104735
103890
103061
102250
101448
100667
99890.2
99132.8
98379.3
97637.5
96904.8
96177.8
95454.4
94741.3
94037.5
93341
92658.9
91986.4
91329.3
90681.3
90050.4
89426.6
88823.5
88222.9
87638.7
87056.1
86485.8
85919
85359.7
84805.7
84259.6
83721
83192.4
82669.5
82156.4
81653.9
81162.7
80683.5
80211.3
79751.1
79299.8
78859.4
78418.8
77985.3
77556.9
77136.3
76718.8
76310
75905.4
75510.8
75120
74739.8
74363.2
73999.8
73639.9
73295.2
72953.8
72615.6
72284.9
71961.1
71639.4
71323.8
71011.8
70706.1
70404.2
70109.2
69816.9
69532.6
69251.1
68979.1
68711.3
68328.5
783027
191792
162070
154715
149773
144713
140165
135995
132370
129796
128391
128043
128943
131293
134924
139830
146090
153853
163290
174636
188079
204000
222520
244072
268427
295418
323643
352683
379944
405860
428236
447938
464247
474532
482272
486020
489192
486411
480565
471681
462527
449364
432860
413831
391457
367425
341183
318072
294006
274635
255101
238574
223444
209870
198185
187417
177396
169265
160976
153766
147247
140611
134997
129337
124679
119967
116092
112169
108970
105709
103018
100282
98076.9
95819.9
94043
92235.6
90796.2
89485.8
88205.9
87122.5
86282.1
85430
84844.9
84267.5
83924.2
83630.7
83503.7
83520.7
83639.9
83863.5
84227.2
84721.4
85375.3
86172.5
87136.8
88234.3
89487.8
90874.9
92418.7
94087.8
95897.1
97811.9
99847.2
101970
104194
106482
108825
111182
113566
115851
118140
120270
122336
124269
126087
127816
129455
130933
132265
133391
134331
135011
135440
135693
135760
135691
135530
135269
134929
134510
134028
133479
132868
132194
131463
130683
129868
129015
128133
127228
126304
125365
124414
123453
122486
121511
120545
119571
118618
117658
116721
115775
114845
113910
112993
112080
111187
110296
109423
108551
107694
106836
105973
105116
104264
103420
102584
101755
100941
100138
99351.5
98579.6
97816.9
97072.8
96333.8
95612.5
94893.4
94185.3
93483.3
92787.6
92093.1
91406.5
90726.4
90053.3
89391
88738.2
88098.2
87468.3
86852.6
86244.3
85654.7
85068.6
84497.1
83928
83368.8
82813.7
82264.5
81720.5
81182.1
80651.2
80128.1
79611.5
79102.1
78603.6
78114.4
77638.3
77167.2
76708.6
76256.6
75817.7
75377.3
74943.1
74513.8
74091.1
73672
73259.8
72852.2
72453.1
72058.5
71672.6
71291.6
70921.8
70556.7
70204.3
69857.1
69512.9
69174.7
68843.6
68514.7
68191.2
67871.3
67557.1
67246.8
66943
66642.1
66348.6
66058
65776.9
65499.6
65102.7
785708
189799
156016
147756
142511
137796
133557
129661
126357
124113
122972
122789
123867
126352
130220
135569
142565
151474
162575
176159
192501
211992
234643
260716
289068
319132
348492
377285
402586
425343
443815
458100
469366
474183
476042
474386
471536
464998
455034
440731
424306
404460
380095
353677
325204
300350
275093
255097
235078
219911
205020
193023
181711
171827
162871
154605
146869
139904
133352
127925
122370
116901
112326
107699
103858
99955.7
96873.1
93741.4
91150.1
88513.5
86331
84055
82235.2
80382.5
78908.1
77386.2
76162.9
75011.2
73907.6
72916.3
72049.1
71192.6
70494.8
69780.6
69190.8
68590.8
68125.7
67652.7
67299.7
66942.4
66693
66462.6
66328.3
66248
66271
66344.6
66489
66705.6
67011
67403.4
67892.6
68472.4
69154
69938
70839.2
71854.3
72989
74237.1
75598.3
77064.4
78631.3
80286.3
82031.9
83865.8
85798.2
87835
89958.1
92134.1
94351.5
96533.4
98737.6
100793
102761
104498
106224
107721
109198
110450
111681
112708
113696
114496
115217
115746
116194
116447
116637
116627
116544
116371
116113
115773
115362
114886
114356
113777
113157
112503
111826
111131
110426
109708
108982
108245
107505
106760
106021
105276
104535
103789
103044
102295
101538
100779
100020
99263.2
98509.5
97757.9
97016.2
96281.3
95559.4
94849.2
94147.4
93461.6
92781.2
92112.3
91442
90780.7
90121.8
89468.1
88813.9
88164.1
87517.9
86878.3
86245.2
85621.3
85007.2
84403.9
83811.7
83226.8
82657.4
82092.5
81540
80990.8
80449
79911.9
79379.3
78851.2
78326.9
77809.8
77298.5
76793.9
76295
75805.8
75325.1
74856.7
74393.2
73941.2
73494.9
73062.3
72628.4
72199.4
71775.2
71356.4
70941.5
70532
70127.3
69729.7
69336.6
68951.2
68570.9
68200.5
67835.3
67480.7
67133
66788.1
66447.9
66114.9
65784
65457.9
65135.2
64817.7
64503.9
64196.2
63891.1
63593.3
63298
63012.3
62729.6
62324.8
788200
187080
150082
141380
136176
131771
127788
124138
121130
119059
118088
118050
119306
122030
126338
132463
140666
151363
164873
181756
202118
226339
253874
284496
315839
347468
376120
402930
425217
443568
457206
465034
470990
470278
467784
461519
452558
440002
423891
402844
376550
347648
316619
289592
263615
242498
223214
207964
193806
182622
171812
163046
154111
146427
138789
131944
125228
119121
113676
108633
103360
99190.4
95389.3
91603.1
88494.4
85473.1
83038.8
80582.4
78515.9
76412
74689.7
72981.3
71594.8
70196.1
69056.8
67908.5
66972.7
66031
65180.1
64437.6
63687.2
62961.6
62348.1
61715.7
61135.7
60548.9
60050.7
59545.4
59099.2
58646.4
58255.9
57859.3
57526.6
57188
56921
56644.5
56430.7
56211.4
56038.7
55885
55779.8
55702.5
55659.4
55669.7
55716.2
55807.8
55950.9
56147.2
56399.7
56711.1
57083.9
57521.2
58030.7
58621.2
59309.7
60105.9
61012.1
62028
63151.2
64369.5
65684
67081.5
68545.5
70063.8
71644.2
73277.9
74968.6
76700.2
78479.8
80286.8
82132.8
83983.9
85875.7
87674.3
89488.1
91148.9
92756.6
94213.6
95544.3
96719.3
97759.6
98641.7
99388.7
99991.7
100465
100820
101049
101201
101216
101167
101059
100887
100658
100374
100047
99681.4
99284.5
98856.5
98401.2
97917.6
97406.9
96871
96312.5
95735.8
95144.7
94542.1
93929.7
93310
92685.9
92059
91437
90818.7
90203.1
89595.6
88990
88393.9
87796.7
87205.1
86613.7
86024.3
85432.5
84841.1
84249.8
83663.4
83078.7
82501.8
81931.6
81371.6
80816.6
80266.7
79728
79194.3
78670.1
78150.1
77634.6
77124
76616.3
76112.2
75610.3
75114.4
74622.8
74136.8
73655.2
73180.9
72714.4
72258.3
71807.8
71366.7
70931.5
70508.9
70086.3
69667.5
69253
68842.9
68436.6
68034.7
67636.9
67245.1
66857.5
66476.8
66101
65733.9
65372.4
65019.7
64675.2
64333.4
63995.2
63664.3
63335.4
63010.8
62689.3
62372.5
62058.9
61751.2
61445.6
61147.3
60851
60564.2
60279.8
59872.5
790323
184102
144426
135535
130532
126412
122656
119251
116491
114591
113705
113847
115368
118556
123672
131100
141218
154587
171780
193343
219075
248951
281357
315836
348267
379284
405998
429274
447429
459889
467514
468945
468854
464765
457320
444932
427762
406271
379350
348458
314938
285564
258555
236333
217134
201393
187932
176597
166295
157228
148745
141168
133486
126489
119409
113189
107050
101749
96831.5
92061.3
88027.3
84935.8
81768.2
78945.9
76659.4
74467
72540.1
70556.9
68931.8
67369.8
66174.4
65011.7