/*--------------------------------*- C++ -*----------------------------------*\
| =========                 |                                                 |
| \\      /  F ield         | OpenFOAM: The Open Source CFD Toolbox           |
|  \\    /   O peration     | Version:  2312                                  |
|   \\  /    A nd           | Website:  www.openfoam.com                      |
|    \\/     M anipulation  |                                                 |
\*---------------------------------------------------------------------------*/
FoamFile
{
    version     2.0;
    format      ascii;
    arch        "LSB;label=32;scalar=64";
    class       volScalarField;
    location    "0.006";
    object      p;
}
// * * * * * * * * * * * * * * * * * * * * * * * * * * * * * * * * * * * * * //

dimensions      [1 -1 -2 0 0 0 0];

internalField   nonuniform List<scalar> 
48128
(
3499.4
3499.91
3488.7
3476.52
3475.64
3471.8
3469.21
3465.06
3458.03
3446.54
3439.18
3424.72
3419.89
3402.16
3374.55
3341.12
3315.67
3295.57
3281.33
3273.12
3270.96
3273.73
3281.38
3294.33
3312.96
3337.51
3368.5
3408.27
3455.09
3509.96
3572.81
3644.69
3725.44
3815.87
3915.01
4024.21
4143.21
4272.71
4410.05
4559.23
4717.93
4885.54
5062.33
5248.45
5440.54
5644.23
5849.7
6069.33
6288.84
6520.85
6750.54
6993.06
7232.4
7480.57
7723.99
7974.07
8221.07
8465.62
8708.84
8947.13
9181.43
9409.77
9632.56
9849
10058.4
10260
10453.2
10638.7
10816.9
10983.1
11143.8
11290.8
11432.7
11564.4
11684.8
11799.5
11899.5
11998.6
12082.9
12167.6
12240
12314.6
12374.8
12435.3
12484.6
12535
12576.5
12619.7
12655.3
12691.7
12720.8
12751.1
12775.4
12799.2
12815.6
12827.7
12832.9
12838.9
12847.5
12859.3
12872.3
12885.4
12893.2
12898.8
12903.2
12907.8
12913.1
12919
12925.1
12931.7
12939.5
12949
12961
12974.8
12990.3
13006.2
13021.2
13024.4
13021.9
13006.5
12981
13024.7
13029.5
13027.1
13057.9
13081.3
13103.2
13124.8
13142.3
13156.5
13167
13175.5
13182.8
13187.3
13190.5
13190.3
13190.8
13192.9
13196
13199.6
13203.6
13208.7
13214.6
13221.4
13229.6
13239.5
13250.7
13262.7
13273.4
13284.3
13293.6
13303.3
13313.5
13323.5
13332.9
13339.8
13345.2
13345.1
13342.4
13338.3
13331.7
13324
13324.2
13322.1
13322.2
13325.3
13330.5
13338.7
13348.1
13358.8
13369.1
13379.1
13387
13394.4
13397.8
13399.2
13397.6
13394.9
13389.3
13383.2
13379
13376.2
13374.7
13377.3
13381.7
13386.9
13393.9
13402.3
13411.2
13419.2
13425.5
13428
13430.1
13428
13425.2
13420.2
13415.7
13411.9
13409
13408.4
13409.3
13411.9
13416.9
13423.5
13430.2
13437.4
13442.8
13447.8
13452.2
13448.4
13446.3
13443.5
13438.9
13435
13431.9
13429.7
13430
13431.5
13434.2
13438
13443.4
13448.5
13454.3
13459
13458.9
13459.5
13458.5
13455.3
13452.5
13449.6
13447
13444.8
13444.5
13445.3
13447.2
13450
13453.8
13457.8
13462.5
13465.7
3488.73
3493.6
3486.18
3476.76
3477.67
3475.83
3475.41
3473.76
3470.23
3464.37
3461.59
3448.55
3433.56
3406.96
3375.78
3353.97
3328.74
3307.52
3292.01
3282.8
3279.69
3281.71
3288.55
3300.68
3318.47
3342.47
3373.35
3409.58
3454.52
3508.12
3569.71
3641.03
3720.61
3810.09
3908.2
4016.22
4133.4
4261.45
4397.91
4545.36
4702.14
4868.14
5042.87
5226.93
5417.3
5618.8
5822.42
6039.4
6256.68
6486.21
6714.33
6954.17
7191.58
7437.25
7679.84
7929.21
8176.21
8421.07
8663.39
8901.12
9134.92
9363.2
9586.15
9802.75
10012.3
10213.9
10407.5
10593.2
10770.5
10936.5
11097.6
11246.2
11389.2
11521.9
11643.5
11759
11860.6
11961
12046.6
12132.7
12207
12283
12344.4
12405.9
12456.7
12508.2
12551.1
12595.4
12632.4
12669.8
12699.9
12731.2
12756.5
12781.3
12798.6
12811.3
12817
12823.8
12833.3
12845.9
12859.8
12873.5
12881.9
12888
12892.8
12897.9
12903.8
12910.1
12916.7
12923.7
12931.9
12941.8
12954.1
12968.2
12984.1
13000.4
13015.5
13019
13016.5
13001.9
12975.6
13019
13025.8
13023.9
13053.3
13078
13100
13121.4
13139
13153.3
13164
13172.5
13180
13184.6
13187.9
13187.8
13188.4
13190.6
13193.9
13197.6
13201.7
13206.8
13212.9
13219.8
13228
13237.9
13249.1
13261.2
13272
13282.9
13292.3
13302.1
13312.2
13322.4
13331.8
13338.7
13344.2
13344.1
13341.6
13337.5
13331
13323.2
13323.7
13321.5
13321.7
13324.8
13329.9
13338.2
13347.6
13358.4
13368.7
13378.7
13386.6
13394.1
13397.6
13398.9
13397.4
13394.7
13389.1
13383
13378.8
13376.1
13374.5
13377.3
13381.5
13386.8
13393.8
13402.2
13411.1
13419.1
13425.5
13427.9
13430
13428
13425.2
13420.2
13415.7
13411.9
13409
13408.5
13409.3
13411.9
13417
13423.5
13430.3
13437.5
13442.9
13447.9
13452.4
13448.5
13446.4
13443.6
13439.1
13435.2
13432
13429.9
13430.1
13431.6
13434.3
13438.1
13443.5
13448.6
13454.4
13459.2
13459
13459.7
13458.7
13455.4
13452.6
13449.8
13447.2
13445
13444.7
13445.5
13447.4
13450.2
13454
13458
13462.6
13465.8
3490.39
3492.78
3486.11
3476.43
3477.38
3474.89
3473.92
3471.47
3464.73
3460.6
3446.36
3427.41
3410.29
3394.52
3364.13
3330.74
3306.81
3289.91
3277.83
3271.1
3269.85
3273.02
3280.8
3293.7
3312.25
3336.79
3368.05
3406.11
3451.87
3505.73
3567.24
3638.17
3717.29
3806.43
3904.1
4011.65
4128.04
4255.18
4390.66
4536.8
4692.73
4857.92
5031.74
5215.15
5404.71
5605.66
5808.48
6024.81
6241.08
6469.78
6697.04
6936.41
7172.96
7418.11
7659.97
7907.54
8150.83
8393.1
8634.76
8872.19
9105.86
9334.35
9557.78
9775.03
9985.21
10187.3
10381.6
10568
10746.5
10914
11076.2
11226
11370.3
11503.8
11626.4
11742.6
11845.2
11946.6
12032.7
12119.7
12195.4
12272.5
12334.5
12396.5
12447.7
12499.7
12543
12588
12625.4
12663.2
12693.6
12725.4
12751
12776.3
12793.7
12806.5
12812.3
12819.4
12829.2
12842.1
12856.4
12870.2
12878.6
12884.8
12889.8
12895.1
12901.1
12907.6
12914.3
12921.5
12929.8
12939.8
12952.2
12966.4
12982.4
12998.8
13013.7
13017.3
13014.4
13000.8
12974.9
13015.1
13024.5
13024.8
13051.6
13077
13099.4
13120.4
13137.8
13152.2
13163
13171.6
13179
13183.7
13186.9
13186.9
13187.7
13189.9
13193.2
13196.9
13201.1
13206.2
13212.3
13219.2
13227.4
13237.3
13248.6
13260.6
13271.5
13282.4
13291.8
13301.6
13311.8
13322
13331.4
13338.2
13343.7
13343.5
13341.1
13337.1
13330.7
13323
13323.2
13321.2
13321.5
13324.6
13329.7
13338
13347.4
13358.2
13368.4
13378.5
13386.4
13393.8
13397.3
13398.6
13397.2
13394.4
13389
13382.8
13378.6
13376
13374.4
13377.3
13381.4
13386.7
13393.7
13402.1
13411
13419
13425.3
13427.8
13429.9
13428
13425.1
13420.1
13415.6
13411.9
13409
13408.4
13409.3
13412
13416.9
13423.5
13430.3
13437.4
13442.9
13447.8
13452.3
13448.7
13446.3
13443.5
13439.1
13435.1
13432
13429.9
13430.2
13431.7
13434.3
13438.1
13443.5
13448.7
13454.4
13459.2
13459.1
13459.6
13458.7
13455.5
13452.6
13449.8
13447.2
13445
13444.7
13445.5
13447.4
13450.2
13454
13458
13462.6
13465.8
3489.53
3489.04
3485.39
3475.44
3476.46
3473.98
3472.88
3472.47
3465.78
3450.05
3432.3
3414.71
3395.15
3368
3345.52
3321.86
3302.11
3287.04
3276.32
3270.33
3269.57
3272.93
3280.73
3293.63
3311.96
3336.12
3366.74
3404.22
3449.18
3502.12
3562.84
3632.82
3710.86
3799.07
3895.48
4001.88
4116.4
4242.38
4376.33
4520.67
4675.15
4838.65
5010.65
5192.68
5380.37
5579.78
5780.47
5995.26
6209.94
6437.34
6662.82
6901.29
7136.23
7380.5
7621.23
7868.92
8112.2
8354.38
8595.6
8832.58
9065.68
9294.16
9517.78
9735.63
9946.34
10148.7
10343
10529.8
10708.5
10876.8
11040
11190.7
11336.8
11470.7
11594.7
11711.1
11814.8
11917.4
12003.9
12091.8
12169.1
12247.8
12310.4
12373.5
12425.8
12479.1
12523.5
12569.7
12608.2
12647.1
12678.3
12711.1
12737.5
12763.8
12781.9
12795.2
12801.5
12809.4
12820
12833.6
12848.5
12862.7
12871.4
12878.2
12883.6
12889.4
12895.8
12902.7
12909.7
12917.2
12925.8
12936.1
12948.6
12963
12979.1
12995.6
13010
13014
13010.4
12998.7
12974.6
13008.5
13021.9
13025.9
13049.3
13075.1
13097.9
13118.4
13135.6
13150.2
13161.1
13169.9
13177.3
13181.9
13185.3
13185.4
13186.4
13188.7
13192
13195.7
13200
13205.2
13211.4
13218.4
13226.6
13236.5
13247.7
13259.8
13270.6
13281.6
13291
13301
13311.2
13321.3
13330.6
13337.4
13342.8
13342.6
13340.4
13336.4
13330.3
13322.6
13322.5
13321
13321.4
13324.4
13329.5
13337.8
13347.2
13357.9
13368.1
13378.1
13386
13393.4
13396.8
13398.1
13396.8
13394.1
13388.7
13382.7
13378.4
13375.9
13374.4
13377.2
13381.2
13386.7
13393.7
13402
13410.9
13418.8
13425.2
13427.6
13429.7
13427.9
13424.9
13420
13415.6
13411.8
13409
13408.5
13409.4
13412
13417
13423.5
13430.3
13437.4
13442.9
13447.7
13452.1
13448.8
13446.2
13443.4
13439.1
13435.1
13432
13429.9
13430.2
13431.7
13434.4
13438.2
13443.6
13448.7
13454.3
13459.2
13459.2
13459.6
13458.6
13455.5
13452.6
13449.8
13447.2
13445.1
13444.8
13445.6
13447.5
13450.3
13454.1
13458.1
13462.7
13465.8
3490.63
3486.2
3484.73
3475.46
3476.35
3472.67
3473.42
3467.55
3455.61
3437.46
3419.49
3397.74
3378.81
3354.83
3334.26
3312.77
3295.82
3282.76
3273.57
3268.46
3268.19
3271.75
3279.63
3292.39
3310.36
3334.09
3364.09
3400.92
3445.13
3497.35
3557.25
3626.38
3703.41
3790.9
3886.25
3991.85
4104.81
4230.12
4362.83
4505.83
4659.63
4821.97
4992.52
5173.95
5360.58
5560.03
5759.67
5974.28
6188.03
6415.16
6639.05
6878.23
7112.32
7356.57
7595.98
7845.07
8087.62
8330.08
8570.76
8807.57
9040.65
9269.11
9493.61
9712.14
9923.68
10125.7
10319.7
10506.7
10684.4
10853.5
11016.9
11168.3
11316.1
11449.9
11575.1
11691
11795.6
11899
11985.4
12074
12152.7
12232.6
12295.5
12359.2
12412.1
12466.2
12511
12558.1
12597
12636.6
12668.1
12701.6
12728.3
12755.2
12773.5
12787
12793.6
12802.3
12813.4
12827.4
12842.5
12856.7
12865.5
12872.7
12878.5
12884.6
12891.2
12898.2
12905.4
12913.3
12922.2
12932.8
12945.6
12960.1
12976.3
12992.6
13006.3
13010.6
13006.5
12997.1
12975.6
13002.5
13019.7
13027.9
13047.9
13073.6
13096.6
13116.6
13133.6
13148.3
13159.4
13168.3
13175.7
13180.4
13183.8
13184.2
13185.4
13187.8
13191
13194.8
13199.2
13204.4
13210.6
13217.7
13225.9
13235.9
13247.1
13259
13269.9
13280.8
13290.3
13300.4
13310.6
13320.6
13329.9
13336.5
13341.8
13341.6
13339.6
13335.7
13330.1
13322.4
13321.9
13320.9
13321.4
13324.4
13329.4
13337.7
13347
13357.6
13367.8
13377.8
13385.6
13392.9
13396.2
13397.6
13396.3
13393.6
13388.4
13382.5
13378.3
13375.9
13374.6
13377.2
13381.2
13386.7
13393.7
13402
13410.7
13418.6
13424.9
13427.3
13429.5
13427.5
13424.6
13419.8
13415.5
13411.8
13409
13408.6
13409.5
13412.1
13417
13423.5
13430.3
13437.3
13442.8
13447.5
13451.7
13448.9
13446.2
13443.2
13439.1
13435.1
13432.1
13430
13430.4
13431.8
13434.5
13438.3
13443.6
13448.8
13454.2
13459.1
13459.3
13459.5
13458.6
13455.6
13452.7
13449.9
13447.3
13445.2
13445
13445.7
13447.6
13450.4
13454.2
13458.2
13462.7
13465.8
3492.3
3486.98
3485.94
3475.64
3475.96
3474.08
3469.56
3459.78
3444.32
3426.1
3405.65
3386.13
3365.31
3342.87
3324.02
3305.46
3290.6
3279
3270.92
3266.44
3266.41
3270.13
3277.94
3290.48
3307.93
3331.15
3360.45
3396.7
3440.09
3491.66
3550.76
3619.12
3695.07
3781.99
3876.28
3981.27
4092.57
4217.61
4349.21
4491.02
4644.81
4806.88
4976.74
5158.22
5343.11
5542.58
5741.26
5956.76
6170.16
6398.15
6621.41
6862.52
7095.62
7340.49
7577.87
7832.11
8071.24
8313.96
8554.83
8789.56
9024.65
9251.37
9478.49
9697.65
9910.23
10110.9
10304.7
10491.8
10667.8
10837.8
11000.9
11152.9
11302.2
11435.2
11561.4
11675.9
11781.4
11885.2
11971
12060.2
12139.9
12220.3
12282.3
12346
12399.3
12454.2
12499.4
12547.6
12586.8
12626.9
12658.7
12693.1
12719.9
12747.4
12765.7
12779.4
12786.5
12796.4
12808.2
12822.4
12837.4
12851.3
12860.2
12868
12874.1
12880.7
12887.6
12894.7
12902.1
12910.3
12919.5
12930.4
12943.3
12957.7
12974
12989.7
13002.1
13006.8
13002.3
12995.3
12977.8
12997.2
13017.6
13029.9
13047.3
13072.1
13095
13114.4
13131.1
13145.9
13157.3
13166.5
13173.9
13178.6
13182.1
13182.9
13184.6
13187.1
13190.2
13194
13198.5
13203.8
13210.1
13217.3
13225.5
13235.5
13246.5
13258.3
13269.1
13280.1
13289.7
13300
13310
13320
13329.1
13335.5
13340.6
13340.3
13338.7
13335
13329.8
13322.3
13321.4
13320.9
13321.7
13324.7
13329.6
13337.7
13346.9
13357.4
13367.5
13377.4
13385.1
13392.3
13395.5
13397
13395.7
13393.1
13388.1
13382.5
13378.3
13376
13374.8
13377.2
13381.2
13386.8
13393.9
13402
13410.5
13418.3
13424.5
13427
13429.2
13427.1
13424.4
13419.6
13415.4
13411.8
13409.1
13408.8
13409.8
13412.3
13417.1
13423.6
13430.3
13437.2
13442.7
13447.2
13451.3
13449
13446.1
13443.1
13439.1
13435.2
13432.1
13430.2
13430.5
13432
13434.7
13438.4
13443.6
13448.8
13454.1
13459
13459.4
13459.4
13458.4
13455.6
13452.7
13449.9
13447.4
13445.3
13445.1
13445.9
13447.7
13450.6
13454.3
13458.2
13462.7
13465.8
3496.57
3489
3487.77
3475.8
3477.39
3472.59
3463.89
3450.62
3433.95
3414.89
3395.71
3374
3353.3
3332.83
3315.25
3298.82
3285.48
3275.08
3267.91
3263.99
3264.11
3268.03
3275.56
3287.75
3304.66
3327.38
3355.99
3391.67
3434.24
3485.3
3543.52
3611.24
3686.08
3772.68
3865.91
3970.73
4080.49
4205.87
4336.54
4476.61
4631.35
4793.76
4963.41
5145.54
5328.91
5528.45
5726.28
5942.65
6155.01
6383
6605.6
6849.87
7079.89
7325.73
7557.98
7824.4
8056.56
8293.87
8540.62
8769.17
9007.13
9230.02
9461.22
9680.35
9895.96
10094.4
10287.8
10475.2
10650.5
10822.5
10985.4
11139.2
11290.3
11422.7
11550.1
11663.1
11770.2
11874.2
11959.6
12049.9
12130.9
12211.3
12272.3
12336.2
12389.7
12445.4
12490.8
12540
12579.2
12620
12651.7
12686.4
12712.4
12740.2
12758.3
12772.2
12780.3
12791.9
12804.4
12818.9
12833.4
12846.6
12855.6
12864.1
12870.8
12877.9
12885
12892.2
12899.7
12908.3
12917.9
12929.1
12942.1
12956.4
12972.7
12987.2
12997.9
13002.9
12998.4
12994.1
12981.2
12993.9
13015.9
13032.5
13048.7
13071.2
13093.6
13112.4
13128.9
13143.8
13155.4
13164.9
13172.2
13176.9
13180.5
13181.8
13184.1
13186.6
13189.6
13193.4
13198
13203.4
13209.7
13217
13225.3
13235.2
13246.1
13257.7
13268.5
13279.3
13289.1
13299.7
13309.6
13319.4
13328.2
13334.4
13339.3
13338.9
13337.7
13334.2
13329.8
13322.5
13320.9
13321.2
13322.2
13325.2
13330
13337.9
13347
13357.3
13367.1
13377
13384.7
13391.6
13394.6
13396.4
13394.9
13392.5
13387.8
13382.6
13378.4
13376.3
13375.3
13377.4
13381.5
13387.1
13394.1
13402
13410.3
13417.9
13424
13426.6
13428.9
13426.6
13424.1
13419.4
13415.4
13411.9
13409.2
13409.2
13410.1
13412.6
13417.3
13423.8
13430.3
13437.1
13442.6
13446.9
13450.8
13449
13446
13442.9
13439.1
13435.2
13432.3
13430.4
13430.8
13432.2
13434.9
13438.6
13443.7
13448.9
13453.9
13458.7
13459.4
13459.2
13458.3
13455.6
13452.7
13449.9
13447.5
13445.4
13445.3
13446.1
13447.9
13450.7
13454.4
13458.3
13462.7
13465.7
3503.8
3490.73
3491.94
3481.06
3477.87
3469.5
3457.41
3442.26
3424.81
3406.2
3384.99
3363.21
3343.11
3324.25
3307.72
3292.89
3280.74
3271.29
3264.83
3261.44
3261.5
3265.45
3272.58
3284.42
3300.76
3323
3350.87
3386.05
3427.77
3478.38
3535.68
3602.91
3676.66
3763.5
3855.47
3959.78
4068
4194.73
4325.43
4463.63
4618.7
4780.98
4950.53
5133.31
5315.54
5514.45
5711.08
5928.21
6137.04
6362.85
6580.33
6832.84
7054.99
7301.41
7524.37
7803.72
8031.64
8258.76
8510.1
8732.64
8970.74
9190.86
9426.17
9645.51
9865.05
10062
10253.3
10441.3
10615.7
10791.1
10953.6
11111
11264.5
11397.1
11527.3
11638.9
11749.6
11853.6
11940.3
12033
12115.9
12197.7
12259.1
12325.3
12378.9
12436.9
12482
12533.8
12571.5
12614.6
12645.4
12681.7
12705.3
12734.2
12750.6
12766.2
12775.1
12790
12801.5
12816.1
12829.2
12841.9
12850.9
12860.5
12867.7
12875.5
12882.9
12890.2
12898
12907.2
12916.9
12928.8
12941.6
12955.9
12972.1
12984.7
12993.1
12998.1
12994
12993.6
12985.4
12993.5
13014.9
13034.8
13051.5
13071.5
13092.1
13110.4
13126.5
13141.7
13153.4
13163.4
13170.4
13175.2
13179.1
13180.9
13184.1
13186.5
13189.4
13193.3
13197.8
13203.3
13209.7
13217.2
13225.5
13235.4
13246
13257.3
13267.8
13278.8
13288.5
13299.7
13309.1
13319
13327.2
13333.3
13337.6
13337.3
13336.8
13333.4
13329.4
13323.1
13321.1
13321.6
13322.9
13326
13330.7
13338.4
13347.4
13357.3
13366.8
13376.5
13384.1
13390.8
13393.6
13395.8
13393.9
13391.9
13387.6
13382.8
13378.7
13376.6
13375.9
13377.9
13381.9
13387.5
13394.5
13402.2
13410.2
13417.5
13423.4
13426.2
13428.3
13426.1
13423.6
13419.4
13415.5
13412.1
13409.6
13409.6
13410.6
13413
13417.6
13424
13430.4
13437
13442.4
13446.4
13450.2
13448.9
13445.8
13442.7
13439.1
13435.4
13432.5
13430.7
13431.1
13432.5
13435.2
13438.8
13443.8
13448.9
13453.7
13458.5
13459.5
13459.1
13458.1
13455.7
13452.8
13450
13447.6
13445.6
13445.5
13446.3
13448.1
13450.9
13454.5
13458.3
13462.7
13465.6
3512.19
3493
3497.49
3486.04
3477.78
3465.82
3451.59
3435.38
3417.82
3397.22
3375.36
3353.98
3334.65
3316.99
3301.39
3287.73
3276.5
3267.82
3261.89
3258.76
3258.61
3262.5
3269.24
3280.68
3296.41
3318.19
3345.25
3380.03
3420.8
3471.15
3527.77
3594.62
3666.39
3753.38
3844.79
3949.45
4056.18
4183.41
4313.89
4451.37
4606.72
4767.45
4936.65
5116.48
5296.71
5493.19
5686.85
5907.98
6109.1
6333.11
6537.6
6802.34
7015.21
7261.17
7470.37
7754.46
7991.84
8205.13
8453.39
8669.47
8909.16
9125.7
9364.53
9585.65
9808.27
10005.7
10194.3
10383.5
10558.5
10738.3
10900.1
11064
11218.5
11352.5
11486.8
11597.7
11713.4
11819
11905.6
12006.5
12085.9
12174.6
12231.3
12308.1
12355.3
12422.8
12462.7
12523.2
12555.4
12604.9
12633.2
12674.6
12694.5
12727.5
12739.8
12759
12769.9
12789
12799.1
12814.7
12825.3
12837.2
12846.2
12857.4
12865.2
12873.6
12880.8
12888.3
12896.6
12906.4
12916.5
12929
12941.8
12955.8
12972.2
12981.5
12987.2
12991.8
12990.3
12992.9
12988.9
12996.3
13015.5
13037.6
13054.6
13072.6
13090.3
13108.4
13123.7
13139.6
13151
13162
13168.2
13173.6
13177.4
13180.2
13184.3
13186.5
13189.5
13193.4
13198
13203.6
13210.1
13217.7
13226.1
13235.9
13246.1
13257.1
13267.3
13278.4
13288.1
13299.7
13308.8
13318.6
13326.1
13332.1
13335.6
13335.6
13335.7
13332.5
13329.4
13323.5
13321.6
13322.3
13323.9
13327.1
13331.9
13339.2
13347.8
13357.3
13366.6
13376.1
13383.5
13389.7
13392.6
13394.9
13392.9
13391.1
13387.3
13383
13379.1
13377.3
13376.8
13378.6
13382.4
13388.1
13395
13402.3
13410
13417
13422.8
13425.5
13427.6
13425.6
13423.1
13419.3
13415.6
13412.4
13410
13410.1
13411.2
13413.6
13418
13424.2
13430.5
13436.9
13442.1
13445.8
13449.5
13448.7
13445.7
13442.5
13439
13435.5
13432.8
13431.1
13431.5
13432.9
13435.5
13439.1
13443.9
13449
13453.4
13458.1
13459.5
13458.8
13457.9
13455.7
13452.8
13450.1
13447.7
13445.8
13445.8
13446.6
13448.4
13451.1
13454.7
13458.4
13462.6
13465.4
3520.61
3497.96
3501.69
3489.28
3477.09
3462.59
3446.86
3430.03
3411.45
3389
3367.14
3346.34
3327.77
3311.01
3296.21
3283.43
3272.9
3264.75
3259.08
3256.02
3255.7
3259.36
3265.69
3276.71
3291.75
3313.13
3339.37
3373.86
3413.9
3463.69
3518.72
3585.75
3656.11
3743.54
3834.26
3939.37
4044.93
4172.11
4300.54
4436.36
4591.88
4747.4
4917.54
5090.51
5267.62
5466.23
5647.46
5877.08
6065.78
6288.88
6474.19
6743.96
6948.44
7197.01
7394.29
7661.54
7927.43
8132.22
8365.89
8575.7
8812.68
9027.29
9265.66
9493.08
9714.69
9916.48
10103.2
10292.1
10469.8
10654.4
10817.6
10988.5
11148.5
11281.1
11423.8
11534
11657.8
11768.2
11851.9
11971.9
12037.8
12135.8
12192.5
12282.1
12322
12399.7
12435.9
12503
12533.1
12585.6
12616
12658.1
12679.9
12712.6
12724.2
12746
12761.9
12784.2
12795.1
12811
12820.1
12831
12840.8
12853.4
12862.2
12871.4
12878.9
12886.8
12895.6
12906
12916.8
12929.3
12942.2
12956.3
12971.4
12977.1
12980.7
12984.2
12986.7
12992.2
12993.8
13000.3
13018
13040.9
13057.6
13073.1
13089.1
13106
13120.9
13136.7
13148.6
13160
13165.8
13171.7
13175.7
13179.6
13184.5
13186.7
13189.8
13193.7
13198.5
13204.1
13210.7
13218.3
13227
13236.6
13246.4
13256.9
13266.9
13277.9
13287.9
13299.7
13308.7
13317.9
13325
13330.6
13333.5
13333.9
13334.3
13331.7
13329.1
13324.4
13322.5
13323.3
13325.2
13328.5
13333.1
13340.1
13348.4
13357.4
13366.4
13375.5
13382.7
13388.8
13391.4
13393.7
13392
13390.3
13387.1
13383.4
13379.8
13378.1
13377.9
13379.5
13383.2
13388.7
13395.5
13402.5
13409.8
13416.4
13422
13424.7
13426.9
13425
13422.6
13419.2
13415.7
13412.7
13410.6
13410.8
13411.9
13414.3
13418.5
13424.4
13430.6
13436.8
13441.7
13445.1
13448.8
13448.4
13445.5
13442.3
13439
13435.7
13433.1
13431.5
13431.9
13433.3
13435.9
13439.5
13444.1
13449
13453.1
13457.7
13459.5
13458.6
13457.6
13455.6
13452.9
13450.2
13447.9
13446.1
13446.1
13446.9
13448.7
13451.4
13454.8
13458.5
13462.6
13465.3
3527.47
3503.09
3504.61
3491.33
3476.79
3460.53
3443.78
3425.71
3404.93
3382.15
3360.3
3340.27
3322.36
3306.31
3292.16
3280
3269.94
3262.08
3256.45
3253.45
3252.93
3256.17
3262.05
3272.66
3286.95
3308.13
3333.7
3367.6
3405.93
3455.76
3509.42
3577.28
3646.78
3734.69
3824.03
3928.2
4032.15
4158.42
4281.98
4414.67
4576.76
4717.08
4882.48
5056.74
5222.89
5428.37
5590.11
5824.02
5999.52
6224.17
6388.96
6648.41
6846.08
7097.61
7293.72
7530.23
7811.82
8012.7
8234.05
8443.37
8669.79
8896.5
9130.84
9358.76
9574.25
9794.15
9973.11
10175.4
10344.3
10543.5
10703.9
10882.8
11053.5
11182.5
11343.1
11445.7
11585.1
11684.8
11792.1
11924.7
11974.7
12081.7
12142.6
12240.2
12280.6
12364.1
12403.1
12472.8
12506.9
12560.6
12593.9
12638.7
12658.8
12693.2
12706.6
12731.2
12751.1
12777.3
12789
12805.5
12812.8
12822.8
12833
12847.1
12857.3
12867.8
12875.9
12884.6
12894.4
12905.5
12916.9
12929.8
12942.6
12956.2
12968.6
12971.2
12972.9
12976.4
12982.4
12992
12999.1
13007.2
13022.3
13043.5
13060.1
13073.7
13087.7
13103.3
13117.8
13133.5
13145.1
13157.4
13162.9
13169.5
13173.8
13178.8
13184.7
13187
13190.2
13194.3
13199.1
13204.9
13211.6
13219.4
13228.1
13237.4
13246.8
13256.8
13266.7
13277.5
13287.9
13299.8
13308.2
13317.3
13323.4
13328.6
13331.3
13332
13332.6
13330.7
13328.9
13325.4
13323.7
13324.6
13326.7
13330.2
13334.8
13341.3
13349.1
13357.6
13366.2
13375
13381.7
13387.4
13390
13392.5
13391
13389.3
13386.8
13383.8
13380.6
13379.2
13379.2
13380.6
13384.1
13389.6
13396.1
13402.8
13409.7
13415.7
13421.1
13423.9
13426
13424.2
13422.1
13419.1
13416
13413.2
13411.3
13411.6
13412.7
13415.1
13419.2
13424.8
13430.7
13436.6
13441.3
13444.4
13447.9
13448
13445.3
13442.2
13439
13436
13433.6
13432.1
13432.5
13433.8
13436.4
13439.9
13444.3
13449
13452.8
13457.2
13459.3
13458.2
13457.3
13455.6
13452.9
13450.3
13448.1
13446.5
13446.5
13447.3
13449
13451.7
13455
13458.6
13462.5
13465.1
3533.96
3508.58
3507.15
3492.85
3476.35
3459.31
3439.99
3422.54
3399.51
3376.63
3354.99
3335.66
3318.33
3302.85
3289.2
3277.45
3267.63
3259.85
3254.22
3251.16
3250.35
3253.07
3258.46
3268.78
3282.39
3303.22
3327.28
3361.05
3397.84
3448.58
3501.52
3569.76
3637.86
3725.48
3812.39
3913.22
4015.87
4142.26
4257.41
4379.87
4553.94
4676.61
4822.44
5016.23
5160.12
5367.01
5510.62
5741.17
5904.08
6128.96
6276.24
6509.61
6695.01
6940.01
7149.99
7369.3
7629.15
7858.81
8059.98
8273.04
8488.17
8734.11
8941.63
9196.06
9376.69
9637.31
9790.79
10034.8
10179.7
10411
10551.8
10752.8
10904
11070.7
11224.3
11342.1
11500.5
11576.2
11723.4
11841.7
11898.4
12018.8
12077.3
12179.7
12228.1
12318.4
12360.8
12434
12471.2
12530
12561.6
12610.1
12631.4
12669.4
12684.2
12713.4
12736.9
12767.6
12781
12798.9
12804.9
12814.9
12825.5
12841.3
12852.4
12863.9
12872.9
12882.7
12893.4
12904.9
12916.8
12930.3
12942.7
12955.2
12963.5
12963.5
12963.8
12968.4
12977.7
12991.6
13005.6
13015
13027.6
13046.2
13062.3
13073.9
13086.2
13100.4
13114.3
13129.3
13141
13153.8
13159.4
13166.8
13171.7
13177.8
13184.7
13187.2
13190.7
13194.9
13199.9
13205.8
13212.7
13220.6
13229.3
13238.4
13247.2
13256.7
13266.4
13277
13287.8
13299.8
13307.6
13316.4
13321.6
13326.3
13328.8
13329.8
13330.8
13329.5
13328.6
13326.6
13325.2
13326.2
13328.5
13332.1
13336.7
13342.7
13349.9
13357.9
13366
13374.3
13380.4
13386
13388.4
13390.9
13389.7
13388.4
13386.5
13384.2
13381.6
13380.4
13380.6
13382
13385.4
13390.6
13396.8
13403.1
13409.5
13415
13420
13422.8
13425
13423.4
13421.5
13419
13416.2
13413.8
13412.2
13412.5
13413.7
13416.1
13420
13425.2
13430.8
13436.4
13440.8
13443.6
13447
13447.5
13445
13442
13439
13436.3
13434.1
13432.7
13433.1
13434.4
13437
13440.4
13444.5
13449
13452.5
13456.7
13459.1
13457.9
13457
13455.5
13453
13450.4
13448.4
13446.9
13446.9
13447.7
13449.4
13452.1
13455.2
13458.6
13462.4
13464.8
3535.76
3513.43
3507.07
3492.29
3475.51
3457.28
3438.13
3418.74
3395.17
3372.37
3351.22
3332.49
3315.64
3300.61
3287.28
3275.75
3265.97
3258.14
3252.51
3249.19
3248.04
3250.23
3255.04
3265.26
3277.49
3298.1
3320.77
3355.33
3391.42
3442.73
3494.48
3562.14
3628.18
3714.3
3797.43
3891.27
3991.86
4125.2
4227.12
4328.06
4502.75
4627.59
4748.37
4948.89
5072.89
5277.31
5407.16
5623.17
5767.73
5986.78
6130.56
6340.08
6518.59
6736.49
6951.51
7167.99
7393.31
7651.92
7829.85
8082.91
8261.85
8540.44
8709.52
8991.37
9137.99
9433.61
9578.73
9855.17
9992.42
10249.6
10376.7
10605.7
10725.8
10938.3
11056.2
11234.4
11379.9
11461.2
11630
11720.2
11812.4
11953.7
11995.7
12105.1
12158.7
12261.1
12305.2
12385.8
12423.7
12490.6
12518.9
12573
12592.7
12635.6
12655.1
12690.5
12716.1
12751.2
12766
12787.2
12792.2
12804.2
12816.1
12833.4
12844.4
12858.1
12869.3
12881.1
12893.1
12905.4
12918.4
12932.9
12944.7
12954.8
12958.3
12955.9
12956.1
12962.2
12974.1
12992.3
13011.5
13023.7
13034.5
13049.4
13063.6
13073.8
13084.5
13096.9
13109.6
13124.3
13135.8
13149.1
13155.3
13163.5
13169.3
13176.7
13184.4
13187.4
13191.2
13195.6
13200.7
13206.8
13213.9
13222
13230.6
13239.3
13247.6
13256.6
13266.1
13276.6
13287.5
13299.6
13306.7
13315.2
13319.3
13323.5
13325.9
13327.3
13328.6
13328.1
13328.4
13327.8
13327
13328.1
13330.6
13334.3
13338.8
13344.4
13350.9
13358.2
13365.7
13373.5
13379
13384.3
13386.6
13389.1
13388.3
13387.3
13386.1
13384.7
13382.7
13381.8
13382.2
13383.6
13386.8
13391.8
13397.6
13403.4
13409.3
13414.1
13418.9
13421.7
13423.8
13422.4
13420.8
13418.8
13416.6
13414.5
13413.2
13413.5
13414.8
13417.3
13420.9
13425.7
13430.9
13436.2
13440.2
13442.8
13445.9
13446.8
13444.6
13441.8
13439.1
13436.6
13434.7
13433.4
13433.8
13435.1
13437.6
13440.9
13444.8
13449
13452.1
13456.2
13458.8
13457.5
13456.6
13455.4
13453
13450.6
13448.7
13447.3
13447.4
13448.2
13449.9
13452.4
13455.5
13458.7
13462.3
13464.6
3534.19
3513.94
3505.95
3490.92
3474.15
3455.18
3437.28
3415.66
3392.02
3369.36
3348.91
3330.67
3314.19
3299.5
3286.33
3274.85
3264.98
3257.14
3251.28
3247.62
3246.07
3247.88
3251.7
3261.61
3272.54
3293.72
3315.84
3351.16
3386.3
3437.44
3487.08
3552.28
3615.82
3699.47
3778.39
3860.93
3951.06
4096.59
4193.56
4270.23
4406.41
4570
4662.71
4849.85
4958.78
5153.51
5270.54
5471.1
5604.3
5804.34
5944.33
6140.38
6306.38
6512.57
6704.8
6937.81
7116.26
7376.33
7551.65
7848.13
8017.57
8314.41
8449.84
8747.1
8878.52
9182.67
9327.97
9631.89
9766.33
10050.5
10173.5
10429.6
10536.3
10778.8
10886.1
11097
11227.7
11368.8
11540.8
11589.5
11732.2
11879.7
11913.6
12036.3
12093.4
12204
12247.6
12338.7
12377.1
12451.2
12475.3
12534.8
12551.8
12602.5
12623.3
12668.3
12690.8
12729.2
12743.8
12768.8
12774.9
12790.1
12801.7
12820.5
12830.9
12847.6
12860.8
12875.3
12889.1
12902.6
12917.2
12932.4
12943
12951.2
12950.1
12946.3
12948.6
12957.7
12973.1
12994.4
13019.3
13034.2
13043.9
13054.4
13065.4
13075
13084.2
13094.8
13105.9
13119.7
13130.6
13144.3
13151.3
13160.5
13167
13175.2
13183.6
13187.4
13191.8
13196.5
13201.9
13208.1
13215.4
13223.4
13231.9
13240.1
13248
13256.5
13265.8
13276.1
13287.1
13299
13305.5
13313.5
13316.6
13320.2
13322.6
13324.4
13326.2
13326.6
13328
13329.1
13329
13330.2
13332.9
13336.7
13341.1
13346.2
13351.9
13358.5
13365.3
13372.5
13377.3
13382.2
13384.5
13387.1
13386.6
13386.1
13385.7
13385.2
13383.9
13383.4
13383.9
13385.4
13388.4
13393.1
13398.4
13403.7
13409
13413.1
13417.6
13420.3
13422.3
13421.3
13420.1
13418.7
13416.9
13415.3
13414.2
13414.6
13416.1
13418.5
13421.9
13426.2
13431
13435.8
13439.6
13441.8
13444.7
13445.9
13444.2
13441.6
13439.2
13437
13435.3
13434.3
13434.7
13435.9
13438.3
13441.5
13445
13449
13451.8
13455.5
13458.3
13457.1
13456.3
13455.2
13453.1
13450.8
13449
13447.8
13447.9
13448.7
13450.4
13452.9
13455.7
13458.8
13462.2
13464.3
3533.55
3512.63
3504.15
3489.19
3472.53
3454.14
3435.91
3413.41
3390.02
3367.68
3347.98
3330.17
3313.95
3299.47
3286.32
3274.76
3264.77
3256.8
3250.57
3246.59
3244.43
3245.71
3248.38
3258.55
3268.92
3291.06
3312.42
3347.85
3381.3
3431
3477.31
3536.92
3598.04
3681.38
3751.64
3825.72
3894.4
4042.36
4135.7
4220.71
4305.47
4475.66
4556.03
4720.71
4816.9
4995.44
5107.62
5285.15
5405.8
5585.84
5724.55
5924.48
6068.56
6274.42
6411.47
6645.23
6762.85
6959.69
7189.53
7455.94
7664.01
7961.29
8099.77
8418.67
8560.83
8896.22
9034.2
9365.4
9506.72
9824.74
9937.57
10219.6
10329.4
10597.3
10695.2
10933.7
11026.5
11230.5
11396.6
11450.8
11619.6
11747.6
11802.1
11945
11997.1
12112.8
12158.1
12263
12303
12388.1
12412.8
12480.7
12498.1
12555.6
12581.7
12638.8
12660.3
12703.7
12718.9
12749.5
12758
12778.7
12788.9
12808
12816.8
12836.7
12851.7
12868.7
12883.7
12898.6
12914.1
12928.9
12936.6
12941.6
12937.2
12932.6
12938.7
12951.3
12969.6
12993.1
13021.5
13043.3
13050.9
13058.1
13066.8
13075.4
13083.4
13092.7
13102.2
13115.1
13125.1
13139.1
13147.3
13158
13165.8
13174.8
13183.4
13188.7
13193.5
13198.3
13203.8
13210.2
13217.7
13225.6
13233.7
13241.2
13248.8
13256.8
13265.8
13275.9
13286.6
13298.1
13303.9
13311.5
13313.5
13316.6
13319
13321.3
13323.5
13325.1
13327.6
13330.3
13331
13332.7
13335.4
13339.2
13343.5
13348.1
13353.1
13358.8
13364.7
13371.2
13375.3
13379.9
13382.1
13384.8
13384.7
13384.8
13385.2
13385.6
13385.1
13385.1
13385.9
13387.4
13390.3
13394.5
13399.2
13403.8
13408.6
13412
13416.1
13418.7
13420.7
13420
13419.3
13418.5
13417.2
13416.1
13415.4
13415.9
13417.4
13419.9
13423
13426.8
13431
13435.4
13438.8
13440.8
13443.4
13444.9
13443.6
13441.4
13439.2
13437.4
13436
13435.2
13435.5
13436.8
13439.1
13442.1
13445.3
13448.9
13451.4
13454.8
13457.7
13456.6
13455.9
13455
13453.1
13451
13449.4
13448.3
13448.5
13449.3
13450.9
13453.3
13456
13458.8
13462.1
13464
3531.11
3510.1
3501.7
3487.32
3471.18
3453.87
3434.69
3412.04
3389.17
3367.41
3348.37
3330.88
3314.8
3300.43
3287.16
3275.41
3265.29
3257.06
3250.44
3245.96
3242.78
3243.95
3245.98
3257.15
3266.76
3289.42
3309.26
3343.57
3374.11
3420.57
3463.3
3514.91
3568.49
3659.11
3714.95
3792.61
3832.38
3968.8
4044.68
4164.51
4209.99
4351.05
4423.33
4563.11
4656
4799.7
4906.21
5065.07
5177.28
5320.37
5431.91
5596.94
5712.01
5896.35
6024.56
6269.43
6420.02
6629.94
6872.98
7076.99
7384.41
7617.66
7780.92
8116.35
8249.58
8594.98
8738.14
9097.67
9237.92
9570.8
9697.53
10009.9
10127.2
10408.2
10514.6
10774.9
10876.2
11108.1
11238.5
11350.5
11540.6
11627.2
11733.3
11892.3
11934.8
12056.2
12105.4
12220.4
12256
12345.4
12368.9
12442.9
12460.7
12525.3
12551.2
12609.2
12633.5
12679.5
12687.7
12722.2
12734.1
12761.9
12772.8
12793.4
12801.1
12822.3
12838.1
12858.1
12875
12891.4
12908.3
12922.3
12927.9
12931.7
12923.8
12921
12928.8
12945.9
12967.9