/*--------------------------------*- C++ -*----------------------------------*\
| =========                 |                                                 |
| \\      /  F ield         | OpenFOAM: The Open Source CFD Toolbox           |
|  \\    /   O peration     | Version:  2312                                  |
|   \\  /    A nd           | Website:  www.openfoam.com                      |
|    \\/     M anipulation  |                                                 |
\*---------------------------------------------------------------------------*/
FoamFile
{
    version     2.0;
    format      ascii;
    arch        "LSB;label=32;scalar=64";
    class       surfaceScalarField;
    location    "0.006";
    object      phi;
}
// * * * * * * * * * * * * * * * * * * * * * * * * * * * * * * * * * * * * * //

dimensions      [1 0 -1 0 0 0 0];

oriented        oriented;

internalField   nonuniform List<scalar> 
95760
(
1.45708e-08
-1.45708e-08
1.90023e-08
-4.43161e-09
1.95988e-08
-5.96531e-10
1.8559e-08
1.03978e-09
1.72596e-08
1.29932e-09
1.57499e-08
1.50967e-09
1.41083e-08
1.64152e-09
1.2202e-08
1.9062e-09
9.20497e-09
2.99699e-09
2.54023e-09
6.66468e-09
-8.7543e-09
1.12945e-08
-2.76256e-08
1.88713e-08
-5.36521e-08
2.60265e-08
-7.71044e-08
2.34522e-08
-9.57093e-08
1.86049e-08
-1.10607e-07
1.48972e-08
-1.22343e-07
1.17365e-08
-1.32075e-07
9.73224e-09
-1.40453e-07
8.37787e-09
-1.47874e-07
7.42039e-09
-1.54586e-07
6.71263e-09
-1.60813e-07
6.22712e-09
-1.66621e-07
5.80821e-09
-1.72071e-07
5.44925e-09
-1.77178e-07
5.10748e-09
-1.81941e-07
4.76236e-09
-1.86434e-07
4.49311e-09
-1.9036e-07
3.92581e-09
-1.94096e-07
3.73656e-09
-1.97564e-07
3.46794e-09
-2.00404e-07
2.84037e-09
-2.02751e-07
2.34699e-09
-2.0463e-07
1.87893e-09
-2.05858e-07
1.22794e-09
-2.066e-07
7.42127e-10
-2.06629e-07
2.86999e-11
-2.06158e-07
-4.71907e-10
-2.04627e-07
-1.53189e-09
-2.02319e-07
-2.30924e-09
-1.99083e-07
-3.23655e-09
-1.94513e-07
-4.57073e-09
-1.88895e-07
-5.61795e-09
-1.82223e-07
-6.67163e-09
-1.74137e-07
-8.08642e-09
-1.64929e-07
-9.20834e-09
-1.54306e-07
-1.06238e-08
-1.42691e-07
-1.16161e-08
-1.29451e-07
-1.32414e-08
-1.14803e-07
-1.46476e-08
-9.83556e-08
-1.64482e-08
-8.10437e-08
-1.73121e-08
-6.1769e-08
-1.92812e-08
-4.10996e-08
-2.06836e-08
-1.82964e-08
-2.28307e-08
5.3471e-09
-2.36895e-08
3.06642e-08
-2.53697e-08
5.79088e-08
-2.72978e-08
8.64744e-08
-2.86076e-08
1.16597e-07
-3.01462e-08
1.47696e-07
-3.11044e-08
1.7982e-07
-3.21182e-08
2.1259e-07
-3.27578e-08
2.45961e-07
-3.33613e-08
2.79966e-07
-3.39993e-08
3.14618e-07
-3.46496e-08
3.50028e-07
-3.54094e-08
3.85814e-07
-3.57835e-08
4.2192e-07
-3.61027e-08
4.57951e-07
-3.60273e-08
4.93717e-07
-3.57657e-08
5.29434e-07
-3.57212e-08
5.64497e-07
-3.50703e-08
5.99683e-07
-3.51892e-08
6.34374e-07
-3.46926e-08
6.68787e-07
-3.44115e-08
7.02748e-07
-3.39583e-08
7.35768e-07
-3.30187e-08
7.6839e-07
-3.26203e-08
8.00002e-07
-3.16106e-08
8.30689e-07
-3.06868e-08
8.60202e-07
-2.95121e-08
8.89241e-07
-2.90367e-08
9.17359e-07
-2.81138e-08
9.44777e-07
-2.74149e-08
9.71057e-07
-2.62784e-08
9.96616e-07
-2.556e-08
1.02101e-06
-2.43912e-08
1.04465e-06
-2.36437e-08
1.06724e-06
-2.25946e-08
1.08921e-06
-2.19744e-08
1.11013e-06
-2.09221e-08
1.13035e-06
-2.02308e-08
1.14968e-06
-1.93265e-08
1.16842e-06
-1.87452e-08
1.1865e-06
-1.80789e-08
1.20401e-06
-1.75105e-08
1.22061e-06
-1.65969e-08
1.23629e-06
-1.5682e-08
1.2511e-06
-1.48135e-08
1.26515e-06
-1.40474e-08
1.27858e-06
-1.34349e-08
1.29162e-06
-1.30384e-08
1.30411e-06
-1.24904e-08
1.31605e-06
-1.19355e-08
1.32741e-06
-1.13635e-08
1.33822e-06
-1.08073e-08
1.34852e-06
-1.02963e-08
1.35834e-06
-9.82265e-09
1.36773e-06
-9.38959e-09
1.37668e-06
-8.94931e-09
1.38527e-06
-8.58811e-09
1.39345e-06
-8.18103e-09
1.40131e-06
-7.86493e-09
1.40886e-06
-7.54644e-09
1.41614e-06
-7.28593e-09
1.4232e-06
-7.05439e-09
1.43029e-06
-7.09543e-09
1.43686e-06
-6.57181e-09
1.44352e-06
-6.66245e-09
1.44906e-06
-5.53546e-09
1.45641e-06
-7.35731e-09
1.46054e-06
-4.12886e-09
1.46398e-06
-3.44029e-09
1.46959e-06
-5.61062e-09
1.47368e-06
-4.08816e-09
1.47786e-06
-4.17659e-09
1.48249e-06
-4.63292e-09
1.4872e-06
-4.701e-09
1.49166e-06
-4.45426e-09
1.49596e-06
-4.30419e-09
1.50008e-06
-4.11031e-09
1.50405e-06
-3.96551e-09
1.50784e-06
-3.78392e-09
1.51141e-06
-3.56598e-09
1.51476e-06
-3.35031e-09
1.51788e-06
-3.12228e-09
1.52076e-06
-2.88744e-09
1.52347e-06
-2.7052e-09
1.526e-06
-2.53261e-09
1.52841e-06
-2.41382e-09
1.53069e-06
-2.28082e-09
1.53285e-06
-2.17003e-09
1.5349e-06
-2.05214e-09
1.53687e-06
-1.97142e-09
1.53883e-06
-1.95688e-09
1.54054e-06
-1.71427e-09
1.54219e-06
-1.64644e-09
1.54365e-06
-1.46166e-09
1.54501e-06
-1.36038e-09
1.5463e-06
-1.28858e-09
1.54743e-06
-1.13687e-09
1.54848e-06
-1.05016e-09
1.54947e-06
-9.89126e-10
1.5504e-06
-9.24632e-10
1.55133e-06
-9.34945e-10
1.5521e-06
-7.63561e-10
1.55282e-06
-7.26146e-10
1.55327e-06
-4.44615e-10
1.55357e-06
-3.08039e-10
1.5538e-06
-2.28418e-10
1.55383e-06
-3.66363e-11
1.55387e-06
-4.28966e-11
1.55372e-06
1.49888e-10
1.55343e-06
2.90168e-10
1.55315e-06
2.71845e-10
1.55292e-06
2.35793e-10
1.55261e-06
3.02405e-10
1.55234e-06
2.70269e-10
1.55208e-06
2.59468e-10
1.55189e-06
1.98336e-10
1.55173e-06
1.5424e-10
1.55164e-06
9.1142e-11
1.5516e-06
4.04858e-11
1.5515e-06
1.02992e-10
1.55155e-06
-5.79391e-11
1.55126e-06
2.88876e-10
1.55113e-06
1.33018e-10
1.55086e-06
2.63185e-10
1.55045e-06
4.08443e-10
1.55004e-06
4.15817e-10
1.54936e-06
6.77764e-10
1.54873e-06
6.31585e-10
1.54793e-06
7.90603e-10
1.54742e-06
5.10272e-10
1.54676e-06
6.63602e-10
1.54614e-06
6.1982e-10
1.54556e-06
5.73131e-10
1.54503e-06
5.34373e-10
1.54456e-06
4.66041e-10
1.54417e-06
3.94038e-10
1.54382e-06
3.48226e-10
1.5435e-06
3.1916e-10
1.54296e-06
5.46812e-10
1.54267e-06
2.86289e-10
1.54216e-06
5.09024e-10
1.54166e-06
5.02528e-10
1.54096e-06
7.04572e-10
1.5402e-06
7.60091e-10
1.53935e-06
8.44813e-10
1.53854e-06
8.14941e-10
1.53769e-06
8.46683e-10
1.53694e-06
7.49623e-10
1.53619e-06
7.50254e-10
1.53549e-06
7.01964e-10
1.53485e-06
6.38898e-10
1.53425e-06
5.99694e-10
1.53372e-06
5.26795e-10
1.53329e-06
4.26657e-10
1.53256e-06
7.39515e-10
1.53217e-06
3.86546e-10
1.53166e-06
5.05775e-10
1.53093e-06
7.34278e-10
1.53025e-06
6.80045e-10
1.52945e-06
8.01732e-10
1.52856e-06
8.83185e-10
1.52761e-06
9.5296e-10
1.52671e-06
9.03589e-10
1.52579e-06
9.18682e-10
1.52494e-06
8.44589e-10
1.5241e-06
8.38552e-10
1.52333e-06
7.73105e-10
1.52261e-06
7.24256e-10
1.52193e-06
6.73546e-10
1.52123e-06
7.02981e-10
1.52067e-06
5.62003e-10
1.52006e-06
6.11304e-10
1.51931e-06
7.45406e-10
1.51863e-06
6.83949e-10
1.51783e-06
7.91453e-10
1.51696e-06
8.69962e-10
1.51604e-06
9.22603e-10
1.51503e-06
1.01272e-09
1.51405e-06
9.73246e-10
1.51308e-06
9.72259e-10
1.51214e-06
9.3903e-10
1.51127e-06
8.72576e-10
1.51042e-06
8.51693e-10
1.50965e-06
7.71537e-10
1.50894e-06
7.08834e-10
8.03227e-10
1.3126e-08
-2.76969e-08
1.69634e-08
-8.2691e-09
1.81713e-08
-1.80445e-09
1.74544e-08
1.75665e-09
1.57969e-08
2.95676e-09
1.26039e-08
4.70258e-09
7.25807e-09
6.9873e-09
-1.29069e-09
1.04549e-08
-1.4571e-08
1.62773e-08
-3.50693e-08
2.71629e-08
-6.33355e-08
3.95607e-08
-8.86957e-08
4.42315e-08
-1.07811e-07
4.51415e-08
-1.22872e-07
3.85135e-08
-1.34278e-07
3.00111e-08
-1.42615e-07
2.32335e-08
-1.49983e-07
1.91048e-08
-1.56204e-07
1.59536e-08
-1.61499e-07
1.36726e-08
-1.66121e-07
1.2042e-08
-1.70175e-07
1.07673e-08
-1.73828e-07
9.87982e-09
-1.77102e-07
9.08195e-09
-1.80028e-07
8.37523e-09
-1.82614e-07
7.69409e-09
-1.849e-07
7.04755e-09
-1.86851e-07
6.44445e-09
-1.88554e-07
5.62897e-09
-1.89606e-07
4.78886e-09
-1.90094e-07
3.95537e-09
-1.90196e-07
2.94307e-09
-1.89819e-07
1.96984e-09
-1.88816e-07
8.76463e-10
-1.87135e-07
-4.53023e-10
-1.84817e-07
-1.57604e-09
-1.81827e-07
-2.96206e-09
-1.78071e-07
-4.22821e-09
-1.73262e-07
-6.3414e-09
-1.67541e-07
-8.03036e-09
-1.60819e-07
-9.95891e-09
-1.5279e-07
-1.26002e-08
-1.43564e-07
-1.48445e-08
-1.33202e-07
-1.7033e-08
-1.21479e-07
-1.98097e-08
-1.08596e-07
-2.20921e-08
-9.41621e-08
-2.5058e-08
-7.85199e-08
-2.72591e-08
-6.11023e-08
-3.06599e-08
-4.21353e-08
-3.36151e-08
-2.12273e-08
-3.73562e-08
8.37025e-10
-3.93753e-08
2.49439e-08
-4.33896e-08
5.06121e-08
-4.63559e-08
7.84346e-08
-5.06654e-08
1.07254e-07
-5.25351e-08
1.37915e-07
-5.60632e-08
1.70611e-07
-6.00306e-08
2.04749e-07
-6.27767e-08
2.40461e-07
-6.58752e-08
2.77221e-07
-6.78686e-08
3.15128e-07
-7.00196e-08
3.53766e-07
-7.13862e-08
3.93132e-07
-7.2719e-08
4.33247e-07
-7.41092e-08
4.74123e-07
-7.55244e-08
5.15813e-07
-7.70987e-08
5.57819e-07
-7.77872e-08
6.00224e-07
-7.85055e-08
6.42794e-07
-7.8594e-08
6.8507e-07
-7.80409e-08
7.27467e-07
-7.81219e-08
7.69133e-07
-7.67426e-08
8.10789e-07
-7.68469e-08
8.51875e-07
-7.57804e-08
8.92583e-07
-7.51176e-08
9.32772e-07
-7.41456e-08
9.71991e-07
-7.22356e-08
1.01064e-06
-7.12661e-08
1.04823e-06
-6.91955e-08
1.08489e-06
-6.73511e-08
1.12034e-06
-6.49584e-08
1.15522e-06
-6.39142e-08
1.189e-06
-6.18979e-08
1.22205e-06
-6.04562e-08
1.25386e-06
-5.80839e-08
1.28485e-06
-5.65546e-08
1.31462e-06
-5.41622e-08
1.34357e-06
-5.25964e-08
1.37141e-06
-5.044e-08
1.39851e-06
-4.90745e-08
1.42454e-06
-4.69586e-08
1.44982e-06
-4.55126e-08
1.47415e-06
-4.36604e-08
1.49775e-06
-4.23532e-08
1.52052e-06
-4.08413e-08
1.54251e-06
-3.95052e-08
1.5636e-06
-3.76833e-08
1.58386e-06
-3.59502e-08
1.60338e-06
-3.43298e-08
1.62223e-06
-3.28941e-08
1.64041e-06
-3.16243e-08
1.658e-06
-3.06286e-08
1.67491e-06
-2.93949e-08
1.69119e-06
-2.82147e-08
1.70687e-06
-2.70412e-08
1.72199e-06
-2.59257e-08
1.73659e-06
-2.49e-08
1.7507e-06
-2.39244e-08
1.76432e-06
-2.30106e-08
1.77747e-06
-2.21085e-08
1.79024e-06
-2.13584e-08
1.80263e-06
-2.05644e-08
1.8147e-06
-1.99394e-08
1.82645e-06
-1.92955e-08
1.83789e-06
-1.87247e-08
1.84902e-06
-1.81878e-08
1.85976e-06
-1.78379e-08
1.86978e-06
-1.65917e-08
1.87961e-06
-1.64947e-08
1.88792e-06
-1.38522e-08
1.89888e-06
-1.83149e-08
1.90723e-06
-1.24782e-08
1.91427e-06
-1.0477e-08
1.92312e-06
-1.44615e-08
1.93159e-06
-1.25617e-08
1.93959e-06
-1.21711e-08
1.94762e-06
-1.26623e-08
1.95554e-06
-1.2618e-08
1.96307e-06
-1.19785e-08
1.97026e-06
-1.14956e-08
1.97713e-06
-1.09725e-08
1.98375e-06
-1.05845e-08
1.9901e-06
-1.01286e-08
1.99615e-06
-9.6086e-09
2.00189e-06
-9.09079e-09
2.00735e-06
-8.58488e-09
2.0126e-06
-8.13522e-09
2.01773e-06
-7.84434e-09
2.02269e-06
-7.4905e-09
2.02747e-06
-7.19597e-09
2.03207e-06
-6.88899e-09
2.03656e-06
-6.65547e-09
2.0409e-06
-6.40094e-09
2.04517e-06
-6.23415e-09
2.04932e-06
-6.11468e-09
2.05346e-06
-5.85642e-09
2.05752e-06
-5.70756e-09
2.06151e-06
-5.44991e-09
2.06535e-06
-5.19613e-09
2.06908e-06
-5.02441e-09
2.07263e-06
-4.68895e-09
2.07611e-06
-4.52742e-09
2.0795e-06
-4.38522e-09
2.08279e-06
-4.20946e-09
2.08591e-06
-4.05781e-09
2.08884e-06
-3.69082e-09
2.09148e-06
-3.36493e-09
2.09383e-06
-2.79712e-09
2.09582e-06
-2.29501e-09
2.09769e-06
-2.10756e-09
2.09925e-06
-1.59367e-09
2.10117e-06
-1.97009e-09
2.10254e-06
-1.22321e-09
2.10391e-06
-1.08472e-09
2.10539e-06
-1.20644e-09
2.10694e-06
-1.32091e-09
2.10857e-06
-1.32664e-09
2.11019e-06
-1.348e-09
2.11188e-06
-1.42768e-09
2.11348e-06
-1.40701e-09
2.11504e-06
-1.39948e-09
2.11651e-06
-1.38466e-09
2.11786e-06
-1.30383e-09
2.11907e-06
-1.10908e-09
2.12003e-06
-1.01865e-09
2.12081e-06
-4.92315e-10
2.12133e-06
-3.88402e-10
2.12167e-06
-8.44281e-11
2.12192e-06
1.62972e-10
2.12211e-06
2.20063e-10
2.12223e-06
5.61388e-10
2.12228e-06
5.75144e-10
2.12261e-06
4.63416e-10
2.12289e-06
2.26659e-10
2.12321e-06
3.42812e-10
2.12354e-06
2.86161e-10
2.12394e-06
1.67489e-10
2.1244e-06
8.15622e-11
2.12481e-06
5.33694e-11
2.12514e-06
5.88086e-11
2.12534e-06
1.58032e-10
2.12539e-06
2.61632e-10
2.12526e-06
6.80487e-10
2.12503e-06
5.184e-10
2.12462e-06
9.19107e-10
2.1241e-06
1.02604e-09
2.1235e-06
1.30045e-09
2.12285e-06
1.41244e-09
2.12225e-06
1.44994e-09
2.1217e-06
1.36373e-09
2.12122e-06
1.32572e-09
2.12089e-06
1.07416e-09
2.12058e-06
1.06098e-09
2.1203e-06
9.83087e-10
2.12004e-06
9.03581e-10
2.11979e-06
8.41747e-10
2.11937e-06
9.47591e-10
2.11912e-06
6.83464e-10
2.11811e-06
1.74658e-09
2.1175e-06
9.98961e-10
2.1168e-06
1.1992e-09
2.1158e-06
1.73337e-09
2.11481e-06
1.67779e-09
2.11377e-06
1.83867e-09
2.11271e-06
1.94225e-09
2.11168e-06
1.98421e-09
2.11072e-06
1.86286e-09
2.10983e-06
1.80871e-09
2.109e-06
1.67157e-09
2.10826e-06
1.58086e-09
2.1075e-06
1.52714e-09
2.10678e-06
1.44782e-09
2.1061e-06
1.35704e-09
2.10499e-06
1.81248e-09
2.10412e-06
1.42662e-09
2.10318e-06
1.55453e-09
2.10198e-06
1.94205e-09
2.10078e-06
1.88034e-09
2.09955e-06
2.0203e-09
2.09826e-06
2.16074e-09
2.09695e-06
2.23079e-09
2.09562e-06
2.34818e-09
2.09436e-06
2.23364e-09
2.09315e-06
2.17613e-09
2.092e-06
2.08791e-09
2.0909e-06
1.97388e-09
2.08987e-06
1.88869e-09
2.08884e-06
1.79249e-09
2.08782e-06
1.73626e-09
1.9945e-09
9.4574e-09
-3.71543e-08
1.32374e-08
-1.20492e-08
1.45367e-08
-3.1038e-09
1.3086e-08
3.20731e-09
9.70116e-09
6.34154e-09
3.4813e-09
1.09224e-08
-7.07775e-09
1.75463e-08
-2.383e-08
2.72071e-08
-4.92841e-08
4.17313e-08
-7.53024e-08
5.31811e-08
-9.52776e-08
5.95359e-08
-1.09855e-07
5.88089e-08
-1.19565e-07
5.48514e-08
-1.26047e-07
4.49951e-08
-1.32882e-07
3.68459e-08
-1.39193e-07
2.95449e-08
-1.44318e-07
2.42297e-08
-1.4863e-07
2.02661e-08
-1.5233e-07
1.73726e-08
-1.55621e-07
1.53331e-08
-1.58493e-07
1.36392e-08
-1.61039e-07
1.24253e-08
-1.6327e-07
1.13135e-08
-1.65201e-07
1.03065e-08
-1.66858e-07
9.35016e-09
-1.68142e-07
8.33238e-09
-1.68949e-07
7.25144e-09
-1.69318e-07
5.99706e-09
-1.69282e-07
4.75327e-09
-1.68703e-07
3.37652e-09
-1.67634e-07
1.87425e-09
-1.65939e-07
2.74511e-10
-1.63586e-07
-1.47638e-09
-1.60479e-07
-3.55965e-09
-1.56626e-07
-5.42913e-09
-1.51975e-07
-7.61291e-09
-1.46465e-07
-9.73848e-09
-1.39826e-07
-1.29799e-08
-1.32144e-07
-1.57124e-08
-1.23412e-07
-1.86913e-08
-1.13274e-07
-2.27379e-08
-1.01748e-07
-2.63711e-08
-8.89589e-08
-2.98222e-08
-7.4689e-08
-3.40803e-08
-5.91395e-08
-3.76419e-08
-4.1877e-08
-4.23202e-08
-2.32451e-08
-4.58913e-08
-2.62733e-09
-5.12785e-08
1.96706e-08
-5.59139e-08
4.41338e-08
-6.18192e-08
6.98857e-08
-6.51252e-08
9.79458e-08
-7.14469e-08
1.27656e-07
-7.60611e-08
1.59658e-07
-8.26662e-08
1.9268e-07
-8.55633e-08
2.27839e-07
-9.1234e-08
2.65002e-07
-9.72106e-08
3.03483e-07
-1.01273e-07
3.43713e-07
-1.06115e-07
3.84999e-07
-1.09156e-07
4.27556e-07
-1.12572e-07
4.70797e-07
-1.1462e-07
5.14829e-07
-1.16745e-07
5.59604e-07
-1.18881e-07
6.05165e-07
-1.21084e-07
6.51502e-07
-1.23437e-07
6.97941e-07
-1.24224e-07
7.4476e-07
-1.25323e-07
7.91351e-07
-1.25181e-07
8.37603e-07
-1.24292e-07
8.83693e-07
-1.24214e-07
9.28958e-07
-1.22012e-07
9.74089e-07
-1.21979e-07
1.01844e-06
-1.20127e-07
1.06235e-06
-1.19026e-07
1.10546e-06
-1.17256e-07
1.14751e-06
-1.14284e-07
1.18885e-06
-1.12607e-07
1.229e-06
-1.09337e-07
1.26813e-06
-1.06483e-07
1.30601e-06
-1.02835e-07
1.34316e-06
-1.01068e-07
1.37909e-06
-9.78174e-08
1.41408e-06
-9.5441e-08
1.44771e-06
-9.17207e-08
1.48042e-06
-8.92626e-08
1.51185e-06
-8.55887e-08
1.54241e-06
-8.31592e-08
1.57181e-06
-7.98455e-08
1.60039e-06
-7.7658e-08
1.62786e-06
-7.44276e-08
1.65457e-06
-7.22271e-08
1.68027e-06
-6.93648e-08
1.70518e-06
-6.72715e-08
1.72911e-06
-6.47724e-08
1.75215e-06
-6.25451e-08
1.7742e-06
-5.97259e-08
1.79548e-06
-5.72317e-08
1.8161e-06
-5.49553e-08
1.83617e-06
-5.29585e-08
1.85562e-06
-5.10736e-08
1.8744e-06
-4.94134e-08
1.89241e-06
-4.74086e-08
1.90978e-06
-4.55751e-08
1.92652e-06
-4.37902e-08
1.94274e-06
-4.21377e-08
1.95846e-06
-4.06263e-08
1.97371e-06
-3.91737e-08
1.98849e-06
-3.77883e-08
2.00283e-06
-3.64475e-08
2.01682e-06
-3.53478e-08
2.03046e-06
-3.42084e-08
2.04387e-06
-3.33515e-08
2.05697e-06
-3.23949e-08
2.0698e-06
-3.15576e-08
2.08234e-06
-3.07286e-08
2.09428e-06
-2.97701e-08
2.10538e-06
-2.77021e-08
2.11611e-06
-2.72188e-08
2.12539e-06
-2.31368e-08
2.13686e-06
-2.97839e-08
2.14668e-06
-2.22969e-08
2.15545e-06
-1.92486e-08
2.16505e-06
-2.40649e-08
2.17524e-06
-2.27519e-08
2.18508e-06
-2.20028e-08
2.19462e-06
-2.22063e-08
2.20389e-06
-2.18808e-08
2.2127e-06
-2.07933e-08
2.22111e-06
-1.98932e-08
2.22909e-06
-1.89485e-08
2.23676e-06
-1.82554e-08
2.24411e-06
-1.74729e-08
2.2511e-06
-1.65985e-08
2.25774e-06
-1.5728e-08
2.26406e-06
-1.49059e-08
2.27021e-06
-1.42832e-08
2.27628e-06
-1.39183e-08
2.28219e-06
-1.34055e-08
2.28794e-06
-1.29469e-08
2.29353e-06
-1.24731e-08
2.29901e-06
-1.21371e-08
2.30436e-06
-1.17591e-08
2.30965e-06
-1.15278e-08
2.31482e-06
-1.12857e-08
2.32001e-06
-1.10471e-08
2.32511e-06
-1.08065e-08
2.33013e-06
-1.04747e-08
2.33497e-06
-1.00332e-08
2.33968e-06
-9.73112e-09
2.34417e-06
-9.18691e-09
2.34861e-06
-8.96591e-09
2.35296e-06
-8.732e-09
2.35717e-06
-8.42376e-09
2.36117e-06
-8.05809e-09
2.36493e-06
-7.4456e-09
2.36831e-06
-6.74626e-09
2.37133e-06
-5.81439e-09
2.37392e-06
-4.89257e-09
2.37636e-06
-4.54853e-09
2.37848e-06
-3.71595e-09
2.38095e-06
-4.44527e-09
2.383e-06
-3.27305e-09
2.38506e-06
-3.14938e-09
2.38726e-06
-3.40081e-09
2.38959e-06
-3.65811e-09
2.39204e-06
-3.77933e-09
2.39453e-06
-3.83789e-09
2.39704e-06
-3.93183e-09
2.3995e-06
-3.8732e-09
2.40186e-06
-3.75463e-09
2.40407e-06
-3.59263e-09
2.4061e-06
-3.33598e-09
2.40792e-06
-2.93659e-09
2.40938e-06
-2.4813e-09
2.41064e-06
-1.74526e-09
2.41157e-06
-1.31986e-09
2.41223e-06
-7.46586e-10
2.41268e-06
-2.93046e-10
2.41314e-06
-2.3569e-10
2.41364e-06
5.47531e-11
2.4141e-06
1.14649e-10
2.41484e-06
-2.77881e-10
2.41553e-06
-4.61267e-10
2.41631e-06
-4.3742e-10
2.41715e-06
-5.60056e-10
2.41807e-06
-7.56792e-10
2.41905e-06
-8.94842e-10
2.41994e-06
-8.3383e-10
2.42068e-06
-6.84325e-10
2.42117e-06
-3.35453e-10
2.42144e-06
1.18983e-13
2.42156e-06
5.56523e-10
2.42138e-06
6.96629e-10
2.42102e-06
1.28154e-09
2.4205e-06
1.54465e-09
2.41997e-06
1.83094e-09
2.41943e-06
1.95696e-09
2.41891e-06
1.97454e-09
2.4185e-06
1.77271e-09
2.41824e-06
1.58255e-09
2.4181e-06
1.21334e-09
2.41804e-06
1.12596e-09
2.41801e-06
1.0071e-09
2.41797e-06
9.47412e-10
2.41795e-06
8.5857e-10
2.41766e-06
1.23825e-09
2.41742e-06
9.191e-10
2.41652e-06
2.65562e-09
2.41568e-06
1.83585e-09
2.41485e-06
2.02977e-09
2.41375e-06
2.82638e-09
2.41258e-06
2.84923e-09
2.41141e-06
3.01343e-09
2.41025e-06
3.09483e-09
2.40918e-06
3.05667e-09
2.4082e-06
2.84884e-09
2.40731e-06
2.69442e-09
2.4065e-06
2.48506e-09
2.40581e-06
2.26922e-09
2.40511e-06
2.225e-09
2.40437e-06
2.19116e-09
2.40369e-06
2.03215e-09
2.40247e-06
3.03579e-09
2.40141e-06
2.48753e-09
2.40028e-06
2.68056e-09
2.39885e-06
3.37327e-09
2.39738e-06
3.34842e-09
2.3959e-06
3.49457e-09
2.39438e-06
3.68782e-09
2.39284e-06
3.76485e-09
2.39133e-06
3.86321e-09
2.3899e-06
3.66128e-09
2.38855e-06
3.52232e-09
2.38728e-06
3.35998e-09
2.38606e-06
3.19123e-09
2.38492e-06
3.03192e-09
2.38374e-06
2.97205e-09
2.38256e-06
2.91729e-09
3.37199e-09
5.96548e-09
-4.31199e-08
8.7212e-09
-1.4805e-08
9.31713e-09
-3.6998e-09
5.98297e-09
6.54142e-09
-4.16628e-10
1.27411e-08
-1.1084e-08
2.15897e-08
-2.81366e-08
3.45988e-08
-5.25056e-08
5.15761e-08
-7.50138e-08
6.42395e-08
-9.20142e-08
7.01815e-08
-1.03728e-07
7.12495e-08
-1.11383e-07
6.64636e-08
-1.16498e-07
5.99671e-08
-1.21492e-07
4.99889e-08
-1.25969e-07
4.1323e-08
-1.30006e-07
3.35817e-08
-1.33564e-07
2.77871e-08
-1.36721e-07
2.34232e-08
-1.39507e-07
2.01586e-08
-1.41985e-07
1.78112e-08
-1.44164e-07
1.58183e-08
-1.46042e-07
1.43033e-08
-1.47633e-07
1.29051e-08
-1.48929e-07
1.16024e-08
-1.49846e-07
1.02673e-08
-1.50322e-07
8.80854e-09
-1.50394e-07
7.3232e-09
-1.50018e-07
5.62071e-09
-1.49126e-07
3.8618e-09
-1.47607e-07
1.85688e-09
-1.45495e-07
-2.37607e-10
-1.42671e-07
-2.54888e-09
-1.39118e-07
-5.03014e-09
-1.34671e-07
-8.00587e-09
-1.29345e-07
-1.07549e-08
-1.23083e-07
-1.38749e-08
-1.15915e-07
-1.69066e-08
-1.07489e-07
-2.14057e-08
-9.78403e-08
-2.53608e-08
-8.70696e-08
-2.94618e-08
-7.47518e-08
-3.50555e-08
-6.08365e-08
-4.02863e-08
-4.55134e-08
-4.51461e-08
-2.85338e-08
-5.1061e-08
-1.01444e-08
-5.60312e-08
1.01617e-08
-6.26258e-08
3.19908e-08
-6.77207e-08
5.61103e-08
-7.53992e-08
8.20619e-08
-8.18667e-08
1.10506e-07
-9.02625e-08
1.4031e-07
-9.49256e-08
1.72767e-07
-1.03897e-07
2.06995e-07
-1.10273e-07
2.43689e-07
-1.19342e-07
2.81299e-07
-1.23159e-07
3.21419e-07
-1.31343e-07
3.63611e-07
-1.39401e-07
4.07039e-07
-1.44704e-07
4.52341e-07
-1.5142e-07
4.98585e-07
-1.55403e-07
5.46261e-07
-1.60246e-07
5.9445e-07
-1.62806e-07
6.43526e-07
-1.65818e-07
6.93273e-07
-1.68627e-07
7.43788e-07
-1.71599e-07
7.94833e-07
-1.74484e-07
8.4579e-07
-1.7518e-07
8.97004e-07
-1.76534e-07
9.47546e-07
-1.75718e-07
9.97695e-07
-1.74438e-07
1.04728e-06
-1.73795e-07
1.09593e-06
-1.70666e-07
1.14425e-06
-1.70301e-07
1.19151e-06
-1.67385e-07
1.23813e-06
-1.65648e-07
1.2836e-06
-1.62719e-07
1.32786e-06
-1.5854e-07
1.3712e-06
-1.55943e-07
1.4131e-06
-1.51239e-07
1.45387e-06
-1.47246e-07
1.49333e-06
-1.42295e-07
1.53184e-06
-1.39574e-07
1.56888e-06
-1.34847e-07
1.60475e-06
-1.31308e-07
1.63909e-06
-1.26061e-07
1.67239e-06
-1.2257e-07
1.70429e-06
-1.17482e-07
1.73528e-06
-1.14158e-07
1.76503e-06
-1.09597e-07
1.79389e-06
-1.0652e-07
1.82156e-06
-1.02097e-07
1.84848e-06
-9.91558e-08
1.8743e-06
-9.51878e-08
1.89927e-06
-9.22351e-08
1.92307e-06
-8.85786e-08
1.94587e-06
-8.5345e-08
1.96756e-06
-8.14163e-08
1.98858e-06
-7.82446e-08
2.00902e-06
-7.53987e-08
2.02899e-06
-7.29339e-08
2.04839e-06
-7.04707e-08
2.06707e-06
-6.80945e-08
2.08491e-06
-6.52495e-08
2.10209e-06
-6.27508e-08
2.11865e-06
-6.03506e-08
2.13471e-06
-5.81948e-08
2.15031e-06
-5.62302e-08
2.16547e-06
-5.43365e-08
2.18018e-06
-5.24966e-08
2.19449e-06
-5.07574e-08
2.20848e-06
-4.93396e-08
2.22218e-06
-4.79048e-08
2.23574e-06
-4.69116e-08
2.24898e-06
-4.56373e-08
2.26204e-06
-4.46177e-08
2.2748e-06
-4.34863e-08
2.28684e-06
-4.18115e-08
2.29798e-06
-3.88452e-08
2.30851e-06
-3.77436e-08
2.31797e-06
-3.26064e-08
2.32833e-06
-4.01408e-08
2.33879e-06
-3.27576e-08
2.3486e-06
-2.90592e-08
2.35813e-06
-3.35981e-08
2.36878e-06
-3.33947e-08
2.37925e-06
-3.24703e-08
2.38929e-06
-3.22468e-08
2.39896e-06
-3.15471e-08
2.40815e-06
-2.99824e-08
2.4169e-06
-2.8642e-08
2.42518e-06
-2.72263e-08
2.43312e-06
-2.61933e-08
2.4407e-06
-2.5048e-08
2.4479e-06
-2.37894e-08
2.45471e-06
-2.25387e-08
2.46117e-06
-2.13692e-08
2.4675e-06
-2.06161e-08
2.47379e-06
-2.02056e-08
2.47993e-06
-1.95501e-08
2.48594e-06
-1.89565e-08
2.49181e-06
-1.83393e-08
2.4976e-06
-1.79312e-08
2.50328e-06
-1.74452e-08
2.50894e-06
-1.7183e-08
2.51449e-06
-1.68411e-08
2.52008e-06
-1.6632e-08
2.52557e-06
-1.63022e-08
2.53098e-06
-1.58865e-08
2.53618e-06
-1.52349e-08
2.54123e-06
-1.47852e-08
2.54605e-06
-1.40041e-08
2.55084e-06
-1.37557e-08
2.55551e-06
-1.34057e-08
2.56005e-06
-1.29618e-08
2.56434e-06
-1.23507e-08
2.56836e-06
-1.14574e-08
2.57194e-06
-1.03309e-08
2.5751e-06
-8.97405e-09
2.57784e-06
-7.63117e-09
2.58037e-06
-7.08044e-09
2.58259e-06
-5.93874e-09
2.58509e-06
-6.9493e-09
2.58734e-06
-5.52705e-09
2.58963e-06
-5.43553e-09
2.59204e-06
-5.81752e-09
2.59464e-06
-6.25346e-09
2.59741e-06
-6.55309e-09
2.60026e-06
-6.69266e-09
2.60314e-06
-6.80961e-09
2.60599e-06
-6.72329e-09
2.60871e-06
-6.47064e-09
2.61125e-06
-6.1329e-09
2.61359e-06
-5.68067e-09
2.61567e-06
-5.01536e-09
2.61733e-06
-4.14536e-09
2.61876e-06
-3.1777e-09
2.61984e-06
-2.39776e-09
2.62062e-06
-1.52946e-09
2.6211e-06
-7.7401e-10
2.62161e-06
-7.47613e-10
2.62225e-06
-5.8818e-10
2.62289e-06
-5.21459e-10
2.62375e-06
-1.14104e-09
2.62464e-06
-1.35073e-09
2.62564e-06
-1.43369e-09
2.6267e-06
-1.62576e-09
2.62789e-06
-1.94885e-09
2.62914e-06
-2.14736e-09
2.63029e-06
-1.98566e-09
2.63126e-06
-1.65401e-09
2.63193e-06
-9.96501e-10
2.63232e-06
-3.91765e-10
2.63251e-06
3.62107e-10
2.63235e-06
8.59466e-10
2.63199e-06
1.64573e-09
2.63145e-06
2.08273e-09
2.6309e-06
2.38434e-09
2.63039e-06
2.46584e-09
2.62987e-06
2.49022e-09
2.62952e-06
2.12584e-09
2.62936e-06
1.73976e-09
2.6293e-06
1.27323e-09
2.62933e-06
1.10219e-09
2.62948e-06
8.59108e-10
2.62957e-06
8.57088e-10
2.62963e-06
7.95445e-10
2.62949e-06
1.37393e-09
2.62923e-06
1.18447e-09
2.62843e-06
3.45134e-09
2.62745e-06
2.81968e-09
2.62647e-06
3.00424e-09
2.62531e-06
3.98955e-09
2.62401e-06
4.14652e-09
2.62272e-06
4.30809e-09
2.62147e-06
4.33856e-09
2.62034e-06
4.1947e-09
2.61931e-06
3.87661e-09
2.6184e-06
3.60508e-09
2.61757e-06
3.3112e-09
2.6169e-06
2.9432e-09
2.61622e-06
2.90143e-09
2.61546e-06
2.95539e-09
2.61476e-06
2.72671e-09
2.61351e-06
4.2908e-09
2.61231e-06
3.67914e-09
2.61105e-06
3.94394e-09
2.60946e-06
4.96392e-09
2.60781e-06
4.99792e-09
2.60614e-06
5.15965e-09
2.60443e-06
5.39649e-09
2.60272e-06
5.47496e-09
2.60106e-06
5.52519e-09
2.5995e-06
5.22494e-09
2.59803e-06
4.98908e-09
2.59665e-06
4.73558e-09
2.59534e-06
4.50327e-09
2.59411e-06
4.26369e-09
2.59283e-06
4.24937e-09
2.59154e-06
4.20913e-09
4.89696e-09
3.11688e-09
-4.62368e-08
4.10098e-09
-1.57891e-08
3.80216e-09
-3.40104e-09
-1.87727e-09
1.22208e-08
-1.22669e-08
2.31307e-08
-2.83216e-08
3.76443e-08
-5.04396e-08
5.67169e-08
-7.01472e-08
7.12837e-08
-8.50411e-08
7.91334e-08
-9.56068e-08
8.07471e-08
-1.02354e-07
7.79963e-08
-1.07413e-07
7.15228e-08
-1.10467e-07
6.30214e-08
-1.13407e-07
5.29285e-08
-1.16203e-07
4.41189e-08
-1.1899e-07
3.63687e-08
-1.21614e-07
3.04112e-08
-1.24006e-07
2.58151e-08
-1.26143e-07
2.22959e-08
-1.2801e-07
1.96779e-08
-1.29619e-07
1.74276e-08
-1.3093e-07
1.5614e-08
-1.31939e-07
1.39146e-08
-1.32571e-07
1.22342e-08
-1.32814e-07
1.05104e-08
-1.32644e-07
8.63877e-09
-1.31993e-07
6.67189e-09
-1.30783e-07
4.41137e-09
-1.28969e-07
2.04719e-09
-1.2644e-07
-6.71311e-10
-1.23221e-07
-3.45732e-09
-1.19184e-07
-6.58551e-09
-1.14331e-07
-9.8833e-09
-1.08432e-07
-1.39052e-08
-1.01507e-07
-1.768e-08
-9.34835e-08
-2.18979e-08
-8.44736e-08
-2.59162e-08
-7.4022e-08
-3.18568e-08
-6.21273e-08
-3.7255e-08
-4.90193e-08
-4.25693e-08
-3.41546e-08
-4.99198e-08
-1.74292e-08
-5.70116e-08
8.93292e-10
-6.34698e-08
2.11151e-08
-7.12842e-08
4.28709e-08
-7.77863e-08
6.69176e-08
-8.66711e-08
9.2674e-08
-9.34776e-08
1.21214e-07
-1.0394e-07
1.5175e-07
-1.12404e-07
1.85236e-07
-1.23748e-07
2.20154e-07
-1.2984e-07
2.58307e-07
-1.42038e-07
2.98309e-07
-1.50251e-07
3.41116e-07
-1.62119e-07
3.84815e-07
-1.66826e-07
4.31579e-07
-1.78078e-07
4.80503e-07
-1.88305e-07
5.30284e-07
-1.94475e-07
5.82359e-07
-2.03491e-07
6.35046e-07
-2.08093e-07
6.89359e-07
-2.14561e-07
7.43739e-07
-2.17187e-07
7.98995e-07
-2.21075e-07
8.54695e-07
-2.24327e-07
9.10863e-07
-2.27768e-07
9.67301e-07
-2.30924e-07
1.02334e-06
-2.31219e-07
1.07928e-06
-2.32471e-07
1.13422e-06
-2.30651e-07
1.1886e-06
-2.28816e-07
1.24204e-06
-2.27236e-07
1.29433e-06
-2.22956e-07
1.34595e-06
-2.21921e-07
1.39611e-06
-2.17542e-07
1.44529e-06
-2.14821e-07
1.49287e-06
-2.10301e-07
1.53902e-06
-2.04682e-07
1.58392e-06
-2.00838e-07
1.62699e-06
-1.94312e-07
1.66881e-06
-1.89063e-07
1.70915e-06
-1.8263e-07
1.74823e-06
-1.78654e-07
1.78536e-06
-1.71971e-07
1.8211e-06
-1.67045e-07
1.85509e-06
-1.60049e-07
1.88799e-06
-1.5547e-07
1.91932e-06
-1.4881e-07
1.94979e-06
-1.44629e-07
1.97887e-06
-1.38686e-07
2.00704e-06
-1.34686e-07
2.03391e-06
-1.28968e-07
2.06004e-06
-1.25287e-07
2.08489e-06
-1.20045e-07
2.10879e-06
-1.16127e-07
2.13132e-06
-1.11117e-07
2.15278e-06
-1.068e-07
2.17302e-06
-1.01661e-07
2.19276e-06
-9.79818e-08
2.21201e-06
-9.46454e-08
2.23087e-06
-9.18003e-08
2.24918e-06
-8.87728e-08
2.26671e-06
-8.56258e-08
2.28335e-06
-8.18906e-08
2.29934e-06
-7.87383e-08
2.31472e-06
-7.57347e-08
2.32966e-06
-7.31345e-08
2.34419e-06
-7.07609e-08
2.35832e-06
-6.84719e-08
2.37203e-06
-6.62105e-08
2.38542e-06
-6.41442e-08
2.39855e-06
-6.24693e-08
2.41146e-06
-6.08143e-08
2.42431e-06
-5.97571e-08
2.43685e-06
-5.81776e-08
2.44934e-06
-5.71072e-08
2.46147e-06
-5.562e-08
2.4728e-06
-5.31389e-08
2.48316e-06
-4.92037e-08
2.49269e-06
-4.72736e-08
2.50169e-06
-4.16019e-08
2.51044e-06
-4.88963e-08
2.52061e-06
-4.2922e-08
2.53052e-06
-3.89751e-08
2.53955e-06
-4.26248e-08
2.54987e-06
-4.37167e-08
2.56017e-06
-4.27718e-08
2.57e-06
-4.20756e-08
2.5794e-06
-4.09399e-08
2.5883e-06
-3.88799e-08
2.59677e-06
-3.71081e-08
2.60473e-06
-3.51913e-08
2.61235e-06
-3.38024e-08
2.61956e-06
-3.22614e-08
2.62638e-06
-3.06044e-08
2.63281e-06
-2.89674e-08
2.63887e-06
-2.74311e-08
2.64487e-06
-2.66103e-08
2.65082e-06
-2.61638e-08
2.65666e-06
-2.53822e-08
2.6624e-06
-2.47007e-08
2.66803e-06
-2.39714e-08
2.67363e-06
-2.35266e-08
2.67913e-06
-2.29498e-08
2.68463e-06
-2.26848e-08
2.6901e-06
-2.23081e-08
2.69561e-06
-2.21483e-08
2.70105e-06
-2.17462e-08
2.70641e-06
-2.12468e-08
2.71156e-06
-2.03878e-08
2.71657e-06
-1.97877e-08
2.72131e-06
-1.87535e-08
2.72607e-06
-1.85149e-08
2.73069e-06
-1.80187e-08
2.73517e-06
-1.74487e-08
2.73939e-06
-1.65651e-08
2.7433e-06
-1.53644e-08
2.74674e-06
-1.37682e-08
2.7497e-06
-1.19411e-08
2.75228e-06
-1.02075e-08
2.75459e-06
-9.39674e-09
2.75664e-06
-7.9888e-09
2.75883e-06
-9.14084e-09
2.76094e-06
-7.63523e-09
2.76317e-06
-7.66405e-09
2.76553e-06
-8.1843e-09
2.76808e-06
-8.79758e-09
2.77085e-06
-9.33339e-09
2.77375e-06
-9.59112e-09
2.77671e-06
-9.77081e-09
2.77965e-06
-9.6581e-09
2.78245e-06
-9.26572e-09
2.78505e-06
-8.74203e-09
2.78745e-06
-8.07771e-09
2.78953e-06
-7.10053e-09
2.79117e-06
-5.78041e-09
2.79257e-06
-4.58023e-09
2.79358e-06
-3.40874e-09
2.79425e-06
-2.19981e-09
2.79463e-06
-1.15889e-09
2.79504e-06
-1.15309e-09
2.7956e-06
-1.15686e-09
2.7962e-06
-1.11942e-09
2.79702e-06
-1.96162e-09
2.79791e-06
-2.24478e-09
2.79895e-06
-2.46757e-09
2.8001e-06
-2.77678e-09
2.80138e-06
-3.23546e-09
2.80271e-06
-3.47902e-09
2.80396e-06
-3.22932e-09
2.805e-06
-2.69158e-09
2.80569e-06
-1.69041e-09
2.80609e-06
-7.85971e-10
2.80624e-06
2.03902e-10
2.80601e-06
1.09281e-09
2.80555e-06
2.10949e-09
2.80491e-06
2.71591e-09
2.80426e-06
3.03905e-09
2.80365e-06
3.0727e-09
2.80311e-06
3.03588e-09
2.80273e-06
2.50547e-09
2.80255e-06
1.92137e-09
2.80249e-06
1.32986e-09
2.80254e-06
1.058e-09
2.80274e-06
6.57981e-10
2.80287e-06
7.24945e-10
2.80294e-06
7.22137e-10
2.80286e-06
1.45312e-09
2.80251e-06
1.53807e-09
2.80175e-06
4.21312e-09
2.80064e-06
3.93055e-09
2.79948e-06
4.15974e-09
2.79822e-06
5.25492e-09
2.79678e-06
5.58218e-09
2.79535e-06
5.74229e-09
2.79398e-06
5.70107e-09
2.79275e-06
5.43205e-09
2.79164e-06
4.98227e-09
2.79066e-06
4.58161e-09
2.78979e-06
4.18307e-09
2.78906e-06
3.67161e-09
2.78837e-06
3.58979e-09
2.78756e-06
3.76631e-09
2.78681e-06