/*--------------------------------*- C++ -*----------------------------------*\
| =========                 |                                                 |
| \\      /  F ield         | OpenFOAM: The Open Source CFD Toolbox           |
|  \\    /   O peration     | Version:  2312                                  |
|   \\  /    A nd           | Website:  www.openfoam.com                      |
|    \\/     M anipulation  |                                                 |
\*---------------------------------------------------------------------------*/
FoamFile
{
    version     2.0;
    format      ascii;
    arch        "LSB;label=32;scalar=64";
    class       volScalarField;
    location    "0.006";
    object      rho;
}
// * * * * * * * * * * * * * * * * * * * * * * * * * * * * * * * * * * * * * //

dimensions      [1 -3 0 0 0 0 0];

internalField   nonuniform List<scalar> 
48128
(
0.0342677
0.034263
0.0341808
0.0340786
0.034065
0.0340298
0.0339994
0.0339492
0.0338855
0.0338092
0.0339069
0.0339304
0.0339925
0.0339113
0.0337139
0.0335264
0.0333984
0.0333173
0.0332876
0.0333098
0.0333827
0.0335016
0.0336671
0.0338811
0.0341466
0.0344649
0.0348402
0.0352933
0.0358059
0.0363895
0.0370453
0.0377751
0.0385799
0.039468
0.0404305
0.0414798
0.0426124
0.0438355
0.0451285
0.0465237
0.0480017
0.04956
0.0512029
0.0529318
0.0547165
0.0566172
0.0585365
0.0605997
0.0626673
0.0648662
0.0670603
0.0693884
0.0717084
0.0741318
0.0765399
0.0790361
0.081535
0.0840408
0.0865657
0.0890738
0.0915751
0.0940493
0.0964998
0.098919
0.101301
0.103643
0.105931
0.108169
0.110365
0.112462
0.114539
0.116499
0.11843
0.120285
0.122035
0.123758
0.125329
0.12691
0.128348
0.129784
0.1311
0.132427
0.133615
0.134799
0.135874
0.136936
0.137915
0.138884
0.139773
0.140652
0.141452
0.142244
0.142965
0.14367
0.144293
0.144867
0.145362
0.145845
0.14633
0.146818
0.147298
0.147771
0.148187
0.148569
0.148926
0.149271
0.149608
0.149935
0.150253
0.150566
0.150876
0.151193
0.151517
0.15185
0.15219
0.152525
0.15286
0.153071
0.153226
0.153261
0.153282
0.153778
0.153914
0.154068
0.154415
0.154727
0.155035
0.155351
0.155628
0.155872
0.15608
0.156264
0.156436
0.156575
0.156698
0.156783
0.156871
0.156963
0.157057
0.157151
0.157247
0.157348
0.157452
0.157561
0.157684
0.157815
0.157947
0.158087
0.15821
0.158335
0.158441
0.158548
0.158657
0.158763
0.158865
0.158938
0.159005
0.159011
0.158993
0.158959
0.158904
0.158825
0.158818
0.158786
0.158776
0.158787
0.158816
0.158872
0.158938
0.159016
0.159093
0.15917
0.159232
0.159288
0.159316
0.159317
0.159298
0.159265
0.159208
0.159137
0.159082
0.159036
0.159
0.159001
0.159015
0.159037
0.159076
0.159128
0.159186
0.15924
0.159281
0.159291
0.159292
0.159264
0.159226
0.159167
0.15911
0.159055
0.159004
0.158974
0.158957
0.158953
0.158971
0.159003
0.15904
0.159082
0.159111
0.15914
0.159155
0.159111
0.15908
0.159037
0.158978
0.158922
0.158869
0.158823
0.158799
0.158785
0.158781
0.158788
0.158809
0.158831
0.158861
0.158883
0.158865
0.158853
0.158821
0.158776
0.158731
0.158683
0.158635
0.158587
0.158558
0.158538
0.158526
0.158524
0.158531
0.158541
0.158562
0.158558
0.0342026
0.034233
0.0341834
0.0341097
0.0341113
0.034084
0.0340567
0.0340101
0.0340121
0.0340816
0.0342834
0.0343708
0.0344125
0.0343669
0.034286
0.0342531
0.0341614
0.03409
0.0340552
0.0340654
0.0341199
0.034215
0.0343511
0.0345305
0.0347564
0.0350333
0.0353681
0.0357494
0.0362014
0.036728
0.0373215
0.0379968
0.038742
0.0395722
0.0404768
0.0414679
0.0425393
0.0437056
0.0449468
0.04629
0.0477162
0.0492304
0.0508308
0.0525252
0.0542877
0.0561688
0.0580826
0.0601419
0.0622217
0.0644396
0.0666746
0.0690502
0.0714403
0.0739414
0.0764528
0.0790692
0.081713
0.0843824
0.0870763
0.0897725
0.0924789
0.095177
0.0978683
0.100543
0.103194
0.105816
0.108397
0.110942
0.113446
0.115855
0.118253
0.120543
0.122796
0.124973
0.127044
0.129088
0.130983
0.132882
0.134629
0.136382
0.138004
0.139639
0.141123
0.142604
0.143964
0.145316
0.146568
0.147815
0.148968
0.150113
0.151168
0.152217
0.153185
0.154136
0.154997
0.155803
0.156526
0.157237
0.157949
0.158664
0.159367
0.160057
0.160682
0.161269
0.161828
0.162373
0.162908
0.16343
0.16394
0.164441
0.164937
0.165438
0.165944
0.166456
0.166972
0.167477
0.167978
0.168344
0.168645
0.168827
0.168993
0.169665
0.169963
0.170265
0.17075
0.171215
0.171661
0.172107
0.172509
0.172875
0.173199
0.173496
0.173778
0.174025
0.174254
0.174442
0.174634
0.174829
0.175026
0.175221
0.175416
0.175613
0.175812
0.176013
0.176223
0.176444
0.176675
0.17691
0.177129
0.177349
0.177548
0.177747
0.177946
0.17814
0.178327
0.178483
0.178628
0.178703
0.178754
0.178786
0.178791
0.178785
0.178844
0.178872
0.178934
0.179004
0.179104
0.179219
0.179347
0.179488
0.179621
0.179754
0.179862
0.179968
0.18003
0.180065
0.180072
0.180065
0.180028
0.179986
0.179955
0.179934
0.179927
0.179958
0.180001
0.180054
0.180121
0.180201
0.180286
0.180362
0.180422
0.180442
0.180454
0.180433
0.180397
0.18034
0.180283
0.18023
0.180183
0.18016
0.180151
0.180156
0.180184
0.180226
0.18027
0.180318
0.180348
0.180376
0.180384
0.18033
0.18029
0.180236
0.180166
0.1801
0.180038
0.179983
0.179955
0.179936
0.179927
0.179929
0.179946
0.179961
0.179984
0.179993
0.179958
0.179931
0.17988
0.179816
0.179753
0.179687
0.179622
0.179557
0.179513
0.179479
0.179454
0.179439
0.179432
0.179428
0.179433
0.179398
0.034239
0.0342452
0.0341948
0.0341144
0.0341108
0.0340646
0.0340154
0.0340189
0.0341229
0.0343577
0.0344852
0.0345315
0.0345583
0.0345473
0.0343662
0.0341505
0.0340119
0.0339302
0.0338878
0.0338878
0.0339284
0.0340073
0.0341255
0.0342868
0.0344963
0.0347571
0.0350754
0.0354505
0.0358893
0.0363973
0.0369697
0.0376234
0.0383479
0.0391602
0.0400487
0.0410258
0.0420828
0.0432382
0.044471
0.0458075
0.0472376
0.0487607
0.0503752
0.0520929
0.0538851
0.055805
0.0577645
0.0598782
0.062021
0.0643128
0.0666306
0.0691022
0.0715965
0.0742168
0.0768533
0.0795968
0.0823594
0.0851657
0.0880252
0.0908968
0.0937878
0.0966779
0.0995691
0.10245
0.105311
0.108143
0.110938
0.113695
0.116414
0.11904
0.12165
0.124144
0.126605
0.128977
0.131242
0.13347
0.135546
0.137622
0.139534
0.141452
0.14323
0.145025
0.146647
0.148267
0.149749
0.151227
0.152592
0.153956
0.155215
0.156468
0.157621
0.15877
0.159831
0.160876
0.161823
0.162708
0.163506
0.164292
0.165079
0.16587
0.16665
0.167416
0.168111
0.168767
0.169393
0.170004
0.170605
0.171193
0.171769
0.172335
0.172896
0.173464
0.174036
0.174616
0.175199
0.175772
0.176335
0.17676
0.177111
0.177352
0.177553
0.178261
0.178656
0.179022
0.179552
0.180099
0.180617
0.181122
0.181582
0.182005
0.182382
0.182729
0.18306
0.183352
0.183625
0.183856
0.18409
0.184328
0.184569
0.184808
0.185047
0.185289
0.185533
0.185779
0.186035
0.186299
0.186573
0.186851
0.187112
0.187372
0.187612
0.18785
0.188089
0.188322
0.188548
0.188739
0.188918
0.189023
0.189103
0.189163
0.189195
0.189214
0.1893
0.18936
0.189455
0.189555
0.189688
0.189835
0.19
0.190171
0.190336
0.1905
0.190635
0.190767
0.190851
0.190907
0.190932
0.190941
0.190918
0.190887
0.190873
0.190867
0.19088
0.190926
0.190984
0.191055
0.191141
0.191241
0.191344
0.191436
0.191509
0.191539
0.191562
0.191544
0.191511
0.191456
0.191403
0.191354
0.191309
0.191291
0.191287
0.1913
0.191335
0.191385
0.191436
0.191491
0.191526
0.191554
0.191566
0.191508
0.191461
0.191402
0.191328
0.191255
0.191189
0.191131
0.1911
0.191079
0.191069
0.19107
0.191087
0.1911
0.191121
0.191127
0.191084
0.191048
0.190988
0.190914
0.19084
0.190764
0.190689
0.190615
0.190563
0.190522
0.190489
0.190467
0.190454
0.190443
0.19044
0.190391
0.0342419
0.0342202
0.0341861
0.0340968
0.0340864
0.0340286
0.0340463
0.0342091
0.0344505
0.0345864
0.0346274
0.0346055
0.0345197
0.0343255
0.0341666
0.0340102
0.0338832
0.0337933
0.0337395
0.0337248
0.0337508
0.0338142
0.0339164
0.0340629
0.0342567
0.0344995
0.0347968
0.0351522
0.0355713
0.0360591
0.0366145
0.0372512
0.0379589
0.0387573
0.0396303
0.0405961
0.0416379
0.0427894
0.0440184
0.0453539
0.0467923
0.0483264
0.049957
0.0517024
0.0535253
0.0554875
0.0574949
0.0596708
0.0618887
0.0642677
0.0666799
0.0692665
0.0718817
0.0746429
0.0774257
0.0803419
0.0832873
0.0862818
0.0893367
0.0924077
0.0955052
0.0986081
0.101719
0.104824
0.107912
0.110969
0.11398
0.116958
0.119884
0.122718
0.125532
0.128215
0.130876
0.133419
0.135864
0.138245
0.140472
0.142698
0.144737
0.146783
0.148681
0.1506
0.152319
0.154036
0.155601
0.15716
0.158594
0.160028
0.161346
0.162658
0.163861
0.165062
0.166166
0.167255
0.168236
0.169148
0.169968
0.170775
0.171585
0.1724
0.173203
0.173991
0.174702
0.175374
0.176016
0.176641
0.177257
0.177858
0.178449
0.17903
0.179606
0.180189
0.180777
0.181375
0.181975
0.182567
0.183142
0.183581
0.183935
0.184202
0.184405
0.185063
0.185527
0.185926
0.186459
0.18704
0.187588
0.188109
0.188586
0.18903
0.189425
0.189789
0.190133
0.190439
0.190724
0.190967
0.191213
0.191463
0.191717
0.19197
0.192223
0.192479
0.192739
0.193001
0.193274
0.193556
0.193847
0.194142
0.19442
0.194695
0.194951
0.195205
0.195459
0.195707
0.195946
0.19615
0.19634
0.196453
0.196543
0.196611
0.196653
0.196675
0.196769
0.196843
0.196948
0.197059
0.197205
0.197367
0.197546
0.197733
0.197912
0.19809
0.198238
0.198383
0.198475
0.19854
0.198573
0.198588
0.198571
0.198544
0.198535
0.198536
0.198558
0.19861
0.198677
0.198755
0.198851
0.19896
0.199073
0.199173
0.199254
0.199289
0.199318
0.1993
0.199267
0.199213
0.199161
0.199113
0.199068
0.199052
0.199051
0.199066
0.199104
0.199159
0.199214
0.199272
0.199311
0.199338
0.199352
0.199294
0.199241
0.199178
0.1991
0.199022
0.198952
0.19889
0.198857
0.198834
0.198823
0.198823
0.198839
0.198851
0.198868
0.198873
0.198827
0.198784
0.198717
0.198636
0.198555
0.198472
0.198389
0.198307
0.19825
0.198202
0.198165
0.198137
0.198119
0.198103
0.198094
0.198035
0.034259
0.0341983
0.0341646
0.0340754
0.034063
0.0340569
0.0342155
0.0344616
0.034637
0.0346598
0.0346153
0.034484
0.0343489
0.0341584
0.033995
0.0338317
0.0337073
0.0336169
0.0335605
0.0335399
0.0335575
0.0336112
0.0337032
0.0338383
0.0340177
0.0342459
0.0345277
0.0348679
0.0352719
0.0357459
0.0362876
0.0369119
0.0376075
0.0383987
0.0392632
0.0402271
0.0412636
0.0424234
0.0436598
0.0450086
0.0464741
0.0480371
0.0497028
0.0515003
0.0533831
0.0554249
0.0575158
0.0597966
0.0621292
0.0646448
0.0671946
0.0699591
0.072753
0.0757179
0.078702
0.0818626
0.0850463
0.0882925
0.0916072
0.0949437
0.0983156
0.101691
0.105084
0.108468
0.111831
0.115155
0.118416
0.121649
0.124797
0.127862
0.130895
0.133777
0.13665
0.139361
0.141982
0.144504
0.146868
0.149224
0.151365
0.153512
0.1555
0.157509
0.159285
0.161056
0.162659
0.164258
0.165717
0.16718
0.168514
0.169844
0.171053
0.172266
0.173365
0.174453
0.175417
0.176309
0.177106
0.177892
0.178683
0.179479
0.180263
0.181028
0.181713
0.182362
0.182978
0.183578
0.18417
0.184747
0.185316
0.185874
0.186432
0.186996
0.187567
0.18815
0.188733
0.189313
0.189864
0.190287
0.190614
0.190879
0.191064
0.191636
0.192142
0.192552
0.193069
0.193642
0.19419
0.194702
0.19517
0.195608
0.195998
0.196356
0.196691
0.196987
0.197263
0.197499
0.197736
0.197977
0.198223
0.198469
0.198716
0.198967
0.199224
0.199482
0.199754
0.200035
0.200325
0.200618
0.200896
0.201171
0.201427
0.201681
0.201934
0.202182
0.202419
0.202619
0.202806
0.202914
0.203001
0.203065
0.203104
0.203119
0.203205
0.20328
0.203383
0.203494
0.20364
0.203803
0.203984
0.204174
0.204356
0.204537
0.204687
0.204834
0.204925
0.204991
0.205022
0.205035
0.205017
0.204988
0.204976
0.204977
0.204999
0.20505
0.205118
0.205199
0.205298
0.205409
0.205524
0.205627
0.205709
0.205744
0.205773
0.205753
0.205717
0.205661
0.205605
0.205554
0.205507
0.205492
0.205489
0.205503
0.205541
0.205596
0.205652
0.20571
0.205749
0.205773
0.205786
0.205729
0.205667
0.205599
0.205517
0.205433
0.205358
0.205292
0.205256
0.205229
0.205215
0.205212
0.205225
0.205236
0.205248
0.205252
0.205202
0.205151
0.20508
0.204993
0.204903
0.204813
0.204723
0.204635
0.204572
0.204518
0.204475
0.204442
0.204419
0.204398
0.204384
0.204315
0.0342784
0.034199
0.034161
0.0340663
0.0340903
0.0341979
0.0344305
0.0346305
0.0346836
0.0346294
0.0345019
0.0343513
0.0341755
0.0339796
0.0338151
0.0336603
0.033539
0.0334486
0.0333905
0.0333649
0.0333752
0.0334209
0.0335034
0.0336271
0.0337927
0.0340077
0.0342752
0.0346031
0.0349939
0.0354572
0.0359883
0.0366045
0.0372915
0.0380825
0.0389448
0.0399155
0.0409549
0.0421373
0.0433949
0.0447719
0.0462887
0.0479124
0.0496454
0.0515301
0.0534985
0.0556595
0.0578802
0.0603309
0.0628443
0.0655778
0.0683492
0.0713882
0.0744478
0.077717
0.0810029
0.0845412
0.0880416
0.0916485
0.0953378
0.0990361
0.1028
0.106539
0.110315
0.114065
0.117779
0.121437
0.125007
0.128549
0.131955
0.135286
0.138561
0.141653
0.144745
0.14761
0.150392
0.153024
0.155492
0.157938
0.16013
0.162328
0.164346
0.166379
0.168138
0.169905
0.171488
0.173077
0.174506
0.17595
0.177243
0.178539
0.1797
0.180874
0.181912
0.182947
0.18384
0.184664
0.185396
0.186121
0.186855
0.18759
0.188308
0.189003
0.18962
0.190206
0.190758
0.191297
0.191829
0.192344
0.192855
0.193357
0.193862
0.194374
0.194896
0.19543
0.195968
0.1965
0.196989
0.197365
0.197633
0.197872
0.198024
0.198484
0.198997
0.1994
0.199877
0.200409
0.200929
0.201406
0.201841
0.202253
0.202615
0.202948
0.203253
0.203518
0.203765
0.203974
0.204185
0.2044
0.204618
0.204838
0.205062
0.20529
0.205526
0.205765
0.206017
0.20628
0.206553
0.20683
0.207091
0.207352
0.207593
0.207837
0.208074
0.208308
0.208529
0.208713
0.208882
0.208973
0.209046
0.209095
0.209122
0.209119
0.209187
0.209254
0.209343
0.209444
0.209578
0.209732
0.209904
0.210086
0.210262
0.210436
0.210579
0.210716
0.210798
0.210857
0.210878
0.210882
0.210855
0.210819
0.210795
0.21079
0.210803
0.210847
0.210908
0.210987
0.211083
0.211189
0.211299
0.211396
0.211474
0.211505
0.211526
0.2115
0.211458
0.211394
0.211332
0.211273
0.21122
0.211202
0.211193
0.211202
0.211236
0.211287
0.211339
0.211393
0.21143
0.211447
0.211456
0.211396
0.211325
0.211249
0.211161
0.21107
0.210988
0.210916
0.210874
0.210842
0.210823
0.210815
0.210823
0.21083
0.210835
0.210835
0.210782
0.210721
0.210644
0.210551
0.210453
0.210355
0.210257
0.210162
0.210092
0.210032
0.209982
0.209944
0.209914
0.209887
0.209866
0.209788
0.0343174
0.0342134
0.0341757
0.0340963
0.0341998
0.0343832
0.0345981
0.0346854
0.0346531
0.0345376
0.0343875
0.0341948
0.0340019
0.03381
0.033646
0.033498
0.0333797
0.03329
0.0332306
0.0332012
0.0332047
0.0332441
0.0333161
0.0334285
0.0335819
0.0337858
0.0340412
0.0343594
0.0347394
0.0351966
0.0357204
0.0363347
0.0370187
0.0378191
0.0386885
0.0396805
0.0407363
0.0419629
0.0432636
0.0446884
0.0462942
0.0480194
0.0498666
0.051894
0.0540105
0.0563655
0.0588001
0.0615198
0.0643167
0.0673862
0.070513
0.0739797
0.0774376
0.0811679
0.0849098
0.0890245
0.0929513
0.0970482
0.101313
0.105511
0.109806
0.11406
0.118347
0.122597
0.126787
0.130887
0.134849
0.138786
0.142514
0.146165
0.149699
0.153007
0.156316
0.159295
0.162208
0.164884
0.167406
0.169865
0.172028
0.174197
0.176155
0.17811
0.179755
0.181427
0.182896
0.184385
0.185688
0.187022
0.188178
0.189348
0.190364
0.191407
0.192294
0.193203
0.193949
0.194641
0.195246
0.195861
0.196479
0.197093
0.197687
0.198257
0.198755
0.199234
0.199683
0.200119
0.20055
0.200962
0.201377
0.201783
0.202202
0.202626
0.203065
0.203514
0.20398
0.204422
0.204813
0.205106
0.20529
0.205479
0.205576
0.20592
0.206378
0.206768
0.207178
0.207638
0.208103
0.208523
0.208904
0.209268
0.20958
0.209866
0.210117
0.210331
0.210528
0.210693
0.21086
0.211028
0.2112
0.211376
0.211559
0.211747
0.211945
0.212148
0.212366
0.212595
0.212834
0.21308
0.21331
0.213542
0.213756
0.213975
0.214182
0.214389
0.21458
0.214735
0.214872
0.214937
0.214984
0.215006
0.215013
0.214981
0.215014
0.215068
0.215134
0.215214
0.215325
0.21546
0.215614
0.215778
0.215935
0.216095
0.21622
0.216338
0.216402
0.216445
0.21645
0.216433
0.216392
0.216343
0.2163
0.21628
0.216278
0.216307
0.216357
0.216426
0.21651
0.216604
0.216702
0.216787
0.216854
0.216874
0.216882
0.216844
0.21679
0.216716
0.216643
0.216573
0.21651
0.216482
0.216464
0.216462
0.216487
0.21653
0.216574
0.216619
0.216648
0.216655
0.216657
0.21659
0.216507
0.216421
0.216324
0.216223
0.216132
0.216051
0.216001
0.215961
0.215934
0.215919
0.215918
0.215919
0.215913
0.215908
0.21585
0.215778
0.215692
0.215592
0.215484
0.215376
0.21527
0.215166
0.215089
0.21502
0.214963
0.214917
0.21488
0.214845
0.214817
0.214726
0.0343818
0.0342397
0.0342417
0.0342171
0.0343578
0.0345584
0.0346751
0.0346751
0.0345848
0.0344402
0.0342496
0.0340413
0.033842
0.0336555
0.0334925
0.0333503
0.0332346
0.0331454
0.0330847
0.0330523
0.0330488
0.0330813
0.0331429
0.0332461
0.0333888
0.0335839
0.0338293
0.0341414
0.034514
0.0349706
0.0354922
0.0361126
0.0368026
0.0376283
0.0385158
0.0395416
0.0406355
0.0419417
0.0433293
0.0448438
0.0465873
0.0484776
0.0505162
0.0527769
0.0551452
0.0578085
0.0605844
0.0637173
0.0669284
0.0704781
0.0741133
0.0782278
0.0822197
0.0865928
0.0909636
0.0958276
0.100374
0.105155
0.110133
0.115029
0.119979
0.124943
0.129873
0.134783
0.139575
0.144226
0.148652
0.153062
0.157157
0.1612
0.165008
0.168578
0.172107
0.175174
0.178208
0.180854
0.183408
0.185786
0.187863
0.189911
0.191751
0.193525
0.194989
0.196434
0.197684
0.198936
0.199991
0.201087
0.201974
0.2029
0.203646
0.20444
0.205056
0.205727
0.20621
0.206688
0.207072
0.207499
0.20789
0.208306
0.208694
0.209073
0.209395
0.209713
0.210002
0.210286
0.210563
0.210825
0.211099
0.211371
0.21166
0.211961
0.212278
0.212609
0.212964
0.213269
0.213517
0.213692
0.213768
0.213887
0.213907
0.214125
0.214477
0.214829
0.215158
0.21552
0.215889
0.216233
0.216535
0.216832
0.217069
0.21729
0.217463
0.217608
0.217734
0.217837
0.217945
0.218045
0.218153
0.218268
0.218392
0.218524
0.218667
0.21882
0.218987
0.219168
0.219357
0.219553
0.219738
0.219927
0.2201
0.220283
0.220445
0.220612
0.220757
0.220872
0.220961
0.22099
0.220999
0.220984
0.220954
0.220892
0.220885
0.220907
0.220942
0.220992
0.221069
0.221177
0.221301
0.221437
0.221566
0.221699
0.221798
0.221887
0.221926
0.221944
0.221921
0.221879
0.221818
0.221746
0.221678
0.221635
0.221614
0.221622
0.221653
0.221703
0.221769
0.221843
0.221922
0.221988
0.222036
0.222042
0.22203
0.221974
0.221903
0.221814
0.221724
0.221639
0.22156
0.221518
0.221485
0.22147
0.221479
0.22151
0.221541
0.221572
0.221589
0.22158
0.221572
0.221492
0.221397
0.221296
0.221187
0.221074
0.22097
0.220878
0.220816
0.220764
0.220727
0.220701
0.220689
0.22068
0.220661
0.220647
0.220581
0.220496
0.2204
0.22029
0.220171
0.220051
0.219935
0.219821
0.219734
0.219655
0.219588
0.219532
0.219486
0.219442
0.219404
0.219299
0.0344586
0.0342902
0.034349
0.0343736
0.0345301
0.0346624
0.0346957
0.0346356
0.0345085
0.0343259
0.0341147
0.0339001
0.0337
0.0335183
0.0333583
0.0332198
0.0331059
0.0330172
0.0329549
0.0329187
0.0329078
0.0329346
0.0329876
0.0330831
0.0332171
0.0334063
0.0336445
0.0339556
0.034325
0.0347889
0.0353188
0.0359558
0.0366554
0.0375212
0.0384573
0.039555
0.0407261
0.0421527
0.0436897
0.0453804
0.047349
0.0494924
0.0518171
0.0544003
0.0571493
0.0602601
0.0635329
0.0672759
0.0710363
0.0752482
0.0795354
0.0845065
0.0891924
0.0943562
0.0994943
0.105217
0.110714
0.116323
0.122099
0.127864
0.133582
0.139354
0.145009
0.150667
0.156116
0.161336
0.166237
0.171097
0.175559
0.179979
0.183964
0.187851
0.191468
0.194654
0.197755
0.200342
0.202941
0.205169
0.207188
0.209103
0.210779
0.212347
0.213583
0.214797
0.215751
0.216728
0.217463
0.218265
0.218807
0.219418
0.219826
0.22029
0.220544
0.220871
0.220998
0.221132
0.221211
0.221343
0.221413
0.221535
0.221624
0.221721
0.221794
0.221877
0.221936
0.221997
0.222055
0.222111
0.222194
0.222284
0.222398
0.222533
0.222684
0.222854
0.223051
0.223171
0.223233
0.223258
0.223218
0.223201
0.223138
0.22322
0.223445
0.223712
0.223937
0.224175
0.224414
0.224655
0.224856
0.225061
0.2252
0.225338
0.225408
0.225467
0.2255
0.225524
0.225556
0.225571
0.225596
0.225632
0.225679
0.225739
0.225811
0.225898
0.225998
0.226115
0.226238
0.226372
0.226495
0.226628
0.226743
0.22688
0.226985
0.227097
0.227183
0.227242
0.227271
0.227251
0.227211
0.227151
0.227074
0.226969
0.226916
0.226895
0.226887
0.226899
0.226935
0.227003
0.227087
0.227183
0.227274
0.227371
0.227435
0.227484
0.227491
0.227474
0.227416
0.227344
0.227255
0.227153
0.227055
0.226982
0.226935
0.226913
0.226914
0.22694
0.226982
0.227029
0.227081
0.227121
0.227145
0.227128
0.227091
0.227012
0.226919
0.22681
0.226699
0.226592
0.226494
0.226432
0.22638
0.226346
0.226336
0.226347
0.22636
0.226373
0.226373
0.226342
0.226321
0.226224
0.226113
0.225995
0.22587
0.225741
0.225622
0.225515
0.225437
0.225371
0.22532
0.22528
0.225253
0.225231
0.225196
0.225169
0.225093
0.224992
0.224883
0.22476
0.224628
0.224495
0.224366
0.22424
0.224141
0.22405
0.223971
0.223904
0.223846
0.223791
0.223741
0.223619
0.0345377
0.0343755
0.0344653
0.0345321
0.034659
0.0347151
0.0346847
0.0345808
0.0344265
0.034212
0.0339921
0.0337753
0.033578
0.0334002
0.0332432
0.0331077
0.0329952
0.0329065
0.0328415
0.0328012
0.032785
0.0328065
0.0328528
0.0329428
0.0330703
0.0332582
0.0334932
0.0338101
0.0341855
0.0346625
0.0352033
0.0358785
0.0366164
0.0375557
0.0385813
0.0398055
0.041119
0.042738
0.0444969
0.0464571
0.0487566
0.0512364
0.053968
0.056989
0.0602805
0.0640358
0.0678967
0.0724473
0.0768825
0.0819177
0.0869985
0.0928786
0.0984581
0.104565
0.110503
0.117075
0.12383
0.130243
0.136644
0.143177
0.149561
0.155996
0.162308
0.168573
0.174567
0.180172
0.185455
0.190469
0.195237
0.199821
0.203921
0.208061
0.211656
0.214999
0.218041
0.220653
0.223277
0.225401
0.227394
0.229325
0.230782
0.23221
0.23332
0.234493
0.235163
0.236034
0.236489
0.237135
0.237378
0.237761
0.237899
0.238087
0.238047
0.238067
0.237839
0.237672
0.237455
0.237292
0.237018
0.236802
0.236531
0.236279
0.23604
0.235827
0.235586
0.235357
0.235136
0.234929
0.234761
0.234612
0.234502
0.234416
0.234358
0.234326
0.23432
0.234198
0.234035
0.233876
0.233696
0.233541
0.233366
0.233282
0.233353
0.233495
0.233586
0.233664
0.233758
0.233862
0.233942
0.234024
0.234055
0.234079
0.23403
0.233982
0.233903
0.233831
0.233768
0.23368
0.233605
0.233544
0.233499
0.233468
0.233454
0.233457
0.233478
0.233513
0.233557
0.23361
0.23366
0.23372
0.233769
0.233841
0.233881
0.23392
0.233935
0.233926
0.233881
0.233801
0.233703
0.233584
0.233451
0.233299
0.233186
0.233112
0.233054
0.233016
0.233
0.233016
0.233052
0.233098
0.233143
0.233192
0.233213
0.233218
0.233176
0.233119
0.23302
0.232908
0.232783
0.232647
0.232512
0.232404
0.232321
0.232262
0.23223
0.232222
0.232232
0.232246
0.232263
0.23227
0.232263
0.232215
0.232151
0.232043
0.231922
0.231787
0.23165
0.231518
0.231395
0.231308
0.231232
0.231174
0.23114
0.231126
0.231117
0.231107
0.231081
0.231028
0.230986
0.23087
0.230739
0.2306
0.230455
0.230308
0.23017
0.230044
0.229948
0.229863
0.229795
0.229737
0.229693
0.229654
0.229599
0.229555
0.229466
0.229346
0.229223
0.229084
0.228937
0.228788
0.228644
0.228504
0.22839
0.228285
0.228192
0.228112
0.22804
0.22797
0.227906
0.227763
0.0346103
0.0344686
0.0345799
0.0346728
0.0347447
0.0347389
0.0346604
0.034526
0.0343357
0.03411
0.0338836
0.0336696
0.0334759
0.0333017
0.0331478
0.0330146
0.0329029
0.0328131
0.0327452
0.0327026
0.0326827
0.032699
0.032741
0.0328287
0.0329529
0.0331457
0.0333853
0.0337125
0.0340947
0.0346053
0.0351822
0.035932
0.0367548
0.0378189
0.0389893
0.040401
0.0419329
0.0438346
0.0458921
0.048232
0.0510177
0.0538383
0.0570883
0.0607749
0.0646982
0.0692715
0.0738285
0.0792518
0.0845337
0.090493
0.0963774
0.103035
0.10952
0.11651
0.123172
0.130451
0.138169
0.145089
0.152074
0.158941
0.165849
0.172584
0.179426
0.185768
0.192084
0.197826
0.203233
0.208205
0.213053
0.217619
0.221818
0.225982
0.229654
0.233098
0.236133
0.238834
0.241423
0.243493
0.245705
0.24781
0.249063
0.250504
0.251671
0.252882
0.253527
0.254402
0.25483
0.255432
0.255631
0.255909
0.255983
0.256062
0.255851
0.255718
0.255311
0.254979
0.254592
0.254269
0.253745
0.253281
0.252705
0.252155
0.251632
0.251152
0.250638
0.250133
0.249624
0.249134
0.248693
0.248275
0.247907
0.247572
0.247273
0.247001
0.246741
0.246346
0.245934
0.245561
0.245214
0.244914
0.244605
0.24437
0.244239
0.244196
0.244127
0.24403
0.243949
0.243888
0.243822
0.243765
0.243656
0.243553
0.243365
0.243188
0.242985
0.242798
0.242621
0.242414
0.242221
0.242047
0.241892
0.241757
0.241641
0.241547
0.241471
0.241409
0.241358
0.241316
0.241278
0.241253
0.241225
0.24122
0.241172
0.241135
0.241058
0.240968
0.240842
0.240688
0.240521
0.240334
0.240139
0.23993
0.23975
0.23961
0.239491
0.239393
0.23932
0.239274
0.239249
0.239235
0.239225
0.239219
0.239182
0.239133
0.239039
0.238935
0.238786
0.238628
0.23846
0.238283
0.238106
0.237955
0.237831
0.237728
0.237654
0.237607
0.237576
0.23755
0.237528
0.237492
0.237447
0.237365
0.237266
0.237124
0.23697
0.236805
0.236637
0.236475
0.236323
0.236206
0.2361
0.236014
0.23595
0.235907
0.235869
0.235829
0.235777
0.235694
0.235626
0.235489
0.235335
0.23517
0.235002
0.234833
0.234673
0.234525
0.234407
0.2343
0.23421
0.234132
0.234066
0.234006
0.233928
0.233864
0.233759
0.233618
0.233476
0.23332
0.233155
0.232988
0.232826
0.23267
0.232539
0.232417
0.232308
0.232211
0.232122
0.232036
0.231956
0.231789
0.0346845
0.0345666
0.0346919
0.0347709
0.0347903
0.0347421
0.0346191
0.0344754
0.0342536
0.0340214
0.0337927
0.0335832
0.0333934
0.033223
0.0330718
0.0329405
0.0328289
0.0327378
0.0326683
0.0326241
0.0326017
0.0326144
0.0326547
0.0327451
0.0328717
0.0330744
0.0333192
0.0336733
0.0340846
0.0346652
0.0353233
0.0361915
0.0371502
0.0383996
0.0397794
0.0414457
0.0432926
0.045591
0.048004
0.0507737
0.0541797
0.0574205
0.0612586
0.0658962
0.0704558
0.075887
0.081234
0.0874811
0.0935927
0.10034
0.106825
0.113915
0.121083
0.128634
0.136074
0.143655
0.151818
0.159096
0.166368
0.172982
0.180144
0.186866
0.193588
0.199913
0.205988
0.211691
0.21684
0.221889
0.226491
0.231049
0.235155
0.239095
0.242748
0.246262
0.24933
0.252256
0.254913
0.257002
0.259422
0.261347
0.262871
0.264521
0.265794
0.267126
0.268053
0.269079
0.269721
0.270429
0.270836
0.271237
0.271434
0.271609
0.271515
0.271463
0.271133
0.270878
0.270566
0.270311
0.269768
0.269268
0.268581
0.267921
0.267281
0.2667
0.266043
0.265386
0.264701
0.264029
0.263389
0.26277
0.262188
0.261642
0.261108
0.260604
0.260061
0.259397
0.258744
0.258158
0.257642
0.257197
0.256787
0.25636
0.256021
0.255768
0.255518
0.255223
0.254952
0.254708
0.254473
0.254251
0.253991
0.25374
0.253401
0.253082
0.252741
0.252424
0.252118
0.251776
0.251452
0.251151
0.250872
0.250616
0.250386
0.250178
0.249993
0.249821
0.24966
0.249509
0.249371
0.249246
0.24913
0.249033
0.248889
0.248758
0.248579
0.248395
0.248178
0.24794
0.247694
0.247428
0.247163
0.246891
0.246636
0.246421
0.246232
0.246064
0.245923
0.245806
0.245711
0.245629
0.245553
0.245482
0.245379
0.24527
0.245115
0.244954
0.24475
0.244537
0.24432
0.244097
0.243873
0.243674
0.243501
0.243348
0.243226
0.243132
0.243053
0.24298
0.242911
0.242826
0.242738
0.242615
0.242476
0.242295
0.242103
0.241903
0.241701
0.241503
0.241318
0.241165
0.241026
0.240907
0.240808
0.240729
0.240658
0.240585
0.240499
0.240384
0.240283
0.240123
0.239941
0.239748
0.239552
0.239359
0.239174
0.239001
0.238856
0.238724
0.238609
0.238507
0.238415
0.23833
0.238226
0.238138
0.238013
0.237849
0.237686
0.237509
0.237325
0.237137
0.236956
0.23678
0.23663
0.236488
0.23636
0.236245
0.236136
0.236032
0.235932
0.235738
0.0347283
0.0346606
0.0347703
0.0348275
0.0348153
0.0347288
0.034589
0.0344153
0.0341823
0.0339471
0.0337209
0.0335161
0.0333304
0.0331637
0.0330149
0.0328849
0.032773
0.0326811
0.0326118
0.0325661
0.0325429
0.0325549
0.0325966
0.0326967
0.0328259
0.0330495
0.0333179
0.0337326
0.0342159
0.0349065
0.0356931
0.0367322
0.0378856
0.0393887
0.0410472
0.0430282
0.0452853
0.0481178
0.0509025
0.0540733
0.0581256
0.0621086
0.0666446
0.0721246
0.0773722
0.0835578
0.0895987
0.0964093
0.103101
0.110325
0.117349
0.1246
0.132187
0.139633
0.147545
0.154938
0.162922
0.17023
0.177424
0.183946
0.19053
0.197121
0.203186
0.209198
0.214498
0.220178
0.22503
0.230114
0.234427
0.238967
0.242752
0.246608
0.250029
0.253436
0.256378
0.259588
0.262013
0.264221
0.266897
0.268555
0.270587
0.272605
0.273751
0.275154
0.276354
0.277664
0.278587
0.279527
0.280226
0.280918
0.281366
0.281805
0.28202
0.282242
0.282299
0.282372
0.282404
0.282453
0.282208
0.281975
0.28149
0.281036
0.280584
0.280169
0.279631
0.279104
0.278508
0.277904
0.277292
0.276675
0.276064
0.275481
0.274854
0.274219
0.273466
0.272626
0.271829
0.271111
0.270482
0.269954
0.269459
0.268896
0.26838
0.267922
0.267481
0.267004
0.266548
0.266119
0.265711
0.265328
0.26491
0.264512
0.264023
0.26356
0.263081
0.26263
0.262189
0.261708
0.261244
0.260807
0.260394
0.260011
0.259655
0.259326
0.259019
0.258725
0.258443
0.258174
0.257923
0.257691
0.257473
0.257275
0.25702
0.256784
0.256492
0.256204
0.255887
0.255558
0.255224
0.254873
0.254532
0.254187
0.253855
0.253555
0.253287
0.253041
0.252823
0.252626
0.252453
0.252292
0.25214
0.251997
0.251819
0.251641
0.251418
0.251194
0.250929
0.250657
0.250386
0.250109
0.249835
0.249581
0.249353
0.249145
0.248969
0.24882
0.248687
0.248559
0.248437
0.248297
0.248159
0.24799
0.247805
0.24758
0.247347
0.247107
0.246867
0.246631
0.246407
0.246215
0.246037
0.24588
0.245743
0.245623
0.245512
0.2454
0.245278
0.245125
0.244988
0.244801
0.244588
0.244363
0.244137
0.243915
0.243702
0.2435
0.243326
0.243165
0.243022
0.242892
0.24277
0.242657
0.242524
0.242407
0.242261
0.242071
0.241883
0.241684
0.241477
0.241266
0.241063
0.240866
0.240694
0.24053
0.240381
0.240244
0.240113
0.239987
0.239866
0.239642
0.0347461
0.0347162
0.0348251
0.0348565
0.0348175
0.0347056
0.0345651
0.0343616
0.0341243
0.0338882
0.0336677
0.0334679
0.0332862
0.0331231
0.0329764
0.0328473
0.0327353
0.0326446
0.032575
0.0325293
0.0325078
0.0325245
0.032569
0.032684
0.03283
0.0331023
0.0334324
0.0339459
0.034545
0.0353937
0.0363583
0.0376201
0.0390366
0.0408661
0.0428705
0.0451946
0.0478783
0.0513612
0.0546721
0.0582273
0.0627157
0.0679535
0.0730135
0.0790596
0.0849434
0.0916674
0.0981811
0.105315
0.112381
0.119613
0.126941
0.134034
0.141565
0.148608
0.156223
0.16331
0.170184
0.177218
0.184024
0.190528
0.196632
0.202902
0.207918
0.213528
0.218146
0.223456