/*--------------------------------*- C++ -*----------------------------------*\
| =========                 |                                                 |
| \\      /  F ield         | OpenFOAM: The Open Source CFD Toolbox           |
|  \\    /   O peration     | Version:  2312                                  |
|   \\  /    A nd           | Website:  www.openfoam.com                      |
|    \\/     M anipulation  |                                                 |
\*---------------------------------------------------------------------------*/
FoamFile
{
    version     2.0;
    format      ascii;
    arch        "LSB;label=32;scalar=64";
    class       volScalarField;
    location    "0.006";
    object      T;
}
// * * * * * * * * * * * * * * * * * * * * * * * * * * * * * * * * * * * * * //

dimensions      [0 0 0 1 0 0 0];

internalField   nonuniform List<scalar> 
48128
(
355.816
355.918
355.631
355.452
355.504
355.478
355.531
355.631
355.577
355.195
353.415
351.685
350.548
349.566
348.759
347.235
345.911
344.65
343.468
342.379
341.406
340.483
339.6
338.787
338.055
337.414
336.879
336.48
336.22
336.081
336.043
336.182
336.461
336.873
337.398
338.035
338.78
339.622
340.495
341.456
342.463
343.479
344.488
345.488
346.451
347.355
348.197
348.971
349.661
350.271
350.744
351.155
351.423
351.599
351.619
351.539
351.319
350.983
350.536
349.987
349.342
348.611
347.803
346.921
345.964
344.928
343.832
342.694
341.499
340.28
338.998
337.692
336.362
334.988
333.623
332.207
330.822
329.421
328.019
326.666
325.31
324.013
322.701
321.432
320.153
318.949
317.737
316.604
315.477
314.409
313.347
312.344
311.36
310.411
309.466
308.531
307.605
306.729
305.917
305.18
304.492
303.826
303.158
302.51
301.886
301.296
300.742
300.221
299.728
299.259
298.824
298.418
298.053
297.716
297.407
297.118
296.807
296.472
296.115
295.698
295.077
295.115
294.963
294.616
294.647
294.581
294.486
294.372
294.241
294.096
293.941
293.782
293.623
293.462
293.301
293.138
292.985
292.86
292.754
292.658
292.569
292.494
292.431
292.38
292.333
292.31
292.311
292.317
292.325
292.335
292.345
292.36
292.382
292.408
292.425
292.442
292.437
292.424
292.398
292.369
292.329
292.305
292.321
292.333
292.356
292.402
292.462
292.541
292.625
292.716
292.797
292.876
292.934
292.993
293.018
293.045
293.045
293.046
293.031
293.027
293.037
293.058
293.092
293.149
293.218
293.292
293.373
293.461
293.549
293.624
293.687
293.722
293.766
293.771
293.783
293.78
293.789
293.807
293.837
293.878
293.93
293.994
294.071
294.156
294.237
294.314
294.381
294.437
294.504
294.502
294.515
294.533
294.542
294.56
294.588
294.627
294.676
294.735
294.801
294.873
294.952
295.022
295.095
295.157
295.189
295.224
295.261
295.274
295.296
295.323
295.356
295.396
295.444
295.5
295.562
295.628
295.699
295.767
295.831
295.909
355.408
355.587
355.347
355.152
355.229
355.325
355.567
355.885
355.502
354.179
351.811
349.595
347.653
345.418
343.064
341.175
339.518
338.059
336.818
335.776
334.922
334.196
333.566
333.056
332.676
332.433
332.329
332.315
332.492
332.809
333.266
333.884
334.619
335.477
336.425
337.461
338.56
339.733
340.93
342.136
343.359
344.547
345.675
346.735
347.696
348.551
349.281
349.893
350.364
350.716
350.881
350.912
350.751
350.464
350.007
349.415
348.641
347.723
346.662
345.477
344.176
342.776
341.287
339.714
338.061
336.327
334.537
332.699
330.802
328.914
326.989
325.076
323.168
321.236
319.335
317.398
315.509
313.631
311.775
309.969
308.203
306.488
304.785
303.12
301.485
299.914
298.373
296.901
295.468
294.081
292.724
291.424
290.159
288.928
287.71
286.506
285.312
284.171
283.099
282.101
281.162
280.248
279.339
278.453
277.595
276.773
275.989
275.243
274.527
273.839
273.188
272.569
271.996
271.456
270.947
270.47
269.977
269.463
268.929
268.338
267.531
267.364
267.035
266.522
266.366
266.144
265.899
265.644
265.379
265.106
264.826
264.544
264.263
263.982
263.699
263.414
263.137
262.888
262.656
262.438
262.228
262.036
261.859
261.696
261.546
261.415
261.294
261.185
261.074
260.966
260.857
260.757
260.665
260.579
260.489
260.397
260.293
260.181
260.058
259.931
259.797
259.655
259.578
259.496
259.409
259.368
259.323
259.318
259.315
259.321
259.327
259.33
259.328
259.32
259.298
259.273
259.235
259.192
259.137
259.081
259.043
259.021
258.999
259.009
259.029
259.056
259.094
259.141
259.191
259.237
259.273
259.291
259.315
259.308
259.304
259.289
259.285
259.288
259.3
259.321
259.352
259.394
259.451
259.518
259.586
259.655
259.717
259.773
259.847
259.851
259.867
259.892
259.905
259.925
259.953
259.991
260.037
260.094
260.158
260.228
260.308
260.386
260.465
260.545
260.592
260.643
260.698
260.728
260.765
260.805
260.85
260.901
260.959
261.025
261.097
261.175
261.257
261.341
261.424
261.536
355.198
355.377
355.222
355.069
355.204
355.432
355.847
355.559
353.787
350.949
348.214
345.835
343.841
342.36
341.082
339.83
338.763
337.844
337.024
336.332
335.801
335.348
334.98
334.714
334.556
334.506
334.576
334.776
335.125
335.604
336.206
336.932
337.755
338.681
339.665
340.71
341.788
342.901
344.009
345.089
346.143
347.135
348.033
348.824
349.48
350.003
350.364
350.585
350.622
350.518
350.209
349.752
349.08
348.265
347.282
346.15
344.831
343.38
341.791
340.095
338.293
336.415
334.465
332.45
330.372
328.23
326.063
323.869
321.648
319.455
317.245
315.078
312.924
310.776
308.667
306.547
304.49
302.464
300.472
298.539
296.675
294.856
293.068
291.321
289.629
287.997
286.41
284.89
283.419
281.993
280.602
279.268
277.973
276.714
275.47
274.245
273.03
271.875
270.786
269.766
268.801
267.859
266.926
266.017
265.136
264.292
263.483
262.711
261.966
261.25
260.569
259.918
259.311
258.735
258.19
257.675
257.145
256.6
256.033
255.418
254.621
254.394
254.017
253.504
253.275
252.998
252.703
252.402
252.097
251.787
251.472
251.159
250.847
250.536
250.225
249.911
249.607
249.327
249.062
248.811
248.568
248.34
248.128
247.929
247.742
247.576
247.421
247.279
247.135
246.996
246.855
246.723
246.599
246.481
246.361
246.238
246.106
245.966
245.817
245.664
245.506
245.339
245.231
245.118
245
244.927
244.849
244.812
244.773
244.749
244.724
244.698
244.669
244.635
244.591
244.542
244.485
244.424
244.353
244.281
244.222
244.182
244.136
244.129
244.13
244.137
244.154
244.181
244.21
244.24
244.261
244.268
244.275
244.265
244.254
244.233
244.22
244.214
244.219
244.231
244.253
244.285
244.331
244.386
244.444
244.504
244.559
244.612
244.679
244.687
244.704
244.729
244.743
244.764
244.791
244.827
244.872
244.926
244.987
245.055
245.132
245.208
245.287
245.367
245.42
245.476
245.535
245.572
245.615
245.661
245.711
245.766
245.828
245.897
245.972
246.053
246.139
246.226
246.315
246.436
355.081
355.256
355.239
355.152
355.366
355.714
355.417
353.683
350.529
347.567
345.37
343.816
342.697
341.88
341.177
340.323
339.568
338.916
338.35
337.878
337.54
337.253
337.038
336.908
336.866
336.935
337.123
337.43
337.858
338.403
339.048
339.799
340.627
341.54
342.493
343.477
344.467
345.455
346.412
347.301
348.129
348.866
349.474
349.944
350.244
350.381
350.31
350.078
349.618
349.005
348.162
347.156
345.915
344.521
342.972
341.265
339.374
337.376
335.247
333.041
330.744
328.409
326.026
323.609
321.154
318.659
316.182
313.696
311.233
308.826
306.431
304.114
301.82
299.565
297.354
295.165
293.058
290.992
288.976
287.035
285.182
283.368
281.603
279.89
278.247
276.669
275.142
273.684
272.278
270.915
269.59
268.321
267.092
265.9
264.725
263.572
262.429
261.35
260.332
259.377
258.473
257.588
256.713
255.863
255.038
254.249
253.491
252.769
252.068
251.398
250.757
250.145
249.574
249.028
248.515
248.023
247.519
247.002
246.459
245.881
245.154
244.92
244.559
244.11
243.849
243.573
243.285
242.991
242.694
242.393
242.088
241.785
241.482
241.181
240.881
240.577
240.284
240.013
239.754
239.508
239.269
239.045
238.834
238.636
238.447
238.278
238.122
237.977
237.832
237.691
237.548
237.416
237.29
237.169
237.046
236.92
236.787
236.646
236.498
236.346
236.189
236.024
235.911
235.796
235.677
235.597
235.512
235.466
235.418
235.385
235.351
235.316
235.279
235.237
235.187
235.133
235.071
235.006
234.932
234.857
234.794
234.749
234.697
234.683
234.676
234.678
234.688
234.706
234.727
234.748
234.763
234.765
234.767
234.756
234.743
234.72
234.706
234.697
234.7
234.709
234.727
234.755
234.796
234.847
234.9
234.955
235.006
235.058
235.119
235.129
235.148
235.172
235.189
235.211
235.24
235.277
235.321
235.374
235.435
235.501
235.576
235.652
235.73
235.809
235.865
235.923
235.984
236.026
236.072
236.122
236.175
236.234
236.298
236.369
236.446
236.529
236.617
236.706
236.798
236.924
355.015
355.195
355.395
355.377
355.598
355.285
353.714
350.595
347.619
345.565
344.2
343.314
342.743
342.209
341.745
341.182
340.689
340.251
339.869
339.547
339.34
339.168
339.055
339.016
339.068
339.224
339.483
339.852
340.325
340.903
341.566
342.314
343.119
343.988
344.876
345.76
346.612
347.429
348.181
348.817
349.348
349.756
349.991
350.05
349.886
349.535
348.922
348.119
347.036
345.774
344.263
342.571
340.627
338.528
336.292
333.91
331.348
328.733
325.993
323.227
320.402
317.596
314.784
311.984
309.192
306.379
303.651
300.939
298.307
295.765
293.261
290.886
288.54
286.271
284.06
281.895
279.841
277.837
275.896
274.049
272.308
270.602
268.961
267.381
265.879
264.438
263.052
261.732
260.465
259.237
258.046
256.908
255.816
254.758
253.721
252.704
251.696
250.755
249.862
249.025
248.233
247.458
246.694
245.954
245.236
244.55
243.89
243.261
242.649
242.068
241.509
240.978
240.482
240.006
239.563
239.129
238.686
238.235
237.753
237.249
236.628
236.411
236.101
235.745
235.476
235.241
234.99
234.731
234.471
234.207
233.939
233.671
233.403
233.135
232.869
232.599
232.342
232.1
231.869
231.649
231.436
231.236
231.048
230.871
230.701
230.551
230.411
230.281
230.152
230.026
229.899
229.783
229.671
229.563
229.453
229.34
229.22
229.094
228.961
228.823
228.682
228.533
228.428
228.326
228.22
228.147
228.069
228.028
227.984
227.954
227.924
227.892
227.858
227.82
227.775
227.725
227.668
227.608
227.54
227.472
227.413
227.371
227.325
227.312
227.305
227.308
227.318
227.336
227.356
227.377
227.392
227.394
227.4
227.388
227.378
227.359
227.348
227.342
227.346
227.357
227.375
227.404
227.445
227.495
227.547
227.602
227.652
227.704
227.762
227.777
227.799
227.825
227.846
227.871
227.902
227.941
227.987
228.042
228.103
228.17
228.246
228.322
228.401
228.48
228.539
228.599
228.662
228.708
228.758
228.812
228.868
228.93
228.998
229.071
229.151
229.236
229.326
229.418
229.511
229.641
354.984
355.266
355.555
355.49
355.273
353.963
351.115
348.102
346.018
344.725
343.934
343.461
343.105
342.783
342.509
342.162
341.856
341.572
341.322
341.116
341.009
340.93
340.902
340.949
341.076
341.299
341.614
342.027
342.528
343.12
343.778
344.498
345.247
346.029
346.804
347.535
348.183
348.753
349.213
349.508
349.632
349.57
349.289
348.785
347.993
346.969
345.617
344.024
342.097
339.95
337.548
334.947
332.09
329.1
325.96
322.796
319.426
316.083
312.654
309.237
305.884
302.563
299.379
296.231
293.18
290.104
287.222
284.381
281.688
279.128
276.634
274.334
272.068
269.928
267.857
265.859
264.001
262.203
260.481
258.868
257.38
255.918
254.525
253.186
251.931
250.723
249.572
248.478
247.436
246.423
245.448
244.518
243.636
242.78
241.948
241.126
240.31
239.558
238.837
238.166
237.534
236.917
236.309
235.724
235.154
234.612
234.087
233.588
233.102
232.646
232.204
231.788
231.398
231.024
230.677
230.332
229.979
229.625
229.234
228.833
228.35
228.161
227.93
227.685
227.446
227.272
227.081
226.879
226.678
226.471
226.262
226.05
225.837
225.623
225.41
225.192
224.989
224.795
224.608
224.432
224.263
224.104
223.953
223.815
223.68
223.563
223.454
223.353
223.254
223.156
223.058
222.97
222.885
222.801
222.716
222.627
222.533
222.431
222.325
222.212
222.097
221.975
221.888
221.809
221.726
221.67
221.609
221.582
221.553
221.535
221.517
221.498
221.476
221.45
221.417
221.38
221.335
221.289
221.235
221.181
221.135
221.103
221.07
221.064
221.066
221.075
221.091
221.114
221.14
221.165
221.186
221.196
221.211
221.202
221.202
221.19
221.186
221.188
221.197
221.214
221.237
221.27
221.315
221.368
221.424
221.481
221.534
221.59
221.647
221.672
221.699
221.728
221.755
221.786
221.822
221.866
221.916
221.974
222.038
222.108
222.186
222.265
222.347
222.427
222.49
222.554
222.62
222.671
222.726
222.785
222.846
222.912
222.983
223.06
223.143
223.232
223.324
223.419
223.515
223.65
355.014
355.323
355.589
355.194
354.282
351.905
348.843
346.632
345.279
344.51
344.071
343.797
343.627
343.468
343.322
343.13
342.953
342.789
342.649
342.542
342.518
342.523
342.571
342.688
342.878
343.153
343.505
343.943
344.451
345.03
345.65
346.3
346.945
347.581
348.167
348.667
349.019
349.227
349.252
349.038
348.577
347.838
346.807
345.487
343.778
341.75
339.322
336.576
333.444
330.044
326.408
322.617
318.561
314.474
310.146
306.238
302.004
297.775
293.725
289.588
285.81
281.96
278.554
275.124
271.958
268.722
265.822
262.988
260.393
257.99
255.691
253.665
251.663
249.852
248.103
246.464
244.979
243.566
242.233
241.024
239.948
238.888
237.883
236.918
236.034
235.18
234.383
233.628
232.918
232.228
231.571
230.941
230.345
229.763
229.205
228.639
228.076
227.565
227.071
226.619
226.194
225.777
225.367
224.974
224.587
224.22
223.863
223.527
223.198
222.897
222.6
222.327
222.068
221.823
221.595
221.363
221.124
220.892
220.619
220.342
220.019
219.866
219.75
219.616
219.453
219.344
219.23
219.102
218.978
218.844
218.713
218.572
218.431
218.287
218.143
217.994
217.859
217.726
217.598
217.481
217.368
217.263
217.164
217.076
216.989
216.918
216.852
216.792
216.734
216.676
216.618
216.569
216.521
216.471
216.422
216.366
216.307
216.236
216.17
216.091
216.011
215.925
215.867
215.817
215.766
215.735
215.701
215.695
215.688
215.69
215.691
215.691
215.69
215.684
215.669
215.654
215.626
215.604
215.57
215.535
215.509
215.495
215.481
215.487
215.502
215.524
215.553
215.587
215.623
215.659
215.691
215.712
215.742
215.742
215.756
215.756
215.764
215.777
215.797
215.823
215.856
215.897
215.95
216.01
216.072
216.136
216.195
216.257
216.318
216.356
216.39
216.427
216.462
216.502
216.545
216.596
216.652
216.716
216.786
216.861
216.943
217.027
217.114
217.197
217.267
217.336
217.407
217.466
217.527
217.591
217.658
217.73
217.806
217.889
217.976
218.069
218.166
218.264
218.365
218.505
355.083
355.225
355.328
354.476
352.7
349.81
347.417
345.895
345.04
344.606
344.366
344.244
344.202
344.157
344.112
344.029
343.953
343.885
343.837
343.816
343.859
343.937
344.047
344.22
344.454
344.761
345.129
345.565
346.046
346.571
347.103
347.626
348.091
348.494
348.784
348.927
348.813
348.479
347.829
346.819
345.438
343.632
341.46
338.9
335.859
332.375
328.455
324.179
319.497
314.569
309.364
304.34
298.978
293.794
288.218
283.746
278.804
273.656
269.237
264.519
260.519
256.309
252.892
249.35
246.269
243.086
240.332
237.688
235.359
233.249
231.296
229.654
228.051
226.695
225.381
224.234
223.215
222.308
221.458
220.771
220.158
219.613
219.062
218.624
218.187
217.829
217.465
217.179
216.876
216.625
216.36
216.137
215.89
215.674
215.446
215.212
214.962
214.769
214.558
214.375
214.195
214.018
213.838
213.673
213.499
213.34
213.181
213.038
212.89
212.767
212.637
212.53
212.422
212.326
212.237
212.14
212.03
211.938
211.796
211.672
211.518
211.434
211.436
211.411
211.359
211.327
211.299
211.258
211.222
211.177
211.135
211.08
211.024
210.961
210.9
210.83
210.776
210.717
210.66
210.611
210.564
210.525
210.488
210.461
210.433
210.416
210.402
210.394
210.384
210.377
210.366
210.367
210.362
210.358
210.35
210.337
210.32
210.288
210.271
210.231
210.197
210.156
210.132
210.119
210.106
210.107
210.109
210.127
210.15
210.177
210.205
210.232
210.257
210.277
210.285
210.302
210.294
210.303
210.292
210.285
210.285
210.294
210.303
210.326
210.36
210.4
210.447
210.497
210.549
210.6
210.648
210.685
210.731
210.749
210.778
210.796
210.819
210.848
210.883
210.923
210.97
211.023
211.086
211.157
211.229
211.303
211.371
211.443
211.51
211.566
211.609
211.656
211.703
211.753
211.807
211.867
211.933
212.005
212.083
212.166
212.255
212.345
212.438
212.528
212.608
212.683
212.76
212.828
212.897
212.969
213.043
213.123
213.206
213.295
213.388
213.487
213.589
213.693
213.799
213.947
355.139
354.932
354.781
353.367
350.932
348.39
346.626
345.598
345.097
344.842
344.744
344.729
344.777
344.81
344.835
344.84
344.845
344.854
344.88
344.928
345.026
345.157
345.314
345.523
345.778
346.091
346.444
346.838
347.244
347.656
348.027
348.339
348.513
348.549
348.347
347.899
347.027
345.798
344.039
341.778
339
335.634
331.954
327.709
322.933
317.624
311.883
305.983
299.65
293.251
286.402
280.47
274.051
268.136
261.615
256.792
251.515
245.776
241.233
236.245
232.384
228.174
225.013
221.678
218.908
216.091
213.672
211.456
209.554
207.889
206.451
205.218
204.154
203.211
202.39
201.706
201.109
200.719
200.219
200.067
199.788
199.769
199.537
199.656
199.534
199.72
199.685
199.917
199.935
200.163
200.241
200.473
200.558
200.78
200.859
201.04
201.141
201.321
201.417
201.551
201.637
201.736
201.81
201.91
201.98
202.056
202.117
202.183
202.237
202.309
202.364
202.436
202.5
202.565
202.641
202.677
202.711
202.76
202.772
202.829
202.823
202.865
202.959
203.061
203.121
203.186
203.244
203.307
203.361
203.423
203.474
203.52
203.552
203.581
203.612
203.632
203.668
203.688
203.711
203.739
203.767
203.8
203.834
203.873
203.914
203.959
204.004
204.053
204.099
204.151
204.196
204.251
204.296
204.345
204.384
204.421
204.451
204.467
204.505
204.51
204.532
204.536
204.555
204.584
204.615
204.654
204.695
204.746
204.802
204.862
204.922
204.98
205.035
205.087
205.126
205.176
205.198
205.236
205.258
205.284
205.313
205.35
205.386
205.433
205.489
205.553
205.621
205.691
205.762
205.833
205.9
205.958
206.024
206.064
206.111
206.151
206.195
206.243
206.296
206.354
206.418
206.486
206.563
206.647
206.733
206.82
206.9
206.984
207.062
207.138
207.193
207.253
207.314
207.377
207.445
207.517
207.594
207.677
207.766
207.858
207.956
208.055
208.156
208.254
208.346
208.429
208.515
208.595
208.673
208.754
208.838
208.926
209.018
209.115
209.216
209.322
209.431
209.541
209.654
209.812
355.175
354.555
354.009
352.072
349.556
347.537
346.261
345.606
345.275
345.153
345.144
345.215
345.316
345.406
345.485
345.554
345.621
345.69
345.772
345.872
346.008
346.171
346.354
346.573
346.821
347.104
347.398
347.696
347.958
348.174
348.273
348.228
347.906
347.316
346.276
344.828
342.757
340.141
336.752
332.731
328.152
322.846
317.49
311.235
304.477
297.429
289.816
282.656
274.902
267.494
259.294
252.998
245.897
239.819
233.152
228.019
223.062
217.557
213.324
208.696
205.309
201.633
198.909
196.217
193.903
191.773
189.819
188.277
186.85
185.783
184.837
184.02
183.528
182.824
182.553
182.132
181.924
181.917
181.604
181.899
181.746
182.099
182.078
182.5
182.571
183.044
183.225
183.711
183.965
184.438
184.776
185.247
185.596
186.06
186.408
186.859
187.264
187.719
188.096
188.502
188.853
189.214
189.55
189.908
190.233
190.554
190.843
191.129
191.396
191.672
191.923
192.18
192.418
192.653
192.884
193.069
193.257
193.441
193.626
193.838
194.006
194.174
194.38
194.602
194.775
194.942
195.102
195.267
195.423
195.588
195.739
195.889
196.017
196.145
196.271
196.389
196.516
196.623
196.731
196.842
196.951
197.061
197.171
197.282
197.394
197.507
197.616
197.728
197.836
197.949
198.056
198.171
198.271
198.374
198.467
198.558
198.64
198.715
198.803
198.866
198.94
199
199.068
199.143
199.221
199.303
199.386
199.476
199.57
199.665
199.76
199.855
199.944
200.031
200.106
200.19
200.25
200.319
200.379
200.441
200.503
200.572
200.64
200.715
200.798
200.888
200.981
201.075
201.169
201.262
201.352
201.433
201.522
201.587
201.657
201.722
201.79
201.861
201.935
202.014
202.097
202.184
202.278
202.378
202.48
202.582
202.678
202.777
202.868
202.965
203.036
203.111
203.189
203.269
203.351
203.438
203.529
203.625
203.726
203.831
203.939
204.049
204.16
204.269
204.375
204.468
204.563
204.657
204.747
204.839
204.933
205.032
205.134
205.24
205.351
205.465
205.583
205.701
205.821
205.991
355.121
354.116
353.13
350.849
348.664
347.093
346.194
345.719
345.526
345.485
345.547
345.67
345.807
345.935
346.055
346.167
346.277
346.39
346.509
346.641
346.796
346.969
347.15
347.348
347.551
347.755
347.927
348.055
348.07
347.952
347.561
346.889
345.711
344.084
341.739
338.781
335.042
330.544
325.106
318.919
312.576
305.281
297.997
289.911
281.279
273.044
263.824
256.054
247.289
239.654
230.979
224.829
217.804
212.259
206.326
201.131
196.997
192.426
188.659
185.096
182.143
179.613
177.314
175.535
173.672
172.505
170.984
170.285
169.173
168.812
168.137
167.797
167.705
167.154
167.377
166.979
167.201
167.207
167.222
167.667
167.522
168.047
168.112
168.651
168.777
169.34
169.589
170.14
170.473
171.019
171.422
171.979
172.395
172.953
173.412
173.973
174.51
175.091
175.614
176.162
176.665
177.187
177.698
178.232
178.74
179.246
179.726
180.201
180.657
181.117
181.546
181.974
182.374
182.767
183.135
183.465
183.796
184.126
184.471
184.833
185.167
185.462
185.777
186.112
186.401
186.669
186.931
187.201
187.459
187.727
187.978
188.232
188.456
188.688
188.908
189.125
189.348
189.543
189.739
189.934
190.125
190.315
190.503
190.691
190.875
191.059
191.235
191.413
191.585
191.762
191.934
192.11
192.269
192.431
192.58
192.727
192.867
193.001
193.143
193.266
193.397
193.515
193.635
193.762
193.888
194.018
194.145
194.277
194.411
194.546
194.679
194.812
194.939
195.063
195.178
195.298
195.398
195.504
195.605
195.706
195.805
195.908
196.01
196.117
196.229
196.348
196.469
196.589
196.708
196.827
196.942
197.051
197.165
197.257
197.354
197.446
197.541
197.637
197.735
197.837
197.942
198.05
198.164
198.282
198.402
198.523
198.636
198.751
198.861
198.978
199.068
199.161
199.258
199.355
199.456
199.559
199.666
199.777
199.892
200.011
200.132
200.254
200.378
200.498
200.62
200.724
200.832
200.941
201.043
201.148
201.255
201.366
201.48
201.597
201.718
201.843
201.97
202.097
202.227
202.411
355.013
353.665
352.244
350.011
348.164
346.938
346.226
345.906
345.803
345.82
345.928
346.081
346.24
346.393
346.537
346.677
346.813
346.949
347.087
347.231
347.383
347.538
347.684
347.822
347.926
347.988
347.947
347.782
347.346
346.629
345.393
343.677
341.195
338.044
333.931
328.983
323.21
316.575
309.02
300.567
292.866
283.781
274.295
265.238
255.189
246.424
236.364
228.667
219.8
212.829
204.712
199.109
192.658
187.985
183.083
178.74
175.094
172.114
168.804
166.641
164.177
162.857
160.938
160.28
158.608
158.625
157.324
157.576
156.603
157.002
156.347
156.7
156.513
156.638
156.857
156.664
157.197
156.946
157.458
157.875
157.711
158.314
158.322
158.869
158.948
159.511
159.68
160.205
160.443
160.961
161.25
161.767
162.097
162.616
163.004
163.534
164.024
164.575
165.08
165.618
166.119
166.658
167.196
167.766
168.326
168.894
169.449
170.01
170.564
171.118
171.657
172.194
172.711
173.213
173.687
174.13
174.575
175.032
175.508
176.001
176.472
176.893
177.3
177.728
178.122
178.486
178.844
179.209
179.564
179.928
180.272
180.627
180.945
181.275
181.587
181.9
182.216
182.497
182.781
183.059
183.331
183.6
183.865
184.128
184.385
184.639
184.881
185.126
185.364
185.605
185.842
186.082
186.3
186.521
186.728
186.932
187.131
187.325
187.524
187.708
187.897
188.076
188.25
188.428
188.606
188.786
188.959
189.134
189.309
189.486
189.659
189.832
189.998
190.162
190.317
190.478
190.619
190.766
190.908
191.051
191.188
191.328
191.466
191.607
191.751
191.901
192.052
192.2
192.346
192.492
192.635
192.772
192.914
193.035
193.161
193.284
193.406
193.53
193.654
193.781
193.911
194.042
194.177
194.316
194.456
194.596
194.728
194.863
194.993
195.13
195.242
195.356
195.473
195.59
195.71
195.831
195.956
196.084
196.215
196.349
196.485
196.621
196.757
196.892
197.03
197.149
197.271
197.396
197.512
197.631
197.752
197.876
198.003
198.133
198.265
198.401
198.539
198.678
198.818
199.016
354.746
353.194
351.442
349.387
347.83
346.867
346.34
346.124
346.082
346.138
346.276
346.444
346.613
346.776
346.932
347.082
347.227
347.369
347.506
347.639
347.763
347.869
347.938
347.962
347.89
347.71
347.279
346.58
345.36
343.648
341.127
337.896
333.682
328.567
322.348
315.106
307.14
298.715
289.35
278.887
269.916
259.61
248.255
239.079
228.449
220.061
210.274
203.227
194.922
189.077
182.028
177.295
171.823
168.098
164.162
161.197
158.117
156.622
153.765
153.107
151.089
150.961
149.355
149.757
148.438
149.287
148.315
149.224
148.519
149.447
148.941
149.847
149.471
150.383
150.259
150.794
151.332
151.14
151.829
152.062
152.107
152.788
152.682
153.289
153.299
153.861
153.903
154.39
154.476
154.926
155.03
155.456
155.581
155.989
156.198
156.594
156.892
157.298
157.616
158.009
158.343
158.748
159.151
159.603
160.046
160.52
161.003
161.501
162.009
162.525
163.049
163.576
164.1
164.608
165.106
165.584
166.072
166.59
167.131
167.693
168.249
168.759
169.224
169.707
170.172
170.609
171.041
171.48
171.909
172.35
172.773
173.209
173.61
174.024
174.418
174.815
175.212
175.574
175.937
176.29
176.638
176.98
177.318
177.651
177.978
178.297
178.604
178.912
179.213
179.518
179.817
180.119
180.394
180.674
180.936
181.197
181.454
181.707
181.963
182.206
182.454
182.694
182.922
183.153
183.381
183.61
183.831
184.051
184.267
184.485
184.7
184.913
185.119
185.324
185.52
185.721
185.905
186.093
186.278
186.465
186.642
186.819
186.995
187.171
187.348
187.53
187.712
187.89
188.065
188.238
188.41
188.577
188.748
188.9
189.056
189.212
189.363
189.516
189.668
189.822
189.978
190.134
190.292
190.452
190.612
190.773
190.927
191.081
191.233
191.392
191.528
191.664
191.802
191.942
192.082
192.223
192.366
192.512
192.661
192.812
192.964
193.115
193.266
193.416
193.571
193.705
193.843
193.984
194.117
194.251
194.388
194.526
194.667
194.81
194.956
195.104
195.254
195.404
195.555
195.771
354.407
352.68
350.777
348.959
347.672
346.888
346.494
346.354
346.348
346.431
346.583
346.754
346.922
347.084
347.238
347.384
347.522
347.651
347.767
347.863
347.927
347.943
347.875
347.709
347.322
346.694
345.576
343.975
341.553
338.397
334.178
329.006
322.74
315.423
307.09
297.662
287.537
277.91
267.261
255.53
244.808
234.327
222.512
213.743
203.406
195.887
187.045
181.009
173.758
169.081
163.162
159.625
155.218
152.696
149.54
148.023
145.697
145.028
142.983
143.524
142.072
142.779
141.604
142.734
141.812
143.184
142.52
143.955
143.532
144.926
144.563
145.879
145.589
146.862
146.637
147.659
147.994
148.274
149.057
148.864
149.503
150.179
150.009
150.697
150.695
151.269
151.245
151.749
151.76
152.193
152.183
152.566
152.556
152.909
152.968
153.285
153.391
153.678
153.787
154.036
154.165
154.395
154.579
154.838
155.053
155.325
155.602
155.901
156.216
156.546
156.898
157.261
157.63
158.007
158.378
158.745
159.153
159.605
160.093
160.608
161.144
161.638
162.103
162.563
163.029
163.482
163.932
164.391
164.845
165.316
165.775
166.252
166.702
167.165
167.611
168.063
168.514
168.935
169.357
169.768
170.175
170.575
170.974
171.364
171.749
172.123
172.488
172.85
173.209
173.568
173.923
174.28
174.608
174.942
175.254
175.568
175.879
176.187
176.496
176.796
177.099
177.399
177.679
177.96
178.237
178.513
178.781
179.044
179.301
179.559
179.813
180.067
180.312
180.557
180.794
181.035
181.262
181.492
181.72
181.949
182.166
182.382
182.596
182.807
183.018
183.232
183.444
183.652
183.856
184.059
184.261
184.458
184.658
184.843
185.03
185.218
185.4
185.582
185.764
185.944
186.127
186.309
186.491
186.673
186.855
187.038
187.214
187.389
187.564
187.744
187.906
188.065
188.227
188.388
188.55
188.713
188.876
189.041
189.208
189.377
189.545
189.713
189.878
190.046
190.217
190.369
190.523
190.682
190.832
190.983
191.135
191.29
191.445
191.603
191.763
191.925
192.087
192.249
192.412
192.647
354.103
352.169
350.278
348.665
347.581
346.95
346.658
346.576
346.594
346.693
346.848
347.012
347.17
347.32
347.459
347.587
347.702
347.8
347.87
347.899
347.861
347.727
347.421
346.904
345.951
344.552
342.358
339.422
335.398
330.406
324.184
316.791
308.356
299.054
288.821
277.715
265.575
255.206
243.664
231.902
219.282
209.745
198.541
190.421
181.018
174.66
167.255
162.336
156.486
152.839
148.199
145.921
142.474
141.141
138.605
138.244
136.729
135.682
136.176
136.344
136.108
137.352
136.526
138.237
137.624
139.443
139.04
140.931
140.606
142.372
142.064
143.651
143.424
144.902
144.732
146.058
145.919
146.862
147.706
147.491
148.312
148.907
148.805
149.579
149.558
150.191
150.163
150.746
150.732
151.211
151.158
151.566
151.512
151.876
151.872
152.194
152.213
152.471
152.476
152.688
152.71
152.872
152.929
153.085
153.144
153.296
153.413
153.557
153.701
153.854
154.017
154.186
154.345
154.519
154.657
154.81
155.02
155.277
155.57
155.893
156.246
156.597
156.906
157.232
157.574
157.926
158.285
158.666
159.047
159.462
159.866
160.301
160.726
161.168
161.606
162.052
162.498
162.93
163.362
163.788
164.215
164.637
165.062
165.479
165.894
166.299
166.7
167.096
167.494
167.891
168.285
168.68
169.048
169.424
169.775
170.132
170.487
170.841
171.197
171.544
171.896
172.245
172.574
172.9
173.221
173.538
173.848
174.151
174.445
174.741
175.031
175.322
175.604
175.887
176.163
176.442
176.71
176.98
177.248
177.518
177.775
178.027
178.279
178.524
178.768
179.014
179.255
179.493
179.726
179.957
180.188
180.416
180.645
180.862
181.08
181.301
181.514
181.726
181.937
182.144
182.354
182.562
182.768
182.972
183.177
183.382
183.58
183.778
183.976
184.177
184.366
184.549
184.734
184.919
185.103
185.287
185.47
185.655
185.841
186.029
186.213
186.398
186.581
186.766
186.954
187.123
187.296
187.472
187.64
187.808
187.978
188.149
188.32
188.493
188.667
188.844
189.019
189.194
189.37
189.624
353.776
351.716
349.889
348.459
347.55
347.041
346.825
346.777
346.816
346.923
347.072
347.221
347.36
347.488
347.6
347.697
347.771
347.815
347.809
347.731
347.524
347.124
346.385
345.246
343.379
340.808
337.144
332.495
326.569
319.491
311.153
301.555
290.972
280.245
268.359
256.234
242.548
231.655
219.223
208.114
195.587
186.856
176.932
169.858
162.22
156.968
151.31
147.29
142.945
139.878
136.809
135.286
132.912
132.571
130.941
131.678
130.648
131.268
131.8
131.431
132.894
133.681
133.128
135.208
134.676
136.912
136.546
138.791
138.496
140.563
140.288
142.211
142.033
143.715
143.565
145.106
145.018
146.236
146.78
146.913
147.894
148.182
148.424
149.276
149.203