/*--------------------------------*- C++ -*----------------------------------*\
| =========                 |                                                 |
| \\      /  F ield         | OpenFOAM: The Open Source CFD Toolbox           |
|  \\    /   O peration     | Version:  2312                                  |
|   \\  /    A nd           | Website:  www.openfoam.com                      |
|    \\/     M anipulation  |                                                 |
\*---------------------------------------------------------------------------*/
FoamFile
{
    version     2.0;
    format      ascii;
    arch        "LSB;label=32;scalar=64";
    class       volScalarField;
    location    "0.006";
    object      thermo:psiLiqEff;
}
// * * * * * * * * * * * * * * * * * * * * * * * * * * * * * * * * * * * * * //

dimensions      [-2 4 2 0 0 0 0];

internalField   nonuniform List<scalar> 
48128
(
4.05345e-13
4.05229e-13
4.05556e-13
4.05759e-13
4.05701e-13
4.05731e-13
4.0567e-13
4.05555e-13
4.05618e-13
4.06054e-13
4.08098e-13
4.10107e-13
4.11437e-13
4.12593e-13
4.13548e-13
4.15363e-13
4.16953e-13
4.18479e-13
4.19919e-13
4.21254e-13
4.22455e-13
4.236e-13
4.24701e-13
4.25721e-13
4.26643e-13
4.27454e-13
4.28132e-13
4.2864e-13
4.28972e-13
4.29148e-13
4.29198e-13
4.29021e-13
4.28664e-13
4.2814e-13
4.27474e-13
4.26668e-13
4.25729e-13
4.24674e-13
4.23585e-13
4.22392e-13
4.21151e-13
4.19905e-13
4.18675e-13
4.17463e-13
4.16302e-13
4.15218e-13
4.14214e-13
4.13296e-13
4.12479e-13
4.11762e-13
4.11205e-13
4.10725e-13
4.10411e-13
4.10205e-13
4.10182e-13
4.10276e-13
4.10532e-13
4.10925e-13
4.11449e-13
4.12094e-13
4.12855e-13
4.13721e-13
4.14682e-13
4.15736e-13
4.16887e-13
4.18138e-13
4.19472e-13
4.20865e-13
4.22337e-13
4.2385e-13
4.25453e-13
4.27098e-13
4.28788e-13
4.30546e-13
4.32307e-13
4.34151e-13
4.35968e-13
4.37823e-13
4.39694e-13
4.41515e-13
4.43356e-13
4.4513e-13
4.4694e-13
4.48705e-13
4.50498e-13
4.52198e-13
4.53924e-13
4.55548e-13
4.57175e-13
4.58729e-13
4.60284e-13
4.61762e-13
4.63221e-13
4.64638e-13
4.66057e-13
4.67469e-13
4.68876e-13
4.70216e-13
4.71463e-13
4.72603e-13
4.7367e-13
4.74709e-13
4.75754e-13
4.76774e-13
4.77759e-13
4.78695e-13
4.79578e-13
4.80409e-13
4.812e-13
4.81953e-13
4.82655e-13
4.83312e-13
4.83904e-13
4.84451e-13
4.84955e-13
4.85427e-13
4.85936e-13
4.86485e-13
4.87071e-13
4.87758e-13
4.88784e-13
4.88721e-13
4.88975e-13
4.8955e-13
4.89499e-13
4.89608e-13
4.89767e-13
4.89956e-13
4.90173e-13
4.90415e-13
4.90674e-13
4.90939e-13
4.91206e-13
4.91474e-13
4.91744e-13
4.92018e-13
4.92275e-13
4.92485e-13
4.92663e-13
4.92825e-13
4.92975e-13
4.93102e-13
4.93207e-13
4.93294e-13
4.93374e-13
4.93411e-13
4.9341e-13
4.93399e-13
4.93386e-13
4.93371e-13
4.93353e-13
4.93327e-13
4.93291e-13
4.93246e-13
4.93218e-13
4.93189e-13
4.93198e-13
4.9322e-13
4.93263e-13
4.93312e-13
4.93381e-13
4.93421e-13
4.93394e-13
4.93373e-13
4.93335e-13
4.93257e-13
4.93155e-13
4.93023e-13
4.92881e-13
4.92727e-13
4.92591e-13
4.92459e-13
4.9236e-13
4.92261e-13
4.9222e-13
4.92174e-13
4.92174e-13
4.92173e-13
4.92198e-13
4.92205e-13
4.92188e-13
4.92152e-13
4.92096e-13
4.92e-13
4.91884e-13
4.91761e-13
4.91623e-13
4.91477e-13
4.9133e-13
4.91203e-13
4.91099e-13
4.91039e-13
4.90966e-13
4.90957e-13
4.90938e-13
4.90943e-13
4.90929e-13
4.90898e-13
4.90848e-13
4.90779e-13
4.90692e-13
4.90586e-13
4.90457e-13
4.90315e-13
4.90181e-13
4.90052e-13
4.8994e-13
4.89848e-13
4.89736e-13
4.89739e-13
4.89718e-13
4.89688e-13
4.89673e-13
4.89642e-13
4.89596e-13
4.89531e-13
4.8945e-13
4.89351e-13
4.89241e-13
4.89124e-13
4.88991e-13
4.88875e-13
4.88754e-13
4.88652e-13
4.886e-13
4.88541e-13
4.88481e-13
4.88458e-13
4.88422e-13
4.88377e-13
4.88324e-13
4.88257e-13
4.88178e-13
4.88085e-13
4.87983e-13
4.87873e-13
4.87757e-13
4.87644e-13
4.87539e-13
4.87411e-13
4.0581e-13
4.05606e-13
4.0588e-13
4.06103e-13
4.06014e-13
4.05905e-13
4.05628e-13
4.05266e-13
4.05703e-13
4.07219e-13
4.09959e-13
4.12559e-13
4.14863e-13
4.17548e-13
4.20414e-13
4.22741e-13
4.24805e-13
4.26638e-13
4.2821e-13
4.29539e-13
4.30634e-13
4.31569e-13
4.32385e-13
4.33047e-13
4.33541e-13
4.33859e-13
4.33995e-13
4.34013e-13
4.33782e-13
4.33368e-13
4.32774e-13
4.31973e-13
4.31024e-13
4.29922e-13
4.28711e-13
4.27394e-13
4.26006e-13
4.24535e-13
4.23044e-13
4.21553e-13
4.20052e-13
4.18603e-13
4.17236e-13
4.15962e-13
4.14812e-13
4.13793e-13
4.12928e-13
4.12207e-13
4.11652e-13
4.11238e-13
4.11045e-13
4.11008e-13
4.11197e-13
4.11534e-13
4.12071e-13
4.1277e-13
4.13686e-13
4.14778e-13
4.16048e-13
4.17474e-13
4.19053e-13
4.20764e-13
4.226e-13
4.24557e-13
4.26633e-13
4.28833e-13
4.31128e-13
4.3351e-13
4.35996e-13
4.38499e-13
4.4108e-13
4.43675e-13
4.46295e-13
4.48979e-13
4.51653e-13
4.54409e-13
4.5713e-13
4.59866e-13
4.62605e-13
4.65301e-13
4.67967e-13
4.70585e-13
4.73216e-13
4.75814e-13
4.78395e-13
4.80901e-13
4.83384e-13
4.85781e-13
4.88139e-13
4.9044e-13
4.92714e-13
4.94913e-13
4.97071e-13
4.99188e-13
5.01301e-13
5.03408e-13
5.05516e-13
5.07546e-13
5.09467e-13
5.1127e-13
5.12978e-13
5.14652e-13
5.16326e-13
5.17968e-13
5.19569e-13
5.21112e-13
5.22593e-13
5.24009e-13
5.25377e-13
5.26697e-13
5.27952e-13
5.29151e-13
5.30266e-13
5.3132e-13
5.32318e-13
5.33257e-13
5.34233e-13
5.35251e-13
5.36314e-13
5.37496e-13
5.39117e-13
5.39452e-13
5.40118e-13
5.41158e-13
5.41476e-13
5.41926e-13
5.42425e-13
5.42947e-13
5.43488e-13
5.44048e-13
5.44624e-13
5.45204e-13
5.45784e-13
5.46366e-13
5.46951e-13
5.47542e-13
5.48119e-13
5.4864e-13
5.49124e-13
5.4958e-13
5.50019e-13
5.50424e-13
5.50794e-13
5.51138e-13
5.51455e-13
5.51732e-13
5.51986e-13
5.52217e-13
5.52452e-13
5.52679e-13
5.52912e-13
5.53124e-13
5.53319e-13
5.53502e-13
5.53691e-13
5.53889e-13
5.54108e-13
5.54347e-13
5.5461e-13
5.54881e-13
5.55166e-13
5.5547e-13
5.55635e-13
5.55812e-13
5.55997e-13
5.56086e-13
5.56181e-13
5.56192e-13
5.56199e-13
5.56187e-13
5.56173e-13
5.56167e-13
5.56172e-13
5.56189e-13
5.56235e-13
5.5629e-13
5.56371e-13
5.56464e-13
5.56581e-13
5.56702e-13
5.56783e-13
5.56831e-13
5.56878e-13
5.56856e-13
5.56814e-13
5.56755e-13
5.56674e-13
5.56573e-13
5.56466e-13
5.56367e-13
5.56288e-13
5.56251e-13
5.56199e-13
5.56215e-13
5.56222e-13
5.56255e-13
5.56263e-13
5.56257e-13
5.56232e-13
5.56186e-13
5.56119e-13
5.56029e-13
5.55907e-13
5.55765e-13
5.55619e-13
5.55471e-13
5.55338e-13
5.55219e-13
5.55059e-13
5.55051e-13
5.55017e-13
5.54963e-13
5.54937e-13
5.54894e-13
5.54834e-13
5.54753e-13
5.54654e-13
5.54534e-13
5.54398e-13
5.54247e-13
5.54077e-13
5.53912e-13
5.53743e-13
5.53573e-13
5.53474e-13
5.53365e-13
5.53248e-13
5.53185e-13
5.53107e-13
5.5302e-13
5.52926e-13
5.52817e-13
5.52694e-13
5.52556e-13
5.52403e-13
5.52239e-13
5.52064e-13
5.51887e-13
5.51711e-13
5.51474e-13
4.0605e-13
4.05845e-13
4.06023e-13
4.06197e-13
4.06044e-13
4.05783e-13
4.0531e-13
4.05638e-13
4.07669e-13
4.10966e-13
4.14195e-13
4.17044e-13
4.19463e-13
4.21278e-13
4.22856e-13
4.24414e-13
4.25751e-13
4.26909e-13
4.27948e-13
4.28828e-13
4.29507e-13
4.30087e-13
4.3056e-13
4.30902e-13
4.31105e-13
4.3117e-13
4.3108e-13
4.30822e-13
4.30373e-13
4.29759e-13
4.2899e-13
4.28065e-13
4.27021e-13
4.25855e-13
4.2462e-13
4.23318e-13
4.21982e-13
4.20613e-13
4.19257e-13
4.17946e-13
4.16673e-13
4.15482e-13
4.1441e-13
4.1347e-13
4.12694e-13
4.12077e-13
4.11652e-13
4.11393e-13
4.11349e-13
4.11471e-13
4.11834e-13
4.12372e-13
4.13166e-13
4.14133e-13
4.15305e-13
4.16664e-13
4.18256e-13
4.20024e-13
4.21977e-13
4.24082e-13
4.26341e-13
4.28721e-13
4.3122e-13
4.33834e-13
4.36564e-13
4.39412e-13
4.42333e-13
4.4533e-13
4.48405e-13
4.51482e-13
4.54628e-13
4.57756e-13
4.60906e-13
4.64092e-13
4.67263e-13
4.70496e-13
4.73674e-13
4.76847e-13
4.80009e-13
4.83116e-13
4.86153e-13
4.89152e-13
4.92137e-13
4.95088e-13
4.9798e-13
5.00802e-13
5.03577e-13
5.06264e-13
5.08893e-13
5.11467e-13
5.14002e-13
5.16456e-13
5.18864e-13
5.21224e-13
5.23579e-13
5.25917e-13
5.28257e-13
5.30502e-13
5.32636e-13
5.3465e-13
5.3657e-13
5.38456e-13
5.4034e-13
5.42185e-13
5.43986e-13
5.45725e-13
5.47401e-13
5.49009e-13
5.50571e-13
5.52079e-13
5.53523e-13
5.54909e-13
5.56208e-13
5.57446e-13
5.58623e-13
5.5974e-13
5.60893e-13
5.62085e-13
5.63331e-13
5.64686e-13
5.66455e-13
5.66959e-13
5.67801e-13
5.6895e-13
5.69464e-13
5.70089e-13
5.70753e-13
5.71434e-13
5.72125e-13
5.7283e-13
5.73547e-13
5.74262e-13
5.74977e-13
5.75692e-13
5.76407e-13
5.77131e-13
5.77834e-13
5.78483e-13
5.79097e-13
5.79683e-13
5.8025e-13
5.80781e-13
5.81278e-13
5.81744e-13
5.82185e-13
5.82576e-13
5.82938e-13
5.83274e-13
5.83614e-13
5.83943e-13
5.84277e-13
5.84588e-13
5.84882e-13
5.85162e-13
5.85448e-13
5.85741e-13
5.86056e-13
5.86389e-13
5.86744e-13
5.87109e-13
5.87488e-13
5.87887e-13
5.88147e-13
5.88417e-13
5.887e-13
5.88876e-13
5.89064e-13
5.89153e-13
5.89247e-13
5.89304e-13
5.89363e-13
5.89427e-13
5.89497e-13
5.8958e-13
5.89686e-13
5.89803e-13
5.89941e-13
5.90088e-13
5.90259e-13
5.90433e-13
5.90576e-13
5.90673e-13
5.90785e-13
5.90801e-13
5.90799e-13
5.90782e-13
5.9074e-13
5.90676e-13
5.90604e-13
5.90534e-13
5.90482e-13
5.90466e-13
5.90448e-13
5.90472e-13
5.90499e-13
5.9055e-13
5.90582e-13
5.90595e-13
5.90583e-13
5.90553e-13
5.90502e-13
5.90424e-13
5.90313e-13
5.90179e-13
5.90039e-13
5.89894e-13
5.89762e-13
5.89634e-13
5.89473e-13
5.89454e-13
5.89412e-13
5.89353e-13
5.89319e-13
5.89269e-13
5.89203e-13
5.89115e-13
5.89008e-13
5.88878e-13
5.88731e-13
5.88568e-13
5.88384e-13
5.882e-13
5.88011e-13
5.87819e-13
5.87693e-13
5.87559e-13
5.87417e-13
5.87328e-13
5.87226e-13
5.87115e-13
5.86997e-13
5.86864e-13
5.86717e-13
5.86554e-13
5.86374e-13
5.86182e-13
5.85977e-13
5.85768e-13
5.85557e-13
5.85269e-13
4.06183e-13
4.05984e-13
4.06004e-13
4.06102e-13
4.05859e-13
4.05461e-13
4.058e-13
4.0779e-13
4.1146e-13
4.14966e-13
4.17606e-13
4.19493e-13
4.20863e-13
4.21869e-13
4.22738e-13
4.238e-13
4.24742e-13
4.25559e-13
4.26271e-13
4.26867e-13
4.27294e-13
4.27658e-13
4.27931e-13
4.28096e-13
4.28149e-13
4.28061e-13
4.27823e-13
4.27434e-13
4.26892e-13
4.26205e-13
4.25393e-13
4.24453e-13
4.23421e-13
4.22289e-13
4.21114e-13
4.19908e-13
4.18701e-13
4.17503e-13
4.16349e-13
4.15283e-13
4.14296e-13
4.13421e-13
4.127e-13
4.12146e-13
4.11793e-13
4.11632e-13
4.11716e-13
4.11989e-13
4.1253e-13
4.13255e-13
4.14255e-13
4.15455e-13
4.16947e-13
4.18634e-13
4.20525e-13
4.22628e-13
4.24984e-13
4.27501e-13
4.30215e-13
4.33065e-13
4.36073e-13
4.39173e-13
4.42383e-13
4.45688e-13
4.49095e-13
4.52611e-13
4.56157e-13
4.59773e-13
4.6341e-13
4.67023e-13
4.70673e-13
4.74259e-13
4.77865e-13
4.81463e-13
4.85042e-13
4.8864e-13
4.92153e-13
4.95648e-13
4.99106e-13
5.02481e-13
5.05746e-13
5.08983e-13
5.12175e-13
5.15309e-13
5.18352e-13
5.21309e-13
5.24202e-13
5.26995e-13
5.29717e-13
5.32382e-13
5.34999e-13
5.3753e-13
5.40003e-13
5.42425e-13
5.44833e-13
5.47216e-13
5.496e-13
5.51868e-13
5.54027e-13
5.56068e-13
5.58013e-13
5.59929e-13
5.61839e-13
5.63705e-13
5.65527e-13
5.67283e-13
5.68979e-13
5.70605e-13
5.72191e-13
5.73716e-13
5.75184e-13
5.7659e-13
5.7791e-13
5.79178e-13
5.80373e-13
5.81524e-13
5.8271e-13
5.83929e-13
5.85215e-13
5.86591e-13
5.88332e-13
5.88892e-13
5.89761e-13
5.90848e-13
5.91479e-13
5.92149e-13
5.92851e-13
5.9357e-13
5.94295e-13
5.95033e-13
5.95783e-13
5.9653e-13
5.97277e-13
5.98024e-13
5.98769e-13
5.99526e-13
6.00255e-13
6.00934e-13
6.01583e-13
6.02202e-13
6.02803e-13
6.03369e-13
6.03901e-13
6.04403e-13
6.04882e-13
6.05309e-13
6.05706e-13
6.06075e-13
6.06446e-13
6.06805e-13
6.07171e-13
6.07507e-13
6.07831e-13
6.0814e-13
6.08456e-13
6.08779e-13
6.09122e-13
6.09484e-13
6.09865e-13
6.10259e-13
6.10664e-13
6.11091e-13
6.11384e-13
6.11683e-13
6.11991e-13
6.122e-13
6.1242e-13
6.12539e-13
6.12665e-13
6.12751e-13
6.12839e-13
6.1293e-13
6.13026e-13
6.13135e-13
6.13266e-13
6.13408e-13
6.13569e-13
6.13739e-13
6.13932e-13
6.14127e-13
6.14293e-13
6.14412e-13
6.14548e-13
6.14583e-13
6.14603e-13
6.14596e-13
6.14571e-13
6.14523e-13
6.14468e-13
6.14412e-13
6.14374e-13
6.14368e-13
6.14363e-13
6.14393e-13
6.14427e-13
6.14485e-13
6.14524e-13
6.14547e-13
6.14538e-13
6.14514e-13
6.14468e-13
6.14394e-13
6.14287e-13
6.14154e-13
6.14015e-13
6.13871e-13
6.13738e-13
6.13603e-13
6.13444e-13
6.13417e-13
6.13368e-13
6.13304e-13
6.13261e-13
6.13202e-13
6.13128e-13
6.13033e-13
6.12917e-13
6.12778e-13
6.12621e-13
6.12448e-13
6.12253e-13
6.12056e-13
6.11852e-13
6.11648e-13
6.11504e-13
6.11353e-13
6.11194e-13
6.11087e-13
6.10966e-13
6.10837e-13
6.107e-13
6.10548e-13
6.10382e-13
6.10199e-13
6.1e-13
6.09786e-13
6.0956e-13
6.09329e-13
6.09094e-13
6.08771e-13
4.06259e-13
4.06054e-13
4.05825e-13
4.05846e-13
4.05594e-13
4.05951e-13
4.07754e-13
4.11381e-13
4.14904e-13
4.1737e-13
4.19025e-13
4.20108e-13
4.20807e-13
4.21463e-13
4.22035e-13
4.22733e-13
4.23345e-13
4.2389e-13
4.24366e-13
4.24768e-13
4.25027e-13
4.25243e-13
4.25384e-13
4.25433e-13
4.25368e-13
4.25173e-13
4.24849e-13
4.24387e-13
4.23796e-13
4.23078e-13
4.22257e-13
4.21334e-13
4.20345e-13
4.19284e-13
4.18204e-13
4.17135e-13
4.16109e-13
4.15131e-13
4.14234e-13
4.13478e-13
4.1285e-13
4.12368e-13
4.12091e-13
4.12021e-13
4.12215e-13
4.12629e-13
4.13353e-13
4.14308e-13
4.156e-13
4.17117e-13
4.18948e-13
4.21018e-13
4.2342e-13
4.26045e-13
4.28879e-13
4.31938e-13
4.35278e-13
4.3874e-13
4.42429e-13
4.46214e-13
4.50149e-13
4.54127e-13
4.58184e-13
4.62296e-13
4.66471e-13
4.70754e-13
4.74983e-13
4.79265e-13
4.83493e-13
4.87649e-13
4.91812e-13
4.95829e-13
4.99861e-13
5.03822e-13
5.07744e-13
5.11644e-13
5.15401e-13
5.19117e-13
5.22769e-13
5.26293e-13
5.29659e-13
5.32997e-13
5.36251e-13
5.3942e-13
5.42467e-13
5.45422e-13
5.48297e-13
5.51062e-13
5.53743e-13
5.56368e-13
5.58934e-13
5.6141e-13
5.63808e-13
5.6615e-13
5.68465e-13
5.70751e-13
5.73038e-13
5.75189e-13
5.77245e-13
5.79185e-13
5.81033e-13
5.82852e-13
5.84659e-13
5.86417e-13
5.88135e-13
5.89785e-13
5.91381e-13
5.92911e-13
5.94406e-13
5.95833e-13
5.97211e-13
5.98527e-13
5.99763e-13
6.00952e-13
6.02064e-13
6.03155e-13
6.04275e-13
6.0542e-13
6.06647e-13
6.07936e-13
6.09532e-13
6.1009e-13
6.10893e-13
6.11814e-13
6.12514e-13
6.13126e-13
6.13779e-13
6.14457e-13
6.15139e-13
6.15833e-13
6.16539e-13
6.17245e-13
6.17954e-13
6.18664e-13
6.19371e-13
6.20091e-13
6.20777e-13
6.21423e-13
6.22044e-13
6.22634e-13
6.23206e-13
6.23745e-13
6.24254e-13
6.24732e-13
6.25193e-13
6.256e-13
6.25979e-13
6.26333e-13
6.26685e-13
6.27027e-13
6.27375e-13
6.2769e-13
6.27998e-13
6.28293e-13
6.28593e-13
6.28903e-13
6.29231e-13
6.29579e-13
6.29943e-13
6.30323e-13
6.30713e-13
6.31125e-13
6.31415e-13
6.31697e-13
6.3199e-13
6.32193e-13
6.32409e-13
6.32523e-13
6.32644e-13
6.32727e-13
6.32811e-13
6.32899e-13
6.32993e-13
6.33099e-13
6.33225e-13
6.33364e-13
6.33523e-13
6.33689e-13
6.33878e-13
6.34069e-13
6.34232e-13
6.34349e-13
6.34479e-13
6.34515e-13
6.34534e-13
6.34525e-13
6.34496e-13
6.34447e-13
6.34391e-13
6.34334e-13
6.34292e-13
6.34285e-13
6.3427e-13
6.34301e-13
6.34329e-13
6.34383e-13
6.34415e-13
6.34431e-13
6.34418e-13
6.34389e-13
6.34337e-13
6.34258e-13
6.34144e-13
6.34005e-13
6.33859e-13
6.33707e-13
6.33567e-13
6.33421e-13
6.33261e-13
6.33218e-13
6.33158e-13
6.33085e-13
6.33028e-13
6.32957e-13
6.32871e-13
6.32763e-13
6.32635e-13
6.32484e-13
6.32314e-13
6.32128e-13
6.31919e-13
6.31707e-13
6.31488e-13
6.31271e-13
6.31109e-13
6.30942e-13
6.30767e-13
6.30641e-13
6.30502e-13
6.30354e-13
6.30199e-13
6.30028e-13
6.29843e-13
6.29641e-13
6.29422e-13
6.29188e-13
6.28942e-13
6.2869e-13
6.28434e-13
6.28079e-13
4.06295e-13
4.05972e-13
4.05642e-13
4.05717e-13
4.05965e-13
4.07467e-13
4.10773e-13
4.14328e-13
4.16824e-13
4.18387e-13
4.1935e-13
4.19927e-13
4.20362e-13
4.20758e-13
4.21094e-13
4.21522e-13
4.21899e-13
4.2225e-13
4.22558e-13
4.22814e-13
4.22947e-13
4.23045e-13
4.23079e-13
4.23022e-13
4.22863e-13
4.22587e-13
4.22198e-13
4.21688e-13
4.21071e-13
4.20344e-13
4.1954e-13
4.18663e-13
4.17754e-13
4.1681e-13
4.15879e-13
4.15004e-13
4.14232e-13
4.13554e-13
4.1301e-13
4.1266e-13
4.12515e-13
4.12588e-13
4.1292e-13
4.13517e-13
4.14457e-13
4.15681e-13
4.17306e-13
4.19239e-13
4.21601e-13
4.24263e-13
4.27283e-13
4.30601e-13
4.34305e-13
4.38252e-13
4.42473e-13
4.46811e-13
4.51525e-13
4.56301e-13
4.61305e-13
4.66403e-13
4.71517e-13
4.76692e-13
4.81762e-13
4.86882e-13
4.91949e-13
4.97166e-13
5.02155e-13
5.07172e-13
5.1202e-13
5.16717e-13
5.21376e-13
5.25747e-13
5.30127e-13
5.3433e-13
5.38461e-13
5.42509e-13
5.46328e-13
5.50074e-13
5.5371e-13
5.57161e-13
5.60381e-13
5.63583e-13
5.66667e-13
5.69665e-13
5.72504e-13
5.75262e-13
5.77915e-13
5.8046e-13
5.82905e-13
5.85301e-13
5.87625e-13
5.89861e-13
5.91996e-13
5.94084e-13
5.96129e-13
5.98159e-13
6.00192e-13
6.02076e-13
6.03894e-13
6.05594e-13
6.07207e-13
6.08789e-13
6.10353e-13
6.11868e-13
6.13352e-13
6.14771e-13
6.16149e-13
6.17464e-13
6.18753e-13
6.19966e-13
6.21146e-13
6.2226e-13
6.23311e-13
6.24319e-13
6.25257e-13
6.26194e-13
6.27155e-13
6.28124e-13
6.29194e-13
6.30296e-13
6.3163e-13
6.32154e-13
6.32794e-13
6.33476e-13
6.34141e-13
6.34627e-13
6.3516e-13
6.35725e-13
6.36289e-13
6.36871e-13
6.37459e-13
6.38057e-13
6.3866e-13
6.39265e-13
6.39869e-13
6.40488e-13
6.41066e-13
6.4162e-13
6.42155e-13
6.42658e-13
6.43143e-13
6.43599e-13
6.44031e-13
6.4443e-13
6.4482e-13
6.45156e-13
6.4547e-13
6.45763e-13
6.4605e-13
6.46333e-13
6.46617e-13
6.46872e-13
6.4712e-13
6.47363e-13
6.4761e-13
6.47868e-13
6.48143e-13
6.48441e-13
6.48749e-13
6.49078e-13
6.49415e-13
6.49773e-13
6.50026e-13
6.50259e-13
6.50501e-13
6.50666e-13
6.50845e-13
6.50924e-13
6.51009e-13
6.51063e-13
6.51115e-13
6.51172e-13
6.51236e-13
6.51312e-13
6.51409e-13
6.51519e-13
6.5165e-13
6.51785e-13
6.51944e-13
6.52106e-13
6.52241e-13
6.52333e-13
6.52432e-13
6.52451e-13
6.52445e-13
6.52418e-13
6.5237e-13
6.52301e-13
6.52226e-13
6.52151e-13
6.52089e-13
6.52062e-13
6.52018e-13
6.52042e-13
6.52042e-13
6.52079e-13
6.5209e-13
6.52085e-13
6.52056e-13
6.52009e-13
6.51938e-13
6.51842e-13
6.5171e-13
6.51553e-13
6.5139e-13
6.51221e-13
6.51066e-13
6.50901e-13
6.50733e-13
6.50661e-13
6.50582e-13
6.50495e-13
6.50416e-13
6.50325e-13
6.50219e-13
6.50092e-13
6.49945e-13
6.49776e-13
6.49587e-13
6.49382e-13
6.49155e-13
6.48924e-13
6.48686e-13
6.48452e-13
6.48268e-13
6.48082e-13
6.47889e-13
6.4774e-13
6.47579e-13
6.4741e-13
6.47233e-13
6.47041e-13
6.46834e-13
6.4661e-13
6.46369e-13
6.46114e-13
6.45846e-13
6.45572e-13
6.45294e-13
6.44906e-13
4.06261e-13
4.05907e-13
4.05604e-13
4.06055e-13
4.07101e-13
4.0985e-13
4.13448e-13
4.16086e-13
4.17716e-13
4.18648e-13
4.19182e-13
4.19516e-13
4.19725e-13
4.19919e-13
4.20097e-13
4.20333e-13
4.20549e-13
4.20751e-13
4.20923e-13
4.21054e-13
4.21083e-13
4.21077e-13
4.21019e-13
4.20874e-13
4.20641e-13
4.20305e-13
4.19873e-13
4.19338e-13
4.18721e-13
4.18017e-13
4.17268e-13
4.16484e-13
4.15709e-13
4.14949e-13
4.1425e-13
4.13656e-13
4.13239e-13
4.12993e-13
4.12963e-13
4.13216e-13
4.13763e-13
4.14642e-13
4.15874e-13
4.17464e-13
4.19539e-13
4.22029e-13
4.25048e-13
4.28517e-13
4.32542e-13
4.36998e-13
4.41866e-13
4.47059e-13
4.52751e-13
4.58636e-13
4.65037e-13
4.70971e-13
4.77576e-13
4.84359e-13
4.91037e-13
4.98053e-13
5.04637e-13
5.11528e-13
5.17783e-13
5.24239e-13
5.30342e-13
5.36729e-13
5.42586e-13
5.48432e-13
5.53898e-13
5.59057e-13
5.64084e-13
5.6859e-13
5.73114e-13
5.77267e-13
5.81338e-13
5.85205e-13
5.88753e-13
5.92169e-13
5.95426e-13
5.98413e-13
6.01097e-13
6.03765e-13
6.06316e-13
6.08785e-13
6.11066e-13
6.13285e-13
6.15372e-13
6.17361e-13
6.19241e-13
6.21081e-13
6.22844e-13
6.24544e-13
6.26158e-13
6.27745e-13
6.29275e-13
6.30833e-13
6.3239e-13
6.33809e-13
6.35189e-13
6.36456e-13
6.37653e-13
6.3883e-13
6.39991e-13
6.41108e-13
6.42215e-13
6.43266e-13
6.44293e-13
6.45259e-13
6.46212e-13
6.47085e-13
6.47948e-13
6.48743e-13
6.495e-13
6.50217e-13
6.50888e-13
6.51568e-13
6.52273e-13
6.52958e-13
6.53768e-13
6.54589e-13
6.55548e-13
6.56006e-13
6.56351e-13
6.56753e-13
6.57239e-13
6.57566e-13
6.57909e-13
6.58293e-13
6.58666e-13
6.59068e-13
6.59465e-13
6.59889e-13
6.60315e-13
6.60752e-13
6.61187e-13
6.6164e-13
6.62048e-13
6.62453e-13
6.62843e-13
6.63201e-13
6.63547e-13
6.63866e-13
6.64168e-13
6.64437e-13
6.64703e-13
6.64921e-13
6.65124e-13
6.65308e-13
6.65487e-13
6.65664e-13
6.65843e-13
6.65995e-13
6.66142e-13
6.66294e-13
6.66447e-13
6.66618e-13
6.66801e-13
6.67018e-13
6.67224e-13
6.67467e-13
6.67714e-13
6.6798e-13
6.68161e-13
6.68313e-13
6.68472e-13
6.68568e-13
6.68673e-13
6.68693e-13
6.68715e-13
6.68709e-13
6.68704e-13
6.68704e-13
6.68708e-13
6.68726e-13
6.68774e-13
6.68818e-13
6.68905e-13
6.68975e-13
6.69081e-13
6.69189e-13
6.69269e-13
6.69312e-13
6.69356e-13
6.69338e-13
6.69293e-13
6.69224e-13
6.69134e-13
6.69028e-13
6.68915e-13
6.68803e-13
6.68704e-13
6.68638e-13
6.68548e-13
6.68547e-13
6.68503e-13
6.68505e-13
6.6848e-13
6.6844e-13
6.68376e-13
6.68295e-13
6.68192e-13
6.68066e-13
6.67904e-13
6.67717e-13
6.67526e-13
6.67328e-13
6.67146e-13
6.66953e-13
6.66767e-13
6.66649e-13
6.66545e-13
6.66432e-13
6.66322e-13
6.66201e-13
6.66066e-13
6.65912e-13
6.65737e-13
6.65541e-13
6.65326e-13
6.65096e-13
6.64844e-13
6.64588e-13
6.64323e-13
6.64067e-13
6.63853e-13
6.63642e-13
6.63426e-13
6.63247e-13
6.63061e-13
6.62865e-13
6.62661e-13
6.62442e-13
6.62209e-13
6.6196e-13
6.61694e-13
6.61412e-13
6.61119e-13
6.6082e-13
6.60516e-13
6.60092e-13
4.06182e-13
4.06019e-13
4.05902e-13
4.06877e-13
4.08927e-13
4.12305e-13
4.15146e-13
4.16972e-13
4.18005e-13
4.18532e-13
4.18823e-13
4.18972e-13
4.19024e-13
4.19078e-13
4.19133e-13
4.19234e-13
4.19327e-13
4.19409e-13
4.19468e-13
4.19494e-13
4.19441e-13
4.19347e-13
4.19212e-13
4.19001e-13
4.18716e-13
4.18344e-13
4.17897e-13
4.1737e-13
4.1679e-13
4.16159e-13
4.1552e-13
4.14896e-13
4.14341e-13
4.13862e-13
4.13517e-13
4.13348e-13
4.13483e-13
4.1388e-13
4.14653e-13
4.1586e-13
4.17523e-13
4.19718e-13
4.22388e-13
4.25579e-13
4.29432e-13
4.33934e-13
4.39113e-13
4.44906e-13
4.51426e-13
4.58498e-13
4.66213e-13
4.7391e-13
4.8241e-13
4.90922e-13
5.00421e-13
5.08308e-13
5.17319e-13
5.27052e-13
5.35702e-13
5.45259e-13
5.53631e-13
5.62726e-13
5.70329e-13
5.78432e-13
5.8567e-13
5.93339e-13
6.00138e-13
6.06816e-13
6.12819e-13
6.18365e-13
6.23585e-13
6.28046e-13
6.32461e-13
6.36242e-13
6.39952e-13
6.43228e-13
6.46162e-13
6.48799e-13
6.51289e-13
6.53316e-13
6.55136e-13
6.56763e-13
6.58415e-13
6.59734e-13
6.61055e-13
6.6214e-13
6.63249e-13
6.64124e-13
6.65051e-13
6.65821e-13
6.66639e-13
6.67325e-13
6.68089e-13
6.68757e-13
6.69465e-13
6.70195e-13
6.70973e-13
6.71577e-13
6.72237e-13
6.72812e-13
6.73376e-13
6.73934e-13
6.74502e-13
6.75021e-13
6.75571e-13
6.76076e-13
6.76579e-13
6.77035e-13
6.77504e-13
6.77896e-13
6.78311e-13
6.78653e-13
6.78996e-13
6.79304e-13
6.7959e-13
6.799e-13
6.80252e-13
6.80548e-13
6.81005e-13
6.81403e-13
6.81899e-13
6.82171e-13
6.82163e-13
6.82244e-13
6.82412e-13
6.82515e-13
6.82607e-13
6.8274e-13
6.82857e-13
6.83001e-13
6.83137e-13
6.83315e-13
6.83495e-13
6.83701e-13
6.83898e-13
6.84123e-13
6.84299e-13
6.84492e-13
6.84678e-13
6.84837e-13
6.84988e-13
6.85117e-13
6.85236e-13
6.85326e-13
6.85417e-13
6.8547e-13
6.85515e-13
6.85544e-13
6.85576e-13
6.85597e-13
6.85635e-13
6.85632e-13
6.85646e-13
6.85659e-13
6.85686e-13
6.8573e-13
6.85783e-13
6.85889e-13
6.85943e-13
6.86073e-13
6.86185e-13
6.86318e-13
6.86399e-13
6.8644e-13
6.86482e-13
6.86478e-13
6.86473e-13
6.86414e-13
6.86339e-13
6.8625e-13
6.86158e-13
6.8607e-13
6.85989e-13
6.85922e-13
6.85898e-13
6.85842e-13
6.85869e-13
6.85841e-13
6.85874e-13
6.85898e-13
6.85897e-13
6.85868e-13
6.8584e-13
6.85763e-13
6.85654e-13
6.85521e-13
6.85371e-13
6.85207e-13
6.85039e-13
6.84872e-13
6.84717e-13
6.84594e-13
6.84445e-13
6.84388e-13
6.84294e-13
6.84237e-13
6.84159e-13
6.84067e-13
6.83953e-13
6.83822e-13
6.8367e-13
6.835e-13
6.83296e-13
6.83066e-13
6.82833e-13
6.82594e-13
6.82373e-13
6.82141e-13
6.81924e-13
6.81744e-13
6.81605e-13
6.81455e-13
6.81303e-13
6.81142e-13
6.80967e-13
6.80775e-13
6.80564e-13
6.80332e-13
6.80081e-13
6.79816e-13
6.79531e-13
6.79243e-13
6.78945e-13
6.78659e-13
6.78404e-13
6.78165e-13
6.77918e-13
6.77701e-13
6.77481e-13
6.77253e-13
6.77016e-13
6.76764e-13
6.76499e-13
6.76219e-13
6.75922e-13
6.7561e-13
6.75286e-13
6.74958e-13
6.74624e-13
6.74156e-13
4.06118e-13
4.06354e-13
4.06528e-13
4.08154e-13
4.10986e-13
4.13985e-13
4.16093e-13
4.17331e-13
4.17937e-13
4.18245e-13
4.18364e-13
4.18383e-13
4.18324e-13
4.18284e-13
4.18254e-13
4.18248e-13
4.18242e-13
4.18231e-13
4.182e-13
4.18141e-13
4.18022e-13
4.17864e-13
4.17673e-13
4.17421e-13
4.17113e-13
4.16736e-13
4.16311e-13
4.15838e-13
4.15351e-13
4.14859e-13
4.14417e-13
4.14047e-13
4.13839e-13
4.13796e-13
4.14036e-13
4.1457e-13
4.15612e-13
4.17088e-13
4.19221e-13
4.21995e-13
4.25453e-13
4.2972e-13
4.34484e-13
4.40114e-13
4.46622e-13
4.54089e-13
4.62448e-13
4.71365e-13
4.81327e-13
4.91832e-13
5.03595e-13
5.14247e-13
5.26293e-13
5.37904e-13
5.51313e-13
5.61667e-13
5.73453e-13
5.86846e-13
5.97899e-13
6.10524e-13
6.20667e-13
6.32121e-13
6.41001e-13
6.50646e-13
6.58879e-13
6.67471e-13
6.75026e-13
6.82101e-13
6.88294e-13
6.93806e-13
6.98641e-13
7.02836e-13
7.06502e-13
7.09781e-13
7.12658e-13
7.15076e-13
7.17199e-13
7.18594e-13
7.20387e-13
7.20936e-13
7.21941e-13
7.22011e-13
7.22849e-13
7.2242e-13
7.22859e-13
7.22185e-13
7.22314e-13
7.21474e-13
7.2141e-13
7.20588e-13
7.20309e-13
7.19473e-13
7.19168e-13
7.18373e-13
7.18092e-13
7.17442e-13
7.17082e-13
7.16442e-13
7.16102e-13
7.15626e-13
7.15321e-13
7.14968e-13
7.14707e-13
7.14353e-13
7.14105e-13
7.13835e-13
7.13622e-13
7.13388e-13
7.13196e-13
7.12944e-13
7.12751e-13
7.12496e-13
7.12271e-13
7.12044e-13
7.11776e-13
7.11649e-13
7.11529e-13
7.11358e-13
7.11316e-13
7.11117e-13
7.11136e-13
7.10991e-13
7.1066e-13
7.10302e-13
7.10094e-13
7.09866e-13
7.09664e-13
7.09442e-13
7.09253e-13
7.09038e-13
7.0886e-13
7.08701e-13
7.0859e-13
7.08487e-13
7.0838e-13
7.08309e-13
7.08186e-13
7.08115e-13
7.08036e-13
7.07939e-13
7.0784e-13
7.07726e-13
7.07607e-13
7.07472e-13
7.07332e-13
7.07174e-13
7.07018e-13
7.06847e-13
7.0669e-13
7.06509e-13
7.06354e-13
7.06163e-13
7.06007e-13
7.05839e-13
7.05705e-13
7.05575e-13
7.05474e-13
7.05416e-13
7.05286e-13
7.05268e-13
7.05194e-13
7.05178e-13
7.05114e-13
7.05013e-13
7.04905e-13
7.04772e-13
7.04633e-13
7.04455e-13
7.04261e-13
7.04058e-13
7.03852e-13
7.0365e-13
7.03461e-13
7.03283e-13
7.03151e-13
7.02981e-13
7.02905e-13
7.02775e-13
7.02699e-13
7.02611e-13
7.02512e-13
7.02384e-13
7.02261e-13
7.021e-13
7.01907e-13
7.0169e-13
7.01458e-13
7.01218e-13
7.00975e-13
7.00735e-13
7.00506e-13
7.00309e-13
7.00086e-13
6.9995e-13
6.9979e-13
6.99654e-13
6.99504e-13
6.99342e-13
6.99162e-13
6.98966e-13
6.9875e-13
6.9852e-13
6.98259e-13
6.97973e-13
6.97685e-13
6.97392e-13
6.9712e-13
6.96837e-13
6.96576e-13
6.9632e-13
6.96135e-13
6.95935e-13
6.95729e-13
6.95516e-13
6.9529e-13
6.95049e-13
6.9479e-13
6.94512e-13
6.94216e-13
6.93907e-13
6.9358e-13
6.93251e-13
6.92912e-13
6.92587e-13
6.92281e-13
6.92006e-13
6.91722e-13
6.91456e-13
6.91196e-13
6.90927e-13
6.9065e-13
6.90359e-13
6.90056e-13
6.89737e-13
6.89403e-13
6.89054e-13
6.88696e-13
6.88332e-13
6.87963e-13
6.87444e-13
4.06076e-13
4.06786e-13
4.07414e-13
4.09656e-13
4.12604e-13
4.15002e-13
4.16531e-13
4.17321e-13
4.17721e-13
4.17868e-13
4.17879e-13
4.17794e-13
4.17671e-13
4.17563e-13
4.17466e-13
4.17383e-13
4.17303e-13
4.17219e-13
4.1712e-13
4.17e-13
4.16835e-13
4.16639e-13
4.16419e-13
4.16156e-13
4.15858e-13
4.1552e-13
4.15168e-13
4.14812e-13
4.14499e-13
4.14242e-13
4.14124e-13
4.14178e-13
4.14562e-13
4.15266e-13
4.16513e-13
4.18262e-13
4.20789e-13
4.24026e-13
4.28293e-13
4.3347e-13
4.39518e-13
4.46743e-13
4.5428e-13
4.63411e-13
4.73696e-13
4.84923e-13
4.97662e-13
5.1027e-13
5.24665e-13
5.39196e-13
5.56249e-13
5.70092e-13
5.86556e-13
6.01426e-13
6.18624e-13
6.32551e-13
6.46611e-13
6.62974e-13
6.76129e-13
6.91125e-13
7.02529e-13
7.15338e-13
7.25134e-13
7.35085e-13
7.43858e-13
7.52119e-13
7.59865e-13
7.66086e-13
7.71939e-13
7.76372e-13
7.80348e-13
7.83811e-13
7.85912e-13
7.88942e-13
7.90111e-13
7.91935e-13
7.92843e-13
7.92872e-13
7.94239e-13
7.92951e-13
7.9362e-13
7.92082e-13
7.92169e-13
7.9034e-13
7.90032e-13
7.87989e-13
7.87213e-13
7.85126e-13
7.84045e-13
7.82033e-13
7.80603e-13
7.78619e-13
7.77151e-13
7.75216e-13
7.73765e-13
7.71899e-13
7.7023e-13
7.68363e-13
7.66822e-13
7.6517e-13
7.6375e-13
7.62291e-13
7.60938e-13
7.59503e-13
7.58207e-13
7.5693e-13
7.55783e-13
7.54653e-13
7.53597e-13
7.52513e-13
7.5153e-13
7.50525e-13
7.49596e-13
7.4868e-13
7.47786e-13
7.47066e-13
7.46341e-13
7.45631e-13
7.44918e-13
7.44103e-13
7.43458e-13
7.42817e-13
7.42029e-13
7.41182e-13
7.40525e-13
7.39888e-13
7.39284e-13
7.38659e-13
7.38069e-13
7.37445e-13
7.36875e-13
7.36312e-13
7.35832e-13
7.3535e-13
7.34879e-13
7.34436e-13
7.33961e-13
7.33562e-13
7.33158e-13
7.32748e-13
7.32343e-13
7.31933e-13
7.31525e-13
7.31111e-13
7.30697e-13
7.30277e-13
7.29875e-13
7.29461e-13
7.29065e-13
7.2865e-13
7.28254e-13
7.27833e-13
7.27465e-13
7.27086e-13
7.26746e-13
7.26411e-13
7.26111e-13
7.2584e-13
7.25516e-13
7.25288e-13
7.25019e-13
7.24799e-13
7.24553e-13
7.24277e-13
7.23995e-13
7.23696e-13
7.23397e-13
7.2307e-13
7.2273e-13
7.22384e-13
7.2204e-13
7.21697e-13
7.21375e-13
7.21063e-13
7.20792e-13
7.2049e-13
7.20275e-13
7.20026e-13
7.19809e-13
7.19588e-13
7.19364e-13
7.19117e-13
7.18875e-13
7.18606e-13
7.18308e-13
7.17988e-13
7.17654e-13
7.17319e-13
7.16984e-13
7.16653e-13
7.16333e-13
7.16042e-13
7.15726e-13
7.15497e-13
7.15247e-13
7.15017e-13
7.14776e-13
7.14526e-13
7.14263e-13
7.13985e-13
7.1369e-13
7.13385e-13
7.13053e-13
7.12699e-13
7.12341e-13
7.11981e-13
7.11645e-13
7.11298e-13
7.10977e-13
7.10637e-13
7.10389e-13
7.10126e-13
7.09855e-13
7.09577e-13
7.09288e-13
7.08987e-13
7.08669e-13
7.08334e-13
7.07983e-13
7.0762e-13
7.07242e-13
7.06863e-13
7.06476e-13
7.06101e-13
7.05736e-13
7.05415e-13
7.05085e-13
7.04761e-13
7.04453e-13
7.04137e-13
7.03811e-13
7.03473e-13
7.03123e-13
7.02759e-13
7.02381e-13
7.01989e-13
7.01589e-13
7.01184e-13
7.00774e-13
7.00196e-13
4.06138e-13
4.07291e-13
4.08428e-13
4.11084e-13
4.1366e-13
4.15533e-13
4.16611e-13
4.17184e-13
4.17418e-13
4.17467e-13
4.17392e-13
4.17244e-13
4.17078e-13
4.16924e-13
4.1678e-13
4.16644e-13
4.16512e-13
4.16376e-13
4.16233e-13
4.16075e-13
4.15888e-13
4.15681e-13
4.15465e-13
4.15228e-13
4.14986e-13
4.14742e-13
4.14536e-13
4.14384e-13
4.14366e-13
4.14507e-13
4.14973e-13
4.15777e-13
4.17194e-13
4.19167e-13
4.22043e-13
4.25728e-13
4.3048e-13
4.36338e-13
4.43638e-13
4.52244e-13
4.61423e-13
4.7245e-13
4.83999e-13