/*--------------------------------*- C++ -*----------------------------------*\
| =========                 |                                                 |
| \\      /  F ield         | OpenFOAM: The Open Source CFD Toolbox           |
|  \\    /   O peration     | Version:  2312                                  |
|   \\  /    A nd           | Website:  www.openfoam.com                      |
|    \\/     M anipulation  |                                                 |
\*---------------------------------------------------------------------------*/
FoamFile
{
    version     2.0;
    format      ascii;
    arch        "LSB;label=32;scalar=64";
    class       volScalarField;
    location    "0.006";
    object      thermo:psiGasEff;
}
// * * * * * * * * * * * * * * * * * * * * * * * * * * * * * * * * * * * * * //

dimensions      [-2 4 2 0 0 0 0];

internalField   nonuniform List<scalar> 
48128
(
0.00833914
0.00833908
0.00838598
0.00844061
0.00844609
0.0084642
0.00847809
0.00850079
0.00853407
0.00858187
0.00857544
0.00860568
0.0086021
0.00866763
0.00878974
0.00892732
0.0090303
0.0091075
0.00915521
0.00917206
0.00915806
0.00911781
0.00905186
0.00895932
0.00883967
0.00869362
0.00852085
0.00831331
0.00808323
0.00782929
0.00755539
0.0072633
0.00695764
0.00663991
0.00631768
0.00599077
0.00566405
0.00533914
0.00502465
0.00471449
0.00441562
0.00413006
0.00385794
0.00359958
0.00335923
0.0031293
0.00292038
0.00271887
0.0025374
0.00236416
0.002209
0.00206085
0.00192818
0.00180327
0.00169149
0.0015867
0.00149186
0.00140557
0.00132646
0.00125478
0.00118936
0.00112997
0.0010758
0.00102643
0.000981428
0.000940399
0.000903084
0.000868978
0.000837659
0.000809596
0.000783453
0.000760243
0.000738563
0.000718897
0.000701287
0.0006848
0.000670532
0.00065671
0.000644821
0.000633247
0.000623181
0.000613198
0.00060479
0.000596565
0.000589507
0.000582583
0.000576536
0.000570558
0.000565331
0.000560189
0.000555744
0.000551337
0.000547515
0.000543814
0.000540771
0.000538124
0.000536075
0.00053405
0.000531923
0.000529668
0.000527408
0.000525187
0.000523393
0.00052182
0.000520396
0.000519007
0.000517625
0.00051626
0.000514923
0.00051359
0.000512227
0.000510777
0.000509215
0.000507555
0.000505816
0.000504092
0.000502409
0.000501591
0.00050118
0.000501659
0.000502575
0.000499272
0.000498651
0.000498241
0.000495948
0.000494063
0.00049226
0.000490448
0.000488923
0.00048763
0.000486592
0.000485707
0.000484903
0.000484306
0.000483812
0.000483555
0.000483265
0.000482907
0.000482504
0.000482083
0.00048164
0.000481151
0.000480613
0.000480037
0.000479365
0.000478608
0.000477805
0.000476947
0.000476193
0.000475425
0.000474777
0.00047411
0.000473423
0.000472751
0.000472112
0.000471654
0.000471262
0.000471251
0.0004714
0.000471644
0.000472041
0.000472547
0.00047256
0.000472731
0.000472757
0.000472613
0.000472344
0.000471889
0.00047136
0.00047075
0.000470161
0.000469585
0.000469123
0.0004687
0.000468497
0.000468444
0.00046856
0.000468748
0.000469113
0.000469535
0.000469847
0.000470079
0.00047024
0.000470146
0.000469951
0.0004697
0.000469343
0.000468893
0.000468413
0.000467975
0.000467634
0.000467519
0.000467442
0.000467596
0.000467807
0.000468154
0.000468477
0.000468775
0.000469025
0.000469133
0.000469154
0.000469074
0.000468845
0.000468523
0.000468178
0.000467803
0.000467531
0.000467272
0.000467073
0.000467335
0.000467499
0.000467725
0.000468058
0.000468358
0.000468623
0.000468835
0.000468894
0.000468885
0.000468803
0.00046865
0.000468401
0.000468156
0.000467867
0.000467636
0.000467695
0.000467706
0.000467837
0.000468083
0.000468313
0.000468553
0.000468786
0.000469005
0.000469101
0.000469133
0.000469103
0.00046901
0.000468857
0.000468687
0.000468464
0.000468365
0.00838057
0.00836145
0.00839141
0.00843233
0.00842973
0.00844094
0.00844872
0.00846434
0.00847243
0.00846947
0.00842637
0.00843674
0.0084633
0.00854067
0.00863991
0.00870445
0.00879395
0.00886892
0.00891981
0.00894217
0.00893633
0.00890602
0.00885228
0.00877392
0.00867016
0.00853989
0.0083816
0.00820409
0.00799626
0.00776117
0.00750599
0.00722817
0.00693751
0.00663246
0.00632145
0.00600441
0.00568725
0.00536915
0.00505888
0.00475275
0.00445696
0.00417257
0.00390118
0.00364238
0.00340029
0.00316855
0.00295699
0.00275314
0.00256871
0.00239252
0.00223376
0.00208252
0.0019464
0.00181844
0.00170316
0.00159501
0.00149678
0.00140728
0.0013256
0.00125145
0.00118373
0.00112213
0.00106589
0.00101461
0.000967856
0.000925246
0.000886414
0.000850895
0.000818419
0.000789241
0.00076201
0.000737653
0.000715031
0.000694477
0.000676022
0.000658786
0.000643691
0.000629171
0.00061659
0.000604347
0.000593606
0.000583029
0.000574026
0.000565246
0.000557624
0.000550164
0.000543598
0.000537115
0.0005314
0.00052579
0.000520881
0.00051602
0.000511743
0.000507597
0.000504097
0.000500994
0.000498457
0.000495939
0.000493338
0.000490632
0.000487941
0.000485319
0.000483119
0.000481132
0.000479291
0.000477492
0.000475709
0.000473956
0.000472242
0.000470544
0.000468834
0.000467056
0.000465191
0.000463254
0.000461259
0.000459293
0.000457391
0.000456271
0.000455546
0.000455568
0.000456041
0.00045272
0.00045169
0.000450956
0.000448661
0.000446598
0.000444692
0.000442815
0.00044119
0.000439777
0.0004386
0.000437564
0.000436606
0.000435834
0.000435154
0.000434687
0.000434188
0.000433633
0.000433037
0.000432433
0.000431816
0.000431166
0.00043048
0.000429766
0.000428986
0.000428129
0.000427207
0.00042625
0.000425377
0.000424501
0.000423726
0.000422941
0.000422145
0.000421364
0.000420622
0.000420039
0.000419525
0.000419352
0.000419313
0.000419364
0.000419556
0.000419816
0.000419663
0.000419666
0.000419514
0.000419252
0.000418858
0.000418329
0.000417735
0.00041707
0.000416442
0.000415823
0.000415326
0.000414852
0.000414601
0.00041448
0.000414509
0.000414609
0.000414865
0.000415152
0.000415354
0.000415487
0.000415553
0.000415394
0.000415164
0.000414878
0.000414508
0.000414063
0.000413593
0.000413172
0.00041284
0.000412718
0.000412625
0.000412736
0.000412906
0.000413189
0.000413457
0.000413695
0.000413894
0.000413963
0.000413958
0.000413866
0.000413647
0.000413348
0.000413039
0.000412709
0.000412472
0.000412258
0.000412099
0.000412341
0.000412498
0.000412708
0.000413007
0.00041328
0.000413518
0.00041371
0.000413767
0.000413766
0.000413702
0.000413581
0.000413375
0.000413184
0.000412954
0.000412786
0.000412871
0.000412913
0.000413063
0.000413308
0.00041354
0.000413777
0.000414008
0.000414226
0.000414335
0.00041439
0.000414391
0.000414339
0.000414237
0.000414124
0.00041397
0.00041395
0.00836767
0.00836042
0.00838878
0.00843197
0.00843055
0.00844805
0.00846261
0.00846771
0.00845833
0.00841055
0.0084141
0.00844926
0.0084851
0.00852722
0.00864959
0.0087915
0.00889118
0.00895838
0.00900263
0.00902115
0.00901381
0.00898419
0.00893182
0.00885501
0.00875195
0.00862237
0.00846485
0.0082817
0.00807199
0.00783706
0.00758266
0.00730565
0.00701507
0.00670868
0.00639572
0.00607603
0.0057564
0.00543518
0.00512146
0.00481187
0.00451114
0.00422163
0.00394517
0.00368091
0.00343367
0.00319669
0.00298041
0.00277197
0.00258346
0.00240333
0.00224101
0.00208628
0.0019472
0.00181637
0.00169868
0.00158878
0.00148965
0.00139898
0.00131566
0.00124
0.00117093
0.00110812
0.0010508
0.000998555
0.000950978
0.000907697
0.000868278
0.000832277
0.000799329
0.000769705
0.000742157
0.000717546
0.000694668
0.000673982
0.000655361
0.000638046
0.000622832
0.000608231
0.000595604
0.000583308
0.000572493
0.000561855
0.000552846
0.000544071
0.000536471
0.000529017
0.000522475
0.000515997
0.000510295
0.000504698
0.000499806
0.00049495
0.000490675
0.000486524
0.000483016
0.000479911
0.000477354
0.000474809
0.000472183
0.000469455
0.00046674
0.000464105
0.000461887
0.000459868
0.000457992
0.000456158
0.000454339
0.000452553
0.000450803
0.00044907
0.000447325
0.000445517
0.000443627
0.000441668
0.000439657
0.000437672
0.000435773
0.000434605
0.000433842
0.000433703
0.000434078
0.00043102
0.000429754
0.000428866
0.000426722
0.0004246
0.00042266
0.000420805
0.000419183
0.000417751
0.000416547
0.000415482
0.000414499
0.000413693
0.000412975
0.000412457
0.00041191
0.000411309
0.00041067
0.000410022
0.000409361
0.000408669
0.000407943
0.00040719
0.000406379
0.000405497
0.000404559
0.00040359
0.000402698
0.000401807
0.000401011
0.000400206
0.000399392
0.000398593
0.000397836
0.000397228
0.00039669
0.000396474
0.000396378
0.000396373
0.000396494
0.000396686
0.000396498
0.000396431
0.000396224
0.000395924
0.000395493
0.000394941
0.00039432
0.000393648
0.000393006
0.000392374
0.000391864
0.000391374
0.000391101
0.000390948
0.000390939
0.000391
0.000391207
0.000391449
0.000391602
0.000391692
0.00039171
0.000391532
0.000391292
0.000390991
0.000390611
0.000390163
0.000389693
0.000389274
0.000388942
0.000388812
0.000388703
0.000388795
0.000388948
0.000389202
0.000389439
0.000389649
0.000389824
0.000389876
0.000389859
0.000389757
0.000389541
0.000389248
0.000388947
0.00038863
0.000388398
0.000388202
0.000388049
0.00038827
0.000388433
0.000388633
0.000388913
0.000389175
0.000389401
0.000389581
0.000389635
0.000389635
0.000389576
0.000389464
0.000389274
0.000389099
0.000388892
0.000388739
0.000388829
0.000388887
0.000389038
0.000389281
0.000389514
0.00038975
0.000389979
0.000390195
0.000390308
0.000390371
0.000390383
0.000390346
0.000390263
0.00039017
0.000390042
0.00039005
0.00836903
0.0083755
0.00839264
0.00843872
0.00843882
0.0084592
0.00845747
0.0084182
0.00837537
0.0083805
0.00841386
0.00846253
0.00853247
0.0086499
0.00874851
0.00885135
0.00893766
0.00900252
0.00904637
0.0090669
0.00906201
0.00903577
0.00898709
0.00891339
0.00881392
0.00868851
0.00853595
0.0083566
0.00815052
0.00791871
0.00766566
0.0073895
0.00709922
0.00679155
0.00647757
0.00615534
0.00583437
0.00550876
0.00519105
0.00487734
0.0045712
0.00427653
0.00399493
0.00372476
0.00347239
0.00322989
0.0030089
0.00279531
0.00260196
0.00241713
0.00225085
0.00209193
0.00194945
0.00181521
0.00169469
0.00158177
0.00148007
0.00138729
0.00130225
0.00122519
0.00115497
0.00109113
0.00103291
0.000979883
0.000931683
0.000887944
0.000848255
0.000811988
0.000778946
0.000749187
0.000721572
0.000696953
0.000673987
0.000653418
0.0006348
0.000617665
0.000602536
0.000588035
0.000575571
0.000563421
0.000552694
0.000542146
0.000533303
0.00052467
0.000517206
0.000509888
0.000503487
0.00049714
0.000491573
0.000486109
0.000481354
0.000476618
0.000472468
0.000468426
0.000465034
0.000462047
0.000459594
0.000457138
0.000454604
0.000451974
0.000449357
0.000446828
0.000444709
0.000442771
0.000440971
0.000439213
0.00043747
0.00043576
0.000434081
0.000432419
0.000430746
0.000429013
0.000427202
0.00042532
0.000423393
0.000421483
0.000419695
0.000418564
0.000417872
0.000417642
0.00041796
0.000415386
0.000413924
0.000412907
0.000410989
0.000408902
0.000406999
0.000405236
0.000403681
0.00040229
0.000401117
0.000400081
0.000399131
0.000398351
0.000397652
0.000397142
0.000396604
0.000396016
0.000395394
0.00039476
0.000394112
0.000393433
0.000392719
0.000391978
0.000391182
0.000390318
0.000389402
0.000388458
0.000387586
0.000386718
0.000385938
0.000385146
0.000384352
0.000383573
0.000382836
0.000382244
0.000381719
0.000381504
0.000381394
0.000381375
0.000381468
0.000381647
0.000381467
0.000381367
0.000381153
0.000380851
0.000380424
0.000379876
0.000379263
0.000378603
0.000377969
0.000377348
0.000376845
0.000376361
0.00037609
0.00037593
0.000375906
0.000375954
0.000376137
0.000376358
0.000376494
0.000376564
0.000376563
0.000376388
0.000376146
0.000375844
0.000375468
0.000375028
0.000374568
0.000374157
0.000373829
0.000373697
0.000373583
0.000373667
0.000373813
0.000374051
0.000374272
0.000374467
0.00037463
0.000374673
0.000374652
0.000374549
0.000374339
0.000374054
0.000373761
0.000373455
0.000373228
0.000373045
0.000372898
0.000373097
0.000373269
0.000373464
0.000373731
0.000373987
0.000374206
0.00037438
0.000374433
0.000374435
0.000374381
0.000374277
0.000374097
0.000373931
0.000373743
0.000373597
0.000373686
0.000373755
0.000373907
0.000374146
0.00037438
0.000374614
0.000374843
0.000375057
0.000375173
0.000375241
0.00037526
0.000375233
0.000375162
0.000375081
0.00037497
0.000374994
0.00836221
0.00838771
0.00839952
0.00844396
0.00844488
0.00845533
0.00841434
0.00836839
0.00835478
0.00839337
0.00844833
0.00853477
0.00861636
0.00872635
0.00882236
0.00892245
0.00900147
0.00906158
0.00910226
0.00912209
0.00911807
0.00909359
0.00904699
0.00897594
0.00888014
0.00875817
0.00860922
0.00843291
0.00822936
0.007999
0.00774688
0.00747068
0.00717998
0.00686976
0.00655366
0.0062274
0.00590391
0.00557239
0.00524989
0.00493094
0.00461783
0.00431716
0.00402995
0.00375291
0.00349449
0.00324502
0.00301867
0.00279923
0.00260107
0.00241134
0.00224161
0.00207816
0.00193258
0.00179525
0.00167275
0.0015571
0.00145386
0.00135965
0.00127365
0.00119585
0.00112507
0.00106092
0.00100238
0.000949257
0.000901083
0.00085761
0.000818321
0.000782394
0.000749979
0.000720591
0.000693453
0.000669315
0.000646681
0.000626693
0.00060847
0.000591928
0.000577237
0.000563182
0.000551216
0.00053952
0.000529174
0.000519009
0.000510599
0.000502381
0.000495312
0.000488361
0.000482327
0.000476312
0.00047108
0.00046593
0.000461484
0.000457027
0.000453176
0.000449403
0.000446291
0.000443566
0.000441341
0.000439092
0.000436768
0.000434357
0.000431962
0.000429661
0.000427748
0.000425988
0.000424363
0.000422774
0.000421198
0.000419656
0.000418135
0.000416623
0.000415092
0.000413501
0.000411834
0.0004101
0.000408322
0.000406558
0.000404953
0.000403918
0.000403353
0.000403084
0.000403362
0.000401327
0.000399739
0.000398637
0.000396961
0.000395007
0.000393199
0.000391568
0.000390125
0.000388816
0.000387716
0.000386745
0.00038587
0.000385154
0.000384514
0.000384045
0.000383549
0.000383012
0.000382444
0.000381861
0.00038126
0.000380627
0.000379958
0.000379262
0.000378512
0.000377695
0.000376831
0.00037594
0.000375114
0.000374291
0.00037355
0.000372794
0.000372043
0.000371308
0.000370615
0.000370063
0.000369577
0.000369386
0.000369284
0.000369274
0.000369359
0.000369545
0.000369402
0.000369294
0.000369092
0.000368807
0.000368405
0.000367884
0.000367299
0.000366666
0.00036606
0.000365463
0.000364982
0.000364522
0.000364268
0.000364115
0.000364094
0.000364144
0.000364317
0.000364529
0.000364668
0.00036473
0.000364728
0.000364565
0.000364336
0.000364041
0.000363676
0.000363255
0.000362815
0.000362421
0.000362107
0.000361979
0.000361871
0.000361957
0.000362099
0.000362329
0.000362543
0.000362733
0.000362893
0.000362929
0.00036291
0.000362814
0.000362616
0.000362342
0.000362061
0.000361771
0.000361552
0.000361385
0.000361249
0.000361425
0.000361608
0.000361806
0.000362062
0.000362315
0.000362531
0.000362703
0.000362758
0.000362765
0.000362717
0.000362622
0.000362455
0.000362297
0.000362129
0.00036199
0.000362074
0.000362157
0.000362309
0.000362544
0.00036278
0.000363015
0.000363243
0.000363458
0.000363576
0.00036365
0.000363676
0.000363658
0.000363598
0.000363528
0.000363431
0.000363468
0.00835349
0.00838565
0.00839749
0.00844579
0.00843909
0.00841705
0.0083711
0.00834627
0.00837091
0.00842859
0.00851055
0.00859712
0.0086948
0.00880363
0.00889663
0.00898773
0.00906097
0.0091176
0.00915604
0.00917563
0.00917286
0.0091499
0.00910562
0.00903756
0.00894584
0.00882731
0.00868204
0.008508
0.00830687
0.00807726
0.00782559
0.00754854
0.00725717
0.00694311
0.00662423
0.0062927
0.0059662
0.00562687
0.00529848
0.00497335
0.00465111
0.00434199
0.0040474
0.00376217
0.00349836
0.00324152
0.00300928
0.0027826
0.00257892
0.00238336
0.00220961
0.00204122
0.00189303
0.00175291
0.00162912
0.00151026
0.00140725
0.0013124
0.00122609
0.00114879
0.0010779
0.00101458
0.000956367
0.000904024
0.000856739
0.000814441
0.0007763
0.000741445
0.000710394
0.000682035
0.000656045
0.000632977
0.000611269
0.000592433
0.000575127
0.000559693
0.000545877
0.000532728
0.000521673
0.000510803
0.000501218
0.000491836
0.000484234
0.000476724
0.000470294
0.00046392
0.000458461
0.000452952
0.000448246
0.000443577
0.000439604
0.000435567
0.000432169
0.000428798
0.000426104
0.000423747
0.00042184
0.00041987
0.000417835
0.000415739
0.000413671
0.000411702
0.000410081
0.000408571
0.000407191
0.000405838
0.000404497
0.00040319
0.000401892
0.000400593
0.000399267
0.000397879
0.000396418
0.000394894
0.000393316
0.000391778
0.00039043
0.000389546
0.000389153
0.000388892
0.00038912
0.000387637
0.000386033
0.000384887
0.000383456
0.000381715
0.00038006
0.000378599
0.000377302
0.000376108
0.000375112
0.000374234
0.000373465
0.000372846
0.000372294
0.00037189
0.000371458
0.000370998
0.000370515
0.00037001
0.000369481
0.000368922
0.000368321
0.000367695
0.000367016
0.000366271
0.000365483
0.000364668
0.000363912
0.000363154
0.000362471
0.000361764
0.00036108
0.000360405
0.000359777
0.000359286
0.000358859
0.000358709
0.000358629
0.000358644
0.000358736
0.000358944
0.000358853
0.00035875
0.000358577
0.000358323
0.000357962
0.000357483
0.000356943
0.000356353
0.000355787
0.000355228
0.000354783
0.000354361
0.000354139
0.000354002
0.000354
0.000354061
0.000354239
0.000354448
0.0003546
0.000354669
0.000354678
0.000354541
0.000354333
0.000354051
0.000353705
0.000353313
0.000352905
0.000352538
0.000352246
0.000352129
0.000352035
0.000352133
0.000352275
0.000352508
0.000352719
0.000352913
0.000353074
0.000353111
0.000353101
0.000353019
0.000352836
0.00035258
0.000352317
0.000352047
0.000351841
0.000351694
0.000351574
0.000351734
0.000351928
0.000352134
0.000352384
0.000352639
0.000352855
0.000353027
0.000353089
0.000353104
0.000353064
0.00035298
0.00035283
0.000352683
0.000352536
0.000352407
0.000352486
0.000352586
0.000352741
0.000352972
0.000353212
0.00035345
0.000353681
0.000353896
0.000354018
0.0003541
0.000354135
0.000354126
0.000354077
0.000354019
0.000353936
0.000353988
0.00833381
0.00837727
0.00838946
0.00843797
0.0084086
0.0083753
0.00834418
0.00835519
0.00840359
0.00847874
0.00856384
0.00866752
0.00877051
0.00887446
0.00896501
0.00904946
0.0091184
0.00917203
0.00920857
0.00922777
0.00922646
0.00920446
0.00916348
0.00909881
0.0090109
0.00889536
0.00875336
0.00858104
0.00838198
0.0081519
0.00790039
0.00762117
0.00732849
0.00700872
0.006686
0.00634676
0.00601599
0.00566602
0.00533008
0.00499869
0.00466408
0.00434417
0.00404027
0.003745
0.00347443
0.0032091
0.00296995
0.0027353
0.00252608
0.0023249
0.00214693
0.00197336
0.00182399
0.00168176
0.00155825
0.00143562
0.00133535
0.00124238
0.0011557
0.0010808
0.00101108
0.000949868
0.000893094
0.000842612
0.000797017
0.000756872
0.000720826
0.000687847
0.00065883
0.000632162
0.000608083
0.000586726
0.000566622
0.000549581
0.000533753
0.000520004
0.000507511
0.000495784
0.000486055
0.000476404
0.000467963
0.000459779
0.00045331
0.000446805
0.000441303
0.00043578
0.000431148
0.000426393
0.000422453
0.000418486
0.000415208
0.000411816
0.000409078
0.000406263
0.000404129
0.000402252
0.000400753
0.00039913
0.00039749
0.000395803
0.000394167
0.000392629
0.000391372
0.000390173
0.000389093
0.000388031
0.000386984
0.000385974
0.000384955
0.000383923
0.000382846
0.000381712
0.000380504
0.000379246
0.000377904
0.000376666
0.000375637
0.000374956
0.00037475
0.000374529
0.000374726
0.000373735
0.000372274
0.000371097
0.000369902
0.000368451
0.000366995
0.000365732
0.000364608
0.000363561
0.000362698
0.000361943
0.00036131
0.000360814
0.000360377
0.00036006
0.000359712
0.000359358
0.000358982
0.00035858
0.000358148
0.000357682
0.000357176
0.000356638
0.000356049
0.000355397
0.000354708
0.00035399
0.00035332
0.000352647
0.000352035
0.000351395
0.000350794
0.000350198
0.000349653
0.000349239
0.00034889
0.000348794
0.000348749
0.000348804
0.000348908
0.000349151
0.000349138
0.000349043
0.000348911
0.000348703
0.000348397
0.000347972
0.000347486
0.000346956
0.000346448
0.000345937
0.000345539
0.000345171
0.000344992
0.000344877
0.000344907
0.000344997
0.000345183
0.000345395
0.000345571
0.000345659
0.000345689
0.000345587
0.000345401
0.000345147
0.000344832
0.000344479
0.000344111
0.000343781
0.000343519
0.000343421
0.000343349
0.000343469
0.000343619
0.000343854
0.000344072
0.000344274
0.000344444
0.000344489
0.000344495
0.000344434
0.000344273
0.000344038
0.0003438
0.000343557
0.00034337
0.000343249
0.000343147
0.0003433
0.000343507
0.000343723
0.000343974
0.000344232
0.000344453
0.000344631
0.000344702
0.000344729
0.000344702
0.000344632
0.000344503
0.000344369
0.000344249
0.000344134
0.000344208
0.000344328
0.000344489
0.000344718
0.000344965
0.000345209
0.000345443
0.000345662
0.00034579
0.000345881
0.000345925
0.000345927
0.000345892
0.000345848
0.00034578
0.00034585
0.00830103
0.0083667
0.0083633
0.00839548
0.00836876
0.00834027
0.00834126
0.00837797
0.00844265
0.0085244
0.00862555
0.00873454
0.00883878
0.0089382
0.00902659
0.00910589
0.00917144
0.00922268
0.0092579
0.00927658
0.00927741
0.0092571
0.00921975
0.00915801
0.00907369
0.00896062
0.00882165
0.0086502
0.00845265
0.00822089
0.00796882
0.00768578
0.0073904
0.00706143
0.00673416
0.00638668
0.00604942
0.00568395
0.00533568
0.00499584
0.00464743
0.00431461
0.00399869
0.00369112
0.00341149
0.00313694
0.00289015
0.0026474
0.00243462
0.00222995
0.00205048
0.00187085
0.00172396
0.00158165
0.00146104
0.00133724
0.00124043
0.00115148
0.00106696
0.000995512
0.000929105
0.00087083
0.000816858
0.000769202
0.000726261
0.000689081
0.000656089
0.000625719
0.000599402
0.000574869
0.000553273
0.000533882
0.000515811
0.000500884
0.000486797
0.000475074
0.000464044
0.000454087
0.000445802
0.000437598
0.000430435
0.00042363
0.000418341
0.000413036
0.000408644
0.000404182
0.000400596
0.000396765
0.000393837
0.0003907
0.00038832
0.000385705
0.000383832
0.000381713
0.000380331
0.000378986
0.000378019
0.000376804
0.000375757
0.000374576
0.000373499
0.000372454
0.000371621
0.000370782
0.000370062
0.000369338
0.000368642
0.000367973
0.000367274
0.000366542
0.000365765
0.000364912
0.000364006
0.000363036
0.000361979
0.000361109
0.000360459
0.000360025
0.000360011
0.000359819
0.000360015
0.000359424
0.000358244
0.000357112
0.000356108
0.000354967
0.000353802
0.000352745
0.000351824
0.000350935
0.000350238
0.000349616
0.000349152
0.000348793
0.000348489
0.000348275
0.000348019
0.000347797
0.000347549
0.000347263
0.000346946
0.000346591
0.000346197
0.00034576
0.000345279
0.000344735
0.000344164
0.000343562
0.000343001
0.000342421
0.000341904
0.000341333
0.000340839
0.00034033
0.000339897
0.000339566
0.000339316
0.000339281
0.000339279
0.000339391
0.000339536
0.000339795
0.000339857
0.00033981
0.00033972
0.000339566
0.000339328
0.000338966
0.000338548
0.00033809
0.000337652
0.000337204
0.000336863
0.00033656
0.000336429
0.000336348
0.000336431
0.000336543
0.000336746
0.000336975
0.000337181
0.000337298
0.000337349
0.000337287
0.000337137
0.000336922
0.000336646
0.00033634
0.000336021
0.000335738
0.000335518
0.000335437
0.000335403
0.000335543
0.000335713
0.000335954
0.000336187
0.000336402
0.000336584
0.000336647
0.000336673
0.000336635
0.000336506
0.000336299
0.000336092
0.000335879
0.00033572
0.000335632
0.000335551
0.000335703
0.000335925
0.000336156
0.000336412
0.000336677
0.000336906
0.000337093
0.000337178
0.000337221
0.00033721
0.000337159
0.000337053
0.000336937
0.000336847
0.00033675
0.000336824
0.000336965
0.000337136
0.000337366
0.000337621
0.000337873
0.000338113
0.000338338
0.000338474
0.000338577
0.000338634
0.000338649
0.00033863
0.000338601
0.000338551
0.000338641
0.00826276
0.00834894
0.00832395
0.00834533
0.00832723
0.00832405
0.00835036
0.00840431
0.00847861
0.0085754
0.00868436
0.00879505
0.00889854
0.00899446
0.00908027
0.00915602
0.00921902
0.00926833
0.00930273
0.00932191
0.00932542
0.00930671
0.00927261
0.00921361
0.00913264
0.00902132
0.008885
0.00871299
0.00851653
0.00828106
0.00802589
0.00773711
0.00744088
0.00710069
0.00676314
0.00640122
0.00605355
0.00567079
0.00530581
0.00495038
0.00458456
0.00423814
0.00390926
0.00359275
0.00330356
0.00302096
0.00276777
0.00251595
0.00230432
0.00209839
0.00192318
0.00173961
0.0015982
0.00145956
0.00134543
0.00122563
0.00113019
0.00104773
0.00096885
0.000902109
0.000840262
0.000786348
0.000736408
0.000692406
0.000653069
0.000619472
0.000590084
0.000562878
0.00053948
0.000517418
0.000498699
0.000481146
0.000465554
0.000452526
0.000440225
0.000430383
0.000420674
0.00041239
0.000405399
0.000398311
0.000392548
0.000386811
0.000382791
0.000378251
0.000375142
0.00037142
0.000368981
0.000365847
0.000364006
0.000361568
0.000360089
0.000358155
0.00035718
0.000355729
0.000355181
0.000354432
0.000354001
0.000353263
0.000352872
0.000352249
0.000351817
0.000351336
0.000350974
0.000350538
0.000350232
0.000349907
0.00034962
0.000349329
0.000348973
0.000348566
0.000348116
0.000347569
0.00034699
0.00034635
0.000345607
0.000345173
0.000344926
0.000344764
0.000344866
0.000344823
0.000345027
0.000344705
0.00034385
0.000342856
0.000342067
0.000341233
0.000340409
0.000339572
0.000338875
0.000338157
0.000337655
0.000337166
0.000336903
0.000336677
0.00033653
0.000336423
0.00033627
0.000336192
0.00033608
0.000335925
0.000335737
0.000335506
0.000335235
0.000334913
0.000334552
0.000334131
0.000333693
0.000333219
0.000332782
0.000332307
0.000331897
0.000331406
0.000331026
0.000330621
0.00033031
0.000330076
0.000329946
0.000329975
0.000330032
0.000330197
0.000330387
0.000330684
0.000330808
0.000330823
0.000330795
0.0003307
0.000330527
0.000330248
0.000329913
0.000329538
0.000329177
0.000328803
0.000328529
0.000328304
0.000328223
0.000328192
0.000328325
0.000328473
0.000328695
0.000328949
0.000329186
0.000329338
0.000329416
0.000329405
0.00032931
0.000329132
0.000328902
0.000328653
0.000328392
0.000328162
0.000327986
0.000327942
0.000327944
0.000328108
0.000328303
0.000328556
0.000328808
0.000329041
0.000329241
0.000329328
0.000329379
0.000329369
0.000329276
0.000329107
0.000328933
0.000328758
0.000328631
0.000328586
0.000328525
0.000328685
0.000328922
0.000329171
0.000329438
0.000329712
0.000329953
0.000330153
0.000330256
0.000330319
0.000330328
0.000330299
0.00033022
0.000330128
0.00033007
0.000329995
0.000330072
0.000330237
0.00033042
0.000330655
0.00033092
0.000331183
0.000331432
0.000331664
0.000331812
0.000331928
0.000332
0.000332031
0.00033203
0.00033202
0.000331989
0.000332102
0.0082241
0.0083164
0.00828591
0.0082993
0.0082979
0.00831918
0.00836448
0.00843077
0.00851466
0.00862483
0.00873698
0.00884772
0.00894935
0.00904255
0.00912602
0.00919907
0.00926013
0.00930825
0.00934288
0.00936319
0.00936873
0.00935206
0.00932078
0.00926408
0.00918617
0.00907534
0.00894085
0.00876651
0.00856856
0.00832915
0.00807294
0.00777294
0.00746972
0.00711282
0.00675991
0.0063772
0.00601239
0.00560829
0.00522573
0.004852
0.00446658
0.00411117
0.00376804
0.00344705
0.00314926
0.00285686
0.00260794
0.00234864
0.0021443
0.0019411
0.00177543
0.0015965
0.00146171
0.0013288
0.00122385
0.00111486
0.00101869
0.000944142
0.000874779
0.000814436
0.000758706
0.000710114
0.000664943
0.00062489
0.000589669
0.0005597
0.000533705
0.00051012
0.000489214
0.000469707
0.00045332
0.000437391
0.000423792
0.000412301
0.000401468
0.000392926
0.000384183
0.000376992
0.000371051
0.000364237
0.000359958
0.000354854
0.000351523
0.000347214
0.000345104
0.000341676
0.000340027
0.000337279
0.000336126
0.000334186
0.000333186
0.000331816
0.000331301
0.000330421
0.000330435
0.000330101
0.000329991
0.000329644
0.000329744
0.000329633
0.000329777
0.000329849
0.000329929
0.000329904
0.000330016
0.0003301
0.00033022
0.000330308
0.000330317
0.000330262
0.00033014
0.000329942
0.000329694
0.000329381
0.000329005
0.000329033
0.00032917
0.000329305
0.000329496
0.000329574
0.000329783
0.000329734
0.000329186
0.000328408
0.000327862
0.000327363
0.000326831
0.000326265
0.000325782
0.000325277
0.000324939
0.000324625
0.00032455
0.000324471
0.000324482
0.000324485
0.000324452
0.00032452
0.00032455
0.000324537
0.000324483
0.000324386
0.000324246
0.000324053
0.000323812
0.000323529
0.000323229
0.000322899
0.000322586
0.000322237
0.000321927
0.000321541
0.00032127
0.000320994
0.000320803
0.00032068
0.000320673
0.000320772
0.000320898
0.000321122
0.00032137
0.000321691
0.000321893
0.000321977
0.000322011
0.000321982
0.000321895
0.000321704
0.000321454
0.000321171
0.000320896
0.00032061
0.000320408
0.000320256
0.000320251
0.000320273
0.000320451
0.000320646
0.000320894
0.000321172
0.000321445
0.000321633
0.000321753
0.000321798
0.000321752
0.000321631
0.000321455
0.000321266
0.000321068
0.0003209
0.000320777
0.000320778
0.000320814
0.00032101
0.000321234
0.000321503
0.000321776
0.000322032
0.000322254
0.00032237
0.00032245
0.000322473
0.000322419
0.000322296
0.000322161
0.000322027
0.000321945
0.000321938
0.000321908
0.000322077
0.000322331
0.000322602
0.000322884
0.000323169
0.000323425
0.000323641
0.000323766
0.000323853
0.000323886
0.000323881
0.000323834
0.00032377
0.000323747
0.0003237
0.000323783
0.000323974
0.000324172
0.000324414
0.000324691
0.000324966
0.000325226
0.000325469
0.00032563
0.000325763
0.000325852
0.000325901
0.00032592
0.000325931
0.000325923
0.000326063
0.0081909
0.00828179
0.00825157
0.00826078
0.00827814
0.00831842
0.0083778
0.0084548
0.00855356
0.00866811
0.00878279
0.00889161
0.00899128
0.00908219
0.00916357
0.00923462
0.00929448
0.00934238
0.00937795
0.00939881
0.00940605
0.009392
0.00936307
0.00930778
0.00923239
0.00911989
0.008985
0.00880824
0.00861146
0.00836209
0.0080992
0.00777976
0.00746065
0.00708006
0.00670708
0.00630107
0.00591438
0.00548599
0.00508882
0.00469642
0.00428273
0.00393763
0.00358767
0.00325391
0.00295936
0.00265935
0.00242301
0.00216655
0.00197176
0.00177543
0.00162403
0.00145982
0.00133372
0.00120926
0.00111311
0.00101799
0.0009265
0.000860174
0.000798617
0.000745158
0.000695464
0.0006513
0.000610383
0.000575192
0.000543753
0.000516116
0.000493375
0.000472021
0.000453745
0.000435832
0.000421174
0.000406622
0.000393935
0.000383639
0.000373345
0.000365817
0.000357538
0.000351473
0.00034514
0.000338402
0.000335296
0.000330413
0.00032723
0.000323068
0.000321186
0.00031792
0.000316387
0.000313877
0.000312778
0.000311102
0.000310191
0.000308995
0.00030876
0.000308082
0.000308248
0.000308055
0.00030804
0.0003078
0.000308151
0.000308319
0.000308845
0.000309279
0.000309675
0.000309927
0.000310314
0.000310689