/*--------------------------------*- C++ -*----------------------------------*\
| =========                 |                                                 |
| \\      /  F ield         | OpenFOAM: The Open Source CFD Toolbox           |
|  \\    /   O peration     | Version:  2312                                  |
|   \\  /    A nd           | Website:  www.openfoam.com                      |
|    \\/     M anipulation  |                                                 |
\*---------------------------------------------------------------------------*/
FoamFile
{
    version     2.0;
    format      ascii;
    arch        "LSB;label=32;scalar=64";
    class       volVectorField;
    location    "0.006";
    object      U;
}
// * * * * * * * * * * * * * * * * * * * * * * * * * * * * * * * * * * * * * //

dimensions      [0 1 -1 0 0 0 0];

internalField   nonuniform List<vector> 
48128
(
(12.2701 -4.82333 0)
(17.2531 -2.60483 0)
(20.3719 -0.337417 0)
(19.8396 0.570935 0)
(18.5896 0.699709 0)
(17.2132 0.740115 0)
(15.5866 0.704137 0)
(13.7826 0.717271 0)
(11.3028 1.18975 0)
(6.32509 3.11946 0)
(-3.13451 5.37967 0)
(-18.9056 7.74626 0)
(-42.5796 10.2666 0)
(-68.7874 9.97562 0)
(-91.176 7.5447 0)
(-109.409 4.68148 0)
(-124.039 3.66483 0)
(-135.8 3.01192 0)
(-145.624 2.61694 0)
(-153.962 2.3356 0)
(-161.021 2.14199 0)
(-167.229 2.00753 0)
(-172.75 1.89515 0)
(-177.556 1.80106 0)
(-181.662 1.71232 0)
(-185.067 1.63575 0)
(-187.752 1.64467 0)
(-189.618 1.81681 0)
(-190.689 1.66673 0)
(-191.114 1.51102 0)
(-190.808 1.1525 0)
(-189.555 0.915574 0)
(-187.534 0.680466 0)
(-184.734 0.400913 0)
(-181.212 0.214288 0)
(-177.045 -0.038601 0)
(-172.212 -0.234395 0)
(-166.596 -0.662167 0)
(-160.227 -0.921538 0)
(-153.399 -1.2298 0)
(-145.742 -1.62435 0)
(-137.491 -1.88517 0)
(-128.841 -2.1405 0)
(-119.704 -2.4689 0)
(-110.1 -2.68211 0)
(-100.287 -2.94829 0)
(-90.1035 -3.08611 0)
(-79.888 -3.36376 0)
(-69.2049 -3.56068 0)
(-58.3907 -3.81679 0)
(-47.4796 -3.84919 0)
(-36.573 -4.10588 0)
(-25.4448 -4.22238 0)
(-14.1687 -4.46457 0)
(-2.95863 -4.44371 0)
(8.12874 -4.25331 0)
(19.3763 -3.70836 0)
(30.5964 -3.26115 0)
(41.7892 -3.2867 0)
(52.8218 -3.25918 0)
(63.6669 -3.23635 0)
(74.2507 -3.17553 0)
(84.549 -3.11022 0)
(94.5949 -3.04903 0)
(104.423 -2.99091 0)
(114.095 -2.94989 0)
(123.564 -2.88101 0)
(132.8 -2.80954 0)
(141.854 -2.75836 0)
(150.474 -2.71584 0)
(158.937 -2.63153 0)
(166.989 -2.50609 0)
(174.822 -2.43781 0)
(182.499 -2.33717 0)
(189.863 -2.25475 0)
(197.186 -2.17018 0)
(204.059 -2.0552 0)
(210.851 -1.97929 0)
(217.254 -1.87641 0)
(223.512 -1.77914 0)
(229.325 -1.66696 0)
(234.986 -1.59531 0)
(240.388 -1.51314 0)
(245.698 -1.44415 0)
(250.713 -1.35765 0)
(255.547 -1.29394 0)
(260.136 -1.21201 0)
(264.508 -1.15095 0)
(268.652 -1.07773 0)
(272.645 -1.02879 0)
(276.465 -0.962446 0)
(280.098 -0.912749 0)
(283.56 -0.855833 0)
(286.908 -0.814857 0)
(290.177 -0.773978 0)
(293.416 -0.742248 0)
(296.582 -0.696405 0)
(299.559 -0.645789 0)
(302.287 -0.595595 0)
(304.763 -0.55028 0)
(307.039 -0.512842 0)
(309.248 -0.490225 0)
(311.442 -0.4653 0)
(313.564 -0.438765 0)
(315.594 -0.410993 0)
(317.511 -0.383209 0)
(319.305 -0.357331 0)
(320.985 -0.33382 0)
(322.575 -0.31348 0)
(324.081 -0.292447 0)
(325.478 -0.275171 0)
(326.782 -0.255695 0)
(327.954 -0.239732 0)
(329.035 -0.223991 0)
(330.027 -0.212594 0)
(330.952 -0.19869 0)
(331.941 -0.206289 0)
(333.004 -0.189261 0)
(334.133 -0.199446 0)
(335.452 -0.169919 0)
(337.376 -0.178793 0)
(337.358 -0.119777 0)
(337.867 -0.0931792 0)
(338.972 -0.128532 0)
(338.945 -0.0934382 0)
(339.175 -0.0915225 0)
(339.498 -0.102276 0)
(339.874 -0.107951 0)
(340.299 -0.105029 0)
(340.769 -0.102612 0)
(341.269 -0.0977315 0)
(341.78 -0.0928768 0)
(342.296 -0.0879353 0)
(342.818 -0.0820702 0)
(343.345 -0.0764278 0)
(343.877 -0.0699376 0)
(344.395 -0.0618767 0)
(344.816 -0.0542109 0)
(345.2 -0.0483526 0)
(345.537 -0.0450284 0)
(345.869 -0.0414395 0)
(346.143 -0.0379786 0)
(346.396 -0.0346407 0)
(346.598 -0.0312601 0)
(346.802 -0.0320521 0)
(346.912 -0.0227484 0)
(346.993 -0.0201406 0)
(347.028 -0.0142012 0)
(347.068 -0.0115308 0)
(347.099 -0.0097765 0)
(347.138 -0.00698155 0)
(347.146 -0.00351122 0)
(347.135 -0.00207678 0)
(347.113 -0.00102266 0)
(347.115 -0.00236886 0)
(347.131 -0.000299973 0)
(347.184 -0.00180923 0)
(347.268 0.00285243 0)
(347.394 0.00442354 0)
(347.531 0.00602651 0)
(347.689 0.00966024 0)
(347.858 0.0157174 0)
(347.848 0.0150698 0)
(347.864 0.0189385 0)
(347.842 0.0206099 0)
(347.757 0.0205485 0)
(347.629 0.0235774 0)
(347.444 0.0224804 0)
(347.241 0.0233659 0)
(347.014 0.0200139 0)
(346.811 0.0179417 0)
(346.612 0.0151797 0)
(346.467 0.0109532 0)
(346.316 0.0129143 0)
(346.268 0.00372426 0)
(346.215 0.0114365 0)
(346.23 0.00754818 0)
(346.249 0.00884023 0)
(346.305 0.0117392 0)
(346.363 0.0130483 0)
(346.35 0.0179098 0)
(346.309 0.0173763 0)
(346.237 0.0248576 0)
(346.1 0.0175946 0)
(345.924 0.0207331 0)
(345.733 0.0197066 0)
(345.515 0.0189792 0)
(345.278 0.0185493 0)
(345.037 0.0163678 0)
(344.828 0.0135962 0)
(344.656 0.0113903 0)
(344.561 0.00840963 0)
(344.437 0.0143068 0)
(344.433 0.0062096 0)
(344.413 0.00963715 0)
(344.433 0.00985311 0)
(344.416 0.0132924 0)
(344.374 0.0147665 0)
(344.3 0.0174144 0)
(344.194 0.0170769 0)
(344.055 0.0181364 0)
(343.883 0.0172367 0)
(343.669 0.0170323 0)
(343.432 0.0159456 0)
(343.202 0.0142557 0)
(342.977 0.0135564 0)
(342.782 0.0102618 0)
(342.619 0.00919098 0)
(342.417 0.0100634 0)
(342.425 0.00660308 0)
(342.389 0.00765585 0)
(342.335 0.0107603 0)
(342.313 0.0093571 0)
(342.263 0.0114899 0)
(342.187 0.0131734 0)
(342.078 0.0150318 0)
(341.938 0.0146525 0)
(341.769 0.0154625 0)
(341.578 0.0142075 0)
(341.37 0.0145035 0)
(341.136 0.0127207 0)
(340.925 0.0120388 0)
(340.706 0.0110208 0)
(340.513 0.00849678 0)
(340.414 0.00737779 0)
(340.303 0.00746373 0)
(340.187 0.00851186 0)
(340.142 0.00739682 0)
(340.074 0.00905571 0)
(339.991 0.0103694 0)
(339.893 0.0113549 0)
(339.771 0.0130573 0)
(339.626 0.0129767 0)
(339.458 0.0132387 0)
(339.269 0.012939 0)
(339.067 0.011761 0)
(338.852 0.0116268 0)
(338.64 0.0103451 0)
(338.438 0.00852936 0)
(338.188 0.00898962 0)
(13.3004 -13.3232 0)
(14.6706 -3.93637 0)
(18.7304 -0.725684 0)
(18.6924 0.851191 0)
(17.3541 1.29409 0)
(14.8683 1.81034 0)
(10.4448 2.30054 0)
(3.24882 2.9497 0)
(-8.10862 4.38608 0)
(-25.5505 7.98806 0)
(-50.9923 11.2679 0)
(-78.5156 15.6371 0)
(-101.393 18.1701 0)
(-119.284 15.1224 0)
(-133.303 11.7712 0)
(-143.746 10.5953 0)
(-152.235 8.49353 0)
(-159.686 7.07792 0)
(-165.908 6.06319 0)
(-171.051 5.33014 0)
(-175.189 4.75986 0)
(-178.598 4.34923 0)
(-181.46 3.97935 0)
(-183.703 3.64799 0)
(-185.327 3.32852 0)
(-186.323 3.02268 0)
(-186.699 2.76702 0)
(-186.51 2.50479 0)
(-185.554 2.17654 0)
(-183.692 1.8709 0)
(-181.1 1.46679 0)
(-177.797 1.1035 0)
(-173.688 0.753527 0)
(-168.856 0.344398 0)
(-163.289 0.0520353 0)
(-157.137 -0.299403 0)
(-150.35 -0.571293 0)
(-142.881 -1.0807 0)
(-134.71 -1.40581 0)
(-126.092 -1.76286 0)
(-116.805 -2.30497 0)
(-106.973 -2.69268 0)
(-96.761 -3.04097 0)
(-86.1855 -3.49937 0)
(-75.281 -3.80511 0)
(-64.1983 -4.20555 0)
(-52.7612 -4.41383 0)
(-41.2914 -4.81344 0)
(-29.4022 -5.0956 0)
(-17.4358 -5.47113 0)
(-5.34976 -5.52954 0)
(6.6781 -5.88719 0)
(18.8772 -6.05217 0)
(31.1176 -6.38972 0)
(43.2441 -6.35968 0)
(55.177 -6.58444 0)
(67.2206 -6.92062 0)
(79.1637 -7.05489 0)
(90.9985 -7.14515 0)
(102.604 -7.09523 0)
(113.969 -7.05797 0)
(125.025 -6.94517 0)
(135.756 -6.83265 0)
(146.203 -6.73532 0)
(156.403 -6.64522 0)
(166.411 -6.57524 0)
(176.153 -6.43995 0)
(185.627 -6.30627 0)
(194.905 -6.11756 0)
(203.787 -5.88742 0)
(212.489 -5.728 0)
(220.774 -5.47257 0)
(228.797 -5.34996 0)
(236.634 -5.14393 0)
(244.13 -4.98006 0)
(251.556 -4.801 0)
(258.534 -4.56784 0)
(265.394 -4.41273 0)
(271.892 -4.18924 0)
(278.204 -3.98697 0)
(284.111 -3.7648 0)
(289.836 -3.63737 0)
(295.337 -3.45707 0)
(300.687 -3.31182 0)
(305.796 -3.11853 0)
(310.677 -2.98151 0)
(315.364 -2.7988 0)
(319.798 -2.66967 0)
(324.054 -2.51281 0)
(328.117 -2.40542 0)
(332.061 -2.25827 0)
(335.783 -2.1521 0)
(339.386 -2.02829 0)
(342.838 -1.93884 0)
(346.238 -1.84349 0)
(349.562 -1.75987 0)
(352.842 -1.6501 0)
(355.943 -1.54499 0)
(358.833 -1.44696 0)
(361.5 -1.35955 0)
(363.995 -1.2857 0)
(366.406 -1.23024 0)
(368.795 -1.16442 0)
(371.108 -1.10145 0)
(373.336 -1.03924 0)
(375.459 -0.980201 0)
(377.473 -0.926061 0)
(379.38 -0.87555 0)
(381.203 -0.829179 0)
(382.946 -0.784001 0)
(384.588 -0.745872 0)
(386.143 -0.705876 0)
(387.579 -0.673225 0)
(388.924 -0.640994 0)
(390.191 -0.612568 0)
(391.375 -0.587168 0)
(392.6 -0.575263 0)
(393.874 -0.529334 0)
(395.196 -0.523333 0)
(396.652 -0.436073 0)
(398.64 -0.595393 0)
(399.035 -0.331549 0)
(399.835 -0.275795 0)
(401.091 -0.434898 0)
(401.462 -0.333833 0)
(401.997 -0.325152 0)
(402.59 -0.352112 0)
(403.21 -0.350806 0)
(403.852 -0.327411 0)
(404.515 -0.312085 0)
(405.194 -0.295592 0)
(405.875 -0.283249 0)
(406.554 -0.267992 0)
(407.233 -0.250811 0)
(407.913 -0.23413 0)
(408.597 -0.217963 0)
(409.265 -0.202573 0)
(409.86 -0.190977 0)
(410.418 -0.178278 0)
(410.937 -0.168623 0)
(411.442 -0.158737 0)
(411.901 -0.150703 0)
(412.327 -0.142217 0)
(412.717 -0.136246 0)
(413.083 -0.133641 0)
(413.394 -0.122011 0)
(413.68 -0.116949 0)
(413.938 -0.106645 0)
(414.201 -0.0994968 0)
(414.456 -0.0944118 0)
(414.717 -0.0849855 0)
(414.958 -0.0801456 0)
(415.179 -0.0759965 0)
(415.388 -0.0710612 0)
(415.605 -0.0690198 0)
(415.832 -0.0588521 0)
(416.085 -0.0535665 0)
(416.359 -0.0384979 0)
(416.661 -0.0292498 0)
(416.971 -0.0251199 0)
(417.297 -0.0148355 0)
(417.643 -0.0201582 0)
(417.835 -0.00363484 0)
(418.042 0.000720263 0)
(418.26 -0.00152541 0)
(418.365 -0.00367699 0)
(418.481 -0.00196416 0)
(418.5 -0.00248296 0)
(418.522 -0.00403794 0)
(418.514 -0.00448566 0)
(418.512 -0.00595225 0)
(418.517 -0.00746758 0)
(418.533 -0.00766597 0)
(418.564 -0.00460766 0)
(418.626 -0.00736171 0)
(418.702 0.00663534 0)
(418.804 0.00203237 0)
(418.917 0.00790103 0)
(419.057 0.0138541 0)
(419.199 0.0138224 0)
(419.305 0.0249431 0)
(419.365 0.0230894 0)
(419.429 0.0253302 0)
(419.407 0.016659 0)
(419.366 0.021672 0)
(419.308 0.0202394 0)
(419.226 0.0176857 0)
(419.122 0.015698 0)
(419.012 0.0137094 0)
(418.909 0.0116322 0)
(418.83 0.0106343 0)
(418.796 0.0105742 0)
(418.753 0.0185296 0)
(418.772 0.0115328 0)
(418.788 0.0191648 0)
(418.83 0.0192589 0)
(418.852 0.0265195 0)
(418.849 0.0286437 0)
(418.825 0.0307384 0)
(418.78 0.0295809 0)
(418.71 0.0300649 0)
(418.613 0.0254724 0)
(418.481 0.0255479 0)
(418.327 0.0238741 0)
(418.17 0.0216884 0)
(418.01 0.0201397 0)
(417.866 0.0191187 0)
(417.737 0.0140931 0)
(417.568 0.0292537 0)
(417.56 0.0142653 0)
(417.524 0.0183776 0)
(417.469 0.0272374 0)
(417.443 0.0259154 0)
(417.397 0.0293097 0)
(417.333 0.031721 0)
(417.246 0.0333958 0)
(417.136 0.0312074 0)
(417.003 0.0309473 0)
(416.852 0.0283054 0)
(416.685 0.0275137 0)
(416.495 0.025935 0)
(416.312 0.0237677 0)
(416.124 0.0223809 0)
(415.936 0.025809 0)
(415.824 0.0194395 0)
(415.702 0.021444 0)
(415.572 0.0265397 0)
(415.5 0.0244327 0)
(415.413 0.0272898 0)
(415.315 0.029465 0)
(415.209 0.0306347 0)
(415.086 0.0328525 0)
(414.947 0.0310487 0)
(414.789 0.0305014 0)
(414.615 0.029197 0)
(414.428 0.0271466 0)
(414.228 0.0261021 0)
(414.026 0.0237842 0)
(413.824 0.0224882 0)
(413.554 0.0255778 0)
(9.38226 -20.395 0)
(10.7234 -6.58507 0)
(15.1136 -1.73495 0)
(14.7518 1.49297 0)
(11.9599 2.77643 0)
(7.05931 4.6811 0)
(-1.6619 7.26128 0)
(-15.8391 11.0451 0)
(-37.7534 16.4747 0)
(-64.6014 22.3996 0)
(-87.5278 28.6247 0)
(-105.53 28.9445 0)
(-118.141 27.6669 0)
(-126.78 23.7662 0)
(-133.777 19.161 0)
(-141.726 15.8981 0)
(-148.221 12.9943 0)
(-153.487 10.7247 0)
(-157.925 9.08184 0)
(-161.623 7.91665 0)
(-164.504 6.96638 0)
(-166.91 6.29096 0)
(-168.809 5.67747 0)
(-170.167 5.12732 0)
(-170.969 4.63258 0)
(-171.212 4.16039 0)
(-170.759 3.62533 0)
(-169.58 3.01739 0)
(-167.727 2.44986 0)
(-165.062 1.81837 0)
(-161.675 1.17788 0)
(-157.584 0.562132 0)
(-152.688 -0.0990042 0)
(-147.073 -0.840667 0)
(-140.682 -1.46123 0)
(-133.676 -2.15395 0)
(-126.001 -2.78816 0)
(-117.682 -3.70701 0)
(-108.633 -4.38679 0)
(-99.1399 -5.10346 0)
(-89.035 -6.05598 0)
(-78.3394 -6.79001 0)
(-67.2442 -7.4234 0)
(-55.8172 -8.19663 0)
(-44.074 -8.7262 0)
(-32.1845 -9.43476 0)
(-19.9354 -9.83147 0)
(-7.66676 -10.5451 0)
(4.99829 -11.0479 0)
(17.7074 -11.7125 0)
(30.537 -11.8383 0)
(43.2557 -12.4452 0)
(56.1243 -12.7204 0)
(68.9446 -13.2697 0)
(81.5758 -13.1912 0)
(94.0143 -13.4322 0)
(106.493 -13.6781 0)
(118.742 -13.6519 0)
(130.825 -13.7439 0)
(142.617 -13.611 0)
(154.131 -13.5111 0)
(165.279 -13.2668 0)
(176.067 -13.0285 0)
(186.529 -12.8095 0)
(196.716 -12.6062 0)
(206.675 -12.4397 0)
(216.305 -12.1394 0)
(225.63 -11.8701 0)
(234.704 -11.5328 0)
(243.299 -11.1338 0)
(251.69 -10.8323 0)
(259.627 -10.3594 0)
(267.294 -10.0901 0)
(274.76 -9.69903 0)
(281.88 -9.38004 0)
(288.913 -9.04002 0)
(295.507 -8.61765 0)
(301.954 -8.31073 0)
(308.087 -7.90963 0)
(313.994 -7.54793 0)
(319.533 -7.14475 0)
(324.882 -6.89007 0)
(330.051 -6.55393 0)
(335.032 -6.28404 0)
(339.805 -5.93677 0)
(344.323 -5.68049 0)
(348.686 -5.35685 0)
(352.786 -5.11832 0)
(356.742 -4.83616 0)
(360.505 -4.63106 0)
(364.173 -4.37102 0)
(367.624 -4.17534 0)
(370.975 -3.95227 0)
(374.181 -3.77881 0)
(377.348 -3.59352 0)
(380.429 -3.42848 0)
(383.478 -3.23416 0)
(386.347 -3.05371 0)
(389.034 -2.88716 0)
(391.524 -2.73913 0)
(393.867 -2.60421 0)
(396.137 -2.48989 0)
(398.385 -2.36214 0)
(400.558 -2.24281 0)
(402.657 -2.12783 0)
(404.659 -2.02036 0)
(406.565 -1.92198 0)
(408.375 -1.8291 0)
(410.113 -1.74225 0)
(411.778 -1.65823 0)
(413.352 -1.5865 0)
(414.851 -1.51379 0)
(416.24 -1.45413 0)
(417.555 -1.39396 0)
(418.794 -1.33945 0)
(419.963 -1.28765 0)
(421.166 -1.24399 0)
(422.406 -1.14549 0)
(423.697 -1.12561 0)
(425.087 -0.936319 0)
(426.916 -1.21127 0)
(427.393 -0.867228 0)
(428.225 -0.721377 0)
(429.376 -0.932965 0)
(429.859 -0.839423 0)
(430.459 -0.80061 0)
(431.1 -0.810251 0)
(431.759 -0.795977 0)
(432.43 -0.749582 0)
(433.113 -0.711379 0)
(433.807 -0.671907 0)
(434.497 -0.641316 0)
(435.184 -0.608299 0)
(435.87 -0.572591 0)
(436.554 -0.537593 0)
(437.242 -0.504051 0)
(437.912 -0.475045 0)
(438.52 -0.456014 0)
(439.097 -0.43348 0)
(439.641 -0.413603 0)
(440.169 -0.393423 0)
(440.659 -0.377704 0)
(441.117 -0.361154 0)
(441.543 -0.349415 0)
(441.946 -0.33878 0)
(442.302 -0.325253 0)
(442.631 -0.314826 0)
(442.935 -0.300964 0)
(443.243 -0.285343 0)
(443.541 -0.27417 0)
(443.845 -0.255354 0)
(444.126 -0.245297 0)
(444.392 -0.236206 0)
(444.645 -0.225699 0)
(444.904 -0.214844 0)
(445.171 -0.196248 0)
(445.458 -0.177115 0)
(445.763 -0.150234 0)
(446.089 -0.123854 0)
(446.423 -0.113999 0)
(446.769 -0.0885313 0)
(447.134 -0.107084 0)
(447.368 -0.0723274 0)
(447.613 -0.0667619 0)
(447.869 -0.0721004 0)
(448.026 -0.0766249 0)
(448.195 -0.0771293 0)
(448.273 -0.0775431 0)
(448.357 -0.0802973 0)
(448.407 -0.0781623 0)
(448.459 -0.0759357 0)
(448.516 -0.0733382 0)
(448.579 -0.067956 0)
(448.654 -0.0587067 0)
(448.752 -0.0512756 0)
(448.86 -0.0319234 0)
(448.988 -0.0234768 0)
(449.124 -0.0106826 0)
(449.283 -0.00118958 0)
(449.441 0.00141394 0)
(449.573 0.0113778 0)
(449.662 0.0130993 0)
(449.767 0.00553106 0)
(449.779 -0.000422831 0)
(449.776 0.00186664 0)
(449.759 -0.00049126 0)
(449.721 -0.00463987 0)
(449.662 -0.00758918 0)
(449.597 -0.00770813 0)
(449.532 -0.00598607 0)
(449.487 -0.000379558 0)
(449.473 0.00481298 0)
(449.46 0.0185998 0)
(449.483 0.0164481 0)
(449.509 0.0294136 0)
(449.556 0.034161 0)
(449.587 0.0414785 0)
(449.602 0.0448884 0)
(449.591 0.044867 0)
(449.564 0.041404 0)
(449.517 0.0388456 0)
(449.446 0.0306064 0)
(449.344 0.0290865 0)
(449.221 0.026716 0)
(449.093 0.0245026 0)
(448.961 0.0223973 0)
(448.84 0.0278504 0)
(448.724 0.0192074 0)
(448.579 0.0535669 0)
(448.563 0.0326535 0)
(448.526 0.0373579 0)
(448.473 0.0531244 0)
(448.443 0.0518677 0)
(448.397 0.0552774 0)
(448.337 0.0573916 0)
(448.257 0.0576443 0)
(448.158 0.0536729 0)
(448.039 0.0511163 0)
(447.903 0.0469551 0)
(447.753 0.0434034 0)
(447.583 0.0419172 0)
(447.413 0.0399355 0)
(447.238 0.0367553 0)
(447.062 0.0518555 0)
(446.946 0.0410267 0)
(446.822 0.0439219 0)
(446.691 0.0546818 0)
(446.609 0.0534048 0)
(446.515 0.0561167 0)
(446.412 0.059253 0)
(446.303 0.0604509 0)
(446.18 0.0625946 0)
(446.043 0.0591104 0)
(445.89 0.0568453 0)
(445.722 0.054043 0)
(445.541 0.050907 0)
(445.349 0.0481335 0)
(445.154 0.0459304 0)
(444.956 0.0444333 0)
(444.685 0.0507683 0)
(5.7924 -25.1032 0)
(6.77804 -8.32882 0)
(10.2878 -2.1521 0)
(8.46507 2.54381 0)
(3.06219 5.34494 0)
(-5.71542 9.37301 0)
(-20.104 15.0445 0)
(-41.7252 22.183 0)
(-65.7103 29.9467 0)
(-85.5369 35.4265 0)
(-100.375 36.9901 0)
(-110.653 35.7303 0)
(-117.88 33.1282 0)
(-123.259 27.5282 0)
(-128.696 22.5699 0)
(-133.719 17.9951 0)
(-138.273 14.6512 0)
(-142.182 12.2261 0)
(-145.57 10.4305 0)
(-148.455 9.15114 0)
(-150.633 8.06439 0)
(-152.461 7.25348 0)
(-153.808 6.509 0)
(-154.653 5.83218 0)
(-154.964 5.16838 0)
(-154.636 4.43909 0)
(-153.643 3.73456 0)
(-151.916 2.94723 0)
(-149.476 2.17586 0)
(-146.251 1.34725 0)
(-142.239 0.493002 0)
(-137.479 -0.395495 0)
(-131.889 -1.3181 0)
(-125.543 -2.35336 0)
(-118.344 -3.23158 0)
(-110.492 -4.18632 0)
(-101.944 -5.05196 0)
(-92.7913 -6.34438 0)
(-82.8278 -7.3361 0)
(-72.4165 -8.31919 0)
(-61.4332 -9.64162 0)
(-49.809 -10.7076 0)
(-37.7641 -11.5786 0)
(-25.4136 -12.633 0)
(-12.7458 -13.3524 0)
(0.0236693 -14.3551 0)
(13.164 -14.9124 0)
(26.2972 -15.9217 0)
(39.8349 -16.5969 0)
(53.379 -17.5287 0)
(67.0197 -17.6645 0)
(80.4761 -18.5086 0)
(94.0645 -18.8357 0)
(107.498 -19.5331 0)
(120.628 -19.3254 0)
(133.501 -19.7276 0)
(146.356 -20.0948 0)
(158.868 -20.0542 0)
(171.147 -20.1313 0)
(183.036 -19.8658 0)
(194.609 -19.685 0)
(205.73 -19.2606 0)
(216.451 -18.8904 0)
(226.795 -18.524 0)
(236.826 -18.1931 0)
(246.585 -17.8804 0)
(255.941 -17.3719 0)
(264.96 -16.9485 0)
(273.662 -16.3565 0)
(281.82 -15.7454 0)
(289.764 -15.2438 0)
(297.211 -14.5501 0)
(304.391 -14.1357 0)
(311.348 -13.5408 0)
(317.956 -13.0739 0)
(324.457 -12.5445 0)
(330.523 -11.9428 0)
(336.416 -11.4896 0)
(342.043 -10.9119 0)
(347.402 -10.3994 0)
(352.421 -9.84506 0)
(357.262 -9.47357 0)
(361.944 -8.99418 0)
(366.413 -8.6078 0)
(370.682 -8.12692 0)
(374.701 -7.76948 0)
(378.585 -7.32779 0)
(382.22 -7.00368 0)
(385.725 -6.62055 0)
(389.061 -6.33768 0)
(392.313 -5.9864 0)
(395.369 -5.72679 0)
(398.337 -5.42184 0)
(401.173 -5.18318 0)
(403.978 -4.91893 0)
(406.695 -4.68412 0)
(409.394 -4.41811 0)
(411.909 -4.18912 0)
(414.275 -3.98122 0)
(416.471 -3.79676 0)
(418.544 -3.62006 0)
(420.558 -3.45758 0)
(422.553 -3.27742 0)
(424.475 -3.11643 0)
(426.337 -2.96318 0)
(428.108 -2.82321 0)
(429.802 -2.69515 0)
(431.41 -2.57297 0)
(432.962 -2.45701 0)
(434.443 -2.34723 0)
(435.85 -2.25553 0)
(437.193 -2.16393 0)
(438.435 -2.09225 0)
(439.623 -2.01269 0)
(440.733 -1.94242 0)
(441.797 -1.8724 0)
(442.89 -1.7865 0)
(444.011 -1.64529 0)
(445.191 -1.59307 0)
(446.439 -1.35199 0)
(448.032 -1.69702 0)
(448.508 -1.30774 0)
(449.269 -1.12983 0)
(450.229 -1.34085 0)
(450.762 -1.29887 0)
(451.335 -1.24311 0)
(451.938 -1.22983 0)
(452.556 -1.1946 0)
(453.181 -1.12369 0)
(453.816 -1.06313 0)
(454.459 -1.0022 0)
(455.098 -0.956395 0)
(455.737 -0.906674 0)
(456.374 -0.853454 0)
(457.008 -0.801355 0)
(457.648 -0.754204 0)
(458.266 -0.719684 0)
(458.833 -0.697316 0)
(459.376 -0.667126 0)
(459.889 -0.639759 0)
(460.387 -0.612033 0)
(460.852 -0.591716 0)
(461.29 -0.56927 0)
(461.699 -0.554384 0)
(462.09 -0.537759 0)
(462.435 -0.524344 0)
(462.755 -0.508492 0)
(463.051 -0.489461 0)
(463.348 -0.465058 0)
(463.636 -0.447043 0)
(463.928 -0.419711 0)
(464.196 -0.407147 0)
(464.453 -0.39363 0)
(464.698 -0.376472 0)
(464.949 -0.356366 0)
(465.206 -0.327489 0)
(465.481 -0.293941 0)
(465.772 -0.252796 0)
(466.078 -0.212148 0)
(466.395 -0.195606 0)
(466.721 -0.161732 0)
(467.064 -0.190924 0)
(467.295 -0.143875 0)
(467.532 -0.138958 0)
(467.777 -0.148788 0)
(467.938 -0.159333 0)
(468.11 -0.164196 0)
(468.198 -0.164749 0)
(468.293 -0.166077 0)
(468.356 -0.162314 0)
(468.421 -0.155563 0)
(468.489 -0.146829 0)
(468.562 -0.135023 0)
(468.647 -0.118624 0)
(468.749 -0.0982692 0)
(468.862 -0.0719843 0)
(468.99 -0.0545016 0)
(469.126 -0.0330353 0)
(469.282 -0.0154737 0)
(469.437 -0.0143581 0)
(469.571 -0.00670269 0)
(469.664 -0.0052397 0)
(469.772 -0.0189958 0)
(469.799 -0.024857 0)
(469.811 -0.0246836 0)
(469.803 -0.0288102 0)
(469.78 -0.0352328 0)
(469.738 -0.0394815 0)
(469.691 -0.036149 0)
(469.644 -0.0298752 0)
(469.611 -0.0169585 0)
(469.606 -0.00454285 0)
(469.602 0.0120729 0)
(469.626 0.0194796 0)
(469.654 0.0373027 0)
(469.702 0.0458596 0)
(469.733 0.0530436 0)
(469.753 0.055466 0)
(469.745 0.0558864 0)
(469.725 0.0490239 0)
(469.686 0.0417959 0)
(469.626 0.031032 0)
(469.537 0.0276837 0)
(469.429 0.0236499 0)
(469.314 0.0225274 0)
(469.196 0.0198456 0)
(469.088 0.0316177 0)
(468.979 0.0241418 0)
(468.85 0.0710079 0)
(468.829 0.0529516 0)
(468.79 0.0565599 0)
(468.739 0.0767033 0)
(468.705 0.0782602 0)
(468.658 0.0813898 0)
(468.598 0.0823565 0)
(468.521 0.0799041 0)
(468.426 0.0736846 0)
(468.313 0.0686108 0)
(468.184 0.0627371 0)
(468.042 0.0561272 0)
(467.882 0.054864 0)
(467.72 0.054359 0)
(467.553 0.0496792 0)
(467.386 0.0760381 0)
(467.269 0.0632034 0)
(467.146 0.0671736 0)
(467.016 0.0841509 0)
(466.928 0.0836616 0)
(466.83 0.0861245 0)
(466.725 0.089893 0)
(466.612 0.0908956 0)
(466.488 0.0919269 0)
(466.351 0.086419 0)
(466.2 0.0822409 0)
(466.035 0.0777188 0)
(465.858 0.0733421 0)
(465.67 0.0690158 0)
(465.478 0.0677832 0)
(465.283 0.0663753 0)
(465.014 0.0762591 0)
(2.90382 -27.9487 0)
(3.38242 -9.81775 0)
(5.10604 -2.43915 0)
(1.8238 5.72032 0)
(-7.18733 10.689 0)
(-20.8913 17.4685 0)
(-40.7859 26.426 0)
(-61.9139 35.7906 0)
(-79.4116 41.4635 0)
(-92.5631 43.216 0)
(-101.839 43.0106 0)
(-108.535 40.0889 0)
(-113.223 35.3086 0)
(-116.358 29.4211 0)
(-120.041 24.3397 0)
(-123.495 19.8777 0)
(-126.879 16.49 0)
(-129.881 13.8881 0)
(-132.523 11.912 0)
(-134.784 10.4487 0)
(-136.389 9.19214 0)
(-137.72 8.20322 0)
(-138.569 7.29128 0)
(-138.926 6.42166 0)
(-138.694 5.5263 0)
(-137.818 4.59686 0)
(-136.243 3.65235 0)
(-133.948 2.60896 0)
(-130.87 1.55407 0)
(-126.977 0.394999 0)
(-122.232 -0.755198 0)
(-116.698 -1.97889 0)
(-110.29 -3.22109 0)
(-103.095 -4.64306 0)
(-94.9562 -5.87896 0)
(-86.1256 -7.18797 0)
(-76.5461 -8.35501 0)
(-66.3935 -10.0526 0)
(-55.326 -11.4146 0)
(-43.8096 -12.6708 0)
(-31.7586 -14.404 0)
(-19.0046 -15.8718 0)
(-5.80267 -17.0285 0)
(7.66753 -18.3937 0)
(21.4486 -19.2635 0)
(35.2753 -20.5432 0)
(49.5012 -21.2333 0)
(63.6963 -22.5624 0)
(78.295 -23.371 0)
(92.8418 -24.5753 0)
(107.452 -24.687 0)
(121.778 -25.7638 0)
(136.198 -26.067 0)
(150.333 -26.8818 0)
(164.099 -26.4665 0)
(177.488 -27.0061 0)
(190.823 -27.3046 0)
(203.591 -27.0416 0)
(216.082 -27.0845 0)
(228.035 -26.5615 0)
(239.601 -26.2927 0)
(250.583 -25.5805 0)
(261.062 -25.0479 0)
(271.093 -24.4783 0)
(280.719 -23.9697 0)
(290.071 -23.4561 0)
(298.903 -22.7117 0)
(307.362 -22.0999 0)
(315.46 -21.2593 0)
(322.986 -20.4505 0)
(330.307 -19.7288 0)
(337.094 -18.8182 0)
(343.624 -18.2279 0)
(349.909 -17.4203 0)
(355.845 -16.7819 0)
(361.655 -16.0538 0)
(367.033 -15.274 0)
(372.229 -14.6611 0)
(377.189 -13.9027 0)
(381.862 -13.2467 0)
(386.21 -12.5458 0)
(390.413 -12.0394 0)
(394.442 -11.3914 0)
(398.244 -10.8696 0)
(401.852 -10.2461 0)
(405.239 -9.78786 0)
(408.509 -9.22541 0)
(411.561 -8.82255 0)
(414.504 -8.3373 0)
(417.306 -7.97762 0)
(420.037 -7.53401 0)
(422.601 -7.21544 0)
(425.082 -6.82902 0)
(427.447 -6.52386 0)
(429.785 -6.17467 0)
(432.04 -5.86947 0)
(434.293 -5.53003 0)
(436.363 -5.2605 0)
(438.324 -5.01711 0)
(440.144 -4.80262 0)
(441.864 -4.58742 0)
(443.537 -4.37685 0)
(445.193 -4.14408 0)
(446.783 -3.94267 0)
(448.328 -3.75229 0)
(449.792 -3.58285 0)
(451.199 -3.42802 0)
(452.534 -3.2805 0)
(453.827 -3.13804 0)
(455.054 -3.00612 0)
(456.225 -2.89457 0)
(457.339 -2.78501 0)
(458.37 -2.70312 0)
(459.364 -2.60313 0)
(460.28 -2.52265 0)
(461.178 -2.43039 0)
(462.1 -2.30836 0)
(463.04 -2.12255 0)
(464.047 -2.03426 0)
(465.092 -1.7541 0)
(466.399 -2.08865 0)
(466.823 -1.75987 0)
(467.451 -1.55907 0)
(468.175 -1.73211 0)
(468.713 -1.73992 0)
(469.184 -1.67381 0)
(469.688 -1.63776 0)
(470.212 -1.58297 0)
(470.738 -1.49001 0)
(471.275 -1.4094 0)
(471.819 -1.32581 0)
(472.362 -1.2625 0)
(472.907 -1.19565 0)
(473.452 -1.12525 0)
(473.995 -1.05661 0)
(474.544 -0.992081 0)
(475.068 -0.951377 0)
(475.555 -0.926304 0)
(476.025 -0.88975 0)
(476.467 -0.85654 0)
(476.896 -0.823208 0)
(477.296 -0.799309 0)
(477.675 -0.772466 0)
(478.027 -0.755649 0)
(478.367 -0.734905 0)
(478.665 -0.72113 0)
(478.942 -0.700998 0)
(479.199 -0.678251 0)
(479.455 -0.644295 0)
(479.704 -0.620036 0)
(479.957 -0.582263 0)
(480.185 -0.569142 0)
(480.406 -0.54877 0)
(480.619 -0.526671 0)
(480.836 -0.496937 0)
(481.06 -0.457775 0)
(481.299 -0.408777 0)
(481.554 -0.352834 0)
(481.819 -0.298446 0)
(482.097 -0.274223 0)
(482.382 -0.22923 0)
(482.682 -0.264271 0)
(482.891 -0.215004 0)
(483.094 -0.211216 0)
(483.304 -0.221655 0)
(483.447 -0.235861 0)
(483.6 -0.24711 0)
(483.677 -0.252203 0)
(483.759 -0.25428 0)
(483.814 -0.248717 0)
(483.871 -0.236851 0)
(483.93 -0.222108 0)
(483.995 -0.20406 0)
(484.069 -0.178828 0)
(484.159 -0.145949 0)
(484.258 -0.113387 0)
(484.373 -0.0847999 0)
(484.493 -0.0550766 0)
(484.63 -0.0285958 0)
(484.769 -0.0284518 0)
(484.887 -0.0266991 0)
(484.97 -0.0229803 0)
(485.064 -0.042752 0)
(485.088 -0.0486697 0)
(485.098 -0.0531105 0)
(485.089 -0.0582578 0)
(485.066 -0.0680782 0)
(485.028 -0.0742982 0)
(484.984 -0.0681109 0)
(484.94 -0.0566259 0)
(484.908 -0.0350334 0)
(484.902 -0.0157008 0)
(484.891 0.00667072 0)
(484.913 0.0233044 0)
(484.934 0.0458463 0)
(484.975 0.0588676 0)
(484.998 0.066154 0)
(485.01 0.0671445 0)
(485 0.0671722 0)
(484.978 0.0561266 0)
(484.939 0.0439975 0)
(484.88 0.031235 0)
(484.795 0.0259372 0)
(484.692 0.0181987 0)
(484.583 0.0185542 0)
(484.47 0.0175882 0)
(484.367 0.0324559 0)
(484.259 0.0300161 0)
(484.141 0.0862743 0)
(484.111 0.0751161 0)
(484.067 0.0786005 0)
(484.014 0.101544 0)
(483.973 0.105963 0)
(483.921 0.108896 0)
(483.857 0.10822 0)
(483.778 0.10324 0)
(483.683 0.0944394 0)
(483.571 0.0866928 0)
(483.444 0.078918 0)
(483.306 0.069007 0)
(483.15 0.067326 0)
(482.992 0.0691559 0)
(482.829 0.0629528 0)
(482.667 0.0997739 0)
(482.547 0.0866746 0)
(482.423 0.0921419 0)
(482.294 0.114988 0)
(482.2 0.115689 0)
(482.097 0.118309 0)
(481.988 0.122546 0)
(481.872 0.123273 0)
(481.744 0.12292 0)
(481.605 0.115389 0)
(481.453 0.109147 0)
(481.289 0.10267 0)
(481.113 0.096956 0)
(480.927 0.0910092 0)
(480.736 0.0904318 0)
(480.543 0.0892571 0)
(480.275 0.103212 0)
(0.42652 -29.3374 0)
(0.772783 -9.6607 0)
(-2.23328 -1.55506 0)
(-7.26371 9.74263 0)
(-19.6281 18.1124 0)
(-37.2685 27.959 0)
(-56.1576 38.6534 0)
(-72.083 45.4979 0)
(-84.0704 48.5584 0)
(-92.7592 48.7559 0)
(-99.0601 46.6361 0)
(-103.195 41.9975 0)
(-105.723 36.5756 0)
(-107.741 30.7633 0)
(-110.133 25.6883 0)
(-112.598 21.2584 0)
(-115.079 17.7958 0)
(-117.325 15.0777 0)
(-119.287 12.9619 0)
(-120.943 11.3528 0)
(-121.966 9.95886 0)
(-122.775 8.80062 0)
(-123.074 7.7057 0)
(-122.856 6.61323 0)
(-121.996 5.52358 0)
(-120.506 4.35066 0)
(-118.274 3.13949 0)
(-115.282 1.79194 0)
(-111.436 0.424491 0)
(-106.736 -1.09341 0)
(-101.104 -2.5786 0)
(-94.6318 -4.17505 0)
(-87.2262 -5.76028 0)
(-79.0087 -7.62065 0)
(-69.7325 -9.25381 0)
(-59.725 -10.9626 0)
(-48.8835 -12.4375 0)
(-37.4972 -14.621 0)
(-25.0584 -16.4121 0)
(-12.1795 -17.904 0)
(1.18799 -20.0638 0)
(15.3227 -21.9352 0)
(29.9609 -23.357 0)
(44.847 -25.0552 0)
(60.1513 -26.1184 0)
(75.5199 -27.762 0)
(91.3464 -28.5653 0)
(107.124 -30.2588 0)
(123.305 -31.1334 0)
(139.348 -32.5868 0)
(155.319 -32.5225 0)
(170.839 -33.8544 0)
(186.39 -34.0067 0)
(201.405 -34.8577 0)
(216.089 -34.1025 0)
(229.87 -34.6953 0)
(243.692 -34.8904 0)
(256.657 -34.2391 0)
(269.232 -34.2258 0)
(281.237 -33.3863 0)
(292.527 -32.8791 0)
(303.269 -31.8425 0)
(313.161 -31.0354 0)
(322.638 -30.1961 0)
(331.506 -29.4316 0)
(340.219 -28.6981 0)
(348.222 -27.6638 0)
(355.826 -26.8095 0)
(363.032 -25.6765 0)
(369.6 -24.6517 0)
(376.011 -23.6884 0)
(381.782 -22.5622 0)
(387.363 -21.79 0)
(392.633 -20.7593 0)
(397.583 -19.9521 0)
(402.391 -19.0166 0)
(406.756 -18.0735 0)
(410.96 -17.3061 0)
(414.942 -16.3708 0)
(418.647 -15.5958 0)
(422.027 -14.7649 0)
(425.318 -14.1427 0)
(428.465 -13.3525 0)
(431.442 -12.7358 0)
(434.255 -11.9895 0)
(436.903 -11.4507 0)
(439.455 -10.7838 0)
(441.832 -10.3184 0)
(444.12 -9.74289 0)
(446.303 -9.32034 0)
(448.427 -8.7951 0)
(450.415 -8.41876 0)
(452.312 -7.94295 0)
(454.113 -7.57393 0)
(455.887 -7.14437 0)
(457.604 -6.7765 0)
(459.328 -6.37202 0)
(460.883 -6.08461 0)
(462.38 -5.81746 0)
(463.761 -5.58672 0)
(465.069 -5.34313 0)
(466.336 -5.09057 0)
(467.591 -4.81207 0)
(468.787 -4.57855 0)
(469.957 -4.35957 0)
(471.06 -4.17053 0)
(472.128 -3.99658 0)
(473.136 -3.83021 0)
(474.12 -3.66815 0)
(475.04 -3.52114 0)
(475.926 -3.3994 0)
(476.761 -3.2802 0)
(477.537 -3.19617 0)
(478.285 -3.08012 0)
(478.969 -2.9995 0)
(479.657 -2.88847 0)
(480.362 -2.72152 0)
(481.073 -2.49096 0)
(481.859 -2.36173 0)
(482.659 -2.08139 0)
(483.638 -2.36607 0)
(483.99 -2.13562 0)
(484.439 -1.93285 0)
(484.912 -2.04668 0)
(485.386 -2.10219 0)
(485.718 -2.04654 0)
(486.086 -1.98623 0)
(486.477 -1.90884 0)
(486.869 -1.79548 0)
(487.273 -1.69619 0)
(487.682 -1.59263 0)
(488.097 -1.51482 0)
(488.515 -1.43151 0)
(488.936 -1.3453 0)
(489.355 -1.26171 0)
(489.783 -1.1848 0)
(490.182 -1.14284 0)
(490.561 -1.1151 0)
(490.929 -1.07412 0)
(491.27 -1.03848 0)
(491.601 -1.0001 0)
(491.909 -0.975122 0)
(492.201 -0.943269 0)
(492.468 -0.926369 0)
(492.729 -0.90519 0)
(492.952 -0.892907 0)
(493.16 -0.869068 0)
(493.353 -0.841759 0)
(493.544 -0.801842 0)
(493.73 -0.770951 0)
(493.919 -0.725297 0)
(494.085 -0.710774 0)
(494.248 -0.686246 0)
(494.408 -0.65831 0)
(494.571 -0.618829 0)
(494.741 -0.569137 0)