/*--------------------------------*- C++ -*----------------------------------*\
| =========                 |                                                 |
| \\      /  F ield         | OpenFOAM: The Open Source CFD Toolbox           |
|  \\    /   O peration     | Version:  2312                                  |
|   \\  /    A nd           | Website:  www.openfoam.com                      |
|    \\/     M anipulation  |                                                 |
\*---------------------------------------------------------------------------*/
FoamFile
{
    version     2.0;
    format      ascii;
    arch        "LSB;label=32;scalar=64";
    class       volScalarField;
    location    "0.001";
    object      alphat;
}
// * * * * * * * * * * * * * * * * * * * * * * * * * * * * * * * * * * * * * //

dimensions      [1 -1 -1 0 0 0 0];

internalField   nonuniform List<scalar> 
48128
(
2.05925e-07
2.04614e-07
2.43057e-07
2.40596e-07
2.15883e-07
1.78663e-07
1.3832e-07
1.00606e-07
6.3904e-08
1.37759e-07
8.5963e-07
2.7711e-06
4.9258e-06
6.70116e-06
8.14523e-06
9.35389e-06
1.04051e-05
1.13711e-05
1.22903e-05
1.31974e-05
1.41126e-05
1.50466e-05
1.60103e-05
1.70175e-05
1.80809e-05
1.9209e-05
2.04254e-05
2.17598e-05
2.32122e-05
2.48e-05
2.65388e-05
2.8456e-05
3.05579e-05
3.28748e-05
3.53995e-05
3.82329e-05
4.13335e-05
4.47426e-05
4.83375e-05
5.22823e-05
5.63817e-05
6.09106e-05
6.54877e-05
7.0562e-05
7.55484e-05
8.09341e-05
8.61024e-05
9.135e-05
9.60863e-05
0.000101348
0.000106274
0.00011154
0.000116005
0.000121734
0.000128429
0.000134806
0.000141193
0.000147238
0.000153041
0.000158444
0.000163533
0.00016836
0.000172928
0.00017726
0.000181342
0.000185204
0.000181135
0.000173823
0.000167086
0.000160952
0.000155264
0.00015
0.000145162
0.000140629
0.000136507
0.000132551
0.000128919
0.000125401
0.000122157
0.000119093
0.000116196
0.000113602
0.000111016
0.000108628
0.000106314
0.000104143
0.000102125
0.000100199
9.8472e-05
9.68294e-05
9.52776e-05
9.38448e-05
9.24005e-05
9.10595e-05
8.98706e-05
8.88122e-05
8.7822e-05
8.68657e-05
8.58993e-05
8.50058e-05
8.42203e-05
8.35078e-05
8.28544e-05
8.2248e-05
8.16992e-05
8.11839e-05
8.06886e-05
8.01942e-05
7.97625e-05
7.93829e-05
7.90451e-05
7.86955e-05
7.83601e-05
7.80572e-05
7.77914e-05
7.7541e-05
7.72765e-05
7.69806e-05
7.66156e-05
7.62857e-05
7.60329e-05
7.58002e-05
7.56346e-05
7.55539e-05
7.54775e-05
7.53886e-05
7.52865e-05
7.51519e-05
7.50063e-05
7.48455e-05
7.46867e-05
7.45064e-05
7.43423e-05
7.42022e-05
7.40777e-05
7.39657e-05
7.38685e-05
7.37792e-05
7.37001e-05
7.36201e-05
7.35544e-05
7.34924e-05
7.34328e-05
7.33748e-05
7.33103e-05
7.3231e-05
7.31384e-05
7.30377e-05
7.29208e-05
7.27852e-05
7.26363e-05
7.24852e-05
7.23469e-05
7.22164e-05
7.21145e-05
7.2037e-05
7.19626e-05
7.19389e-05
7.19317e-05
7.19107e-05
7.18701e-05
7.18138e-05
7.17313e-05
7.1627e-05
7.15011e-05
7.13733e-05
7.12504e-05
7.11399e-05
7.10484e-05
7.09746e-05
7.09173e-05
7.08712e-05
7.08373e-05
7.08154e-05
7.07992e-05
7.07774e-05
7.07331e-05
7.06758e-05
7.06036e-05
7.05341e-05
7.046e-05
7.03558e-05
7.02847e-05
7.02194e-05
7.01604e-05
7.01103e-05
7.00678e-05
7.00305e-05
7.00037e-05
6.99791e-05
6.99435e-05
6.98976e-05
6.98394e-05
6.97757e-05
6.97032e-05
6.96056e-05
6.95288e-05
6.9467e-05
6.94184e-05
6.93839e-05
6.93562e-05
6.93242e-05
6.92888e-05
6.92451e-05
6.91919e-05
6.91282e-05
6.90588e-05
6.89851e-05
6.89102e-05
6.88365e-05
6.87667e-05
6.87029e-05
6.86482e-05
6.86028e-05
6.85672e-05
6.85322e-05
6.84818e-05
6.84256e-05
6.83583e-05
6.82947e-05
6.82324e-05
6.81682e-05
6.81083e-05
6.80481e-05
6.79951e-05
6.79334e-05
6.78661e-05
6.77986e-05
6.76948e-05
6.76282e-05
6.75199e-05
6.74406e-05
6.73616e-05
6.72671e-05
6.71663e-05
6.70669e-05
6.69353e-05
6.68226e-05
6.66788e-05
6.64688e-05
1.13832e-06
9.15018e-07
6.20966e-07
3.94038e-07
2.79986e-07
2.46338e-07
3.39912e-07
6.84012e-07
1.2983e-06
2.84953e-06
5.81824e-06
1.0578e-05
1.77634e-05
2.56445e-05
3.40414e-05
4.24132e-05
5.05397e-05
5.85219e-05
6.64911e-05
7.45974e-05
8.30792e-05
9.21281e-05
0.000101799
0.00011228
0.000123639
0.000135954
0.000149471
0.000164128
0.000180061
0.000197867
0.000216637
0.000237347
0.000259469
0.000283413
0.000308015
0.00033389
0.000360136
0.000388795
0.000418141
0.000449457
0.000481309
0.000515643
0.000549325
0.000584706
0.000619045
0.00065655
0.000692947
0.000730824
0.000763943
0.000800863
0.000835632
0.000872926
0.000905364
0.000938827
0.000970915
0.000999437
0.00102669
0.00105176
0.00107451
0.00109458
0.00111249
0.00112834
0.00114248
0.00115507
0.00116596
0.0011754
0.00118319
0.00119139
0.00119816
0.00120277
0.00120665
0.0012071
0.00120742
0.00120463
0.00120226
0.001197
0.00119179
0.00118434
0.00117631
0.00116811
0.00115808
0.00114913
0.00113901
0.00112906
0.00111805
0.00110666
0.00109538
0.00108347
0.00107211
0.00106079
0.00104922
0.00103819
0.00102652
0.00101516
0.00100405
0.000993424
0.000983273
0.000973384
0.000963228
0.00095331
0.000943916
0.000934829
0.000926264
0.000918004
0.000910185
0.000902639
0.000895323
0.000888058
0.000881134
0.000874464
0.000868334
0.000862292
0.000856321
0.000850633
0.000845175
0.000839965
0.000834695
0.00082925
0.00082318
0.000817208
0.000811615
0.000806242
0.000801567
0.000797338
0.000793619
0.000790094
0.000786719
0.000783143
0.000779525
0.000775758
0.000771999
0.000768036
0.000764116
0.000760421
0.000756828
0.000753359
0.000750025
0.000746874
0.000742122
0.000737477
0.000732696
0.000728073
0.000723672
0.000719432
0.000715323
0.000711367
0.000707425
0.000703518
0.000699607
0.000695666
0.000691679
0.000687767
0.000683885
0.000680081
0.000676549
0.000673186
0.000669934
0.000667039
0.000664319
0.000661655
0.000659024
0.000656415
0.000653859
0.000651254
0.000648593
0.00064581
0.000642903
0.000640046
0.00063732
0.000634621
0.000632255
0.000629902
0.000627718
0.000625724
0.000623939
0.000622295
0.000620744
0.000619416
0.000617957
0.000616697
0.000615242
0.000614087
0.000612794
0.000611456
0.000610056
0.000608637
0.000607196
0.000605749
0.000604308
0.000602952
0.000601617
0.000600324
0.000599002
0.000597736
0.000596388
0.0005952
0.000594028
0.000592993
0.000592065
0.000591271
0.000590579
0.000589992
0.000589404
0.000588792
0.000588101
0.000587272
0.000586329
0.00058528
0.000584158
0.000583005
0.00058189
0.000580861
0.000580002
0.00057935
0.000578885
0.000578684
0.000578744
0.000578848
0.000578962
0.000578796
0.000578458
0.000577928
0.000577257
0.000576442
0.000575506
0.000574516
0.000573839
0.000573279
0.00057305
0.000572915
0.000572458
0.000571869
0.000571065
0.000570035
0.000568801
0.000567582
0.000566108
0.000564826
0.000563283
0.000561151
1.50865e-06
1.6867e-06
1.74109e-06
1.09148e-06
8.93448e-07
1.26999e-06
2.45038e-06
4.62007e-06
8.44488e-06
1.53262e-05
2.81018e-05
4.77233e-05
7.53022e-05
0.000104831
0.000133451
0.000159672
0.000183621
0.000205769
0.000226935
0.000247674
0.000268178
0.000289586
0.000311653
0.000334972
0.000359497
0.000385501
0.000413223
0.00044254
0.000473733
0.000506956
0.000541349
0.000578535
0.000616955
0.000657253
0.000698419
0.000742173
0.000787056
0.000835563
0.000884445
0.000936065
0.00098736
0.00104217
0.00109532
0.00115124
0.00120411
0.00126163
0.00131644
0.00137348
0.00142262
0.00147653
0.00152731
0.00158043
0.00162776
0.00167717
0.00172367
0.00176629
0.00180791
0.00184616
0.0018811
0.00191239
0.00194076
0.00196634
0.00198944
0.00201035
0.00202868
0.00204534
0.00205844
0.00207073
0.00208022
0.00208669
0.00209165
0.00209243
0.00209307
0.00208968
0.00208677
0.00207951
0.00207216
0.00206166
0.00205011
0.00203833
0.00202398
0.00201108
0.00199574
0.00198064
0.00196412
0.00194695
0.00192958
0.00191134
0.0018937
0.00187588
0.00185766
0.00183995
0.00182098
0.0018026
0.00178457
0.00176725
0.0017505
0.00173381
0.00171652
0.00169957
0.00168347
0.00166776
0.00165285
0.00163826
0.00162426
0.00161062
0.0015971
0.0015836
0.0015706
0.00155796
0.00154614
0.00153438
0.00152268
0.00151145
0.00150054
0.00149008
0.00147934
0.00146831
0.001456
0.00144395
0.00143256
0.00142142
0.00141136
0.00140215
0.00139368
0.00138539
0.0013774
0.00136903
0.00136068
0.00135206
0.0013435
0.00133458
0.0013258
0.00131738
0.00130919
0.0013013
0.00129356
0.00128614
0.00127896
0.00127215
0.00126567
0.00125953
0.00125374
0.00124829
0.00124305
0.00123783
0.00123244
0.00122703
0.00122127
0.00121534
0.00120907
0.0012028
0.00119655
0.00119056
0.00118503
0.00118004
0.00117532
0.00117125
0.00116753
0.00116394
0.00116034
0.00115661
0.00115256
0.00114815
0.00114329
0.00113816
0.00113282
0.00112784
0.00112284
0.00111839
0.00111427
0.00111045
0.00110708
0.00110415
0.00110162
0.00109929
0.00109682
0.00109433
0.00109159
0.00108886
0.00108601
0.00108286
0.00107981
0.00107679
0.00107377
0.00107088
0.00106811
0.00106559
0.00106317
0.00106101
0.00105883
0.00105665
0.00105431
0.00105193
0.00104938
0.00104666
0.00104419
0.00104197
0.00104004
0.00103848
0.00103712
0.00103583
0.0010346
0.00103327
0.00103171
0.00102995
0.00102801
0.00102594
0.00102379
0.00102166
0.00101957
0.00101773
0.00101628
0.00101524
0.00101463
0.00101425
0.00101399
0.00101368
0.0010132
0.00101249
0.00101166
0.00101058
0.00100955
0.00100828
0.00100714
0.00100594
0.00100498
0.00100442
0.00100363
0.00100313
0.00100223
0.00100139
0.00100037
0.000998745
0.000997013
0.000995164
0.000992999
0.000991115
0.0009889
0.000985375
1.75923e-06
2.78298e-06
3.35704e-06
2.38161e-06
2.91917e-06
5.02426e-06
9.04198e-06
1.59699e-05
2.82919e-05
5.11821e-05
8.63343e-05
0.000133163
0.000186368
0.000236349
0.000280354
0.0003183
0.00035223
0.000383061
0.000412111
0.000440391
0.000468566
0.000497576
0.000527361
0.000558494
0.000590993
0.00062507
0.000660775
0.000698243
0.000737494
0.000778778
0.00082129
0.000865969
0.000911693
0.000959817
0.00100869
0.00106025
0.00111275
0.00116874
0.00122462
0.00128361
0.00134138
0.0014026
0.0014613
0.00152342
0.00158134
0.00164401
0.00170343
0.0017646
0.00181771
0.001875
0.00192931
0.00198527
0.00203568
0.00208922
0.00213856
0.00218547
0.00223164
0.00227375
0.00231281
0.00234877
0.00238211
0.002413
0.00244121
0.00246746
0.00249067
0.00251282
0.00253098
0.00254877
0.00256296
0.00257474
0.00258392
0.00258979
0.00259561
0.00259779
0.00259999
0.00259762
0.00259456
0.00258835
0.00258078
0.0025726
0.00256251
0.00255321
0.00254047
0.00252767
0.00251364
0.00249895
0.00248343
0.00246713
0.00245121
0.00243474
0.00241781
0.00240118
0.00238267
0.00236482
0.00234732
0.0023306
0.00231441
0.00229778
0.00228019
0.00226288
0.00224647
0.00223042
0.00221521
0.00220024
0.00218576
0.00217164
0.00215738
0.00214299
0.00212906
0.00211555
0.00210287
0.00209004
0.00207721
0.00206479
0.00205272
0.00204107
0.00202893
0.00201618
0.00200188
0.00198753
0.00197405
0.00196089
0.00194887
0.00193806
0.00192807
0.00191818
0.00190852
0.00189828
0.00188803
0.00187727
0.00186648
0.00185513
0.00184392
0.00183305
0.0018225
0.00181227
0.00180227
0.00179258
0.00178311
0.00177403
0.00176532
0.00175697
0.001749
0.00174145
0.00173403
0.00172664
0.00171894
0.00171125
0.00170302
0.00169468
0.00168581
0.00167708
0.00166828
0.0016599
0.00165192
0.00164464
0.00163768
0.0016315
0.00162585
0.00162038
0.00161492
0.00160928
0.00160323
0.00159664
0.0015896
0.00158212
0.0015745
0.00156717
0.00156004
0.00155345
0.00154734
0.00154161
0.00153649
0.00153195
0.00152789
0.00152402
0.00152001
0.0015158
0.00151141
0.00150676
0.00150205
0.00149688
0.00149185
0.00148697
0.00148218
0.00147767
0.00147339
0.00146948
0.0014658
0.00146259
0.00145915
0.00145591
0.00145223
0.00144848
0.00144469
0.0014405
0.0014365
0.00143288
0.00142962
0.00142682
0.00142432
0.00142197
0.00141972
0.00141736
0.00141477
0.00141196
0.00140901
0.00140595
0.00140283
0.00139976
0.00139675
0.00139399
0.0013917
0.0013898
0.00138855
0.0013878
0.00138711
0.0013863
0.00138531
0.00138417
0.00138296
0.00138164
0.00138045
0.00137912
0.00137805
0.00137688
0.00137594
0.00137536
0.00137439
0.0013738
0.00137275
0.00137187
0.00137101
0.00136955
0.00136797
0.00136614
0.00136385
0.00136175
0.00135921
0.00135512
1.96348e-06
5.40582e-06
6.50755e-06
5.22598e-06
7.78895e-06
1.30254e-05
2.2307e-05
3.96247e-05
7.02492e-05
0.000117201
0.000179178
0.000246924
0.000312196
0.000370363
0.000421005
0.000465889
0.000504614
0.000540461
0.000574348
0.000607208
0.000639944
0.000673274
0.000707294
0.000742497
0.000778895
0.000816717
0.000855861
0.000896602
0.000938655
0.000982357
0.00102675
0.00107301
0.00112008
0.00116959
0.00121953
0.00127195
0.00132462
0.00138042
0.00143555
0.00149354
0.00154884
0.001607
0.00166186
0.00172021
0.00177389
0.00183176
0.00188612
0.00192345
0.00195456
0.00198821
0.00201475
0.00204305
0.00207537
0.0021208
0.00214115
0.00217593
0.0022189
0.00225175
0.0022892
0.00232174
0.002365
0.0023997
0.00244236
0.002474
0.00251565
0.00254688
0.00258737
0.00262428
0.00265976
0.0026991
0.0027283
0.00276283
0.00279784
0.00282098
0.00282844
0.00283162
0.00283393
0.00283326
0.00283146
0.00282869
0.00282502
0.00282167
0.00281415
0.00280646
0.00279789
0.00278871
0.00277822
0.00276707
0.00275607
0.00274418
0.00273193
0.0027198
0.00270547
0.00269177
0.00267839
0.0026658
0.00265359
0.00264063
0.0026265
0.00261246
0.00259923
0.00258623
0.00257401
0.0025619
0.00255017
0.00253875
0.00252699
0.00251507
0.00250346
0.0024923
0.00248189
0.00247113
0.00246037
0.00244981
0.00243963
0.00242966
0.00241903
0.00240756
0.00239457
0.00238118
0.00236863
0.00235655
0.00234545
0.00233568
0.00232682
0.0023181
0.00230942
0.00230002
0.00229056
0.00228036
0.00227
0.00225895
0.00224796
0.00223714
0.00222667
0.00221646
0.00220654
0.00219687
0.00218745
0.0021784
0.00216972
0.00216138
0.00215338
0.00214574
0.00213808
0.00213033
0.00212221
0.00211402
0.00210519
0.0020963
0.0020868
0.00207742
0.00206795
0.00205889
0.00205011
0.00204203
0.00203425
0.00202733
0.00202101
0.00201485
0.00200872
0.00200237
0.00199555
0.00198805
0.00198007
0.00197153
0.00196291
0.00195441
0.00194625
0.00193865
0.0019316
0.00192505
0.00191916
0.00191391
0.00190916
0.00190463
0.00189987
0.00189489
0.00188958
0.00188389
0.00187807
0.00187162
0.00186523
0.00185903
0.00185302
0.00184742
0.00184214
0.00183733
0.00183285
0.00182904
0.00182496
0.0018211
0.00181668
0.0018123
0.00180763
0.00180247
0.00179747
0.00179287
0.00178866
0.00178502
0.00178171
0.00177855
0.00177552
0.0017723
0.001769
0.00176538
0.00176151
0.00175766
0.00175383
0.00175011
0.00174649
0.00174315
0.00174025
0.00173781
0.00173602
0.00173486
0.00173389
0.00173269
0.00173123
0.00172965
0.00172809
0.00172651
0.00172515
0.00172385
0.00172294
0.00172205
0.00172136
0.00172104
0.00172011
0.00171962
0.00171859
0.00171783
0.00171714
0.00171609
0.00171489
0.00171353
0.00171159
0.00170974
0.00170733
0.00170339
2.15398e-06
9.83886e-06
1.06668e-05
1.00823e-05
1.59443e-05
2.64732e-05
4.57268e-05
8.14062e-05
0.00013508
0.000205389
0.000282231
0.000358206
0.000427861
0.00048963
0.00054446
0.000591194
0.000632983
0.000671621
0.000708061
0.00074324
0.00077806
0.000813103
0.0008486
0.00088487
0.000921996
0.000960254
0.000999406
0.00103973
0.00108057
0.00112274
0.0011653
0.00120942
0.00125372
0.00129978
0.00134547
0.00139331
0.00144025
0.00148966
0.00153772
0.00158806
0.00162578
0.00164034
0.00164963
0.00165829
0.00167483
0.00169486
0.00171023
0.00172549
0.001749
0.00178312
0.00180441
0.00183324
0.00185217
0.00191021
0.00193077
0.00194605
0.00199457
0.00201531
0.00204938
0.00206904
0.0021104
0.00213574
0.00217589
0.00220108
0.00223969
0.00226657
0.00230434
0.00233805
0.00237318
0.00241072
0.00244103
0.00247597
0.0025115
0.00254832
0.0025804
0.00261532
0.00264661
0.0026814
0.00271324
0.00274265
0.00277971
0.00280635
0.00283356
0.00285945
0.00286901
0.00286736
0.00286409
0.00286
0.00285583
0.00285049
0.00284493
0.00283923
0.00283149
0.00282418
0.00281703
0.00281044
0.0028039
0.00279641
0.00278778
0.00277896
0.00277072
0.0027624
0.00275476
0.00274706
0.00273963
0.00273234
0.00272463
0.00271687
0.00270919
0.00270196
0.00269527
0.00268814
0.00268109
0.00267402
0.00266729
0.00266041
0.00265268
0.00264417
0.00263436
0.00262379
0.0026139
0.0026046
0.00259611
0.00258877
0.00258242
0.00257635
0.00257015
0.00256325
0.00255625
0.00254836
0.00254013
0.00253122
0.00252227
0.00251326
0.00250459
0.00249607
0.00248788
0.00247984
0.00247211
0.0024647
0.00245769
0.00245099
0.00244458
0.00243835
0.00243193
0.00242531
0.0024183
0.00241111
0.00240332
0.00239548
0.00238711
0.00237878
0.00237042
0.00236223
0.00235426
0.00234676
0.00233955
0.0023332
0.00232737
0.00232167
0.00231604
0.00231017
0.00230384
0.00229675
0.00228912
0.00228096
0.00227264
0.00226432
0.00225634
0.00224899
0.00224211
0.00223588
0.00223027
0.00222532
0.00222084
0.00221663
0.00221212
0.00220738
0.00220219
0.00219653
0.00219059
0.00218392
0.00217714
0.00217054
0.00216422
0.00215836
0.00215288
0.00214795
0.00214338
0.00213961
0.00213565
0.00213184
0.00212751
0.00212316
0.00211848
0.00211319
0.00210795
0.00210306
0.00209864
0.00209476
0.00209126
0.00208787
0.00208459
0.00208107
0.00207752
0.0020736
0.00206952
0.00206539
0.00206132
0.00205734
0.0020536
0.00205025
0.00204729
0.00204484
0.00204298
0.0020418
0.00204074
0.00203945
0.00203786
0.00203614
0.0020345
0.00203291
0.0020316
0.00203047
0.00202989
0.0020295
0.00202933
0.00202954
0.0020289
0.00202877
0.002028
0.00202757
0.0020273
0.00202678
0.00202617
0.00202551
0.00202421
0.00202304
0.0020212
0.00201806
2.43393e-06
1.3856e-05
1.58759e-05
1.76085e-05
2.87362e-05
4.76387e-05
8.3608e-05
0.000139703
0.00021365
0.000295553
0.000378958
0.000457501
0.000528381
0.000592343
0.000646979
0.000694801
0.000738013
0.000777788
0.000815033
0.000850734
0.000885692
0.000920431
0.000955224
0.000990344
0.00102586
0.00106212
0.00109873
0.00113599
0.00117308
0.00121109
0.0012487
0.00128736
0.00132569
0.00136516
0.00140339
0.0014434
0.00145798
0.00146009
0.00145531
0.00144978
0.00145246
0.00145505
0.00145899
0.00146593
0.00148203
0.00150613
0.00152123
0.00153987
0.00155445
0.00159836
0.0016151
0.00163954
0.00164635
0.00170394
0.00172016
0.00171972
0.00175909
0.00176708
0.00179404
0.00180219
0.00183542
0.0018501
0.00188278
0.0019006
0.00193081
0.00195202
0.00198035
0.00200725
0.0020358
0.00206621
0.00209278
0.00212237
0.00215418
0.00218471
0.00221643
0.00224767
0.00228227
0.00231747
0.00235498
0.00238809
0.00243273
0.00246622
0.0024954
0.00253545
0.0025659
0.00260646
0.00263364
0.00267142
0.0026999
0.00272507
0.00275467
0.00278001
0.00278935
0.00279017
0.00279125
0.00279222
0.00279292
0.00279254
0.00279114
0.00278918
0.00278757
0.00278542
0.00278378
0.0027818
0.00277989
0.00277789
0.00277536
0.0027731
0.00277051
0.00276824
0.00276608
0.00276361
0.0027612
0.00275871
0.00275614
0.00275317
0.0027492
0.00274471
0.00273932
0.0027327
0.00272651
0.00272094
0.00271598
0.00271175
0.00270862
0.00270588
0.00270302
0.00269956
0.00269596
0.00269136
0.00268634
0.00268068
0.00267487
0.00266877
0.00266294
0.00265713
0.00265163
0.00264618
0.00264111
0.00263628
0.00263191
0.00262777
0.00262391
0.00261996
0.00261568
0.00261115
0.00260624
0.00260104
0.0025954
0.00258973
0.00258373
0.0025777
0.0025716
0.00256554
0.00255956
0.00255377
0.00254816
0.00254334
0.00253885
0.00253445
0.00253016
0.00252571
0.00252083
0.00251513
0.00250897
0.00250239
0.00249548
0.00248849
0.00248172
0.00247562
0.00246996
0.00246493
0.00246046
0.00245667
0.00245328
0.00245018
0.00244681
0.00244316
0.00243899
0.00243431
0.00242918
0.00242328
0.00241711
0.00241104
0.00240534
0.00240009
0.00239529
0.00239102
0.00238711
0.00238404
0.00238092
0.00237789
0.00237445
0.00237085
0.00236702
0.00236243
0.00235776
0.00235335
0.00234949
0.00234609
0.00234307
0.00234012
0.00233726
0.00233413
0.00233096
0.00232738
0.00232375
0.00232001
0.00231638
0.0023129
0.00230971
0.00230688
0.00230452
0.00230263
0.00230132
0.00230059
0.00230002
0.00229916
0.0022979
0.00229652
0.00229524
0.00229405
0.00229318
0.0022926
0.00229266
0.00229304
0.00229369
0.00229478
0.00229474
0.00229527
0.00229507
0.00229526
0.00229568
0.00229595
0.00229616
0.00229642
0.00229604
0.00229582
0.00229488
0.00229311
2.826e-06
1.94224e-05
2.35059e-05
2.93085e-05
4.75442e-05
7.93517e-05
0.000133773
0.000207567
0.00029133
0.000379154
0.000464373
0.000542877
0.000614343
0.000677067
0.000731042
0.000779023
0.000822369
0.000861964
0.000898682
0.000933462
0.000967016
0.000999858
0.00103229
0.00106459
0.00109672
0.00112916
0.00116127
0.00119362
0.00122496
0.00125685
0.00128746
0.0013186
0.00134891
0.00134295
0.00132594
0.00130949
0.00129848
0.00128937
0.00128076
0.00127369
0.00128147
0.00129013
0.00130135
0.00131698
0.00133086
0.00136441
0.00137353
0.00139058
0.00138993
0.0014349
0.00144246
0.00145543
0.00145462
0.00148482
0.00150151
0.00149321
0.00151558
0.00151852
0.00154325
0.00155185
0.00157621
0.00159074
0.00161566
0.00163613
0.00165853
0.00168208
0.00170201
0.00172709
0.00174874
0.00177624
0.00179927
0.00182552
0.00185658
0.00187638
0.00190978
0.00192622
0.0019642
0.00198479
0.00202433
0.00204704
0.00208575
0.00211354
0.00212916
0.00217063
0.00219352
0.00223151
0.00225824
0.00229482
0.00232688
0.00235652
0.0023919
0.00242235
0.00245415
0.00249523
0.00252741
0.00255379
0.00258003
0.00260538
0.00263673
0.00265625
0.00266338
0.0026694
0.00267526
0.00268057
0.00268538
0.00268988
0.00269395
0.00269835
0.00270231
0.002706
0.00270952
0.00271274
0.00271618
0.00271927
0.00272197
0.00272377
0.00272464
0.00272526
0.00272535
0.00272369
0.00272245
0.0027214
0.00272072
0.00272022
0.00272075
0.00272179
0.00272278
0.0027234
0.00272382
0.00272324
0.00272217
0.00272064
0.00271876
0.0027164
0.00271414
0.00271175
0.00270961
0.00270737
0.00270555
0.00270388
0.00270269
0.00270169
0.00270084
0.00269968
0.00269816
0.00269632
0.00269407
0.00269152
0.00268869
0.00268594
0.00268308
0.00268015
0.00267712
0.00267404
0.00267082
0.00266752
0.00266431
0.00266145
0.00265903
0.0026566
0.00265416
0.00265168
0.00264893
0.00264534
0.00264146
0.00263719
0.00263255
0.00262778
0.00262308
0.00261902
0.00261524
0.00261209
0.00260944
0.00260741
0.00260569
0.00260425
0.00260265
0.00260077
0.00259832
0.00259532
0.00259174
0.00258742
0.00258269
0.00257793
0.00257364
0.00256974
0.00256633
0.00256342
0.00256084
0.00255904
0.00255737
0.00255575
0.00255387
0.00255172
0.00254939
0.00254626
0.00254289
0.00253966
0.00253704
0.00253476
0.00253285
0.00253096
0.00252917
0.00252706
0.00252494
0.00252237
0.00251982
0.00251715
0.00251466
0.00251234
0.00251041
0.00250876
0.00250766
0.00250693
0.00250683
0.00250711
0.00250762
0.00250779
0.00250743
0.00250691
0.00250657
0.0025063
0.0025064
0.00250684
0.002508
0.00250941
0.00251122
0.00251377
0.00251454
0.00251617
0.00251687
0.00251806
0.00251952
0.00252088
0.00252221
0.00252365
0.00252445
0.00252545
0.0025257
0.00252579
3.23064e-06
2.63287e-05
3.33815e-05
4.54403e-05
7.35295e-05
0.000121152
0.000191362
0.000274235
0.000363194
0.000452899
0.000537511
0.000615024
0.000685592
0.000746067
0.000799094
0.000846382
0.000888839
0.000927223
0.000962312
0.00099498
0.00102589
0.00105552
0.00108422
0.00111231
0.00113963
0.00116678
0.00119288
0.00121893
0.00124321
0.00126755
0.00126396
0.00123756
0.00121249
0.00118968
0.00116781
0.00114864
0.00114361
0.00113868
0.00113982
0.00113942
0.00115221
0.00117364
0.00118253
0.00120146
0.00119999
0.00123669
0.00123175
0.00124235
0.00122688
0.00125767
0.00126408
0.00127598
0.00128298
0.00127475
0.00130744
0.00131138
0.00131862
0.00132157
0.00133925
0.00135722
0.00136864
0.00139013
0.00140634
0.00143451
0.00144949
0.00148042
0.00149292
0.00152259
0.00153483
0.00156744
0.00158344
0.0016125
0.00164465
0.00165594
0.00169083
0.00169758
0.00173378
0.00174693
0.00178002
0.00179649
0.00182523
0.00183876
0.00185163
0.00188209
0.0018971
0.00191942
0.00194312
0.00196852
0.00198816
0.0020139
0.00204126
0.00205942
0.00209614
0.00212897
0.00215575
0.00218239
0.00220958
0.0022376
0.00227621
0.00230811
0.00233855
0.00236547
0.00239542
0.00242028
0.00244276
0.00246556
0.00248003
0.00249302
0.00250599
0.00251753
0.00252845
0.00253891
0.00254974
0.00255985
0.0025692
0.00257732
0.00258461
0.00259178
0.00259845
0.00260352
0.00260887
0.00261332
0.0026177
0.00262216
0.0026271
0.0026324
0.002638
0.00264351
0.00264887
0.00265321
0.00265707
0.00266047
0.0026633
0.00266574
0.00266794
0.0026698
0.00267168
0.00267336
0.00267528
0.00267728
0.00267969
0.00268226
0.00268483
0.00268695
0.00268865
0.00269001
0.00269095
0.00269161
0.00269211
0.00269282
0.00269366
0.00269443
0.00269512
0.00269557
0.00269559
0.00269543
0.00269504
0.00269474
0.00269485
0.00269485
0.00269471
0.00269454
0.00269431
0.00269332
0.00269228
0.00269089
0.00268915
0.00268725
0.00268527
0.00268378
0.00268246
0.00268167
0.00268125
0.0026814
0.00268177
0.00268239
0.00268297
0.00268333
0.00268306
0.0026822
0.00268081
0.00267863
0.00267596
0.00267315
0.00267084
0.00266887
0.00266739
0.0026664
0.00266568
0.0026656
0.00266584
0.00266615
0.00266633
0.00266618
0.00266591
0.00266482
0.00266333
0.00266188
0.002661
0.00266037
0.00266006
0.00265974
0.00265956
0.00265904
0.00265851
0.00265751
0.00265664
0.00265562
0.00265488
0.00265434
0.00265429
0.00265439
0.00265516
0.00265615
0.00265788
0.00265976
0.00266195
0.00266363
0.00266483
0.00266571
0.00266682
0.002668
0.00266966
0.0026716
0.00267433
0.00267727
0.00268066
0.00268491
0.00268709
0.00269025
0.00269227
0.00269491
0.00269775
0.00270057
0.00270328
0.00270627
0.00270854
0.00271101
0.00271273
0.00271512
3.61086e-06
3.40749e-05
4.33495e-05
6.61186e-05
0.000106534
0.000168905
0.000248032
0.000335756
0.000426783
0.000515905
0.000598815
0.000675201
0.000743141
0.000801556
0.000853208
0.000899097
0.000939867
0.000976125
0.00100861
0.00103812
0.00106523
0.00109047
0.00111414
0.00113678
0.00115797
0.00117867
0.00119767
0.00121627
0.00119423
0.00116046
0.00112077
0.00108628
0.00106276
0.001045
0.00103347
0.00102208
0.00102595
0.00102587
0.00103307
0.00104243
0.00104932
0.00108252
0.00107588
0.00109103
0.00106941
0.00109981
0.00108807
0.00110741
0.00109492
0.00111078
0.00111447
0.00112682
0.00114101
0.00110763
0.00113546
0.00115382
0.00114478
0.00115657
0.00115833
0.00118605
0.00118438
0.00121407
0.00121528
0.00125411
0.00125507
0.00130027
0.00130087
0.00133514
0.00133862
0.00134391
0.00134942
0.001356
0.00136427
0.00137321
0.00138102
0.00139112
0.00140106
0.0014142
0.0014295
0.00144292
0.00146079
0.0014759
0.00149168
0.00151124
0.00152951
0.00155121
0.00157294
0.00159685
0.00162129
0.0016467
0.0016737
0.00170069
0.00172996
0.00175931
0.00178928
0.00181854
0.00184808
0.00187877
0.00190984
0.00194088
0.00196978
0.00199865
0.00202601
0.00205312
0.00207822
0.00210313
0.00212697
0.00215028
0.00217324
0.0021945
0.00221517
0.00223506
0.00225492
0.00227412
0.002292
0.00230856
0.00232455
0.00234036
0.00235552
0.00236942
0.0023826
0.00239436
0.00240568
0.00241622
0.00242689
0.00243787
0.00244926
0.00246077
0.00247228
0.00248273
0.00249278
0.00250236
0.00251133
0.00251972
0.00252758
0.00253493
0.00254184
0.00254836
0.00255471
0.00256113
0.00256785
0.00257454
0.0025811
0.00258723
0.00259279
0.00259809
0.0026028
0.0026074
0.00261194
0.00261674
0.00262178
0.00262689
0.00263172
0.00263632
0.00264014
0.00264379
0.00264669
0.00264966
0.00265265
0.00265552
0.00265812
0.00266065
0.00266315
0.00266529
0.00266749
0.00266946
0.00267116
0.00267261
0.00267389
0.00267548
0.0026771
0.00267905
0.00268125
0.00268384
0.00268664
0.00268964
0.00269268
0.00269558
0.00269787
0.00269957
0.00270079
0.00270118
0.00270108
0.00270069
0.0027008
0.00270118
0.00270205
0.00270336
0.00270491
0.00270694
0.00270943
0.00271202
0.00271464
0.00271692
0.0027191
0.00272046
0.00272139
0.00272216
0.0027234
0.0027248
0.00272648
0.00272813
0.00272996
0.00273147
0.00273298
0.00273403
0.0027353
0.00273643
0.00273792
0.00273965
0.00274198
0.00274431
0.00274746
0.00275064
0.00275475
0.0027587
0.00276295
0.00276668
0.00276998
0.00277285
0.00277596
0.00277911
0.00278281
0.00278672
0.0027915
0.00279644
0.00280181
0.00280812
0.00281221
0.00281726
0.00282117
0.00282564
0.00283022
0.00283507
0.00283956
0.00284449
0.00284833
0.00285263
0.00285599
0.00286122
4.03136e-06
4.06442e-05
5.95532e-05
9.08949e-05
0.000143965
0.00021581
0.000300632
0.000390303
0.00048123
0.000568493
0.000649192
0.000723909
0.000788805
0.00084523
0.000895096
0.000938981
0.000977305
0.00101055
0.00103948
0.0010647
0.00108683
0.00110644
0.0011238
0.00113971
0.00115366
0.00116692
0.00113967
0.00109472
0.00105116
0.00101222
0.000979106
0.000954639
0.000944804
0.000934533
0.000930902
0.000922314
0.000931415
0.000948917
0.000955337
0.00097049
0.000956275
0.000989505
0.000970436
0.000988835
0.000968035
0.000989442
0.000975918
0.000999124
0.00099152
0.00098305
0.000975035
0.000977519
0.000985863
0.000970486
0.000962358
0.0009917
0.000978741
0.00101049
0.000993976
0.00103064
0.00101647
0.00101867
0.00101845
0.00101252
0.00101405
0.00101186
0.00101429
0.00101421
0.00101761
0.00101885
0.001023
0.00102509
0.00103167
0.00103634
0.00104127
0.00104625
0.00105133
0.00105791
0.00106564
0.00107301
0.00108293
0.00109029
0.00110016
0.00111182
0.0011224
0.00113559
0.00114951
0.00116516
0.0011815
0.00119921
0.00121857
0.00123851
0.00126044
0.00128494
0.0013094
0.00133524
0.00136227
0.00139138
0.00142131
0.00145299
0.00148306
0.0015147
0.00154487
0.00157601
0.0016053
0.0016356
0.00166479
0.00169527
0.00172488
0.00175431
0.00178288
0.00181227
0.00184054
0.00186906
0.00189554
0.00192165
0.00194678
0.00197234
0.00199662
0.00202041
0.00204204
0.00206169
0.00208103
0.00209945
0.00211749
0.00213549
0.00215391
0.00217265
0.00219145
0.00220953
0.00222733
0.00224465
0.00226116
0.00227684
0.00229161
0.00230553
0.00231867
0.00233116
0.0023432
0.00235499
0.00236676
0.00237838
0.00238995
0.00240085
0.00241128
0.0024215
0.00243103
0.00244053
0.00245
0.00245971
0.00246967
0.00247978
0.00248941
0.0024989
0.0025073
0.00251543
0.00252236
0.00252925
0.00253574
0.00254213
0.00254804
0.00255375
0.0025595
0.00256521
0.00257114
0.00257701
0.00258263
0.00258798
0.00259309
0.00259829
0.00260338
0.00260855
0.0026137
0.00261908
0.00262461
0.00263031
0.00263612
0.00264186
0.00264714
0.00265171
0.00265592
0.00265932
0.00266223
0.0026647
0.00266759
0.00267068
0.00267424
0.00267817
0.00268231
0.00268679
0.00269181
0.00269701
0.00270235
0.0027074
0.00271235
0.00271651
0.00272025
0.0027236
0.00272727
0.00273098
0.00273493
0.00273887
0.00274302
0.00274691
0.00275081
0.00275426