/*--------------------------------*- C++ -*----------------------------------*\
| =========                 |                                                 |
| \\      /  F ield         | OpenFOAM: The Open Source CFD Toolbox           |
|  \\    /   O peration     | Version:  2312                                  |
|   \\  /    A nd           | Website:  www.openfoam.com                      |
|    \\/     M anipulation  |                                                 |
\*---------------------------------------------------------------------------*/
FoamFile
{
    version     2.0;
    format      ascii;
    arch        "LSB;label=32;scalar=64";
    class       volScalarField;
    location    "0.001";
    object      cSound;
}
// * * * * * * * * * * * * * * * * * * * * * * * * * * * * * * * * * * * * * //

dimensions      [0 1 -1 0 0 0 0];

internalField   nonuniform List<scalar> 
48128
(
381.273
381.34
381.025
380.894
380.876
380.814
380.766
380.68
380.477
379.441
378.136
377.299
376.624
376.055
375.098
374.273
373.489
372.774
372.119
371.536
370.958
370.413
369.905
369.441
369.026
368.664
368.37
368.161
368.034
367.974
367.967
368.111
368.293
368.596
368.939
369.392
369.867
370.431
370.997
371.608
372.22
372.823
373.422
373.981
374.497
374.969
375.384
375.743
376.006
376.232
376.377
376.48
376.487
376.434
376.308
376.105
375.834
375.499
375.1
374.644
374.136
373.583
372.991
372.36
371.701
371.008
370.298
369.564
368.794
368.011
367.184
366.362
365.515
364.683
363.846
363
362.166
361.324
360.499
359.696
358.912
358.163
357.404
356.655
355.923
355.225
354.55
353.901
353.305
352.721
352.174
351.628
351.092
350.555
350.071
349.638
349.22
348.794
348.368
347.95
347.575
347.238
346.926
346.634
346.364
346.111
345.86
345.602
345.367
345.158
344.96
344.756
344.554
344.363
344.19
344.033
343.873
343.704
343.529
343.337
343.21
343.102
342.988
342.956
342.917
342.87
342.81
342.738
342.656
342.566
342.471
342.374
342.275
342.189
342.117
342.062
342.019
341.99
341.969
341.969
341.979
341.996
342.02
342.048
342.076
342.098
342.115
342.127
342.132
342.126
342.115
342.099
342.082
342.071
342.071
342.085
342.097
342.133
342.187
342.242
342.297
342.338
342.373
342.392
342.401
342.399
342.4
342.407
342.421
342.444
342.48
342.527
342.584
342.65
342.721
342.792
342.854
342.903
342.949
342.981
343.016
343.012
343.018
343.024
343.035
343.051
343.074
343.105
343.145
343.193
343.24
343.286
343.327
343.369
343.407
343.432
343.463
343.498
343.537
343.582
343.633
343.682
343.73
343.776
343.817
343.856
343.894
343.932
343.972
344.015
344.061
344.109
344.159
344.209
344.26
344.304
344.333
344.344
344.342
344.338
344.338
344.343
344.358
344.383
344.424
344.472
344.524
344.583
344.608
344.641
344.662
344.699
344.754
344.818
344.9
345.001
345.112
345.242
345.381
345.612
380.901
380.998
380.764
380.63
380.669
380.74
380.872
380.744
379.891
378.293
376.755
375.417
373.98
372.519
371.359
370.341
369.451
368.71
368.088
367.589
367.139
366.755
366.443
366.204
366.044
365.964
365.944
366.01
366.176
366.42
366.756
367.176
367.655
368.222
368.821
369.49
370.18
370.912
371.645
372.365
373.063
373.719
374.329
374.867
375.321
375.697
375.978
376.176
376.254
376.252
376.133
375.941
375.65
375.281
374.801
374.239
373.586
372.852
372.04
371.164
370.231
369.247
368.216
367.147
366.05
364.916
363.778
362.627
361.452
360.285
359.079
357.897
356.703
355.538
354.388
353.246
352.119
351.002
349.909
348.835
347.807
346.808
345.805
344.814
343.846
342.916
342.011
341.145
340.335
339.546
338.805
338.076
337.357
336.64
335.978
335.374
334.788
334.197
333.607
333.025
332.486
331.987
331.513
331.063
330.643
330.244
329.86
329.469
329.106
328.775
328.458
328.137
327.817
327.506
327.212
326.934
326.653
326.365
326.073
325.764
325.512
325.294
325.067
324.935
324.804
324.671
324.532
324.384
324.228
324.064
323.893
323.718
323.539
323.371
323.214
323.073
322.948
322.84
322.742
322.653
322.58
322.516
322.459
322.41
322.361
322.31
322.256
322.2
322.139
322.073
322.005
321.934
321.862
321.797
321.726
321.681
321.616
321.59
321.588
321.585
321.581
321.573
321.558
321.537
321.511
321.476
321.446
321.415
321.4
321.388
321.393
321.408
321.434
321.472
321.517
321.564
321.607
321.641
321.676
321.701
321.734
321.73
321.735
321.742
321.755
321.772
321.794
321.823
321.862
321.909
321.958
322.008
322.061
322.115
322.174
322.221
322.274
322.333
322.397
322.467
322.542
322.617
322.693
322.769
322.847
322.928
323.014
323.105
323.204
323.31
323.424
323.543
323.667
323.794
323.923
324.05
324.157
324.25
324.323
324.396
324.469
324.546
324.631
324.726
324.837
324.959
325.083
325.215
325.301
325.396
325.464
325.545
325.637
325.737
325.849
325.976
326.109
326.258
326.414
326.666
380.777
380.769
380.59
380.532
380.658
380.879
380.727
379.676
377.757
375.911
374.389
373.17
372.292
371.511
370.724
370.075
369.509
369.016
368.62
368.306
368.028
367.807
367.645
367.547
367.515
367.53
367.635
367.818
368.078
368.414
368.814
369.282
369.796
370.371
370.969
371.607
372.252
372.904
373.543
374.146
374.697
375.188
375.604
375.935
376.153
376.279
376.282
376.192
375.968
375.654
375.209
374.682
374.054
373.337
372.5
371.594
370.598
369.527
368.385
367.197
365.962
364.692
363.386
362.049
360.703
359.328
357.969
356.61
355.241
353.894
352.514
351.176
349.843
348.553
347.29
346.058
344.846
343.658
342.498
341.357
340.281
339.224
338.17
337.131
336.119
335.148
334.201
333.3
332.454
331.632
330.862
330.109
329.369
328.633
327.956
327.332
326.726
326.115
325.504
324.904
324.344
323.821
323.319
322.84
322.392
321.963
321.553
321.138
320.753
320.402
320.065
319.724
319.385
319.055
318.74
318.434
318.124
317.807
317.488
317.154
316.869
316.623
316.369
316.204
316.047
315.889
315.726
315.558
315.383
315.202
315.014
314.82
314.624
314.433
314.253
314.086
313.935
313.798
313.675
313.562
313.465
313.377
313.298
313.225
313.153
313.079
313.004
312.928
312.848
312.765
312.68
312.593
312.505
312.424
312.339
312.276
312.193
312.143
312.118
312.093
312.069
312.041
312.008
311.972
311.931
311.883
311.837
311.792
311.761
311.731
311.72
311.722
311.734
311.755
311.785
311.818
311.848
311.872
311.895
311.914
311.939
311.937
311.941
311.949
311.963
311.982
312.006
312.035
312.072
312.117
312.162
312.207
312.255
312.306
312.359
312.408
312.464
312.527
312.598
312.675
312.759
312.844
312.93
313.016
313.104
313.196
313.293
313.398
313.512
313.636
313.769
313.911
314.061
314.216
314.376
314.537
314.682
314.816
314.932
315.043
315.156
315.271
315.391
315.519
315.661
315.812
315.969
316.137
316.263
316.4
316.503
316.616
316.736
316.86
316.992
317.136
317.283
317.444
317.612
317.876
380.706
380.629
380.532
380.556
380.8
380.653
379.585
377.551
375.63
374.277
373.353
372.689
372.18
371.73
371.217
370.764
370.376
370.04
369.778
369.571
369.394
369.261
369.18
369.155
369.176
369.268
369.43
369.662
369.958
370.318
370.73
371.195
371.691
372.231
372.783
373.346
373.897
374.433
374.935
375.381
375.746
376.031
376.212
376.294
376.233
376.063
375.74
375.314
374.741
374.067
373.245
372.334
371.329
370.224
368.996
367.723
366.359
364.939
363.459
361.96
360.431
358.889
357.328
355.749
354.187
352.606
351.073
349.557
348.056
346.598
345.114
343.698
342.299
340.967
339.673
338.431
337.212
336.034
334.885
333.757
332.705
331.662
330.626
329.608
328.626
327.691
326.78
325.92
325.11
324.327
323.594
322.883
322.184
321.493
320.866
320.286
319.72
319.151
318.58
318.023
317.501
317.009
316.535
316.082
315.66
315.25
314.862
314.47
314.11
313.784
313.469
313.152
312.838
312.532
312.239
311.948
311.651
311.349
311.042
310.722
310.442
310.206
309.962
309.795
309.645
309.493
309.338
309.18
309.016
308.845
308.668
308.485
308.299
308.115
307.939
307.774
307.624
307.487
307.364
307.251
307.154
307.066
306.987
306.913
306.839
306.763
306.687
306.611
306.532
306.451
306.369
306.287
306.204
306.127
306.045
305.981
305.899
305.845
305.812
305.779
305.75
305.719
305.683
305.644
305.604
305.557
305.51
305.463
305.431
305.397
305.382
305.38
305.387
305.404
305.428
305.456
305.48
305.5
305.517
305.534
305.554
305.553
305.558
305.568
305.585
305.608
305.636
305.669
305.71
305.757
305.802
305.847
305.893
305.942
305.992
306.042
306.097
306.161
306.233
306.314
306.401
306.49
306.58
306.672
306.764
306.861
306.963
307.074
307.195
307.327
307.47
307.624
307.786
307.956
308.132
308.31
308.476
308.633
308.773
308.91
309.048
309.187
309.332
309.483
309.645
309.818
309.995
310.185
310.337
310.5
310.63
310.768
310.911
311.055
311.204
311.362
311.522
311.693
311.869
312.143
380.658
380.583
380.623
380.653
380.573
379.626
377.66
375.778
374.519
373.724
373.202
372.859
372.541
372.279
371.95
371.658
371.4
371.169
370.993
370.859
370.746
370.672
370.647
370.662
370.733
370.868
371.063
371.321
371.632
372.001
372.407
372.85
373.309
373.789
374.265
374.724
375.143
375.521
375.834
376.073
376.194
376.211
376.077
375.831
375.401
374.842
374.093
373.222
372.193
371.044
369.732
368.33
366.847
365.265
363.557
361.845
360.047
358.224
356.368
354.53
352.696
350.875
349.074
347.264
345.52
343.762
342.108
340.482
338.915
337.42
335.902
334.491
333.11
331.82
330.568
329.391
328.238
327.142
326.078
325.035
324.078
323.119
322.17
321.241
320.356
319.525
318.71
317.951
317.231
316.537
315.892
315.267
314.651
314.055
313.525
313.031
312.548
312.061
311.569
311.096
310.649
310.225
309.814
309.426
309.061
308.705
308.371
308.032
307.728
307.453
307.186
306.92
306.658
306.405
306.159
305.909
305.654
305.393
305.125
304.844
304.594
304.388
304.177
304.027
303.901
303.774
303.646
303.515
303.38
303.239
303.09
302.936
302.779
302.619
302.464
302.319
302.185
302.064
301.957
301.858
301.776
301.703
301.639
301.575
301.512
301.446
301.381
301.315
301.248
301.181
301.114
301.049
300.984
300.921
300.854
300.801
300.73
300.681
300.65
300.619
300.594
300.568
300.538
300.505
300.473
300.435
300.397
300.359
300.333
300.306
300.294
300.295
300.304
300.323
300.349
300.378
300.403
300.426
300.444
300.461
300.48
300.482
300.489
300.504
300.526
300.554
300.589
300.63
300.676
300.729
300.779
300.829
300.877
300.928
300.979
301.03
301.086
301.151
301.226
301.309
301.398
301.491
301.584
301.679
301.775
301.875
301.981
302.095
302.221
302.359
302.509
302.67
302.842
303.021
303.208
303.398
303.577
303.748
303.905
304.061
304.217
304.375
304.539
304.708
304.888
305.077
305.271
305.478
305.649
305.832
305.984
306.143
306.306
306.469
306.635
306.809
306.98
307.162
307.347
307.632
380.669
380.601
380.708
380.45
379.793
378.033
376.153
374.885
374.139
373.709
373.429
373.251
373.079
372.938
372.742
372.564
372.396
372.242
372.13
372.051
371.993
371.969
371.98
372.037
372.145
372.312
372.529
372.801
373.115
373.475
373.857
374.256
374.65
375.035
375.39
375.7
375.929
376.084
376.126
376.066
375.831
375.465
374.884
374.155
373.198
372.077
370.727
369.217
367.543
365.727
363.735
361.672
359.524
357.378
355.066
352.767
350.498
348.196
345.945
343.719
341.608
339.508
337.522
335.508
333.667
331.784
330.105
328.456
326.93
325.506
324.067
322.778
321.534
320.407
319.296
318.288
317.297
316.389
315.508
314.649
313.89
313.108
312.345
311.599
310.892
310.239
309.592
309.003
308.434
307.889
307.385
306.898
306.417
305.968
305.58
305.208
304.846
304.479
304.105
303.752
303.412
303.089
302.774
302.483
302.206
301.932
301.678
301.421
301.199
300.997
300.8
300.609
300.421
300.244
300.065
299.88
299.689
299.493
299.286
299.065
298.867
298.71
298.549
298.433
298.343
298.255
298.168
298.081
297.989
297.892
297.788
297.678
297.563
297.443
297.325
297.212
297.109
297.018
296.939
296.867
296.812
296.764
296.724
296.682
296.64
296.595
296.549
296.502
296.456
296.411
296.369
296.329
296.289
296.251
296.208
296.175
296.123
296.086
296.065
296.044
296.03
296.015
295.998
295.975
295.962
295.937
295.915
295.893
295.881
295.866
295.868
295.876
295.893
295.92
295.953
295.989
296.021
296.051
296.076
296.099
296.121
296.13
296.144
296.165
296.194
296.231
296.275
296.324
296.38
296.442
296.5
296.558
296.611
296.669
296.725
296.781
296.841
296.909
296.988
297.075
297.168
297.264
297.361
297.46
297.56
297.664
297.774
297.892
298.022
298.165
298.321
298.489
298.668
298.855
299.05
299.249
299.439
299.621
299.79
299.96
300.131
300.305
300.483
300.668
300.862
301.065
301.274
301.496
301.683
301.882
302.053
302.231
302.412
302.592
302.775
302.964
303.148
303.341
303.537
303.834
380.746
380.559
380.52
379.883
378.576
376.671
375.326
374.546
374.14
373.909
373.791
373.736
373.672
373.614
373.511
373.412
373.316
373.226
373.167
373.138
373.125
373.137
373.185
373.275
373.408
373.593
373.82
374.091
374.388
374.715
375.044
375.364
375.648
375.889
376.056
376.142
376.086
375.909
375.539
375.018
374.237
373.253
371.972
370.477
368.719
366.752
364.52
362.106
359.521
356.872
354.01
351.161
348.131
345.451
342.501
339.438
336.771
333.953
331.389
328.752
326.479
324.113
322.056
319.909
318.087
316.186
314.596
313.028
311.667
310.402
309.185
308.123
307.133
306.279
305.433
304.715
304.014
303.414
302.839
302.278
301.839
301.348
300.872
300.426
299.98
299.604
299.203
298.873
298.531
298.2
297.91
297.629
297.335
297.09
296.882
296.674
296.47
296.264
296.041
295.846
295.649
295.46
295.27
295.105
294.941
294.775
294.627
294.475
294.36
294.25
294.146
294.045
293.954
293.869
293.776
293.675
293.566
293.453
293.33
293.186
293.06
292.966
292.868
292.803
292.758
292.722
292.686
292.654
292.619
292.578
292.532
292.477
292.416
292.349
292.281
292.213
292.153
292.101
292.061
292.027
292.008
291.994
291.987
291.977
291.966
291.95
291.931
291.912
291.892
291.88
291.87
291.863
291.857
291.851
291.839
291.834
291.806
291.787
291.787
291.784
291.785
291.786
291.789
291.782
291.792
291.783
291.786
291.788
291.794
291.801
291.817
291.84
291.871
291.911
291.956
292.004
292.049
292.092
292.128
292.162
292.191
292.213
292.237
292.267
292.307
292.355
292.41
292.472
292.539
292.613
292.682
292.752
292.815
292.882
292.946
293.012
293.079
293.154
293.239
293.331
293.43
293.531
293.634
293.739
293.845
293.954
294.069
294.192
294.326
294.475
294.637
294.812
294.998
295.194
295.397
295.603
295.803
295.995
296.174
296.355
296.539
296.725
296.917
297.115
297.322
297.538
297.76
297.994
298.195
298.407
298.596
298.79
298.987
299.184
299.383
299.588
299.785
299.989
300.196
300.506
380.818
380.375
380.1
379.03
377.339
375.876
374.985
374.527
374.305
374.228
374.215
374.244
374.254
374.256
374.225
374.188
374.149
374.116
374.101
374.11
374.132
374.177
374.252
374.361
374.507
374.695
374.911
375.156
375.408
375.665
375.896
376.085
376.19
376.209
376.082
375.813
375.295
374.571
373.522
372.226
370.577
368.623
366.309
363.719
360.854
357.81
354.461
350.977
347.236
343.803
340.056
336.439
332.496
329.394
325.928
322.142
319.204
315.983
313.234
310.255
307.948
305.46
303.487
301.386
299.719
297.983
296.597
295.25
294.152
293.138
292.245
291.467
290.826
290.259
289.772
289.339
289.017
288.725
288.535
288.287
288.231
288.084
287.895
287.836
287.667
287.674
287.554
287.565
287.532
287.462
287.465
287.451
287.379
287.404
287.414
287.41
287.403
287.401
287.363
287.367
287.343
287.317
287.278
287.266
287.239
287.203
287.188
287.158
287.174
287.174
287.181
287.184
287.206
287.231
287.237
287.231
287.218
287.196
287.18
287.131
287.093
287.073
287.047
287.051
287.06
287.079
287.104
287.135
287.173
287.194
287.219
287.225
287.23
287.225
287.217
287.205
287.196
287.196
287.202
287.215
287.237
287.267
287.3
287.333
287.355
287.377
287.393
287.408
287.423
287.448
287.479
287.51
287.546
287.578
287.603
287.632
287.632
287.645
287.665
287.687
287.709
287.732
287.756
287.774
287.809
287.828
287.861
287.888
287.919
287.95
287.987
288.03
288.08
288.137
288.198
288.262
288.324
288.384
288.438
288.485
288.529
288.567
288.605
288.649
288.702
288.763
288.833
288.909
288.99
289.079
289.161
289.246
289.322
289.402
289.48
289.557
289.635
289.72
289.814
289.914
290.02
290.129
290.24
290.353
290.466
290.582
290.704
290.834
290.975
291.13
291.299
291.482
291.676
291.879
292.09
292.305
292.515
292.716
292.905
293.097
293.291
293.49
293.694
293.903
294.122
294.35
294.583
294.829
295.042
295.267
295.471
295.68
295.893
296.106
296.32
296.54
296.749
296.965
297.183
297.508
380.867
380.132
379.536
378.087
376.573
375.514
374.927
374.653
374.571
374.587
374.654
374.738
374.801
374.847
374.872
374.885
374.894
374.903
374.923
374.961
375.009
375.075
375.164
375.279
375.418
375.586
375.765
375.95
376.113
376.248
376.312
376.289
376.101
375.744
375.11
374.228
372.95
371.333
369.247
366.786
363.921
360.679
357.057
353.197
348.985
344.909
340.409
335.947
330.969
327.01
322.569
318.394
313.784
310.261
306.609
302.537
299.538
296.174
293.577
290.716
288.579
286.331
284.58
282.858
281.434
280.118
278.99
278.038
277.213
276.548
275.99
275.481
275.234
274.845
274.759
274.444
274.539
274.373
274.563
274.473
274.712
274.836
274.797
275.083
275.124
275.4
275.515
275.775
275.995
276.178
276.429
276.651
276.847
277.119
277.367
277.588
277.802
278.01
278.206
278.418
278.592
278.745
278.892
279.046
279.175
279.291
279.418
279.543
279.686
279.811
279.94
280.063
280.205
280.345
280.466
280.564
280.654
280.734
280.83
280.891
280.953
281.016
281.077
281.145
281.225
281.311
281.404
281.504
281.614
281.708
281.807
281.889
281.967
282.031
282.086
282.137
282.19
282.246
282.306
282.372
282.445
282.523
282.603
282.681
282.746
282.811
282.868
282.923
282.979
283.048
283.122
283.198
283.278
283.355
283.424
283.491
283.528
283.571
283.62
283.669
283.719
283.769
283.819
283.869
283.928
283.981
284.045
284.104
284.163
284.223
284.286
284.354
284.426
284.504
284.585
284.669
284.752
284.833
284.908
284.973
285.035
285.094
285.149
285.21
285.28
285.358
285.444
285.536
285.634
285.739
285.838
285.941
286.033
286.129
286.222
286.315
286.408
286.506
286.611
286.722
286.837
286.956
287.077
287.199
287.323
287.448
287.579
287.717
287.867
288.03
288.207
288.398
288.601
288.813
289.033
289.257
289.476
289.687
289.887
290.089
290.294
290.504
290.719
290.941
291.17
291.409
291.653
291.91
292.135
292.371
292.59
292.813
293.04
293.268
293.497
293.732
293.954
294.182
294.411
294.751
380.869
379.846
378.927
377.427
376.183
375.404
375.008
374.874
374.87
374.957
375.079
375.198
375.299
375.382
375.447
375.499
375.543
375.583
375.628
375.684
375.746
375.819
375.905
376.007
376.115
376.232
376.334
376.411
376.42
376.352
376.124
375.723
375.014
374.015
372.562
370.704
368.313
365.411
361.958
358.04
353.706
349.179
344.161
339.106
333.454
328.633
323.132
317.996
312.049
307.912
303.11
298.915
294.42
290.438
287.176
283.458
280.592
277.57
275.249
273.03
271.129
269.544
268.065
266.999
265.826
265.15
264.253
263.868
263.199
263
262.613
262.382
262.463
262.147
262.384
262.11
262.454
262.355
262.725
262.712
263.068
263.303
263.361
263.79
263.922
264.306
264.563
264.939
265.264
265.587
265.972
266.298
266.68
267.097
267.483
267.858
268.231
268.596
268.977
269.361
269.709
270.029
270.351
270.663
270.946
271.213
271.485
271.758
272.034
272.282
272.536
272.782
273.042
273.296
273.526
273.735
273.937
274.127
274.332
274.513
274.678
274.834
274.981
275.127
275.278
275.437
275.604
275.778
275.961
276.131
276.307
276.47
276.624
276.763
276.888
277.007
277.124
277.242
277.362
277.486
277.615
277.745
277.874
278.001
278.114
278.225
278.328
278.43
278.534
278.649
278.77
278.894
279.022
279.147
279.261
279.369
279.451
279.528
279.611
279.691
279.771
279.853
279.933
280.017
280.105
280.195
280.292
280.387
280.478
280.57
280.663
280.759
280.857
280.959
281.063
281.17
281.276
281.38
281.48
281.568
281.651
281.734
281.81
281.892
281.981
282.078
282.183
282.294
282.41
282.533
282.651
282.772
282.884
282.998
283.111
283.222
283.332
283.446
283.565
283.688
283.815
283.946
284.079
284.213
284.348
284.485
284.627
284.776
284.935
285.108
285.296
285.496
285.708
285.931
286.16
286.393
286.623
286.845
287.055
287.267
287.484
287.706
287.932
288.165
288.406
288.655
288.91
289.177
289.414
289.66
289.893
290.13
290.37
290.613
290.857
291.105
291.341
291.58
291.821
292.177
380.7
379.529
378.346
376.988
375.999
375.435
375.175
375.125
375.18
375.317
375.47
375.616
375.743
375.853
375.947
376.025
376.093
376.153
376.211
376.273
376.334
376.396
376.46
376.523
376.566
376.589
376.556
376.452
376.187
375.753
375.001
373.948
372.415
370.424
367.808
364.594
360.779
356.354
351.393
346.064
340.131
334.604
328.242
322.376
315.466
310.265
304.099
299.025
292.922
288.906
284.076
280.318
276.336
272.489
269.666
266.829
264.198
262.143
260.13
258.885
257.238
256.547
255.23
255.041
253.933
254.074
253.27
253.509
252.863
253.207
252.786
253.036
253.123
253.098
253.432
253.19
253.681
253.591
254.053
254.049
254.45
254.624
254.737
255.185
255.285
255.69
255.92
256.321
256.571
256.919
257.3
257.618
258.026
258.46
258.837
259.24
259.64
260.055
260.499
260.941
261.363
261.774
262.19
262.591
262.972
263.346
263.725
264.108
264.49
264.84
265.197
265.55
265.912
266.262
266.589
266.896
267.199
267.497
267.807
268.1
268.367
268.611
268.848
269.069
269.293
269.523
269.763
270.011
270.265
270.512
270.764
271.006
271.238
271.454
271.653
271.841
272.026
272.207
272.39
272.574
272.76
272.943
273.124
273.301
273.464
273.624
273.777
273.929
274.084
274.248
274.419
274.593
274.77
274.944
275.105
275.257
275.387
275.502
275.622
275.736
275.85
275.964
276.079
276.198
276.32
276.447
276.579
276.712
276.84
276.966
277.091
277.216
277.343
277.472
277.602
277.733
277.865
277.995
278.121
278.235
278.342
278.452
278.552
278.657
278.769
278.887
279.012
279.143
279.279
279.422
279.56
279.703
279.836
279.97
280.105
280.237
280.366
280.498
280.633
280.77
280.911
281.056
281.203
281.35
281.499
281.649
281.804
281.965
282.137
282.321
282.52
282.731
282.954
283.186
283.426
283.669
283.91
284.144
284.365
284.589
284.818
285.051
285.289
285.534
285.785
286.045
286.311
286.588
286.836
287.093
287.34
287.59
287.843
288.101
288.358
288.621
288.869
289.12
289.373
289.745
380.524
379.189
377.902
376.736
375.959
375.519
375.382
375.379
375.485
375.65
375.824
375.986
376.131
376.258
376.368
376.463
376.543
376.609
376.669
376.722
376.765
376.796
376.809
376.798
376.73
376.599
376.323
375.885
375.128
374.068
372.498
370.457
367.778
364.441
360.371
355.552
350.137
344.395
337.972
331.513
324.022
317.839
310.451
304.325
296.964
291.771
285.466
280.926
275.317
271.612
267.142
264.062
260.588
257.764
255.15
253.464
251.18
250.421
248.623
248.469
246.984
247.213
246.073
246.648
245.799
246.493
245.871
246.576
246.05
246.814
246.452
247.171
247.01
247.55
247.783
247.777
248.356
248.235
248.799
248.775
249.244
249.207
249.467
249.894
249.902
250.28
250.401
250.762
250.857
251.15
251.441
251.643
251.965
252.31
252.543
252.847
253.139
253.474
253.842
254.197
254.561
254.938
255.32
255.69
256.064
256.444
256.839
257.239
257.641
258.027
258.423
258.825
259.232
259.624
260.008
260.371
260.741
261.115
261.494
261.875
262.225
262.54
262.852
263.136
263.421
263.712
264.015
264.323
264.641
264.955
265.276
265.589
265.892
266.178
266.447
266.704
266.953
267.197
267.439
267.682
267.923
268.158
268.389
268.616
268.828
269.039
269.241
269.446
269.653
269.867
270.087
270.311
270.537
270.759
270.966
271.164
271.342
271.497
271.657
271.808
271.957
272.106
272.256
272.41
272.569
272.733
272.902
273.073
273.24
273.402
273.561
273.718
273.875
274.032
274.188
274.346
274.505
274.661
274.816
274.958
275.093
275.23
275.357
275.488
275.624
275.765
275.913
276.065
276.221
276.384
276.544
276.708
276.865
277.021
277.179
277.334
277.485
277.637
277.789
277.943
278.099
278.259
278.421
278.583
278.746
278.911
279.081
279.256
279.441
279.639
279.85
280.073
280.307
280.551
280.801
281.055
281.308
281.553
281.788
282.024
282.264
282.51
282.76
283.016
283.278
283.549
283.826
284.114
284.373
284.642
284.901
285.164
285.431
285.702
285.973
286.249
286.51
286.774
287.038
287.426
380.307
378.864
377.598
376.596
375.971
375.658
375.587
375.634
375.769
375.952
376.136
376.307
376.46
376.594
376.712
376.81
376.89
376.951
376.997
377.028
377.033
377.003
376.926
376.795
376.53
376.117
375.402
374.388
372.864
370.865
368.168
364.802
360.702
355.79
350.166
343.848
336.808
330.168
322.422
315.235
306.637
300.211
292.367
286.512
279.42
274.596
268.679
264.777
259.975
256.684
252.998
250.624
247.696
246.25
243.64
243.401
241.358
241.766
240.35
240.932
239.774
240.641
239.813
240.928
240.364
241.544
241.131
242.274
241.919
243.043
242.834
243.843
243.685
244.575
244.446
245.046
245.68
245.568
246.237
246.169
246.699
246.574
246.989
247.399
247.363
247.751
247.799
248.121
248.109
248.369
248.582
248.693
248.934
249.138
249.216
249.417
249.549
249.755
249.985
250.168
250.387
250.625
250.868
251.097
251.342
251.61
251.896
252.191
252.493
252.796
253.119
253.459
253.806
254.136
254.476
254.812
255.168
255.54
255.921
256.314
256.69
257.034
257.372
257.683
257.997
258.315
258.646
258.983
259.334
259.687
260.05
260.407
260.758
261.095
261.419
261.73
262.033
262.328
262.621
262.914
263.2
263.478
263.754
264.023
264.281
264.538
264.785
265.038
265.295
265.557
265.823
266.092
266.362
266.629
266.88
267.123
267.346
267.542
267.74
267.928
268.113
268.296
268.481
268.671
268.866
269.068
269.273
269.481
269.686
269.885
270.079
270.268
270.456
270.641
270.824
271.008
271.195
271.379
271.563
271.733
271.898
272.063
272.219
272.377
272.539
272.705
272.875
273.049
273.227
273.41
273.592
273.779
273.96
274.139
274.319
274.5
274.675
274.848
275.018
275.189
275.362
275.537
275.716
275.893
276.073
276.254
276.439
276.63
276.83
277.042
277.266
277.502
277.748
278.004
278.265
278.53
278.795
279.053
279.3
279.549
279.802
280.06
280.323
280.591
280.864
281.146
281.434
281.734
282.004
282.284
282.556
282.831
283.11
283.395
283.679
283.968
284.242
284.518
284.793
285.198
380.078
378.573
377.373
376.509
376.017
375.815
375.789
375.873
376.028
376.219
376.406
376.577
376.73
376.863
376.976
377.069
377.137
377.179
377.197
377.184
377.121
376.999
376.767
376.413
375.79
374.884
373.474
371.588
369.011
365.767
361.682
356.738
351.073
344.687
337.557
330.16
321.583
314.342
305.583
298.237
289.356
282.936
275.175
269.925
263.563
259.367
254.207
250.905
246.963
244.03
241.741
239.5
237.716
236.875
235.059
235.606
234.243
235.192
234.205
235.4
234.679
236.181
235.659
237.294
236.96
238.588
238.263
239.826
239.559
241.009
240.87
242.119
241.94
243.065
242.942
243.77
244.427
244.398
245.175
245.038
245.679
245.617
246.133
246.453
246.475
246.93
246.93
247.28
247.244
247.527
247.664
247.768
247.999
248.124
248.146
248.3
248.365
248.498
248.643
248.717
248.853
248.981
249.108
249.207
249.331
249.483
249.641
249.792
249.951
250.112
250.297
250.489
250.696
250.858
251.052
251.248
251.478
251.732
252.002
252.29
252.582
252.865
253.139
253.398
253.661
253.935
254.226
254.522
254.843
255.169
255.515
255.863
256.214
256.558
256.895
257.223
257.545
257.862
258.18
258.495
258.803
259.102
259.401
259.694
259.979
260.266
260.546
260.834
261.126
261.425
261.726
262.03
262.335
262.637
262.923
263.204
263.464
263.698
263.928
264.151
264.368
264.583
264.799
265.022
265.251
265.487
265.726
265.968
266.208
266.442
266.668
266.888
267.106
267.318
267.527
267.738
267.951
268.161
268.374
268.572
268.767
268.96
269.145
269.332
269.52
269.71
269.903
270.099
270.297
270.5
270.704
270.912
271.117
271.32
271.524
271.73
271.929
272.125
272.314
272.502
272.692
272.884
273.079
273.273
273.469
273.666
273.868
274.075
274.291
274.518
274.757
275.006
275.264
275.532
275.805
276.08
276.358
276.629
276.889
277.151
277.417
277.688
277.963
278.243
278.528
278.82
279.12
279.429
279.711
280.001
280.285
280.572
280.862
281.158
281.456
281.757
282.043
282.33
282.617
283.039
379.84
378.312
377.199
376.467
376.091
375.968
375.981
376.091
376.258
376.45
376.633
376.798
376.943
377.065
377.166
377.241
377.286
377.295
377.262
377.18
377.008
376.718
376.205
375.454
374.246
372.578
370.196
367.154
363.284
358.561
352.964
346.419
339.13
331.676
323.134
315.081
305.408
297.728
288.387
281.225
272.701
266.724
259.78
255.224
249.904
246.287
242.017
239.002
236.081
233.953
232.371
230.614
230.81
229.98
230.146
230.442
229.528
230.967
230.291
232.072
231.407
233.41
232.942
235.01
234.697
236.687
236.346
238.259
238.062
239.81
239.729
241.214
241.037
242.379
242.334
243.407
243.844
244.126
244.94
244.706
245.472
245.504
246.091
246.206
246.416
246.914
246.846
247.243
247.231
247.566
247.601
247.817
248.035
248.055
248.165
248.288
248.365
248.512
248.579
248.632
248.743
248.854
248.941
248.995
249.084
249.187
249.302
249.372
249.464
249.556
249.671
249.776
249.89
249.93
250.015
250.092
250.207
250.339
250.478
250.63
250.792
250.947
251.092
251.219
251.353
251.497
251.657
251.819
252.018
252.221
252.454
252.695
252.951
253.213
253.482
253.753
254.027
254.306
254.587
254.872
255.153
255.427
255.704
255.978
256.25
256.533
256.811
257.102
257.4
257.705
258.015
258.327
258.641
258.956
259.256
259.556
259.836
260.094
260.345
260.589
260.828
261.065
261.304
261.55
261.803
262.065
262.331
262.599
262.867
263.129
263.383
263.63
263.873
264.108
264.34
264.573
264.808
265.043
265.28
265.505
265.726
265.947
266.159
266.372
266.585
266.798
267.012
267.228
267.446
267.668
267.891
268.12
268.347
268.573
268.8
269.029
269.253
269.471
269.68
269.885
270.091
270.299
270.511
270.721
270.933
271.147
271.365
271.588
271.821
272.063
272.315
272.578
272.849
273.128
273.412
273.699
273.988
274.272
274.546
274.821
275.1
275.384
275.67
275.962
276.258
276.561
276.87
277.189
277.48
277.78
278.074
278.371
278.671
278.978
279.287
279.599
279.896
280.194
280.493
280.93
379.608
378.087
377.074
376.459
376.18
376.107
376.156
376.285
376.459
376.646
376.82
376.973
377.102
377.206
377.284
377.33
377.336
377.293
377.183
376.982
376.612
376.022
375.037
373.652
371.603
368.905
365.317
360.899
355.574
349.308
342.15
334.282
325.317
317.179
307.412
298.925
288.707
280.864
271.697
265.026
257.624
252.359
246.834
242.856
238.479
235.115
231.742
229.762
227.938
227.383
226.028
225.662
225.267
224.057
224.847
223.77
225.513
226.368
226.096
228.405
228.043
230.595
230.303
232.844
232.61
234.937
234.645
236.936
236.918
238.945
238.827
240.583
240.444
242.006
242.102
243.379
243.361
244.176
244.946
244.829
245.673
245.793
246.418
246.349
246.844
247.328
247.244
247.687
247.717
248.065