/*--------------------------------*- C++ -*----------------------------------*\
| =========                 |                                                 |
| \\      /  F ield         | OpenFOAM: The Open Source CFD Toolbox           |
|  \\    /   O peration     | Version:  2312                                  |
|   \\  /    A nd           | Website:  www.openfoam.com                      |
|    \\/     M anipulation  |                                                 |
\*---------------------------------------------------------------------------*/
FoamFile
{
    version     2.0;
    format      ascii;
    arch        "LSB;label=32;scalar=64";
    class       volScalarField;
    location    "0.001";
    object      k;
}
// * * * * * * * * * * * * * * * * * * * * * * * * * * * * * * * * * * * * * //

dimensions      [0 2 -2 0 0 0 0];

internalField   nonuniform List<scalar> 
48128
(
15.6348
15.5322
18.6135
18.5315
16.6351
13.7869
10.6948
7.81028
4.98791
10.6959
66.9343
217.444
394.793
550.908
684.147
798.112
897.897
987.85
1070.92
1149.32
1224.81
1297.7
1368.41
1437.37
1504.94
1571.5
1637.47
1703.39
1769.9
1836.85
1903.92
1973.33
2042.88
2114.5
2186.55
2263.92
2344.68
2427.48
2508.38
2590.66
2671.39
2754.4
2833.54
2917.45
2990.76
3062.09
3117.79
3158.41
3172.05
3196.38
3204.3
3216.7
3194.62
3219.03
3283.45
3331.61
3375.45
3405.38
3425.98
3433.66
3432.19
3424.84
3412.16
3395.57
3375.12
3351.44
3320.22
3286.37
3250.49
3213.4
3177
3138.32
3099.73
3059.23
3020.16
2979.52
2940.38
2900.1
2860.55
2822.14
2782.58
2746.34
2710.92
2678.31
2646.04
2614.37
2585.08
2555.94
2528.82
2502.91
2477.76
2454.41
2431.75
2410.88
2390.99
2371.76
2353.3
2336.01
2319.38
2304.12
2290.05
2276.51
2263.71
2251.59
2240.11
2229.11
2218.61
2208.71
2199.65
2190.83
2182.5
2174.46
2166.87
2159.87
2153.3
2146.92
2140.78
2134.67
2128.38
2123.62
2119.45
2115.22
2112.14
2108.67
2104.92
2100.99
2096.93
2092.78
2088.74
2084.9
2081.38
2078
2075.09
2072.68
2070.42
2068.28
2066.13
2063.97
2061.64
2059.15
2056.43
2053.48
2050.36
2047.13
2043.79
2040.39
2036.98
2033.55
2030.08
2026.55
2023.05
2019.62
2016.59
2013.58
2011.28
2008.92
2007.18
2005.61
2003.85
2001.79
1999.44
1996.86
1994.19
1991.49
1988.77
1986.39
1984.11
1982.02
1980.02
1978
1975.89
1973.61
1971.13
1968.43
1965.49
1962.28
1958.85
1955.52
1952.1
1949.28
1946.32
1944.04
1942.32
1940.8
1939.33
1937.82
1936.17
1934.33
1932.19
1929.65
1926.71
1923.42
1919.86
1916.12
1912.15
1908.16
1904.47
1900.99
1897.64
1894.38
1891.08
1887.74
1884.34
1880.84
1877.2
1873.39
1869.35
1865.01
1860.34
1855.29
1849.87
1844.14
1838.14
1831.96
1825.62
1819.18
1812.99
1807.21
1802.02
1797.21
1792.48
1787.68
1782.72
1777.48
1771.79
1765.48
1759.01
1752.07
1746.47
1741.37
1737.07
1733.19
1729.3
1725.26
1721.16
1716.88
1712.66
1708.59
1704.4
1699.01
31.3574
16.3001
8.96051
6.04901
4.58808
4.36783
6.54821
16.1616
39.8437
100.36
216.716
391.312
589.775
778.487
961.158
1136.99
1307.76
1477.02
1647.26
1821.8
2003.69
2195.13
2395.86
2608.2
2831.91
3067.77
3317.27
3578.1
3851.24
4139.66
4432.46
4742.75
5056.97
5380.88
5704.26
6033.17
6362.45
6696.53
7022.89
7343.82
7653.35
7957.6
8240.55
8505.35
8741.29
8972.42
9172.98
9346.39
9446.25
9553.88
9626.53
9698.78
9703.85
9704.74
9701.98
9664.44
9600.93
9510.99
9398.6
9263.09
9109.81
8943.09
8767.33
8585.94
8399.37
8210.23
8016.96
7829.66
7640.8
7450.29
7263.37
7074.05
6888.77
6702.7
6523.69
6343.35
6170
5996.56
5828.51
5667.01
5507.73
5356.57
5211.1
5071.9
4937.78
4807.24
4683.54
4562.93
4449.56
4340.37
4236.54
4137.47
4041.81
3951.17
3864.81
3782.65
3705.28
3631.16
3560.02
3491.89
3427.43
3366.19
3308.49
3253.94
3202.28
3153.45
3106.91
3062.27
3019.93
2979.69
2941.65
2905.21
2870.05
2836.45
2804.37
2773.71
2744.32
2715.39
2686.69
2658.46
2631.93
2607.49
2584.12
2563.38
2544.16
2525.96
2508.46
2491.19
2474.12
2457.21
2440.56
2424.12
2407.93
2392.59
2377.81
2363.93
2350.75
2338.6
2326.68
2315.04
2303.89
2293.27
2283.11
2273.41
2264.29
2255.31
2246.59
2238.1
2229.66
2221.3
2212.9
2204.5
2196.26
2188.11
2180.59
2173.32
2166.49
2160.39
2154.84
2149.56
2144.75
2139.96
2135.06
2129.94
2124.59
2119.08
2113.4
2108.17
2102.91
2098.31
2094.02
2090.15
2086.73
2083.78
2081.26
2078.96
2076.59
2074.09
2071.41
2068.53
2065.45
2062.07
2058.58
2055.03
2051.45
2047.93
2044.51
2041.3
2038.35
2035.74
2033.22
2030.79
2028.32
2025.9
2023.38
2020.71
2018.1
2015.65
2013.24
2010.97
2008.79
2006.54
2004.23
2001.8
1999.19
1996.39
1993.43
1990.37
1987.28
1984.17
1981.11
1978.1
1975.28
1972.55
1969.97
1967.21
1964.02
1960.3
1955.96
1951.11
1945.92
1940.47
1935.03
1929.62
1924.38
1919.52
1914.97
1910.33
1905.29
1899.8
1893.9
1887.84
1881.83
1875.62
1869.68
1864.04
1858.45
1853.42
1848.18
1841.23
41.4287
22.6273
13.7236
7.91088
7.05143
13.407
37.6747
89.8388
179.992
332.117
567.037
866.867
1218.4
1561.9
1888.44
2194.08
2483.64
2762.04
3035.54
3308.18
3584.81
3871.1
4166.46
4474.51
4795.34
5129.88
5479.08
5840.6
6216.7
6605.79
7002.3
7414.24
7832.17
8262.09
8693.85
9133.89
9575.83
10024.2
10462.5
10887.8
11288.5
11677.3
12037.9
12373.7
12657.5
12927.3
13152
13344.5
13436.5
13516.9
13555.6
13577.5
13534.6
13464.6
13376.7
13246.1
13083.9
12891.2
12673
12429.7
12167.5
11891.6
11606.2
11316.5
11021.8
10728.8
10430.5
10137.4
9843.68
9552.25
9266.08
8983.57
8708.17
8437.63
8177.12
7919.3
7671.91
7428.61
7193.89
6969.04
6750.57
6542.09
6341.72
6150.1
5966.83
5788.58
5619.09
5454.22
5298.54
5148.46
5005.95
4869.49
4738.38
4614.21
4495.46
4382.1
4274.97
4171.89
4073.02
3978.21
3887.97
3801.82
3720.18
3642.39
3568.28
3497.84
3430.39
3365.83
3304.12
3245.22
3189.26
3135.62
3083.81
3034.12
2986.29
2940.38
2896.07
2852.75
2809.85
2768.18
2728.09
2690.52
2654.09
2620.68
2589.15
2559.12
2530.34
2502.34
2475.03
2448.29
2422.16
2396.49
2371.35
2347.1
2323.68
2301.16
2279.54
2258.89
2239.12
2220.16
2202.02
2184.63
2167.92
2151.97
2136.71
2121.98
2107.55
2093.62
2079.84
2066.4
2053.03
2039.89
2026.87
2014.13
2001.79
1989.97
1978.39
1967.54
1957.55
1948.02
1938.99
1930.16
1921.44
1912.71
1903.95
1895.1
1886.29
1877.96
1869.57
1861.94
1854.63
1847.73
1841.34
1835.46
1830.14
1825.2
1820.47
1815.66
1810.92
1806.06
1801.25
1796.19
1791.16
1786.26
1781.42
1776.68
1772.01
1767.57
1763.36
1759.49
1755.85
1752.33
1749
1745.76
1742.66
1739.41
1736.19
1733.22
1730.37
1727.74
1725.25
1722.81
1720.44
1718.13
1715.78
1713.42
1711.08
1708.81
1706.61
1704.51
1702.43
1700.44
1698.66
1697.13
1695.82
1694.49
1692.89
1690.88
1688.4
1685.51
1682.28
1678.81
1675.21
1671.59
1667.98
1664.85
1661.71
1658.49
1654.86
1650.89
1646.4
1641.69
1636.85
1631.76
1626.63
1621.63
1616.51
1611.75
1606.78
1600.18
48.3732
28.0323
18.4329
13.1567
22.8264
57.5042
128.689
244.5
430.916
717.912
1108.41
1559.04
2015.87
2437.9
2826.56
3184.77
3523.33
3850.34
4172.94
4495.8
4825.08
5165.5
5518.45
5887.6
6273.54
6676.59
7097.46
7535.9
7991.67
8465.76
8951.85
9453.38
9964.56
10493.1
11025.3
11562.1
12097
12637.9
13168.9
13680.6
14150.6
14595.5
15002.1
15379
15680
15951.4
16161.9
16327.5
16382.1
16400.8
16370.8
16307
16181
16010.7
15811.2
15570.5
15297.4
14994.4
14667
14319.6
13957.3
13586.4
13207.8
12830.4
12449.6
12077.5
11703.8
11340.6
10979.8
10627.5
10280.2
9945.02
9617.94
9301.54
8996.75
8699.86
8415.32
8139.26
7873.61
7619.42
7375.48
7141.02
6915.94
6700.17
6495.25
6295.97
6105.89
5921.61
5747.03
5578.72
5419.13
5266.03
5119.41
4980.52
4847.41
4720.35
4600.2
4484.17
4372.85
4265.85
4163.79
4066.16
3973.43
3884.64
3799.73
3718.88
3641.13
3566.79
3495.34
3427.2
3362.35
3300.05
3239.95
3182.05
3126.24
3072.56
3020.53
2969.68
2919.23
2870.4
2823.05
2778.48
2735.04
2694.85
2656.74
2620.35
2585.4
2551.5
2518.5
2486.27
2454.78
2423.87
2393.63
2364.28
2335.93
2308.47
2282.05
2256.59
2232.07
2208.51
2185.89
2164.15
2143.13
2123.03
2103.65
2084.99
2066.69
2049.1
2031.74
2014.97
1998.26
1982.05
1965.94
1950.26
1934.86
1920.03
1905.46
1891.53
1878.46
1865.94
1853.95
1842.29
1830.85
1819.52
1808.34
1797.11
1786.12
1775.32
1764.91
1754.89
1745.41
1736.37
1727.87
1719.87
1712.41
1705.34
1698.59
1691.8
1685.24
1678.57
1672.13
1665.56
1659.15
1652.99
1646.99
1641.19
1635.51
1630.06
1624.84
1619.95
1615.23
1610.65
1606.25
1601.95
1597.94
1593.84
1589.83
1586.16
1582.65
1579.43
1576.38
1573.48
1570.71
1568.03
1565.41
1562.88
1560.47
1558.25
1556.19
1554.31
1552.52
1550.87
1549.42
1548.21
1547.3
1546.56
1545.69
1544.56
1543.12
1541.38
1539.38
1537.17
1534.81
1532.4
1529.97
1527.85
1525.72
1523.49
1520.93
1518.11
1514.8
1511.23
1507.44
1503.36
1499.12
1494.77
1490.29
1485.93
1481.31
1475.16
54.0008
39.4547
29.9022
31.4185
69.8385
147.88
275.494
478.957
791.48
1219.21
1722.71
2213.06
2678.93
3116.56
3529.2
3919.25
4293.36
4658.64
5021.49
5386.6
5761.32
6150
6555.36
6980.45
7426.84
7896.3
8388.14
8902.92
9439.33
9999.33
10574.9
11167.8
11771.6
12394.3
13023
13652.5
14270.3
14888.1
15494.4
16074.9
16593.3
17064.8
17480.6
17853.8
18127.9
18345.9
18485.1
18562.5
18531.6
18438.7
18284.2
18076
17818
17498.2
17142
16770.6
16373.1
15956.4
15519.7
15078.2
14628.5
14182.1
13732.3
13291.1
12853.8
12429.3
12012.4
11611.7
11217
10840.4
10466.6
10114.8
9770.59
9442.06
9124.58
8819.8
8527.7
8247.65
7978.45
7721.38
7476.89
7240.17
7013.4
6795.13
6589.5
6389.68
6198.92
6014.34
5838.96
5669.78
5509.55
5355.48
5208.38
5068.62
4934.48
4806.64
4685.78
4568.84
4456.59
4348.22
4244.64
4145.27
4050.7
3959.7
3872.42
3789.19
3708.83
3632.07
3557.85
3487.12
3419.73
3354.87
3292.39
3231.93
3173.61
3117.45
3062.7
3009.33
2956.17
2904.71
2854.46
2807
2760.68
2717.42
2676.49
2637.45
2599.82
2563.41
2527.96
2493.37
2459.52
2426.31
2393.78
2362.02
2331.26
2301.35
2272.53
2244.63
2217.71
2191.81
2166.85
2142.83
2119.55
2097.21
2075.55
2054.66
2034.22
2014.57
1995.21
1976.63
1958.12
1940.25
1922.55
1905.27
1888.21
1871.68
1855.39
1839.72
1824.83
1810.5
1796.71
1783.34
1770.25
1757.42
1744.76
1732.15
1719.85
1707.52
1695.81
1684.32
1673.43
1663.03
1653.17
1643.79
1634.91
1626.43
1618.28
1610.14
1602.26
1594.27
1586.64
1578.9
1571.37
1564.17
1557.25
1550.61
1544.18
1538.01
1532.05
1526.46
1521.02
1515.68
1510.53
1505.43
1500.66
1495.83
1491.13
1486.78
1482.64
1478.84
1475.24
1471.85
1468.62
1465.5
1462.53
1459.69
1457.04
1454.66
1452.52
1450.64
1448.91
1447.37
1446.02
1444.91
1444.08
1443.56
1443
1442.31
1441.43
1440.37
1439.15
1437.79
1436.32
1434.81
1433.29
1432.01
1430.71
1429.29
1427.58
1425.66
1423.32
1420.73
1417.88
1414.75
1411.38
1407.82
1404.05
1400.23
1396.11
1390.59
59.1262
59.8176
57.0687
73.0963
150.637
275.723
475.504
787.285
1219.49
1730.28
2232.42
2716.27
3181.31
3627.92
4057.35
4471.55
4875.13
5273.15
5670.69
6073.5
6489.27
6922.67
7376.65
7854.54
8359.31
8893.99
9457.22
10048.5
10664.8
11310
11974.9
12658.3
13351.2
14058.9
14774.1
15486.5
16171.3
16839.9
17488.3
18097.3
18623.7
19071.9
19434.6
19723.9
19891.3
19961.1
19931.6
19822
19643.8
19374.8
19042
18644.1
18225
17730.1
17200.3
16680.6
16123.2
15555.4
14981.6
14435
13899.3
13380.4
12883.4
12395.2
11936.6
11488.4
11068.3
10671
10287.2
9935.67
9583.25
9266.45
8952.73
8664.74
8383.48
8123
7869.88
7632.85
7403.28
7184.58
6978.41
6774.79
6581.55
6392.78
6215.6
6040.75
5873.47
5710.58
5554.73
5404.12
5261.19
5122.73
4991.52
4866.07
4745.61
4630.81
4522.15
4416.68
4315.39
4216.71
4121.92
4030.43
3943.07
3858.47
3776.97
3699.08
3623.46
3551.34
3481.04
3414.04
3349.94
3288.28
3228.81
3171.09
3115.28
3061.41
3008.51
2957.2
2905.78
2855.83
2806.67
2759.99
2714.46
2671.43
2630.79
2592.22
2554.93
2518.96
2483.88
2449.67
2416.1
2383.14
2350.79
2319
2288.14
2257.98
2228.86
2200.55
2173.23
2146.85
2121.39
2096.85
2073.04
2050.06
2027.68
2006.02
1984.9
1964.52
1944.57
1925.41
1906.41
1888.08
1869.95
1852.22
1834.65
1817.51
1800.55
1784.2
1768.49
1753.29
1738.64
1724.46
1710.63
1697.12
1683.8
1670.67
1657.77
1644.8
1632.41
1620.25
1608.66
1597.53
1586.91
1576.75
1567.07
1557.78
1548.83
1539.91
1531.25
1522.46
1514.08
1505.61
1497.31
1489.37
1481.81
1474.61
1467.69
1461.07
1454.67
1448.63
1442.8
1437
1431.4
1425.81
1420.54
1415.22
1410.02
1405.16
1400.53
1396.27
1392.22
1388.43
1384.81
1381.33
1378.03
1374.9
1372.01
1369.43
1367.15
1365.19
1363.44
1361.92
1360.59
1359.53
1358.7
1358.23
1357.82
1357.34
1356.77
1356.14
1355.44
1354.67
1353.86
1353.02
1352.24
1351.67
1351.08
1350.38
1349.4
1348.26
1346.75
1345.03
1343.07
1340.85
1338.35
1335.6
1332.6
1329.47
1325.97
1321.27
66.6002
90.4071
102.09
139.615
257.791
438.427
725.882
1136.19
1636.04
2136.36
2625.36
3099.34
3560.85
4011.43
4452.19
4884.9
5311.95
5737.09
6164.1
6599.8
7051.93
7525.38
8023.98
8551.63
9112.25
9710.09
10343.3
11009.3
11703.2
12430.5
13180
13947.9
14721.8
15499
16280
17050.8
17777
18455
19086.5
19637.3
20081.7
20400.4
20595
20693.7
20668.6
20512.5
20245.6
19868.9
19421.1
18832.1
18178.6
17462
16778.8
16048.9
15296.8
14584
13882.7
13178.3
12538.9
11916.7
11371.4
10830.2
10361.9
9888.55
9484.32
9076.42
8724.57
8391.95
8086.05
7818.39
7549.18
7324.34
7096.54
6902.77
6706.18
6538.37
6368.76
6221.1
6072.75
5936.3
5807.18
5675.68
5554.82
5431.55
5316.56
5199.64
5087.14
4975.74
4866.32
4760.19
4657.6
4556.48
4461.07
4366.51
4275.26
4187.68
4104.12
4022.29
3943.14
3864.71
3788.9
3714.96
3643.75
3574.18
3506.55
3441.76
3378.17
3317.82
3258.12
3201.16
3146.15
3093.48
3042.33
2992.66
2944.1
2897.24
2850.77
2806.07
2760.87
2716.55
2672.38
2630.15
2588.92
2549.49
2512.18
2477.03
2442.92
2410.26
2378.19
2346.99
2316.27
2286.04
2256.23
2226.74
2197.98
2169.66
2142.25
2115.43
2089.57
2064.46
2040.21
2016.82
1994.06
1971.92
1950.35
1929.33
1908.93
1889.1
1869.9
1851.29
1833.04
1815.37
1797.89
1780.78
1763.77
1747.03
1730.45
1714.28
1698.73
1683.52
1668.85
1654.66
1640.92
1627.41
1614.29
1601.36
1588.54
1575.74
1563.34
1551.24
1539.57
1528.29
1517.49
1507.12
1497.21
1487.68
1478.49
1469.34
1460.41
1451.37
1442.69
1433.91
1425.29
1417.01
1409.16
1401.7
1394.58
1387.79
1381.23
1375.01
1369.08
1363.13
1357.4
1351.62
1346.14
1340.61
1335.15
1330.01
1325.11
1320.57
1316.26
1312.21
1308.37
1304.65
1301.14
1297.82
1294.76
1292.05
1289.67
1287.65
1285.9
1284.41
1283.11
1282.1
1281.29
1280.85
1280.53
1280.21
1279.84
1279.5
1279.17
1278.84
1278.52
1278.24
1278.05
1278.06
1278.1
1278.05
1277.73
1277.28
1276.52
1275.59
1274.46
1273.09
1271.45
1269.53
1267.33
1264.96
1262.18
1258.45
77.0022
136.102
163.373
227.441
389.408
635.321
1004.39
1475.16
1966.43
2451.06
2923.55
3385.58
3840.84
4291.12
4738.35
5183.51
5627.8
6073.82
6524.83
6987.74
7470.09
7978.33
8517.53
9091.41
9704.13
10361.5
11060.9
11798.6
12565.1
13367.5
14192.3
15031.4
15868.7
16691.4
17500.9
18272
18973.8
19571.7
20079.3
20450.5
20708.3
20769.1
20685.1
20425.3
20029.4
19432.1
18726.1
17913.6
17088.4
16151
15189
14207.2
13293.4
12443.4
11622.9
10794
10125.3
9449.11
8896.46
8336.48
7889.64
7435.04
7072.75
6701.64
6406.49
6104.78
5862.92
5628.55
5429.73
5257.15
5091.11
4961.27
4828.65
4725.35
4617.99
4535.4
4449.8
4383.66
4314.85
4257.39
4202
4143.87
4093.72
4040.53
3993.75
3945.71
3900.11
3854.2
3807.5
3761.61
3715.19
3668.95
3624.02
3578.96
3534.14
3489.12
3443.92
3398.52
3352.66
3305.86
3258.3
3210.61
3163.15
3116.01
3069.27
3024
2979.31
2936.57
2893.72
2852.37
2811.93
2773.12
2735.21
2698.2
2661.39
2625.65
2590
2555.63
2520.82
2485.75
2450.38
2416.16
2382.36
2349.83
2318.73
2289.6
2261.36
2234.47
2208
2182.18
2156.72
2131.52
2106.5
2081.49
2056.92
2032.51
2008.69
1985.22
1962.51
1940.37
1918.94
1898.25
1877.96
1858.18
1838.85
1819.9
1801.5
1783.55
1766.26
1749.43
1733.08
1717.15
1701.44
1685.96
1670.5
1655.18
1639.88
1624.8
1610.29
1595.97
1582.11
1568.63
1555.74
1542.96
1530.77
1518.69
1506.72
1494.8
1483.12
1471.67
1460.54
1449.72
1439.32
1429.28
1419.68
1410.43
1401.54
1392.68
1384
1375.21
1366.72
1358.1
1349.61
1341.41
1333.64
1326.27
1319.25
1312.61
1306.19
1300.08
1294.32
1288.54
1282.96
1277.32
1271.93
1266.47
1261.03
1255.87
1250.93
1246.35
1241.99
1237.89
1234.01
1230.26
1226.7
1223.35
1220.26
1217.54
1215.16
1213.18
1211.49
1210.08
1208.89
1207.97
1207.25
1206.89
1206.7
1206.54
1206.35
1206.26
1206.25
1206.29
1206.38
1206.58
1206.89
1207.37
1207.96
1208.6
1208.79
1209.02
1208.91
1208.73
1208.39
1207.84
1207.02
1205.93
1204.55
1202.98
1200.96
1198.32
87.7019
190.97
237.356
333.705
544.148
853.791
1279.68
1750.59
2223.84
2688.43
3143.04
3591.13
4036.98
4482.96
4931.48
5383
5837.85
6298.31
6767.2
7250.84
7757.01
8294.86
8870.2
9486.3
10146.7
10858.4
11618.9
12423.6
13255.7
14121
15003
15887
16745.9
17561.7
18327.3
18994.8
19566.5
19961.8
20228
20246.2
20102.9
19701
19116.9
18332.6
17464.1
16422.9
15311.6
14158.4
13056.9
11987.4
11007.2
10054.2
9184.16
8411.98
7736.52
7039.38
6506.81
5964.87
5552.79
5129.99
4810.48
4484.95
4241.49
3992.58
3805.88
3614.41
3470.77
3326.64
3216.67
3118.14
3033.49
2969.75
2906.75
2862
2815.33
2784.74
2753.24
2734.74
2715.31
2703.98
2693.32
2681.06
2673.78
2665.2
2661.34
2657.2
2654.79
2652.18
2648.99
2646.05
2642.46
2638.7
2634.88
2630.37
2624.78
2617.79
2609.71
2600.9
2590.95
2579.18
2565.2
2549.43
2532.06
2513.4
2493.69
2473.58
2453.03
2431.89
2410.07
2387.99
2365.74
2343.98
2322.56
2301.04
2279.34
2257.8
2236.11
2214.76
2192.96
2170.3
2146.9
2123.32
2099.47
2076.39
2054.02
2033.05
2012.89
1993.74
1975
1956.57
1938.37
1920.14
1901.81
1883.3
1864.74
1846.07
1827.56
1809.11
1791.07
1773.42
1756.19
1739.58
1723.12
1707.08
1691.29
1675.74
1660.58
1645.78
1631.47
1617.58
1604.2
1591.04
1578.12
1565.21
1552.25
1539.28
1526.18
1513.12
1500.44
1487.86
1475.62
1463.62
1452.25
1440.95
1430.31
1419.76
1409.34
1398.94
1388.66
1378.51
1368.52
1358.74
1349.3
1340.14
1331.36
1322.89
1314.78
1306.74
1298.79
1290.74
1282.9
1274.95
1267.05
1259.36
1252.06
1245.15
1238.57
1232.38
1226.43
1220.74
1215.43
1210.13
1205
1199.81
1194.8
1189.72
1184.59
1179.69
1174.95
1170.56
1166.39
1162.47
1158.76
1155.18
1151.78
1148.58
1145.65
1143.07
1140.84
1139.02
1137.52
1136.28
1135.3
1134.57
1134.06
1133.88
1133.88
1133.92
1133.99
1134.16
1134.45
1134.84
1135.33
1135.95
1136.72
1137.68
1138.77
1139.97
1140.73
1141.6
1142.11
1142.65
1143.05
1143.28
1143.22
1142.98
1142.43
1141.67
1140.45
1138.98
97.7293
249.498
318.8
454.049
713.145
1074.25
1510.12
1965.52
2417.31
2860.13
3295.58
3727.72
4160.99
4598.37
5042.86
5494.63
5953.71
6422.06
6902.4
7400.8
7925.11
8487.36
9094.51
9749.12
10452.9
11214
12029.8
12893.6
13778.8
14680.5
15581.8
16460.5
17266.3
17975.8
18594.2
19048.5
19332.3
19306.8
19103.9
18634.8
17983.8
17057.4
15968.3
14747.4
13490.5
12286.2
11074.2
9982.86
8904.66
7988.98
7160.9
6380.5
5712.84
5089.07
4609.22
4116.61
3744.47
3372.84
3101.82
2828.63
2629.36
2429.63
2286.14
2142.04
2037.68
1932.38
1855.64
1777.83
1724.08
1669.35
1631.83
1597.2
1571.6
1552.03
1532.63
1523.82
1514.59
1513.69
1514.9
1519.19
1525.41
1533.73
1544.65
1556.54
1570.23
1584.84
1600.74
1616.92
1634
1651.65
1669.24
1687.46
1706.72
1723.63
1740.72
1756.46
1771.98
1787.67
1802.36
1815.69
1826.42
1835.72
1842.34
1847.54
1850.32
1852.31
1852.51
1851.84
1849.99
1847.27
1843.78
1839.83
1835.35
1830.31
1824.65
1818.58
1812.08
1805.24
1797.69
1788.81
1778.44
1767
1754.77
1742.25
1729.95
1718.53
1707.69
1697.54
1687.72
1677.96
1668.18
1658.22
1647.95
1637.23
1626.06
1614.46
1602.53
1590.34
1578.08
1566.02
1554.09
1542.58
1531.07
1519.83
1508.66
1497.59
1486.72
1476.12
1465.81
1455.81
1446.25
1436.81
1427.46
1417.98
1408.36
1398.55
1388.49
1378.29
1368.23
1358.12
1348.23
1338.45
1329.2
1320.11
1311.59
1303.21
1294.95
1286.67
1278.39
1270.12
1261.88
1253.71
1245.74
1237.96
1230.51
1223.31
1216.44
1209.66
1202.92
1196.07
1189.35
1182.52
1175.67
1168.93
1162.5
1156.41
1150.64
1145.22
1140.05
1135.1
1130.52
1125.99
1121.61
1117.17
1112.84
1108.42
1103.92
1099.54
1095.27
1091.31
1087.57
1084.06
1080.76
1077.58
1074.56
1071.72
1069.14
1066.9
1064.99
1063.49
1062.32
1061.39
1060.74
1060.31
1060.15
1060.25
1060.5
1060.85
1061.25
1061.77
1062.42
1063.2
1064.1
1065.16
1066.38
1067.8
1069.39
1071.1
1072.44
1073.9
1075.07
1076.28
1077.37
1078.43
1079.16
1079.77
1079.96
1080.05
1079.62
1079.41
108.996
309.891
405.16
580.713
883.574
1264.31
1693.48
2127.13
2554.99
2975.24
3390.13
3804.09
4221.55
4646.48
5082.04
5528.5
5985.78
6455.78
6941.92
7450.39
7988.43
8570.85
9206.48
9896.82
10641.9
11448
12308.5
13211.2
14125.3
15018.2
15866.5
16655
17320.4
17794.5
18098
18130.3
17977.8
17501.7
16789.4
15798.8
14662.6
13367.8
12021.3
10747.2
9453.25
8378.6
7293.28
6410.67
5532
4840.71
4221.3
3676.93
3236.09
2816.19
2510.31
2216.09
1991.93
1780.8
1623.33
1474.37
1365.35
1257.04
1181.02
1104.42
1049.57
994.405
954.44
913.888
885.694
856.555
837.247
816.601
805.051
792.781
783.672
778.74
773.19
772.798
773.619
776.428
780.815
787.658
796.429
806.335
817.884
830.56
844.776
859.752
876.432
894.361
913.316
933.769
955.55
977.528
1000.33
1023.59
1047.33
1071.7
1095.52
1119.61
1141.81
1163.9
1183.46
1202.5
1219.23
1235.56
1249.85
1264.1
1276.8
1289.3
1300.53
1311.88
1321.63
1331.15
1339.28
1347.09
1353.77
1360.08
1364.79
1368.56
1370.03
1369.91
1369.06
1367.57
1365.75
1364.18
1362.9
1362.1
1361.48
1360.81
1360.02
1358.9
1357.26
1354.81
1351.52
1347.42
1342.62
1337.25
1331.49
1325.54
1319.47
1313.59
1307.66
1301.79
1295.93
1290.04
1284.18
1278.42
1272.82
1267.34
1262.15
1256.98
1251.76
1246.33
1240.64
1234.6
1228.15
1221.45
1214.6
1207.63
1200.65
1193.68
1187.08
1180.74
1174.87
1169.16
1163.55
1157.86
1152.08
1146.21
1140.24
1134.19
1128.16
1122.21
1116.5
1111
1105.78
1100.67
1095.54
1090.33
1085.13
1079.84
1074.47
1069.09
1063.92
1059.01
1054.38
1050.05
1045.96
1042.06
1038.49
1035.02
1031.66
1028.26
1024.88
1021.4
1017.82
1014.23
1010.7
1007.43
1004.34
1001.48
998.806
996.267
993.839
991.572
989.566
987.867
986.466
985.459
984.781
984.299
984.12
984.172
984.412
984.905
985.58
986.366
987.213
988.176
989.265
990.499
991.859
993.391
995.09
997.003
999.098
1001.33
1003.25
1005.29
1007.12
1009.01
1010.81
1012.67
1014.18
1015.65
1016.63
1017.69
1017.99
1018.96
126.351
370.916
493.65
705.725
1033.16
1417.72
1830.46
2240.74
2643.96
3040.87
3433.9
3827.13
4226.44
4636.97
5060.47
5497.13
5947.38
6413.52
6900.54
7415.58
7964.8
8565.16
9228.11
9953.59
10736.4
11576.8
12465.7
13376.5
14267.3
15083.4
15788.6
16361.1
16736.6
16839.7
16721.7
16339.6
15740
14795
13641.1
12317.8
10936.5
9644.7
8330.4
7224.25
6105.04
5242.81
4409.34
3776.9
3181.16
2727.23
2322.24
1997.81
1734.43
1501.09
1327.68
1169.28
1051.83
943.51
863.335
789.681
735.753
683.33
645.513
608.208
580.496
552.637
531.51
510
493.795
477.243
465.049
452.166
443.665
434.401
428.089
422.82
417.215
414.001
410.804
409.192
408.725
409.605
411.316
413.757
417.188
421.364
426.536
432.417
439.439
447.481
456.542
466.868
478.273
490.566
504.028
518.531
534.176
550.821
568.16
586.295
604.935
624.003
642.931
662.079
681.16
700.507
719.372
738.37
756.996
775.84
794.313
813.189
830.906
848.865
865.972
883.195
899.097
914.945
928.564
941.928
953.141
963.107
971.782
979.691
987.076
994.544
1002.04
1009.69
1017.47
1025.1
1032.43
1039.19
1045.27
1050.33
1054.43
1057.42
1059.56
1060.87
1061.61
1062.02
1062.01
1062.03
1061.89
1061.65
1061.35
1060.95
1060.49
1059.94
1059.3
1058.59
1057.95
1057.24
1056.41
1055.28
1053.78
1051.8
1049.28
1046.35
1043.09
1039.59
1035.95
1032.18
1028.65
1025.38
1022.5
1019.75
1017.05
1014.28
1011.33
1008.18
1004.81
1001.24
997.533
993.75
990.108
986.611
983.351
980.2
977.015
973.748
970.43
966.998
963.441
959.779
956.186
952.776
949.58
946.62
943.872
941.284
938.992
936.82
934.722
932.592
930.417
928.13
925.703
923.186
920.635
918.257
916.059
914.056
912.226
910.536
908.926
907.44
906.212
905.26
904.552
904.206
904.187
904.328
904.703
905.321
906.157
907.227
908.466
909.815
911.22
912.732
914.362
916.134
918.03
920.098
922.33
924.778
927.416
930.189
932.724
935.377
937.895
940.48
943.023
945.66
947.969
950.296
952.117
954.075
955.225
957.437
147.608
427.938
577.313
816.004
1155.57
1534.97
1926.79
2311.96
2690.05
3062.46
3433.23
3808.34
4189.52
4581.52
4987.87
5409.91
5848.9
6307.45
6792.62
7313.75
7875.47
8495.8
9186.01
9942.88
10758.9
11621.4
12506.7
13374.8
14163.9
14797.8
15251.8
15513.1
15503.8
15244.8
14737.6
13913.6
12893.3
11635.7
10273.8
8932.03
7562.98
6443.76
5334.84
4475.56
3657.68
3048.31
2499.61
2098.02
1747.85
1484.56
1254.78
1085.72
942.238
827.865
737.596
661.225
605.468
556.677
520.219
486.406
460.154
434.727
414.985
395.341
379.699
363.854
350.965
337.749
327.026
316.076
307.381
298.404
291.334
284.071
278.343
273.216
267.947
263.847
259.676
256.267
253.222
250.89
249.34
247.771
247.08
246.314
246.347
246.579
247.257
248.405
250.073
252.352
255.112
258.385
262.298
266.816
272.022
277.842
284.232
291.281
298.965
307.221
315.968
325.291
335.218
345.744
356.776
368.388
380.616
393.554
407.131
421.411
436.157
451.575
467.612
484.237
501.186
518.516
535.122
551.831
567.445
582.319
596.364
609.918
623.12
636.46
649.831
663.417
677.123
690.926
704.37
717.223
729.406
740.694
751.112
760.357
768.716
776.143
782.83
789.083
794.711
800.271
805.55
810.504
815.431
819.994
824.423
828.595
832.725
836.59
840.502
844.094
847.726
850.8
853.566
855.737
857.226
858.209
858.671
858.732
858.665
858.436
858.286
858.309
858.469
858.739
859.098
859.418
859.359
859.053
858.437
857.511
856.325
854.977
853.594
852.297
851.184
850.162
849.118
847.978
846.751
845.375
843.823
842.114
840.334
838.637
837.087
835.692
834.471
833.394
832.562
831.852
831.198
830.5
829.721
828.807
827.716
826.465
825.118
823.824
822.688
821.727
820.911
820.238
819.636
819.117
818.838
818.833
818.989
819.407
820.104
821.036
822.178
823.528
825.08
826.852
828.78
830.813
832.895
835.066
837.34
839.744
842.26
844.94
847.771
850.814
854.059
857.444
860.643
863.943
867.185
870.493
873.8
877.222
880.372
883.559
886.257
889.096
891.147
894.681
168.094
473.088
649.589
906.363
1248.66
1617.13
1986.39
2346.24
2698.89
3050.41
3401.52
3754
4112.88
4483.44
4870.15
5275.26
5701.4
6151.63
6635.17
7165.99
7746.1
8387.94
9103.74
9890.91
10728.7
11586
12416.8
13163.8
13778.2
14150.8
14290.1
14181.8
13871.7
13222.8
12340.5
11170.5
9860.2
8529.07
7165.36
6001.98
4853.73
3973.08
3163.74
2571.16
2055.51
1684.91
1374.61
1152.18
972.284
834.199
721.572
639.346
565.67
514.16
467.98
434.2
407.955
385.453
367.171
348.857
334.087
318.972
306.211
293.177
282.405
271.34
262.08
252.598
244.8
236.85
230.334
223.66
218.043
212.388
207.51
203.264
198.956
195.434
191.875
188.552
185.436
182.723
180.502
178.285
176.572
174.807
173.308
171.884
170.638
169.662
168.79
168.377
167.996
167.851
167.964
168.262
168.801
169.544
170.51
171.714
173.171
174.85
176.745
178.912
181.381
184.16
187.23
190.657
194.491
198.8
203.583
208.894
214.725
221.188
228.35
236.244
244.797
253.936
263.542
273.57
283.874
294.373
305.038
315.909
327.1
338.773
350.993
363.864
377.328
391.349
405.743
420.358
435.076
449.324
463.087
476
488.258
499.783
510.664
521.177
531.153
540.953
550.56
559.794
568.988
577.735
586.311
594.553
602.851
610.788
618.791
626.338
633.941
640.992
647.673
653.765
659.134
663.845
667.879
671.428
674.648
677.595
680.578
683.648
686.839
690.121
693.469
696.806
699.817
702.374
704.527
706.247
707.656
708.789
709.863
710.948
712.098
713.31
714.579
715.632
716.559
717.305
717.817
718.11
718.3
718.479
718.694
718.983
719.391
719.939
720.655
721.495
722.421
723.249
723.942
724.511
724.861
724.971
724.932
724.902
724.955
725.134
725.448
725.889
726.423
727.041
727.799
728.751
729.9
731.266
732.86
734.672
736.676
738.866
741.236
743.809
746.522
749.335
752.189
755.114
758.12
761.24
764.454
767.816
771.31
775.013
778.903
782.932
786.815
790.783
794.759
798.801
802.88
807.086
811.085
815.137
818.73
822.46
825.44
830.348
184.683
505.86
706.923
974.907
1313.64
1666.25
2012.11
2348.16
2681.95
3011.3
3338.68
3667.32
4002.83
4350.96
4717.2
5105.06
5519.3
5964.26
6450.16
6994.22
7597.45
8270.12
9014.46
9822.17
10661.1
11473.3
12196.4
12761.8
13138.9
13186.9
13032.3
12590.3
11924.7
10927.8
9717.94
8378.95
6976.71
5764.25
4582.38
3674.71
2856.93
2265.87
1771.75
1424.62
1147.57
953.404
798.287
685.513
596.386
524.737
468.96
424.159
387.449
364.12
339.92
324.922
308.558
295.365
282.957
270.369
259.387
248.1
238.5
228.604
220.51
212.281
205.516
198.607
193.005
187.287
182.471
177.511
173.236
169.011
165.483
162.191
159.065
156.458
153.777
151.057
148.623
146.554
144.64
142.696
141.184
139.644
138.086
136.667
135.331
134.172
132.999
132.077
131.159
130.232
129.485
128.835
128.266
127.807
127.333
126.918
126.623
126.378
126.17
126.014
125.998
126.054
126.175
126.393
126.738
127.243
127.908
128.75
129.776
131.028
132.551
134.376
136.499
138.917
141.605
144.571
147.787
151.267
155.017
159.065
163.479
168.336
173.702
179.677
186.318
193.688
201.718
210.371
219.554
229.129
238.965
248.929
258.933
268.908
278.823
288.789
298.792
308.921
319.205
329.657
340.314
351.011
361.815
372.48
383.235
393.752
404.365
414.626
424.935
434.93
444.559
453.759
462.331
470.234
477.402
484.015
490.229
496.028
501.826
507.691
513.657
519.705
525.821
531.908
537.724
543.019
547.848
552.115
556.021
559.521
562.92
566.189
569.485
572.771
576.102
579.25
582.247
585.083
587.662
590.012
592.204
594.284
596.333
598.4
600.532
602.765
605.131
607.594
610.129
612.526
614.745
616.824
618.652
620.207
621.505
622.771
624.079
625.48
626.991
628.611
630.316
632.096
633.976
636
638.192
640.571
643.145
645.907
648.83
651.915
655.156
658.583
662.133
665.779
669.46
673.198
676.994
680.886
684.852
688.946
693.148
697.517
702.049
706.716
711.272
715.908
720.586
725.342
730.165
735.13
739.953
744.843
749.315
753.921
757.838
764.132
197.364
526.414
747.747
1021.07
1352.06
1685.31
2009.76
2329.78
2641.87
2947.2
3249.9
3554.63
3866.99
4193.13
4539.91
4912.39
5319.03
5764.55
6258.44
6824.15
7462.66
8177.68
8952.61
9770.1
10583.2
11303.6
11866.8
12191.6
12259
12039.9
11570.5
10754
9710.98
8425.04
7026.21
5722.07
4475.85
3518.84
2685.08
2090.21
1608.95
1274.19
1017.58
838.397
701.095
601.483
521.198
459.175
409.865
369.607
337.622
309.115
291.063
274.658
262.235
251.568
240.659
231.588
221.518
212.919
204.793
196.197
189.148
181.961
176.303
170.542
165.75
160.867
156.966
152.93
149.406
145.822
142.901
140.078
137.753
135.408
133.173
131.25
129.244
127.363
125.726
124.212
122.733
121.232
120.093
118.91
117.703
116.595
115.56
114.594
113.611
112.768
111.911
111.024
110.283
109.568
108.932
108.28
107.616
106.998
106.42
105.833