/*--------------------------------*- C++ -*----------------------------------*\
| =========                 |                                                 |
| \\      /  F ield         | OpenFOAM: The Open Source CFD Toolbox           |
|  \\    /   O peration     | Version:  2312                                  |
|   \\  /    A nd           | Website:  www.openfoam.com                      |
|    \\/     M anipulation  |                                                 |
\*---------------------------------------------------------------------------*/
FoamFile
{
    version     2.0;
    format      ascii;
    arch        "LSB;label=32;scalar=64";
    class       volScalarField;
    location    "0.001";
    object      minKappa;
}
// * * * * * * * * * * * * * * * * * * * * * * * * * * * * * * * * * * * * * //

dimensions      [0 0 0 0 0 0 0];

internalField   nonuniform List<scalar> 
48128
(
0.621603
0.621358
0.621786
0.621715
0.621745
0.621847
0.621925
0.622065
0.622398
0.624096
0.626251
0.62764
0.628765
0.629716
0.631322
0.632715
0.634043
0.635259
0.636377
0.637376
0.638368
0.639309
0.640185
0.64099
0.641711
0.642341
0.642854
0.643218
0.643441
0.643545
0.643557
0.643306
0.642988
0.642459
0.641863
0.64099
0.639981
0.638862
0.637743
0.636603
0.635485
0.634413
0.633387
0.632459
0.63164
0.630806
0.630099
0.629527
0.629384
0.629387
0.629381
0.629456
0.629694
0.630046
0.630554
0.631197
0.631973
0.632875
0.6339
0.63503
0.636258
0.637572
0.638971
0.640595
0.642288
0.644062
0.645872
0.647729
0.649646
0.651575
0.653595
0.655594
0.657647
0.659668
0.66169
0.663725
0.665751
0.667785
0.669788
0.671769
0.673689
0.675555
0.677444
0.679326
0.681179
0.682965
0.684714
0.686399
0.687978
0.689528
0.69099
0.692442
0.69388
0.695323
0.696661
0.697883
0.699069
0.700271
0.701474
0.702668
0.703775
0.704795
0.705762
0.706681
0.707541
0.708352
0.709142
0.709948
0.710701
0.711388
0.712043
0.712711
0.71338
0.714027
0.714638
0.715212
0.715788
0.716382
0.716987
0.717633
0.718146
0.718594
0.719061
0.719314
0.719572
0.719837
0.720118
0.72042
0.720743
0.721084
0.72144
0.721808
0.722181
0.72253
0.722852
0.723134
0.723383
0.723593
0.723783
0.723953
0.72409
0.724208
0.724309
0.724392
0.724476
0.724566
0.724662
0.724765
0.72488
0.725009
0.692187
0.692221
0.692255
0.692278
0.692278
0.725776
0.725902
0.725936
0.725916
0.7259
0.725886
0.725884
0.725897
0.691627
0.69161
0.691613
0.691611
0.691599
0.691569
0.691523
0.691451
0.691356
0.691241
0.691107
0.690964
0.69082
0.690696
0.690597
0.690504
0.690441
0.690369
0.690377
0.690367
0.690354
0.690332
0.690299
0.690252
0.690191
0.690109
0.690013
0.68992
0.689828
0.689744
0.68966
0.689583
0.689533
0.689471
0.689402
0.689323
0.689232
0.689131
0.689033
0.688936
0.688844
0.688762
0.688683
0.688607
0.688531
0.688451
0.688365
0.688273
0.688176
0.688076
0.687977
0.687876
0.687788
0.687729
0.687707
0.687711
0.68772
0.687718
0.687709
0.687679
0.68763
0.687547
0.687452
0.687347
0.68723
0.68718
0.687115
0.687074
0.686998
0.68689
0.686761
0.686599
0.686398
0.686177
0.685918
0.685642
0.685185
0.621603
0.621358
0.621786
0.621715
0.621745
0.621847
0.621751
0.621961
0.622398
0.624096
0.626251
0.62764
0.628765
0.629716
0.631322
0.632715
0.634043
0.635259
0.636377
0.637376
0.638368
0.639309
0.640185
0.64099
0.641711
0.642341
0.642854
0.643218
0.643441
0.643545
0.643557
0.643306
0.642988
0.640995
0.63992
0.638752
0.637564
0.636346
0.635136
0.633978
0.632885
0.631882
0.630984
0.630218
0.629618
0.629342
0.629337
0.629487
0.629384
0.629387
0.629381
0.629456
0.629694
0.630046
0.630554
0.631197
0.631973
0.632875
0.6339
0.63503
0.636258
0.637572
0.638971
0.640595
0.642288
0.644062
0.645872
0.647729
0.649646
0.651575
0.653595
0.655594
0.657647
0.659668
0.66169
0.663725
0.665751
0.667785
0.669788
0.671769
0.673689
0.675555
0.677444
0.679326
0.681179
0.682965
0.684714
0.686399
0.687978
0.689528
0.69099
0.692442
0.69388
0.695323
0.696661
0.697883
0.699069
0.700271
0.701474
0.702668
0.703775
0.704795
0.705762
0.706681
0.707541
0.708352
0.709142
0.709948
0.710701
0.711388
0.712043
0.712711
0.71338
0.714027
0.714638
0.715212
0.715788
0.716382
0.716987
0.717633
0.718146
0.718594
0.719061
0.719314
0.719572
0.719837
0.720118
0.72042
0.720743
0.721084
0.72144
0.721808
0.722181
0.72253
0.722852
0.723134
0.723383
0.723593
0.723783
0.723953
0.72409
0.724208
0.724309
0.724392
0.724476
0.724566
0.724662
0.724765
0.72488
0.725009
0.692187
0.692221
0.692255
0.692278
0.692278
0.725776
0.725902
0.725936
0.725916
0.7259
0.725886
0.725884
0.725897
0.691627
0.69161
0.691613
0.691611
0.691599
0.691569
0.691523
0.691451
0.691356
0.691241
0.691107
0.690964
0.69082
0.690696
0.690597
0.690504
0.690441
0.690369
0.690377
0.690367
0.690354
0.690332
0.690299
0.690252
0.690191
0.690109
0.690013
0.68992
0.689828
0.689744
0.68966
0.689583
0.689533
0.689471
0.689402
0.689323
0.689232
0.689131
0.689033
0.688936
0.688844
0.688762
0.688683
0.688607
0.688531
0.688451
0.688365
0.688273
0.688176
0.688076
0.687977
0.687876
0.687788
0.687729
0.687707
0.687711
0.68772
0.687718
0.687709
0.687679
0.68763
0.687547
0.687452
0.687347
0.68723
0.68718
0.687115
0.687074
0.686998
0.68689
0.686761
0.686599
0.686398
0.686177
0.685918
0.685642
0.685185
0.62185
0.621807
0.622166
0.622228
0.622092
0.62174
0.621751
0.621961
0.62384
0.626944
0.629703
0.632378
0.634641
0.636554
0.638225
0.639662
0.640821
0.641461
0.641954
0.642342
0.642675
0.642921
0.643071
0.643121
0.643067
0.642956
0.642664
0.642246
0.641723
0.641118
0.640414
0.639392
0.638504
0.637525
0.636513
0.635462
0.63441
0.633366
0.632358
0.631429
0.63061
0.629906
0.629454
0.629316
0.629418
0.629342
0.629337
0.629487
0.629623
0.629887
0.63036
0.630962
0.631736
0.632652
0.633765
0.635012
0.636418
0.637965
0.639647
0.641433
0.64332
0.645295
0.647354
0.649489
0.65167
0.653925
0.656186
0.658475
0.66081
0.663134
0.665543
0.667907
0.670295
0.672629
0.674942
0.677231
0.679503
0.681757
0.683975
0.686212
0.688382
0.690517
0.692665
0.694797
0.696896
0.698931
0.700926
0.702842
0.704649
0.706414
0.708082
0.709722
0.711341
0.712964
0.714475
0.715867
0.717225
0.718598
0.719975
0.721335
0.722609
0.723798
0.724941
0.726034
0.72706
0.728041
0.728985
0.729943
0.730838
0.731656
0.732443
0.733242
0.73404
0.734819
0.735563
0.73628
0.737005
0.737747
0.738496
0.739282
0.739947
0.740525
0.741125
0.741507
0.741879
0.742255
0.742642
0.743045
0.743465
0.743901
0.744354
0.744819
0.745291
0.745746
0.746175
0.746569
0.746926
0.747247
0.747538
0.747804
0.748035
0.748242
0.748432
0.748602
0.74877
0.748943
0.749118
0.749299
0.749488
0.749689
0.749896
0.750107
0.750323
0.750518
0.750726
0.750875
0.751073
0.751186
0.751236
0.751287
0.751341
0.751402
0.751477
0.751562
0.751659
0.747698
0.747788
0.747878
0.747931
0.747981
0.747987
0.747966
0.747922
0.747852
0.747763
0.747668
0.747582
0.747514
0.747446
0.747393
0.747324
0.747332
0.747321
0.747303
0.747272
0.74723
0.747175
0.747107
0.747017
0.746909
0.746798
0.746685
0.746567
0.746443
0.746312
0.746198
0.74607
0.745927
0.74577
0.745596
0.74541
0.745222
0.745034
0.744843
0.744649
0.744447
0.744233
0.744004
0.743756
0.743488
0.743199
0.742896
0.742578
0.74225
0.741914
0.74158
0.741289
0.741025
0.740807
0.740595
0.740379
0.740159
0.739922
0.739665
0.739375
0.739058
0.738735
0.73839
0.738148
0.737882
0.737685
0.737463
0.73722
0.736964
0.736685
0.736374
0.736053
0.735699
0.73533
0.734741
0.621983
0.622112
0.622228
0.622248
0.62187
0.62174
0.622109
0.62459
0.628646
0.631328
0.633394
0.634994
0.636177
0.636855
0.6375
0.63811
0.638625
0.63907
0.639408
0.639671
0.6399
0.640078
0.640171
0.640179
0.640099
0.639902
0.639594
0.63917
0.638648
0.637847
0.637129
0.636332
0.635492
0.634594
0.633683
0.632778
0.631909
0.631086
0.630331
0.629686
0.629483
0.629456
0.629454
0.629316
0.629418
0.629522
0.62979
0.630222
0.63089
0.631721
0.632791
0.634007
0.635395
0.636951
0.638723
0.640604
0.642654
0.644832
0.647139
0.649522
0.651991
0.654523
0.657125
0.659792
0.662474
0.665223
0.667934
0.670651
0.673387
0.676082
0.678856
0.681546
0.684235
0.686836
0.689392
0.691883
0.694349
0.696765
0.699141
0.70149
0.703708
0.70591
0.708117
0.710301
0.712432
0.714481
0.71649
0.718404
0.720214
0.721976
0.723634
0.725256
0.726859
0.728454
0.729919
0.731276
0.732603
0.733974
0.735365
0.736732
0.738014
0.739222
0.74039
0.74151
0.74256
0.743574
0.744542
0.745523
0.746432
0.747258
0.748057
0.748868
0.749671
0.750459
0.751209
0.751954
0.752709
0.753483
0.754265
0.755081
0.75579
0.756396
0.757024
0.757448
0.757841
0.758239
0.758645
0.759064
0.759498
0.759948
0.760415
0.760896
0.761384
0.761865
0.762323
0.762749
0.76314
0.763496
0.763819
0.764113
0.764372
0.764605
0.764817
0.765014
0.765211
0.765411
0.76561
0.765813
0.766023
0.76624
0.766461
0.766684
0.76691
0.767121
0.767343
0.767514
0.767732
0.767874
0.767958
0.768041
0.768119
0.768204
0.768299
0.768403
0.768515
0.768643
0.767139
0.767253
0.767331
0.767411
0.767443
0.767443
0.76742
0.767372
0.769015
0.767229
0.767162
0.767108
0.767058
0.767013
0.766956
0.766961
0.76695
0.766927
0.766889
0.766837
0.766772
0.766695
0.766598
0.766485
0.766373
0.76626
0.766144
0.76602
0.765893
0.765771
0.765633
0.765476
0.765299
0.765103
0.764892
0.764677
0.76446
0.764242
0.764019
0.763787
0.763541
0.763276
0.762988
0.762673
0.762333
0.761971
0.761589
0.761191
0.760781
0.760366
0.759988
0.759634
0.759322
0.75902
0.758715
0.758407
0.758086
0.757748
0.757379
0.756988
0.756584
0.756151
0.755817
0.755456
0.755175
0.754873
0.754557
0.754235
0.753898
0.753536
0.753168
0.752771
0.752361
0.751717
0.622093
0.622195
0.622089
0.62211
0.62187
0.622294
0.624802
0.628696
0.631361
0.633175
0.634402
0.63497
0.635348
0.635637
0.636041
0.636402
0.636755
0.637085
0.637331
0.637514
0.63766
0.637744
0.637757
0.637695
0.637541
0.637282
0.636928
0.636474
0.635766
0.635124
0.634427
0.633683
0.632922
0.632149
0.631392
0.630681
0.630059
0.629668
0.629597
0.629686
0.629483
0.629456
0.629566
0.629703
0.630114
0.630725
0.631627
0.63272
0.634075
0.635626
0.63745
0.639438
0.641591
0.643932
0.646511
0.649152
0.651975
0.654894
0.657925
0.660987
0.6641
0.667244
0.670416
0.673645
0.676825
0.680068
0.683193
0.686302
0.689365
0.69234
0.69539
0.69829
0.701163
0.703895
0.70657
0.709131
0.711658
0.714099
0.716491
0.718852
0.721052
0.723257
0.725459
0.727629
0.729724
0.731716
0.733674
0.73552
0.737272
0.738973
0.740566
0.742117
0.74365
0.745158
0.746517
0.747785
0.749026
0.75028
0.751547
0.752778
0.753941
0.755042
0.75611
0.757127
0.758081
0.759012
0.759892
0.760785
0.761598
0.762345
0.763086
0.763829
0.764566
0.765281
0.765969
0.766667
0.76738
0.768106
0.768849
0.769626
0.770315
0.770889
0.771482
0.771899
0.772261
0.77263
0.773004
0.773387
0.773782
0.774194
0.774624
0.775068
0.77552
0.775977
0.776416
0.776827
0.777205
0.777551
0.777861
0.778145
0.77839
0.778608
0.778804
0.778993
0.779183
0.779376
0.779568
0.779761
0.779958
0.780159
0.780362
0.78056
0.780762
0.780955
0.781157
0.781318
0.781525
0.781666
0.781761
0.781853
0.781931
0.782013
0.782105
0.782204
0.782308
0.782425
0.781637
0.781746
0.78182
0.7819
0.781935
0.782887
0.782873
0.782835
0.782776
0.782711
0.782654
0.781612
0.781568
0.781523
0.781473
0.781473
0.781456
0.781425
0.781375
0.781309
0.781227
0.781132
0.78102
0.780891
0.780769
0.780646
0.780526
0.780396
0.780267
0.780138
0.779995
0.77983
0.779641
0.779431
0.779204
0.778972
0.778737
0.778499
0.778257
0.778006
0.77774
0.777453
0.777138
0.776794
0.77642
0.77602
0.775596
0.775152
0.774693
0.774226
0.773791
0.773376
0.773002
0.772633
0.772261
0.771887
0.7715
0.771099
0.770669
0.770217
0.769752
0.769254
0.768853
0.768421
0.768069
0.7677
0.76732
0.766938
0.766547
0.766136
0.765726
0.76529
0.764843
0.764154
0.622016
0.622195
0.62202
0.62211
0.622426
0.62464
0.628292
0.63093
0.63262
0.633657
0.63395
0.634113
0.634283
0.63442
0.634658
0.634894
0.635118
0.635326
0.635472
0.635564
0.635624
0.635634
0.635584
0.635459
0.635253
0.634954
0.634576
0.633927
0.633385
0.632772
0.632133
0.631484
0.630853
0.630263
0.629737
0.629571
0.629664
0.629668
0.629597
0.629692
0.629787
0.63008
0.630679
0.631498
0.632667
0.634088
0.635873
0.637909
0.640237
0.64281
0.645701
0.64876
0.651997
0.655356
0.659014
0.662706
0.666493
0.670377
0.674292
0.67821
0.682058
0.685926
0.689705
0.693564
0.697221
0.700976
0.704451
0.707897
0.711185
0.714317
0.717518
0.720467
0.723357
0.72604
0.728683
0.731144
0.733575
0.735861
0.738095
0.740293
0.742287
0.744321
0.746332
0.74831
0.750201
0.751972
0.753724
0.755347
0.756904
0.758409
0.75981
0.76117
0.762515
0.763803
0.764938
0.766011
0.767062
0.768125
0.769207
0.770243
0.771231
0.772172
0.773088
0.773949
0.774761
0.775562
0.77631
0.77707
0.777744
0.778354
0.778948
0.779536
0.780114
0.780668
0.781217
0.781777
0.782355
0.782945
0.783562
0.784231
0.784837
0.785324
0.785826
0.786193
0.786486
0.786779
0.787072
0.787372
0.787684
0.788011
0.788357
0.788717
0.78909
0.789472
0.789846
0.790202
0.790527
0.790822
0.79108
0.791319
0.791511
0.791682
0.791831
0.791983
0.792135
0.792291
0.792448
0.792608
0.792766
0.792923
0.793079
0.793227
0.793378
0.793522
0.793676
0.793801
0.79397
0.794092
0.794175
0.794254
0.79431
0.794371
0.794443
0.794526
0.794593
0.79468
0.794771
0.794299
0.794349
0.794406
0.794996
0.794994
0.794967
0.794914
0.794841
0.794761
0.79469
0.794627
0.793944
0.79389
0.793836
0.793822
0.793793
0.793747
0.793678
0.793591
0.793486
0.793367
0.793231
0.793078
0.792936
0.792792
0.792658
0.792514
0.792373
0.79223
0.792076
0.7919
0.791697
0.791473
0.791231
0.790983
0.79073
0.790475
0.790216
0.789948
0.789663
0.789357
0.789022
0.788653
0.788251
0.787819
0.78736
0.786879
0.786382
0.785874
0.785393
0.784933
0.78451
0.784088
0.783662
0.783233
0.78279
0.782333
0.78185
0.781344
0.780825
0.780273
0.779814
0.779324
0.778909
0.778478
0.778038
0.7776
0.777155
0.776692
0.77624
0.775765
0.775281
0.774543
0.62188
0.62223
0.62202
0.622609
0.624161
0.62755
0.630244
0.631968
0.632939
0.63316
0.633223
0.633213
0.633239
0.633286
0.633399
0.633514
0.633629
0.633733
0.633796
0.633812
0.633805
0.633757
0.633653
0.633484
0.633247
0.632932
0.632358
0.631894
0.631395
0.630861
0.630332
0.629837
0.629491
0.629458
0.629671
0.629571
0.629664
0.629814
0.630088
0.630576
0.631429
0.632566
0.634142
0.636033
0.638356
0.641019
0.644136
0.647584
0.65137
0.655385
0.659806
0.664341
0.669188
0.673774
0.678844
0.684086
0.688989
0.694148
0.699074
0.704118
0.708732
0.713493
0.717861
0.722413
0.726472
0.730711
0.734417
0.738099
0.741438
0.744577
0.747704
0.750495
0.753168
0.755555
0.757927
0.760034
0.762111
0.763972
0.765778
0.767548
0.769048
0.770648
0.77221
0.773721
0.775188
0.776502
0.777844
0.779025
0.780198
0.78133
0.782359
0.783357
0.784366
0.785271
0.786052
0.786812
0.787556
0.788309
0.789097
0.789821
0.790531
0.791209
0.791879
0.792486
0.793073
0.793659
0.794194
0.794743
0.795195
0.795613
0.796015
0.796408
0.796782
0.797135
0.797503
0.797887
0.798292
0.798709
0.799155
0.799648
0.800086
0.800426
0.800779
0.801025
0.801208
0.801376
0.80155
0.801721
0.80191
0.802104
0.802323
0.802554
0.802805
0.803072
0.803338
0.803597
0.80383
0.804038
0.804209
0.804365
0.804473
0.804567
0.804641
0.804725
0.804802
0.804896
0.804992
0.805092
0.805192
0.805277
0.805355
0.805428
0.8055
0.805567
0.805651
0.80571
0.805822
0.805919
0.805945
0.805985
0.806012
0.806037
0.80606
0.806112
0.806116
0.806179
0.80586
0.805886
0.805894
0.805905
0.806254
0.806218
0.806158
0.806074
0.805971
0.805862
0.805762
0.805667
0.805172
0.805094
0.805024
0.804982
0.80493
0.80486
0.804765
0.804651
0.804515
0.804363
0.804194
0.804008
0.803837
0.803661
0.803503
0.803334
0.80317
0.803005
0.802832
0.802636
0.802414
0.802171
0.801911
0.801643
0.801371
0.801095
0.800816
0.800528
0.800224
0.799898
0.799541
0.799148
0.798719
0.798257
0.797767
0.797252
0.796719
0.796176
0.795654
0.795155
0.79469
0.794223
0.793751
0.793272
0.792781
0.792274
0.791742
0.791188
0.790619
0.790018
0.789508
0.788967
0.788494
0.788007
0.78751
0.787017
0.786518
0.786003
0.785508
0.784991
0.784468
0.783679
0.621763
0.622414
0.62248
0.623838
0.626533
0.62935
0.631225
0.63227
0.632521
0.63252
0.632455
0.632346
0.632285
0.632243
0.632249
0.632269
0.632295
0.632315
0.63231
0.632271
0.632211
0.632118
0.63198
0.63179
0.631551
0.631047
0.63068
0.630278
0.629877
0.62948
0.629286
0.629324
0.629491
0.629458
0.629671
0.629846
0.630327
0.631083
0.632277
0.633813
0.635877
0.63839
0.641492
0.645054
0.649131
0.653608
0.658668
0.6641
0.670024
0.675825
0.682241
0.688637
0.695669
0.701616
0.708334
0.715642
0.721744
0.728433
0.734426
0.741003
0.746583
0.752753
0.757757
0.763318
0.767721
0.772555
0.776371
0.780281
0.783442
0.7865
0.789248
0.79163
0.793814
0.795547
0.79735
0.79866
0.800051
0.801
0.801995
0.80287
0.803396
0.804145
0.804854
0.805454
0.80619
0.806517
0.807149
0.807466
0.807989
0.808549
0.808951
0.809366
0.809879
0.810189
0.810469
0.810767
0.811064
0.811358
0.811725
0.811994
0.812306
0.812608
0.812931
0.813181
0.81345
0.813735
0.813964
0.814223
0.814363
0.814519
0.814656
0.814796
0.814894
0.814979
0.815104
0.815255
0.815428
0.81562
0.815817
0.816088
0.81632
0.816482
0.816658
0.816745
0.816795
0.816821
0.816836
0.816839
0.816836
0.816868
0.816899
0.816983
0.817071
0.81718
0.817289
0.817409
0.817518
0.817594
0.817652
0.81769
0.817697
0.81768
0.81765
0.817619
0.817615
0.817613
0.817624
0.817639
0.817654
0.81764
0.817615
0.81759
0.817548
0.817521
0.81751
0.817478
0.81753
0.817535
0.817518
0.817497
0.817472
0.817444
0.817413
0.817403
0.81734
0.817335
0.817058
0.817016
0.816965
0.816912
0.816837
0.816999
0.81689
0.81676
0.816614
0.816461
0.816316
0.816175
0.815766
0.815653
0.81555
0.815467
0.81538
0.815275
0.815145
0.814993
0.814818
0.814625
0.814416
0.814189
0.813978
0.81376
0.813567
0.813362
0.813163
0.812965
0.812762
0.812538
0.81229
0.812021
0.811737
0.811445
0.811147
0.810846
0.810541
0.810229
0.809901
0.809551
0.809169
0.80875
0.808293
0.8078
0.807277
0.806728
0.80616
0.805582
0.805022
0.804485
0.803981
0.803473
0.802958
0.802434
0.801897
0.801344
0.800767
0.800167
0.799552
0.798905
0.798347
0.79776
0.797233
0.796692
0.796143
0.795594
0.795043
0.794477
0.793936
0.793377
0.792813
0.791971
0.621757
0.622714
0.623359
0.625479
0.628211
0.63032
0.631562
0.631967
0.631986
0.631883
0.631713
0.631541
0.631404
0.631295
0.631219
0.631164
0.63112
0.631079
0.631024
0.630945
0.630852
0.630736
0.630589
0.630406
0.629994
0.629719
0.629436
0.629155
0.629105
0.629219
0.629286
0.629324
0.629565
0.629847
0.630485
0.631451
0.632965
0.634949
0.637625
0.64086
0.64479
0.649372
0.654685
0.660558
0.667122
0.673863
0.681449
0.689309
0.698136
0.705812
0.714509
0.722988
0.73308
0.740691
0.749682
0.75988
0.767425
0.776291
0.783289
0.791558
0.79755
0.804468
0.809633
0.815277
0.819626
0.824226
0.827784
0.831319
0.833946
0.836543
0.838432
0.840335
0.84153
0.842796
0.843508
0.844512
0.844576
0.845175
0.844854
0.845235
0.844677
0.844461
0.844717
0.844056
0.844062
0.843384
0.843239
0.842623
0.842112
0.841763
0.841202
0.840683
0.84036
0.839755
0.83921
0.838773
0.838358
0.837964
0.837641
0.837257
0.836988
0.836769
0.836581
0.836352
0.836186
0.836057
0.835887
0.835727
0.835495
0.835299
0.835098
0.834907
0.83466
0.834407
0.834208
0.834074
0.833968
0.833892
0.833764
0.833753
0.833717
0.833666
0.833607
0.833517
0.833387
0.833238
0.833068
0.832881
0.83266
0.832495
0.832316
0.832192
0.83207
0.831991
0.831931
0.831875
0.831813
0.831739
0.831647
0.831537
0.831402
0.831249
0.831088
0.830927
0.830805
0.830685
0.830582
0.83049
0.830393
0.830257
0.830108
0.829957
0.82979
0.829637
0.829502
0.829365
0.829319
0.829243
0.829149
0.82905
0.82895
0.828848
0.828749
0.828651
0.82852
0.828257
0.828118
0.827993
0.827864
0.827732
0.827587
0.82761
0.827437
0.827247
0.827045
0.826834
0.82663
0.826226
0.826041
0.825879
0.825727
0.825587
0.825455
0.825302
0.825125
0.824926
0.824703
0.824462
0.824204
0.823927
0.823666
0.823398
0.823157
0.822907
0.822662
0.82242
0.822176
0.821914
0.821631
0.82133
0.821015
0.820691
0.820361
0.820028
0.819692
0.819349
0.818991
0.818612
0.818201
0.817752
0.817262
0.816737
0.816179
0.815593
0.814989
0.814375
0.813775
0.813199
0.812656
0.812108
0.811551
0.810984
0.810402
0.809805
0.809185
0.808541
0.807882
0.807191
0.806588
0.805956
0.805377
0.804785
0.804184
0.803582
0.802978
0.802361
0.801774
0.801172
0.800566
0.799667
0.621757
0.623161
0.624404
0.626879
0.629176
0.630716
0.631407
0.631514
0.631456
0.631258
0.631026
0.630803
0.630611
0.630449
0.630317
0.630207
0.630113
0.630029
0.629943
0.629844
0.629741
0.629628
0.629502
0.629164
0.628998
0.628831
0.628878
0.629052
0.629105
0.629219
0.629443
0.629798
0.63055
0.631689
0.63345
0.635777
0.638918
0.642829
0.647687
0.653372
0.659908
0.667111
0.675305
0.683974
0.693824
0.702967
0.713528
0.724029
0.737293
0.747058
0.758532
0.769375
0.781396
0.791978
0.801267
0.81261
0.820995
0.83099
0.838244
0.846244
0.852398
0.858583
0.863451
0.868124
0.871973
0.87539
0.878444
0.88066
0.882893
0.884396
0.885624
0.887146
0.886884
0.888399
0.887762
0.888727
0.887809
0.888156
0.887069
0.887126
0.886017
0.88514
0.885035
0.883649
0.883162
0.881929
0.881047
0.879856
0.878676
0.877663
0.876405
0.875337
0.87414
0.872824
0.871569
0.870409
0.869259
0.868172
0.867056
0.865927
0.864935
0.864063
0.86319
0.862345
0.861603
0.860924
0.860237
0.859549
0.858843
0.858223
0.857589
0.856986
0.85633
0.855686
0.855119
0.854619
0.854148
0.853723
0.853247
0.852857
0.852501
0.852156
0.851836
0.851503
0.851146
0.850766
0.850364
0.849941
0.84949
0.849085
0.84866
0.848284
0.84793
0.847622
0.847349
0.847093
0.846835
0.846572
0.8463
0.846015
0.845711
0.845396
0.84508
0.844772
0.844506
0.844243
0.844007
0.843775
0.843535
0.843263
0.842971
0.842672
0.842362
0.84206
0.841784
0.841529
0.841351
0.841176
0.840983
0.840795
0.840604
0.840411
0.840219
0.840021
0.839676
0.839463
0.839224
0.838997
0.838772
0.838547
0.838315
0.838074
0.837969
0.837706
0.837433
0.837154
0.836719
0.836447
0.836189
0.835963
0.83575
0.835539
0.835348
0.835136
0.834902
0.834646
0.834366
0.834067
0.833753
0.833419
0.8331
0.832772
0.832473
0.832167
0.831865
0.831568
0.831272
0.830964
0.830637
0.830296
0.829944
0.829581
0.829212
0.82884
0.828465
0.828085
0.82769
0.827276
0.826829
0.826344
0.825819
0.825256
0.82466
0.824036
0.823393
0.82274
0.822098
0.821481
0.820898
0.820309
0.819709
0.819098
0.818472
0.81783
0.817167
0.81648
0.815777
0.815043
0.814395
0.813721
0.81309
0.812449
0.811798
0.811142
0.810486
0.809817
0.809184
0.808538
0.807889
0.806932
0.621895
0.623667
0.625423
0.627793
0.629656
0.63073
0.631052
0.631067
0.630928
0.630674
0.6304
0.630142
0.629913
0.629715
0.629544
0.629399
0.629276
0.629171
0.629072
0.628976
0.628889
0.628812
0.628555
0.628475
0.628588
0.628806
0.628878
0.629052
0.6293
0.62972
0.630541
0.631763
0.633656
0.636198
0.639689
0.644092
0.649562
0.65614
0.663857
0.672553
0.682474
0.692484
0.704166
0.715763
0.730164
0.742087
0.756574
0.76967
0.785853
0.796863
0.810497
0.821956
0.834176
0.84707
0.856017
0.86658
0.875537
0.884231
0.891272
0.897208
0.903109
0.907003
0.911897
0.913837
0.918204
0.918638
0.92183
0.921771
0.924304
0.923788
0.925415
0.925327
0.924578
0.925656
0.924276
0.925558
0.92394
0.924211
0.922724
0.922707
0.921383
0.920396
0.920244
0.918607
0.918094
0.916609
0.915606
0.91412
0.912976
0.911658
0.910171
0.908861
0.907297
0.905643
0.904098
0.902545
0.900991
0.899442
0.897799
0.896156
0.894635
0.893188
0.891735
0.89034
0.889055
0.887822
0.886582
0.885342
0.884111
0.883011
0.881902
0.880822
0.879705
0.878631
0.877653
0.876742
0.875866
0.875018
0.874128
0.873317
0.872586
0.871912
0.871267
0.870659
0.870039
0.869398
0.868727
0.868032
0.867321
0.866642
0.865947
0.865289
0.864667
0.864095
0.863574
0.863084
0.862605
0.862128
0.861648
0.861161
0.860662
0.860168
0.859679
0.859201
0.85877
0.858347
0.857949
0.857552
0.857151
0.856718
0.856265
0.855799
0.855198
0.854862
0.854436
0.854037
0.853709
0.853416
0.853104
0.85281
0.852513
0.852215
0.851914
0.851607
0.851156
0.850826
0.850475
0.850129
0.849794
0.849462
0.84913
0.848795
0.848453
0.848102
0.847884
0.847387
0.847025
0.846672
0.84633
0.846026
0.845739
0.845446
0.845182
0.8449
0.844598
0.844274
0.843928
0.843565
0.843187
0.842789
0.842403
0.842008
0.841641
0.841272
0.840902
0.840539
0.840182
0.839816
0.839439
0.839051
0.838653
0.838245
0.837829
0.837413
0.836993
0.836568
0.83613
0.835673
0.835185
0.834658
0.834092
0.833488
0.832851
0.832185
0.831499
0.830806
0.830119
0.829458
0.82883
0.828198
0.827554
0.826897
0.826226
0.825539
0.824833
0.824102
0.823355
0.822577
0.821886
0.821168
0.820486
0.819795
0.819094
0.818385
0.817678
0.816957
0.816277
0.815586
0.814894
0.813875
0.622172
0.624213
0.626271
0.628368
0.629843
0.630544
0.630673
0.630636
0.630434
0.630141
0.629841
0.629563
0.629314
0.629095
0.628905
0.628744
0.62861
0.628504
0.628416
0.628346
0.628306
0.628132
0.628261
0.628475
0.628588
0.628806
0.629073
0.629526
0.630382
0.631637
0.633597
0.636227
0.639842
0.644472
0.650377
0.657615
0.66613
0.675772
0.686902
0.698824
0.712904
0.725746
0.742093
0.756934
0.775509
0.789387
0.806841
0.820362
0.837737
0.849454
0.864452
0.875348
0.887586
0.899275
0.908305
0.916622
0.925213
0.929981
0.937265
0.939142
0.945297
0.945587
0.950488
0.949285
0.95306
0.951303
0.954073
0.952187
0.954523
0.95227
0.953944
0.951728
0.952353
0.950944
0.949378
0.950535
0.948435
0.948911
0.946965
0.946974
0.945313
0.94529
0.944598
0.94296
0.942851
0.941453
0.940863
0.939445
0.938898
0.937744
0.936522
0.935611
0.934275
0.932749
0.931615
0.930319
0.928967
0.92752
0.925939
0.924353
0.922785
0.921193
0.919583
0.918016
0.916467
0.914924
0.913349
0.911758
0.910179
0.908691
0.907189
0.905689
0.904182
0.902728
0.901336
0.900045
0.89876
0.897483
0.896195
0.894926
0.893787
0.892769
0.891767
0.890858
0.889947
0.889019
0.888058
0.887076
0.886074
0.885097
0.884101
0.88314
0.882224
0.881364
0.880568
0.879815
0.879085
0.878373
0.877664
0.876957
0.876242
0.875551
0.874873
0.874209
0.873594
0.872987
0.872409
0.871827
0.87124
0.870404
0.869781
0.869145
0.868505
0.867874
0.867291
0.866912
0.866419
0.865991
0.865544
0.865124
0.864708
0.864292
0.863872
0.863285
0.862842
0.862386
0.861914
0.861438
0.860977
0.860526
0.860083
0.859642
0.8592
0.858755
0.85831
0.857861
0.857408
0.856966
0.85653
0.856135
0.85576
0.855378
0.855029
0.854664
0.854284
0.853884
0.853464
0.853029
0.85258
0.852113
0.851654
0.851185
0.850742
0.850299
0.849854
0.849416
0.848988
0.848557
0.848121
0.84768
0.847229
0.846769
0.846301
0.845834
0.845363
0.844887
0.844399
0.843893
0.843356
0.842783
0.84217
0.84152
0.840838
0.840126
0.839397
0.838659
0.837926
0.837217
0.836542
0.835863
0.835172
0.834468
0.83375
0.833016
0.832265
0.83149
0.830698
0.829875
0.829138
0.828376
0.827644
0.826903
0.826152
0.825391
0.824631
0.823859
0.82313
0.822394
0.821657
0.820575
0.622464
0.624779
0.62689
0.628695
0.629846
0.630265
0.630331
0.630222
0.629978
0.629665
0.629354
0.629068
0.628813
0.62859
0.628398
0.628239
0.628115
0.628029
0.627976
0.627962
0.627935
0.628132
0.628261
0.628477
0.628755
0.629209
0.630038
0.631257
0.63318
0.635777
0.639435
0.644129
0.650112
0.657541
0.666491
0.67708
0.689322
0.701951
0.716973
0.732248
0.751959
0.767647
0.787799
0.804222
0.825059
0.840037
0.859151
0.872392
0.889444
0.901156
0.91629
0.925012
0.937711
0.944188
0.955567
0.957933
0.967202
0.966613
0.973062
0.971915
0.977408
0.975156
0.979098
0.975625
0.978349
0.974483
0.976317
0.972559
0.974155
0.970308
0.971278
0.967746
0.968329
0.965275
0.965796
0.96388
0.961444
0.962045
0.959647
0.959776
0.957935
0.958538
0.957125
0.95537
0.955621
0.954253
0.953974
0.952795
0.952793
0.951842
0.950886
0.950445
0.949507
0.948584
0.948182
0.947331
0.946704
0.945788
0.944765
0.943869
0.942892
0.941794
0.940673
0.939576
0.938443
0.937236
0.93594
0.934586
0.933219
0.931849
0.930417
0.928912
0.927398
0.925903
0.924414
0.922955
0.921456
0.919919
0.918364
0.916785
0.915306
0.913989
0.912685
0.911502
0.910319
0.909129
0.907906
0.906667
0.905402
0.904136
0.902856
0.901612
0.90041
0.899268
0.898184
0.897154
0.896157
0.895195
0.894242
0.893291
0.892364
0.891463
0.890579
0.889716
0.888898
0.888091
0.887321
0.886088
0.88532
0.884533
0.883732
0.882921
0.882106
0.881303
0.880554
0.879833
0.879178
0.878879
0.878287
0.877726
0.877178
0.876633
0.87585
0.875293
0.874721
0.87413
0.873528
0.872919
0.872322
0.871741
0.871177
0.870623
0.870071
0.869525
0.868984
0.868439
0.867889
0.867349
0.866811
0.866318
0.865843
0.865364
0.864918
0.864461
0.863992
0.863508
0.863008
0.862496
0.861972
0.86143
0.860893
0.860346
0.859818
0.859296
0.858769
0.858247
0.857739
0.857236
0.856735
0.856234
0.855724
0.855207
0.854681
0.854158
0.853631
0.853099
0.852554
0.851993
0.851402
0.850776
0.850112
0.849412
0.848681
0.847922
0.847146
0.846362
0.845578
0.844819
0.844095
0.843366
0.842625
0.841871
0.841104
0.840322
0.839525
0.838704
0.837865
0.836995
0.836212
0.835404
0.834621
0.83383
0.83303
0.832217
0.831405
0.830581
0.829804
0.82902
0.828238
0.827091
0.622852
0.625287
0.627329
0.628884
0.629742
0.62999
0.630001
0.629838
0.629569
0.629249
0.628939
0.628658
0.62841
0.628198
0.628019
0.62788
0.627785
0.627743
0.627756
0.627835
0.627935
0.628136
0.628394
0.628798
0.62954
0.630645
0.632433
0.634889
0.638395
0.642932
0.648896
0.656354
0.66534
0.676048
0.688556
0.702541
0.71916
0.734681
0.754579
0.7729
0.796438
0.814602
0.838086
0.854956
0.876631
0.891376
0.910491
0.92269
0.938864
0.951357
0.961489
0.971231
0.982217
0.985678
0.997182
0.994383
1
0.998027
1
0.998993
1
0.99686
0.999166
0.993204
0.99464
0.988624
0.989935
0.984218
0.985453
0.980141
0.980821
0.976245
0.97697
0.972888
0.973535
0.970718
0.967674
0.968406
0.965408
0.96576
0.963485
0.96391
0.962032
0.960386
0.960662
0.958976
0.958848
0.957577
0.957766
0.956619
0.956043
0.95567
0.954806
0.95426
0.954272
0.953696
0.953469
0.952929
0.952277
0.951957
0.951385
0.950867
0.950303
0.949841
0.949305
0.948634
0.947949
0.947227
0.946494
0.945757
0.944927
0.944042
0.943091
0.942252
0.941327
0.940372
0.939297
0.938129
0.936885
0.935571
0.934257
0.932981
0.93174
0.930557
0.92936
0.928129
0.926838
0.925528
0.924151
0.922756
0.9186
0.917344
0.916099
0.914894
0.913727
0.912604
0.911505
0.912124
0.910948
0.909791
0.90867
0.907589
0.906509
0.905464
0.904459
0.902432
0.901528
0.900601
0.899661
0.898706
0.89774
0.896768
0.895792
0.894828
0.893923
0.893041