/*--------------------------------*- C++ -*----------------------------------*\
| =========                 |                                                 |
| \\      /  F ield         | OpenFOAM: The Open Source CFD Toolbox           |
|  \\    /   O peration     | Version:  2312                                  |
|   \\  /    A nd           | Website:  www.openfoam.com                      |
|    \\/     M anipulation  |                                                 |
\*---------------------------------------------------------------------------*/
FoamFile
{
    version     2.0;
    format      ascii;
    arch        "LSB;label=32;scalar=64";
    class       volScalarField;
    location    "0.001";
    object      nut;
}
// * * * * * * * * * * * * * * * * * * * * * * * * * * * * * * * * * * * * * //

dimensions      [0 2 -1 0 0 0 0];

internalField   nonuniform List<scalar> 
48128
(
6.59547e-06
6.55286e-06
7.81732e-06
7.76056e-06
6.96551e-06
5.76948e-06
4.4717e-06
3.25946e-06
2.07624e-06
4.46287e-06
2.78203e-05
8.94467e-05
0.00015952
0.000218471
0.000267105
0.000307897
0.000343218
0.000375111
0.000404783
0.000433208
0.000461029
0.000488458
0.000515723
0.000543083
0.000570753
0.00059888
0.000627809
0.000657953
0.000689331
0.000722021
0.000756013
0.00079191
0.000829154
0.000868262
0.000908594
0.000951899
0.000997065
0.00104387
0.00109018
0.00113774
0.00118422
0.00123213
0.00127745
0.00132465
0.00136691
0.00140865
0.0014439
0.00147425
0.00149484
0.00151841
0.00153567
0.00155381
0.00156035
0.00158041
0.00161133
0.00163629
0.00165914
0.00167703
0.00169144
0.0017014
0.0017081
0.00171254
0.00171494
0.00171573
0.00171499
0.00171294
0.00164053
0.00154296
0.00145522
0.00137722
0.00130616
0.00124273
0.00118459
0.00113214
0.00108424
0.00104009
0.00099982
0.000962122
0.000927837
0.000895865
0.000866358
0.000839576
0.000814155
0.00079079
0.000768846
0.000748431
0.000729671
0.00071196
0.000695991
0.000680861
0.000666847
0.000653755
0.000641248
0.000629601
0.000619063
0.000609479
0.000600465
0.000591864
0.000583609
0.000575909
0.000568962
0.00056253
0.000556541
0.000550901
0.000545674
0.000540726
0.000535993
0.00053141
0.000527233
0.000523388
0.000519791
0.000516247
0.000512879
0.000509741
0.000506859
0.000504108
0.000501403
0.000498654
0.000495818
0.000493238
0.000491084
0.000489065
0.000487257
0.000485898
0.000484471
0.000482982
0.000481437
0.000479842
0.000478252
0.000476693
0.000475197
0.000473726
0.000472375
0.000471185
0.000470093
0.000469082
0.000468142
0.00046724
0.000466383
0.000465521
0.000464706
0.000463891
0.000463068
0.000462241
0.000461388
0.000460495
0.000459588
0.00045868
0.000457754
0.000456806
0.00045587
0.000454953
0.000454127
0.000453332
0.00045269
0.000452101
0.000451567
0.000451207
0.000450878
0.000450473
0.000449997
0.000449447
0.00044883
0.000448171
0.000447486
0.000446842
0.000446265
0.00044576
0.000445333
0.000444946
0.000444602
0.000444271
0.00044395
0.00044363
0.000443289
0.000442892
0.000442419
0.000441896
0.000441348
0.000440858
0.000440365
0.00043983
0.000439466
0.000439158
0.00043889
0.000438644
0.00043841
0.000438179
0.000437952
0.000437693
0.000437368
0.00043698
0.000436548
0.000436086
0.000435592
0.000435026
0.000434552
0.000434145
0.000433783
0.000433462
0.000433145
0.000432803
0.000432445
0.000432063
0.000431652
0.000431218
0.000430763
0.000430286
0.000429789
0.000429273
0.000428738
0.000428187
0.000427628
0.000427064
0.000426497
0.000425896
0.000425243
0.000424592
0.000423966
0.000423414
0.000422891
0.00042237
0.000421856
0.000421331
0.000420791
0.000420187
0.000419526
0.000418796
0.000418062
0.000417481
0.000416881
0.000416424
0.000415976
0.000415502
0.000415023
0.000414549
0.000414013
0.00041356
0.000413021
0.000412374
3.65692e-05
2.93486e-05
1.99535e-05
1.26927e-05
9.0164e-06
7.93825e-06
1.09658e-05
2.20788e-05
4.17995e-05
9.10633e-05
0.000185491
0.000336709
0.000566543
0.000820226
0.00108986
0.00136143
0.00162519
0.00188241
0.00213627
0.00239045
0.00265193
0.00292563
0.00321197
0.00351511
0.00383476
0.00417169
0.00453012
0.00490564
0.00529683
0.00571781
0.00613738
0.00658055
0.00702719
0.00748384
0.00791753
0.00833853
0.00872734
0.00912344
0.00949588
0.00985784
0.0101967
0.0105281
0.0108187
0.0110837
0.0113078
0.0115343
0.0117229
0.0118904
0.0119697
0.0120721
0.0121326
0.0122015
0.0121982
0.012188
0.0121567
0.0120794
0.0119875
0.0118765
0.0117464
0.0115977
0.0114373
0.0112685
0.0110953
0.0109204
0.0107428
0.0105652
0.0103889
0.0102278
0.0100673
0.00990531
0.00974727
0.00958092
0.00941873
0.00925026
0.00908977
0.00892299
0.00876395
0.0085998
0.0084407
0.00828621
0.00812842
0.00798113
0.00783728
0.00769924
0.00756158
0.00742564
0.00729596
0.00716589
0.00704279
0.00692287
0.00680641
0.00669473
0.00658611
0.00648103
0.00637819
0.00627939
0.00618503
0.00609463
0.0060071
0.00592178
0.00584009
0.00576085
0.00568555
0.00561286
0.00554363
0.00547696
0.00541314
0.00535135
0.00529176
0.00523395
0.00517943
0.00512693
0.00507581
0.00502667
0.00497909
0.00493342
0.00488892
0.00484512
0.00480123
0.0047584
0.00471697
0.00467729
0.00463978
0.0046044
0.00457126
0.00453983
0.00450976
0.00448018
0.00445112
0.00442246
0.00439432
0.00436647
0.00433905
0.00431294
0.00428742
0.00426265
0.00423861
0.00421565
0.00418357
0.0041519
0.00411931
0.0040875
0.00405686
0.0040272
0.00399843
0.00397114
0.00394465
0.00391884
0.00389383
0.00386955
0.00384591
0.00382301
0.00380046
0.00377822
0.00375692
0.00373608
0.00371578
0.00369659
0.00367805
0.00365982
0.00364218
0.0036251
0.00360906
0.00359379
0.00357905
0.00356421
0.00354902
0.00353388
0.00351933
0.00350431
0.00349072
0.00347679
0.00346329
0.00345033
0.00343817
0.00342668
0.0034163
0.00340746
0.00339851
0.00339106
0.00338282
0.00337733
0.00337087
0.00336431
0.0033574
0.00335014
0.00334247
0.00333452
0.00332616
0.00331794
0.00330992
0.00330218
0.00329464
0.00328751
0.0032802
0.00327448
0.00326859
0.00326326
0.00325828
0.00325366
0.00324934
0.00324564
0.003242
0.00323847
0.00323485
0.0032309
0.00322653
0.00322173
0.00321654
0.00321106
0.00320557
0.00320021
0.00319537
0.00319124
0.00318772
0.00318542
0.00318477
0.00318472
0.00318526
0.00318468
0.00318321
0.00318079
0.00317742
0.00317317
0.00316783
0.00316218
0.00315808
0.00315411
0.00315339
0.00315262
0.00315159
0.00314946
0.00314613
0.00314203
0.00313698
0.00313193
0.00312645
0.00312171
0.00311631
0.00311009
4.83295e-05
5.40579e-05
5.58955e-05
3.51327e-05
2.87677e-05
4.09671e-05
7.90396e-05
0.000148543
0.00026925
0.000486365
0.000891059
0.00151265
0.00239012
0.00334719
0.00429076
0.00515401
0.00593941
0.00665997
0.00733948
0.00799344
0.00862669
0.00927316
0.00992159
0.0105866
0.0112634
0.0119532
0.0126609
0.0133719
0.0140931
0.0148205
0.0155223
0.0162394
0.016922
0.0175779
0.018185
0.0187728
0.0193189
0.019856
0.020335
0.020775
0.0211531
0.0215002
0.0217754
0.0220051
0.0221523
0.0222933
0.0223685
0.0224102
0.0223186
0.0222471
0.0221276
0.0220033
0.0218053
0.02161
0.0213871
0.0211235
0.0208477
0.0205495
0.0202319
0.0198986
0.0195581
0.0192146
0.0188719
0.018534
0.0181977
0.0178708
0.017542
0.0172281
0.0169171
0.0166115
0.0163136
0.0160176
0.0157303
0.0154445
0.0151716
0.0148954
0.0146313
0.0143657
0.0141076
0.0138588
0.0136084
0.0133722
0.0131411
0.0129192
0.0127011
0.0124855
0.0122785
0.0120723
0.0118753
0.0116831
0.0114966
0.0113161
0.0111405
0.0109711
0.0108048
0.0106443
0.0104897
0.0103397
0.0101938
0.0100511
0.00991398
0.00978009
0.00965198
0.00952698
0.00940684
0.00929025
0.00917732
0.00906749
0.00896096
0.0088571
0.00875814
0.00866219
0.00856829
0.00847756
0.00838899
0.00830351
0.00821914
0.00813606
0.00805174
0.00796987
0.00789021
0.00781283
0.00773857
0.00766823
0.00760101
0.00753597
0.00747362
0.0074121
0.00735199
0.00729254
0.00723438
0.00717654
0.0071198
0.00706501
0.00701142
0.00695942
0.00690827
0.00685886
0.00681072
0.00676436
0.00671946
0.00667621
0.0066347
0.00659516
0.00655704
0.00652014
0.00648352
0.00644767
0.00641137
0.00637557
0.00633939
0.00630372
0.00626847
0.00623446
0.006202
0.00617162
0.0061424
0.00611511
0.00608921
0.00606395
0.00603925
0.00601469
0.00598972
0.00596475
0.0059387
0.00591233
0.00588539
0.0058599
0.00583413
0.00581016
0.00578721
0.00576538
0.00574499
0.00572601
0.00570853
0.00569194
0.00567566
0.00565993
0.00564384
0.00562867
0.00561336
0.0055984
0.00558378
0.00556956
0.00555527
0.0055413
0.00552747
0.00551452
0.00550131
0.00548883
0.00547637
0.00546393
0.00545126
0.00543859
0.00542541
0.00541273
0.00540104
0.00539041
0.00538087
0.00537275
0.00536525
0.0053582
0.00535163
0.00534493
0.00533763
0.00532993
0.00532174
0.00531316
0.00530427
0.00529533
0.00528637
0.00527817
0.00527145
0.00526629
0.00526262
0.00525997
0.00525831
0.00525719
0.00525608
0.00525436
0.00525204
0.00524856
0.00524504
0.00524004
0.00523494
0.00522942
0.00522499
0.00522193
0.00522016
0.00521894
0.00521792
0.00521655
0.00521407
0.0052091
0.0052037
0.00519747
0.00519116
0.00518577
0.00517984
0.0051713
5.6346e-05
8.92789e-05
0.000107823
7.67019e-05
9.4089e-05
0.00016192
0.000289805
0.000507733
0.000895238
0.00161828
0.00273351
0.00423249
0.00596394
0.00760232
0.00906204
0.010328
0.0114566
0.0124735
0.0134154
0.0143137
0.0151872
0.0160626
0.0169326
0.0178119
0.0186941
0.0195776
0.0204597
0.0213319
0.0221925
0.023035
0.0238327
0.0246043
0.0253156
0.025989
0.0265932
0.0271527
0.0276517
0.0281072
0.0284846
0.0288027
0.0290358
0.0292079
0.0292949
0.0293282
0.0292629
0.0291739
0.029017
0.0288103
0.028484
0.0281605
0.0278058
0.0274359
0.0270131
0.0266047
0.0261662
0.0257161
0.0252651
0.0247961
0.0243228
0.0238507
0.0233845
0.0229281
0.0224799
0.0220472
0.0216217
0.0212182
0.020819
0.0204428
0.0200737
0.0197213
0.019375
0.0190465
0.018728
0.018423
0.0181285
0.0178386
0.0175583
0.017283
0.0170145
0.0167559
0.0165015
0.0162564
0.0160174
0.0157868
0.0155635
0.0153431
0.01513
0.0149196
0.0147172
0.0145192
0.014328
0.0141419
0.0139608
0.0137862
0.0136149
0.0134493
0.0132895
0.0131325
0.0129793
0.0128287
0.0126834
0.012541
0.0124043
0.01227
0.0121401
0.0120137
0.0118903
0.0117699
0.0116526
0.0115382
0.0114287
0.0113218
0.011217
0.0111148
0.0110149
0.0109178
0.0108213
0.0107252
0.0106276
0.0105314
0.0104377
0.0103465
0.0102583
0.010175
0.010095
0.0100171
0.00994209
0.0098677
0.00979486
0.00972231
0.00965101
0.00957952
0.00950911
0.00944035
0.00937305
0.00930731
0.00924264
0.00917959
0.00911765
0.00905744
0.00899878
0.00894173
0.00888652
0.00883359
0.00878202
0.008732
0.00868214
0.00863356
0.00858416
0.00853585
0.00848667
0.00843875
0.00839096
0.00834501
0.00830022
0.00825792
0.00821688
0.00817776
0.00814061
0.00810429
0.00806887
0.00803362
0.00799797
0.00796229
0.00792587
0.00788874
0.00785166
0.00781545
0.00777997
0.00774569
0.00771295
0.00768155
0.00765195
0.00762412
0.00759794
0.00757253
0.00754765
0.00752289
0.00749819
0.0074736
0.00744944
0.0074253
0.00740209
0.0073798
0.00735797
0.00733702
0.00731666
0.00729761
0.00727867
0.00726123
0.00724266
0.00722513
0.00720607
0.00718693
0.00716792
0.00714885
0.00713047
0.00711367
0.00709816
0.00708441
0.00707169
0.00705982
0.00704874
0.00703761
0.00702601
0.00701428
0.00700234
0.00699028
0.0069781
0.00696608
0.00695405
0.00694273
0.00693305
0.00692468
0.00691869
0.00691501
0.00691216
0.00690989
0.00690803
0.00690609
0.00690397
0.00690138
0.00689897
0.00689555
0.00689241
0.0068885
0.00688552
0.00688356
0.00688307
0.00688331
0.00688408
0.00688486
0.00688542
0.00688364
0.00688134
0.00687739
0.00687316
0.00686909
0.00686429
0.00685743
6.28509e-05
0.000173427
0.000209014
0.000168453
0.000250896
0.000417457
0.000709142
0.00125242
0.00221972
0.00371062
0.00570398
0.00789842
0.0100543
0.0119933
0.0137026
0.0152201
0.0165259
0.0177224
0.0188321
0.0198847
0.0209055
0.0219133
0.0229068
0.0238946
0.0248705
0.0258321
0.0267706
0.0276796
0.0285497
0.0293731
0.0301249
0.0308248
0.0314485
0.0320157
0.0325006
0.0329151
0.0332495
0.0335087
0.033681
0.0337685
0.0337475
0.0336321
0.0334278
0.0331639
0.0328092
0.0324144
0.0319665
0.0311684
0.030328
0.029482
0.0285904
0.0277175
0.0269614
0.0263589
0.0255043
0.0248601
0.0243254
0.0237219
0.023203
0.0226753
0.0222832
0.0218441
0.0215091
0.021108
0.0208246
0.0204819
0.0202484
0.020005
0.0197868
0.0196249
0.0194132
0.0192783
0.0191482
0.0189771
0.0187068
0.018448
0.0181968
0.0179554
0.017721
0.017496
0.0172795
0.0170686
0.0168644
0.0166669
0.0164793
0.0162941
0.0161142
0.0159373
0.0157659
0.0155986
0.0154377
0.0152808
0.0151288
0.0149827
0.0148396
0.0147013
0.014568
0.0144358
0.0143063
0.0141779
0.0140534
0.0139307
0.0138126
0.0136957
0.0135823
0.0134717
0.0133632
0.0132574
0.0131537
0.013053
0.0129564
0.0128616
0.012769
0.0126777
0.0125885
0.0125008
0.0124134
0.0123253
0.0122354
0.0121459
0.0120578
0.0119726
0.0118893
0.0118109
0.0117361
0.0116636
0.0115933
0.0115235
0.0114551
0.0113865
0.0113187
0.0112501
0.0111823
0.011115
0.011049
0.0109838
0.0109199
0.010857
0.0107954
0.0107352
0.0106764
0.0106189
0.0105629
0.0105088
0.0104557
0.0104039
0.0103522
0.0103017
0.0102503
0.0102003
0.0101491
0.0100993
0.0100494
0.0100012
0.00995366
0.00990828
0.00986397
0.00982129
0.00978067
0.00974066
0.0097017
0.00966285
0.0096238
0.00958454
0.00954482
0.00950412
0.00946384
0.00942363
0.00938465
0.00934663
0.00931013
0.00927524
0.00924207
0.00921062
0.0091808
0.00915189
0.00912313
0.00909467
0.00906577
0.00903669
0.00900784
0.00897867
0.00895036
0.00892326
0.00889697
0.00887209
0.00884822
0.00882602
0.00880424
0.00878465
0.00876357
0.00874363
0.00872159
0.00870009
0.00867738
0.0086545
0.00863235
0.00861179
0.00859254
0.00857538
0.00855941
0.00854435
0.00853027
0.00851586
0.00850186
0.00848741
0.00847236
0.00845793
0.00844388
0.00843025
0.00841684
0.00840421
0.00839299
0.00838319
0.00837567
0.00837088
0.00836777
0.00836504
0.00836284
0.0083609
0.00835921
0.00835757
0.0083564
0.00835513
0.00835457
0.00835361
0.00835344
0.00835403
0.00835604
0.00835886
0.00836237
0.00836628
0.00837016
0.00837287
0.00837488
0.00837559
0.00837576
0.00837543
0.00837408
0.00837241
6.88379e-05
0.000315551
0.000342521
0.000324614
0.000511104
0.000842594
0.00144607
0.00257118
0.00427621
0.00653408
0.00903097
0.0115363
0.0138738
0.0159642
0.0178379
0.0194398
0.0208658
0.0221701
0.0233761
0.0245134
0.0256066
0.026671
0.0277076
0.0287201
0.0297034
0.030654
0.03156
0.0324131
0.0331948
0.0339071
0.0345356
0.0350898
0.0355502
0.0359159
0.036186
0.0363605
0.0364336
0.0363953
0.0362708
0.0360365
0.0354975
0.0343229
0.0330942
0.0317943
0.0307184
0.0296381
0.0285501
0.0274418
0.0265421
0.0257526
0.0248472
0.024039
0.0231693
0.0227615
0.0219864
0.0211846
0.0207575
0.020102
0.0196131
0.0190348
0.018688
0.0182354
0.0179435
0.0175588
0.0173154
0.0170066
0.0168142
0.0166075
0.0164496
0.01633
0.0161872
0.0161083
0.0160332
0.0160023
0.0159404
0.015928
0.0158975
0.0159119
0.0159138
0.0159131
0.0159627
0.0159523
0.0159744
0.0159922
0.0159298
0.0158081
0.0156885
0.0155696
0.0154529
0.0153398
0.015231
0.0151248
0.0150243
0.0149276
0.0148321
0.0147396
0.0146502
0.0145603
0.0144719
0.0143821
0.0142944
0.0142067
0.0141221
0.0140373
0.0139545
0.0138735
0.0137935
0.013716
0.0136391
0.013565
0.013494
0.0134245
0.0133566
0.013289
0.0132227
0.0131567
0.0130902
0.0130227
0.0129528
0.0128822
0.0128117
0.0127435
0.0126766
0.0126135
0.0125544
0.0124977
0.0124429
0.0123887
0.0123356
0.0122819
0.0122283
0.0121738
0.0121193
0.0120643
0.0120101
0.0119558
0.0119026
0.0118497
0.0117982
0.0117476
0.0116984
0.0116501
0.011603
0.011557
0.0115116
0.0114669
0.0114224
0.0113788
0.0113347
0.0112918
0.011248
0.0112052
0.0111623
0.0111202
0.0110785
0.011038
0.0109982
0.0109596
0.0109225
0.0108858
0.01085
0.0108144
0.0107788
0.0107428
0.0107066
0.0106697
0.0106328
0.0105957
0.0105595
0.0105243
0.0104903
0.0104578
0.0104267
0.0103973
0.0103693
0.0103424
0.0103153
0.0102886
0.0102609
0.0102329
0.0102046
0.0101758
0.0101473
0.01012
0.0100939
0.0100693
0.0100461
0.0100247
0.0100039
0.00998578
0.00996626
0.00994756
0.00992684
0.00990638
0.00988448
0.00986183
0.00983977
0.00981891
0.00979957
0.00978218
0.00976623
0.00975099
0.0097367
0.00972195
0.00970785
0.0096932
0.00967853
0.0096642
0.00965045
0.00963713
0.00962462
0.00961338
0.00960325
0.00959467
0.00958799
0.00958423
0.00958182
0.00958012
0.00957915
0.00957867
0.00957871
0.00957911
0.00958029
0.00958183
0.00958467
0.00958777
0.00959163
0.00959611
0.00960185
0.00960846
0.00961581
0.00962386
0.00963223
0.00963995
0.00964722
0.00965369
0.0096596
0.00966502
0.00966907
0.00967549
7.75883e-05
0.00044383
0.000508424
0.000563997
0.000915855
0.00150817
0.0026411
0.00442044
0.00679094
0.00944792
0.0122014
0.014833
0.0172444
0.0194382
0.0213294
0.022988
0.0244788
0.0258358
0.0270819
0.0282474
0.0293531
0.0304132
0.0314294
0.0324026
0.033327
0.0341991
0.035005
0.0357329
0.0363653
0.0369036
0.0373374
0.0376709
0.0379026
0.0380007
0.0379952
0.037876
0.0370511
0.0357641
0.0343386
0.0328203
0.0315547
0.0301906
0.0289156
0.0276443
0.0266167
0.025658
0.0246216
0.0236228
0.0226415
0.022027
0.0211265
0.020324
0.0193819
0.0189962
0.018272
0.0173994
0.0169426
0.0162635
0.0158022
0.0152204
0.0148887
0.0144413
0.0141723
0.0138217
0.0135985
0.0133341
0.0131541
0.0129761
0.0128504
0.012749
0.0126556
0.0126047
0.0125675
0.0125534
0.0125445
0.0125616
0.0125995
0.0126608
0.0127367
0.0127985
0.0129247
0.0129932
0.0130629
0.0131909
0.0132746
0.0134102
0.0134833
0.0136118
0.0136923
0.0137631
0.0138583
0.0139344
0.0139435
0.0139096
0.013875
0.0138407
0.0138074
0.0137721
0.0137361
0.0136962
0.0136568
0.0136153
0.0135746
0.0135317
0.0134891
0.0134469
0.0134043
0.0133639
0.0133225
0.0132827
0.0132444
0.0132074
0.0131714
0.0131346
0.013098
0.0130606
0.0130221
0.0129824
0.0129402
0.0128954
0.012849
0.0128041
0.01276
0.012718
0.01268
0.0126448
0.0126113
0.0125788
0.0125469
0.0125144
0.0124816
0.0124475
0.0124127
0.0123765
0.0123403
0.012303
0.0122664
0.0122295
0.0121938
0.0121585
0.0121245
0.0120911
0.0120586
0.0120263
0.0119944
0.0119627
0.0119313
0.0119003
0.0118695
0.0118395
0.0118093
0.0117794
0.0117497
0.0117198
0.0116899
0.0116601
0.0116304
0.0116012
0.011573
0.0115446
0.0115171
0.0114896
0.0114626
0.0114351
0.0114079
0.0113801
0.0113519
0.0113235
0.0112954
0.0112682
0.0112415
0.0112161
0.0111917
0.011169
0.0111472
0.0111267
0.0111059
0.0110854
0.0110636
0.0110414
0.0110185
0.0109947
0.0109707
0.0109477
0.0109261
0.0109059
0.0108874
0.0108707
0.0108547
0.0108414
0.0108272
0.0108134
0.0107979
0.0107821
0.0107651
0.0107466
0.0107284
0.0107109
0.0106951
0.0106809
0.0106683
0.0106563
0.0106451
0.0106333
0.0106221
0.0106103
0.0105989
0.0105878
0.0105774
0.0105677
0.0105591
0.0105516
0.0105456
0.0105408
0.0105379
0.0105374
0.0105384
0.0105401
0.0105424
0.0105454
0.0105491
0.0105533
0.0105585
0.0105645
0.0105721
0.0105804
0.0105895
0.0105994
0.0106102
0.0106219
0.0106343
0.0106476
0.0106617
0.0106754
0.0106889
0.010702
0.0107146
0.010727
0.0107378
0.0107546
8.97769e-05
0.000620772
0.000749436
0.00093338
0.00150634
0.00250725
0.00423035
0.00658838
0.00929789
0.0121885
0.0150419
0.0177097
0.0201693
0.0223491
0.0242392
0.0259208
0.0274319
0.0287972
0.0300398
0.0311867
0.0322562
0.0332622
0.034207
0.0350899
0.0359031
0.0366432
0.0372942
0.0378452
0.038277
0.0385892
0.0387759
0.0388349
0.0387993
0.0375647
0.0360255
0.0344077
0.0329732
0.0314626
0.0300042
0.0285025
0.027392
0.0261945
0.0250989
0.0240258
0.0229844
0.0221991
0.021112
0.0201351
0.0189948
0.0184144
0.0174906
0.0166412
0.0157201
0.0151139
0.0145056
0.0136881
0.0131883
0.0125876
0.0122143
0.011747
0.0114414
0.0110925
0.010857
0.010615
0.0104219
0.0102523
0.0100943
0.00997403
0.00987265
0.00980891
0.00975704
0.00973366
0.00974175
0.00971072
0.00975371
0.00973087
0.00982219
0.0098398
0.00995389
0.00999609
0.0101155
0.0101879
0.0102209
0.0103771
0.0104491
0.0105923
0.0106893
0.0108305
0.0109516
0.0110665
0.0112083
0.01133
0.011467
0.011644
0.0117757
0.0118834
0.011991
0.0120969
0.0122306
0.0123077
0.0123273
0.0123405
0.0123505
0.0123565
0.0123604
0.0123633
0.0123649
0.0123674
0.0123675
0.0123677
0.0123678
0.0123685
0.0123696
0.0123689
0.0123668
0.0123632
0.0123582
0.0123514
0.0123422
0.012328
0.0123113
0.0122939
0.0122763
0.0122594
0.0122455
0.0122346
0.0122256
0.0122181
0.012211
0.0122032
0.0121949
0.0121849
0.0121736
0.01216
0.0121456
0.0121292
0.0121127
0.012095
0.0120782
0.0120615
0.0120457
0.0120304
0.0120153
0.0120002
0.0119852
0.0119698
0.0119547
0.0119399
0.0119256
0.0119119
0.0118988
0.0118855
0.0118725
0.0118585
0.0118441
0.0118288
0.0118126
0.0117963
0.0117806
0.0117641
0.0117479
0.0117318
0.0117167
0.0117009
0.0116863
0.0116712
0.0116555
0.0116396
0.0116233
0.0116075
0.0115916
0.0115767
0.0115622
0.0115491
0.0115368
0.0115257
0.0115144
0.0115034
0.011491
0.011478
0.0114638
0.0114487
0.0114329
0.0114176
0.011404
0.0113915
0.011381
0.0113722
0.011364
0.0113583
0.0113523
0.0113465
0.0113394
0.0113314
0.0113223
0.0113112
0.0113001
0.0112891
0.01128
0.0112719
0.0112656
0.0112596
0.0112545
0.0112487
0.0112434
0.0112374
0.0112321
0.011227
0.0112229
0.0112197
0.0112179
0.0112169
0.0112177
0.0112194
0.0112231
0.0112285
0.0112355
0.0112431
0.0112511
0.0112597
0.0112693
0.0112795
0.0112908
0.0113031
0.0113174
0.0113318
0.0113477
0.0113654
0.0113818
0.0114004
0.011419
0.0114391
0.0114601
0.0114811
0.0115018
0.0115225
0.0115428
0.011563
0.0115816
0.0116105
0.000102301
0.000838417
0.00105971
0.00143888
0.0023222
0.00382708
0.00606349
0.00873246
0.0116473
0.0146377
0.0175081
0.0201741
0.0226289
0.0247554
0.0266314
0.0283054
0.0298007
0.0311388
0.032341
0.0334294
0.0344207
0.035329
0.0361578
0.0369054
0.0375626
0.0381229
0.0385733
0.0389048
0.0390957
0.0391412
0.0382693
0.0365957
0.0349747
0.0332999
0.0316718
0.0300209
0.0287765
0.0273978
0.0261927
0.0248597
0.0238542
0.0229132
0.0217797
0.0207791
0.0195159
0.0187877
0.0175814
0.0165983
0.0153808
0.0147076
0.0139003
0.013167
0.0124697
0.0116305
0.011257
0.0106929
0.0101993
0.00972182
0.00940023
0.00910736
0.00880818
0.00859825
0.0083861
0.00826671
0.00809673
0.00803386
0.00789213
0.0078528
0.00774772
0.00775141
0.00770493
0.0077214
0.00776513
0.00772052
0.00779336
0.00775087
0.00784895
0.00785067
0.0079441
0.00797681
0.00805604
0.00808183
0.00812181
0.00823086
0.00828424
0.00836174
0.00845693
0.00855258
0.00863037
0.00873857
0.00885164
0.00892973
0.00909538
0.00923869
0.00935542
0.00947613
0.00959933
0.00972709
0.00989887
0.01004
0.0101752
0.0102938
0.0104229
0.0105276
0.0106225
0.0107188
0.0107779
0.0108295
0.0108784
0.0109241
0.0109678
0.0110108
0.0110534
0.0110925
0.01113
0.0111649
0.011198
0.0112286
0.0112556
0.0112774
0.0112961
0.0113097
0.0113219
0.0113337
0.0113471
0.0113633
0.0113814
0.0114015
0.011422
0.0114419
0.0114611
0.0114783
0.0114931
0.0115057
0.0115161
0.0115236
0.0115297
0.0115339
0.011538
0.0115418
0.0115461
0.0115508
0.0115551
0.0115593
0.0115633
0.0115666
0.0115699
0.0115734
0.0115776
0.0115824
0.0115881
0.0115936
0.0115993
0.0116032
0.0116064
0.0116077
0.0116076
0.0116066
0.0116053
0.011603
0.0116003
0.0115975
0.011596
0.0115941
0.011594
0.0115937
0.0115929
0.0115918
0.0115897
0.0115877
0.0115848
0.0115825
0.0115801
0.0115786
0.0115777
0.0115778
0.0115781
0.0115787
0.0115777
0.0115761
0.0115732
0.0115691
0.0115642
0.0115591
0.0115558
0.0115534
0.0115529
0.0115542
0.0115561
0.0115601
0.0115643
0.0115687
0.0115721
0.0115743
0.0115755
0.0115742
0.0115726
0.0115706
0.0115702
0.0115706
0.0115726
0.011575
0.0115783
0.0115808
0.0115839
0.011586
0.0115892
0.0115924
0.0115971
0.0116026
0.0116101
0.0116179
0.011628
0.0116384
0.0116513
0.011665
0.0116805
0.0116959
0.0117122
0.0117285
0.0117459
0.011764
0.0117837
0.0118042
0.0118269
0.0118494
0.0118736
0.0118998
0.0119243
0.0119513
0.0119775
0.0120061
0.0120352
0.0120646
0.0120934
0.0121229
0.0121519
0.0121808
0.012208
0.0122505
0.000114022
0.00108136
0.00136995
0.00208528
0.00335972
0.00533923
0.00787791
0.0107302
0.0137497
0.016757
0.0196015
0.0222548
0.0246429
0.0267178
0.0285621
0.0302019
0.0316529
0.0329325
0.0340594
0.0350518
0.0359251
0.0366934
0.0373622
0.0379304
0.0383873
0.0387256
0.038936
0.039011
0.0377306
0.0359601
0.0340123
0.0321224
0.0305759
0.0290668
0.0277418
0.0263043
0.0252767
0.0240051
0.0229227
0.0218001
0.0206528
0.019911
0.018557
0.0175307
0.0160574
0.0153034
0.0141461
0.013394
0.0123741
0.0116726
0.0109667
0.0103732
0.00988979
0.00900924
0.00869271
0.00836741
0.00788573
0.00758831
0.00725978
0.00712406
0.00683066
0.00675052
0.00652066
0.00652164
0.00633416
0.00639064
0.00623838
0.00626188
0.00615428
0.00606523
0.00599928
0.00593711
0.00589503
0.00586499
0.00583592
0.00583068
0.00582522
0.00584032
0.00586434
0.00589272
0.00592955
0.00597518
0.00602989
0.00609153
0.00616177
0.00623863
0.00632317
0.00641322
0.00651087
0.00661559
0.00672573
0.00684307
0.00696996
0.00709425
0.00722538
0.0073564
0.00749053
0.00762881
0.00776691
0.00790385
0.00803432
0.00816311
0.00828428
0.00840291
0.00851419
0.00862396
0.00872806
0.0088282
0.00892509
0.0090182
0.00910866
0.00919667
0.0092827
0.00936545
0.00944599
0.0095238
0.00959919
0.00967176
0.00973944
0.0098017
0.00985839
0.00990819
0.00995508
0.00999898
0.0100431
0.0100895
0.0101379
0.0101882
0.0102393
0.0102899
0.0103391
0.0103865
0.0104312
0.0104731
0.0105115
0.0105464
0.0105782
0.010607
0.0106339
0.0106604
0.0106865
0.010713
0.0107388
0.0107644
0.0107893
0.0108136
0.0108373
0.0108613
0.0108856
0.0109106
0.0109365
0.0109625
0.0109877
0.0110113
0.0110335
0.0110532
0.0110711
0.0110875
0.0111023
0.0111156
0.011128
0.0111399
0.0111531
0.0111666
0.011182
0.0111979
0.0112134
0.0112286
0.0112423
0.0112557
0.0112675
0.0112791
0.01129
0.0113014
0.0113132
0.0113258
0.0113388
0.0113521
0.011364
0.0113752
0.0113852
0.0113938
0.0114013
0.0114081
0.0114165
0.0114257
0.0114368
0.0114495
0.0114629
0.0114779
0.0114937
0.0115096
0.0115249
0.0115389
0.0115519
0.0115621
0.0115718
0.0115803
0.0115901
0.0116006
0.0116125
0.0116248
0.0116381
0.0116507
0.0116637
0.0116757
0.0116892
0.0117026
0.0117177
0.0117338
0.0117523
0.0117705
0.0117918
0.0118126
0.0118368
0.0118605
0.011886
0.0119112
0.0119377
0.0119637
0.0119911
0.0120188
0.0120485
0.0120788
0.0121116
0.012144
0.0121778
0.0122139
0.012248
0.0122848
0.0123205
0.0123586
0.0123971
0.0124369
0.0124752
0.0125148
0.0125525
0.0125911
0.0126274
0.012685
0.000127052
0.0012847
0.00187575
0.00286072
0.00453826
0.00683189
0.00957209
0.0125206
0.015569
0.0185464
0.0213411
0.0239584
0.026261
0.0282825
0.0300779
0.0316609
0.0330404
0.0342292
0.0352436
0.0361003
0.0368135
0.0373964
0.0378586
0.0381996
0.0384145
0.0384947
0.0371921
0.0352148
0.0332752
0.0313547
0.0296243
0.0280432
0.0268932
0.0255812
0.0244508
0.0230707
0.0221285
0.0212347
0.0201124
0.0191057
0.0175987
0.0168495
0.0154071
0.0145206
0.0132184
0.0124595
0.011429
0.0108502
0.0100611
0.009291
0.00861527
0.00807878
0.00767515
0.00711171
0.00664548
0.00650226
0.00610264
0.0060359
0.00568464
0.00567146
0.00538926
0.00522233
0.00505605
0.00488053
0.00475794
0.00462992
0.00453935
0.00444451
0.00438005
0.00431136
0.00426634
0.00421664
0.00418927
0.00415898
0.00413652
0.00412373
0.00410924
0.00410807
0.00411047
0.00411832
0.00413078
0.00415061
0.00417667
0.00420736
0.00424425
0.00428647
0.00433441
0.00438868
0.0044496
0.00451596
0.0045892
0.00467106
0.00475812
0.00485369
0.00495533
0.0050626
0.00517741
0.0052997
0.00542368
0.00555429
0.00568167
0.00581473
0.00594161
0.00607199
0.00619677
0.00632503
0.0064479
0.00657453
0.00669696
0.00682176
0.00694302
0.0070678
0.00718694
0.00730759
0.00742354
0.00754023
0.00765253
0.0077648
0.0078696
0.00797149
0.00806307
0.00814689
0.00822873
0.00830775
0.00838531
0.00846348
0.00854329
0.00862548
0.00870842
0.00879142
0.00887342
0.00895377
0.00903072
0.00910407
0.00917281
0.00923684
0.00929644
0.00935221
0.00940505
0.00945602
0.00950589
0.00955579
0.0096053
0.00965429
0.00970249
0.00975008
0.00979668
0.00984323
0.00988979
0.00993687
0.00998442
0.0100322
0.0100782
0.0101234
0.0101661
0.0102061
0.0102436
0.010279
0.0103115
0.0103424
0.0103715
0.0103994
0.0104286
0.0104588
0.0104909
0.0105241
0.010557
0.0105895
0.0106205
0.0106506
0.0106786
0.0107054
0.0107307
0.0107558
0.0107812
0.0108072
0.0108338
0.0108608
0.0108867
0.0109118
0.0109358
0.0109581
0.0109795
0.0109993
0.0110205
0.0110422
0.0110658
0.0110907
0.0111165
0.0111435
0.0111716
0.0112
0.0112281
0.0112548
0.0112806
0.0113034
0.0113256
0.0113457
0.0113666
0.0113881
0.0114109
0.0114341
0.0114584
0.0114822
0.0115064
0.0115295
0.0115544
0.0115792
0.011606
0.0116339
0.0116645
0.0116944
0.0117277
0.0117607
0.0117965
0.0118315
0.0118689
0.0119056
0.0119437
0.0119811
0.0120197
0.0120586
0.0120998
0.0121411
0.0121853
0.0122291
0.0122738
0.0123208
0.012366
0.0124135
0.0124603
0.0125092
0.0125584
0.0126096
0.0126585
0.0127094
0.0127569
0.0128078
0.0128528
0.0129253
0.00014693
0.00150865
0.00245664
0.0037095
0.00570163
0.00821315
0.0110702
0.0140684
0.0170959
0.0200163
0.0227548
0.025298
0.0275233
0.0294934
0.0312295
0.0327334
0.0340094
0.035067
0.0359217
0.0365924
0.0370943
0.0374399
0.0376463
0.0377149
0.0367248
0.0348301
0.0326381
0.0304907
0.0288545
0.0273171
0.0260403
0.0247278
0.0237973
0.0226065
0.0216452
0.0205265
0.0194916
0.0189324
0.0175368
0.0165754
0.0149556
0.0141558
0.0128683
0.0121546
0.0111249
0.010253
0.0093021
0.00869304
0.00811298
0.00737353
0.00681033
0.00631535
0.00594524
0.00576966
0.00523035
0.00499198
0.0046986
0.00442359
0.00421578
0.00402471
0.00388754
0.00375086
0.00365715
0.00356184
0.00349491
0.00342455
0.00337379
0.0033198
0.00328081
0.00323942
0.00320977
0.0031769
0.00315621
0.00313143
0.00311618
0.00310147
0.00308516
0.0030752
0.00306405
0.00305748
0.00305308
0.00305363
0.00305607
0.00306034
0.00306754
0.00307719
0.0030903
0.00310613
0.00312621
0.00315025
0.00317846
0.00321196
0.0032503
0.00329356
0.00334273
0.00339722
0.00345881
0.00352488
0.00359856
0.00367582
0.00375973
0.00384676
0.00393846
0.0040332
0.00413247
0.00423518
0.00434085
0.00444923
0.00456197
0.00467866
0.00479673
0.00492105
0.0050429
0.00517032
0.00529683
0.00542819
0.0055557
0.00568721
0.00580935
0.00593397
0.00604962
0.00616144
0.00626864
0.00637392
0.00647832
0.00658443
0.00669219
0.00680195
0.00691368
0.00702627
0.0071384
0.0072485
0.00735573
0.00745783
0.00755507
0.00764627
0.00773286
0.0078148
0.00789339
0.0079703
0.00804502
0.00811963
0.00819368
0.00826713