/*--------------------------------*- C++ -*----------------------------------*\
| =========                 |                                                 |
| \\      /  F ield         | OpenFOAM: The Open Source CFD Toolbox           |
|  \\    /   O peration     | Version:  2312                                  |
|   \\  /    A nd           | Website:  www.openfoam.com                      |
|    \\/     M anipulation  |                                                 |
\*---------------------------------------------------------------------------*/
FoamFile
{
    version     2.0;
    format      ascii;
    arch        "LSB;label=32;scalar=64";
    class       volScalarField;
    location    "0.001";
    object      omega;
}
// * * * * * * * * * * * * * * * * * * * * * * * * * * * * * * * * * * * * * //

dimensions      [0 0 -1 0 0 0 0];

internalField   nonuniform List<scalar> 
48128
(
2.37054e+06
2.37029e+06
2.38105e+06
2.3879e+06
2.38821e+06
2.38964e+06
2.39166e+06
2.39618e+06
2.40238e+06
2.39665e+06
2.40596e+06
2.43099e+06
2.47488e+06
2.52165e+06
2.56135e+06
2.59214e+06
2.61611e+06
2.63348e+06
2.64565e+06
2.65305e+06
2.65669e+06
2.65673e+06
2.65338e+06
2.64668e+06
2.63675e+06
2.62406e+06
2.60823e+06
2.58892e+06
2.56756e+06
2.54403e+06
2.51837e+06
2.49187e+06
2.46381e+06
2.43532e+06
2.40652e+06
2.37832e+06
2.35158e+06
2.32545e+06
2.30089e+06
2.27703e+06
2.25583e+06
2.23548e+06
2.21812e+06
2.20243e+06
2.18798e+06
2.17377e+06
2.15929e+06
2.14239e+06
2.12201e+06
2.10509e+06
2.08659e+06
2.0702e+06
2.04738e+06
2.03683e+06
2.03773e+06
2.03607e+06
2.03446e+06
2.03061e+06
2.02548e+06
2.01814e+06
2.00936e+06
1.99986e+06
1.98968e+06
1.97908e+06
1.96801e+06
1.95654e+06
1.94358e+06
1.93025e+06
1.91672e+06
1.9032e+06
1.89005e+06
1.87666e+06
1.86332e+06
1.84976e+06
1.83657e+06
1.82317e+06
1.81022e+06
1.79709e+06
1.78423e+06
1.7717e+06
1.75892e+06
1.74705e+06
1.73555e+06
1.72486e+06
1.71434e+06
1.70401e+06
1.69441e+06
1.68485e+06
1.6759e+06
1.66729e+06
1.65896e+06
1.65113e+06
1.64362e+06
1.63665e+06
1.62994e+06
1.62342e+06
1.61712e+06
1.61121e+06
1.60558e+06
1.60036e+06
1.5955e+06
1.59079e+06
1.58631e+06
1.58203e+06
1.57795e+06
1.57402e+06
1.57026e+06
1.56673e+06
1.56344e+06
1.56022e+06
1.55714e+06
1.55419e+06
1.55139e+06
1.54879e+06
1.54632e+06
1.54392e+06
1.54163e+06
1.5394e+06
1.53721e+06
1.53552e+06
1.534e+06
1.53246e+06
1.53123e+06
1.52983e+06
1.52832e+06
1.52675e+06
1.52514e+06
1.52355e+06
1.52202e+06
1.52059e+06
1.51928e+06
1.51807e+06
1.51702e+06
1.51613e+06
1.51529e+06
1.51449e+06
1.51367e+06
1.51285e+06
1.51197e+06
1.51103e+06
1.51e+06
1.50889e+06
1.50771e+06
1.50649e+06
1.50524e+06
1.50398e+06
1.50274e+06
1.50152e+06
1.5003e+06
1.49909e+06
1.49791e+06
1.49678e+06
1.49577e+06
1.49477e+06
1.494e+06
1.49317e+06
1.49257e+06
1.49198e+06
1.4913e+06
1.49052e+06
1.48966e+06
1.48873e+06
1.48779e+06
1.48688e+06
1.486e+06
1.48524e+06
1.48453e+06
1.48388e+06
1.48326e+06
1.4826e+06
1.48189e+06
1.4811e+06
1.48023e+06
1.47925e+06
1.47817e+06
1.477e+06
1.47577e+06
1.47458e+06
1.47339e+06
1.47241e+06
1.47139e+06
1.47066e+06
1.4701e+06
1.46962e+06
1.46915e+06
1.46865e+06
1.4681e+06
1.46747e+06
1.46672e+06
1.46581e+06
1.46477e+06
1.46361e+06
1.46236e+06
1.46106e+06
1.45968e+06
1.45832e+06
1.45705e+06
1.45585e+06
1.45467e+06
1.45351e+06
1.45233e+06
1.45112e+06
1.4499e+06
1.44865e+06
1.44736e+06
1.44603e+06
1.44461e+06
1.4431e+06
1.44146e+06
1.43968e+06
1.43775e+06
1.43569e+06
1.43352e+06
1.43126e+06
1.42892e+06
1.42652e+06
1.42423e+06
1.42209e+06
1.42019e+06
1.41843e+06
1.41671e+06
1.41497e+06
1.41316e+06
1.41124e+06
1.40914e+06
1.40681e+06
1.40442e+06
1.40183e+06
1.3998e+06
1.39792e+06
1.3964e+06
1.39502e+06
1.39364e+06
1.39222e+06
1.3908e+06
1.3893e+06
1.38788e+06
1.3865e+06
1.38511e+06
1.3834e+06
857482
555396
449069
476574
508859
550226
597147
731995
953209
1.10209e+06
1.16834e+06
1.16216e+06
1.04101e+06
949114
881909
835146
804683
784645
771092
762116
755558
750308
745915
741999
738484
735377
732269
729385
727085
723994
722207
720722
719629
719001
720459
723529
729024
733992
739572
744973
750573
755843
761696
767372
773035
777892
782484
786045
789180
791404
793441
794887
795513
796254
798078
800073
800914
800827
800125
798699
796498
793636
790182
786231
781858
777099
771682
765529
758974
752151
745170
738347
731390
724596
717695
710900
704020
697291
690525
683909
677589
671155
664912
658753
653008
647384
641936
636756
631789
626961
622434
618019
613687
609652
605941
602392
599072
595796
592635
589669
586881
584323
581912
579730
577650
575767
573957
572243
570685
569300
567949
566657
565437
564280
563230
562229
561334
560439
559584
558688
557970
557478
556948
556725
556556
556400
556230
556047
555842
555621
555390
555167
554945
554747
554601
554569
554604
554685
554811
554957
555140
555343
555549
555744
555948
556156
556384
556642
556929
557238
557605
557992
558392
558646
558853
558948
559068
559255
559513
559841
560230
560647
561063
561471
561945
562381
562879
563397
563873
564400
564859
565336
565820
566298
566761
567229
567658
567896
568221
568334
568511
568441
568426
568460
568537
568637
568768
568929
569169
569460
569796
570127
570515
570832
571255
571428
571471
571475
571438
571346
571204
571028
570834
570675
570525
570485
570477
570500
570553
570615
570615
570550
570396
570143
569758
569192
568383
567386
566251
565208
564175
563279
562405
561703
561082
560625
559951
559004
557765
556386
554933
553640
552538
551613
550753
549991
549187
548386
547612
546620
857213
418577
245522
225171
245117
327263
476656
604801
668495
682856
636363
573079
509763
466630
440117
425703
418163
414722
413591
413862
415548
417453
419939
422657
425746
429163
432757
436782
441118
445719
451112
456559
462840
470028
478079
486549
495672
504848
514509
524082
533657
543122
552818
562310
571387
579874
587969
595465
602032
607581
612609
617068
620699
623073
625458
627080
627596
627324
626386
624651
622124
618881
614996
610580
605673
600350
594604
588421
581877
575037
567996
560857
553592
546317
538975
531660
524348
517106
509930
502861
496059
489230
482588
476042
469788
463624
457639
451797
446180
440677
435429
430314
425329
420580
416062
411684
407538
403483
399559
395797
392170
388731
385432
382324
379328
376506
373790
371197
368724
366398
364148
361990
359909
357901
355977
354112
352357
350631
348974
347331
345756
344372
342969
341758
340633
339587
338569
337602
336648
335725
334812
333934
333064
332215
331413
330654
329973
329340
328764
328214
327707
327226
326754
326295
325865
325450
325062
324709
324398
324112
323853
323601
323343
323065
322765
322439
322087
321751
321479
321246
321064
320907
320789
320669
320599
320534
320503
320477
320454
320462
320471
320487
320512
320548
320597
320665
320750
320792
320867
320868
320886
320840
320780
320719
320672
320624
320582
320529
320535
320559
320623
320709
320843
320994
321204
321356
321454
321538
321578
321576
321559
321527
321481
321451
321449
321472
321527
321618
321743
321888
322042
322164
322237
322263
322238
322148
321945
321632
321228
320783
320310
319860
319390
319003
318624
318362
318032
317600
317014
316327
315529
314709
313929
313253
312591
312003
311397
310803
310199
309435
858504
313986
170955
171530
242604
355139
444053
481552
481343
443625
405488
368351
338010
320678
311912
308363
307536
308683
311055
314092
317707
321586
325906
330543
335589
341033
346900
353269
360107
367516
375611
384216
393614
403753
414589
425818
437476
449634
462319
474978
487351
499711
512105
524378
535832
546769
556981
566724
575135
582405
588755
594366
599008
601801
604260
605476
605477
604707
603014
600385
596861
592565
587538
581950
575790
569202
562171
554748
546974
538886
530593
522143
513561
504887
496277
487700
479278
470942
462759
454731
446959
439274
431775
424415
417338
410345
403561
396902
390499
384230
378219
372370
366699
361269
356038
350973
346154
341457
336910
332524
328286
324229
320328
316597
312990
309554
306227
303043
299963
297030
294201
291478
288842
286289
283818
281427
279127
276887
274685
272556
270466
268543
266618
264852
263175
261587
260046
258570
257124
255728
254355
253027
251719
250444
249218
248028
246905
245826
244807
243834
242910
242028
241167
240336
239541
238776
238039
237341
236684
236060
235459
234874
234292
233704
233109
232507
231896
231302
230752
230241
229766
229323
228914
228518
228156
227807
227483
227155
226853
226564
226296
226045
225808
225582
225379
225201
225049
224888
224753
224600
224465
224309
224146
223988
223838
223686
223532
223370
223233
223097
223016
222923
222903
222898
222929
222951
222964
222973
222966
222945
222915
222879
222835
222807
222802
222814
222851
222916
223010
223126
223255
223381
223484
223578
223641
223653
223619
223530
223381
223192
222971
222733
222470
222231
221979
221797
221584
221323
220967
220550
220045
219501
218932
218395
217852
217346
216827
216321
215800
215118
859189
227500
143063
186512
278357
354240
388489
382426
356567
328574
302019
280190
266446
259860
257556
257505
259796
262868
266646
270891
275589
280652
286175
292135
298620
305678
313333
321642
330628
340424
351034
362298
374312
387134
400701
414781
429187
444305
460034
476030
491690
507396
522934
538350
552526
565982
578264
589917
600026
608403
615433
621124
626021
628026
629192
628955
627469
624908
621213
616698
611186
604990
598003
590525
582444
573996
565132
556011
546672
537069
527294
517443
507517
497550
487767
478089
468638
459340
450226
441322
432703
424181
415869
407701
399866
392147
384686
377375
370353
363479
356889
350470
344269
338299
332521
326952
321648
316493
311512
306690
302036
297563
293262
289119
285107
281270
277540
273966
270484
267152
263942
260843
257843
254931
252104
249380
246726
244158
241608
239152
236730
234453
232200
230078
228055
226128
224253
222450
220684
218976
217298
215669
214069
212507
210994
209522
208109
206744
205431
204171
202957
201794
200660
199567
198508
197490
196502
195557
194649
193782
192936
192118
191310
190505
189701
188901
188097
187320
186575
185870
185196
184556
183945
183360
182796
182253
181729
181196
180701
180206
179743
179298
178875
178466
178079
177715
177382
177042
176738
176422
176140
175850
175565
175291
175031
174774
174519
174258
174013
173765
173562
173347
173194
173036
172940
172839
172737
172645
172550
172452
172353
172260
172165
172091
172024
171984
171976
171987
172020
172075
172144
172219
172289
172358
172414
172450
172447
172421
172361
172275
172164
172034
171883
171728
171558
171424
171272
171090
170844
170557
170205
169816
169397
168969
168526
168086
167633
167184
166718
166092
858919
189566
166613
225179
294729
327231
328824
306196
285179
264809
247196
235454
229304
227254
227457
230020
233642
237849
242585
247762
253422
259558
266232
273485
281427
290141
299658
310013
321280
333560
346742
360741
375560
391439
408281
425916
443857
462692
482160
502193
521520
540901
559698
577896
594227
608322
620797
631604
641361
647467
652044
654535
656889
655357
653004
650619
646463
641394
635177
628545
620958
612940
604219
595150
585594
575762
565659
555363
544892
534335
523651
513200
502648
492220
481904
471831
461916
452247
442720
433463
424494
415561
406918
398353
390187
382131
374382
366777
359462
352295
345427
338698
332229
325978
319955
314176
308675
303336
298190
293192
288360
283699
279212
274873
270664
266629
262693
258921
255225
251679
248254
244947
241739
238626
235600
232688
229829
227080
224336
221687
219071
216581
214131
211792
209550
207415
205332
203327
201359
199454
197582
195759
193971
192220
190519
188861
187259
185705
184200
182748
181340
179986
178665
177387
176143
174940
173773
172647
171559
170513
169489
168500
167524
166563
165604
164658
163713
162799
161912
161062
160243
159460
158704
157977
157267
156582
155911
155233
154591
153953
153347
152760
152197
151649
151125
150621
150149
149672
149231
148781
148372
147959
147558
147171
146803
146446
146097
145747
145409
145070
144769
144457
144195
143928
143715
143505
143298
143107
142918
142736
142555
142388
142226
142083
141950
141842
141758
141701
141667
141659
141662
141669
141680
141696
141708
141716
141708
141683
141638
141579
141505
141420
141317
141207
141084
140978
140861
140722
140535
140320
140056
139760
139435
139093
138729
138351
137956
137555
137136
136559
858380
203698
200798
247546
281476
290701
274841
257030
240915
226120
215169
208949
206493
206369
208735
212498
217002
222060
227609
233643
240245
247437
255302
263918
273420
283928
295480
308101
321822
336836
352999
370258
388412
407860
428475
450175
472213
495220
518599
542197
563996
584362
603250
619673
634570
644790
653482
659585
666417
667579
667219
665206
662890
657463
650235
642779
633733
624053
613769
603754
593445
583230
572887
562408
552021
541401
531156
520860
510715
500938
490994
481657
472142
463133
453979
445363
436633
428363
420007
412041
404224
396306
388834
381222
373961
366601
359538
352523
345678
338986
332504
326069
319940
313921
308128
302563
297240
292061
287064
282175
277437
272852
268424
264134
259955
255953
252020
248267
244559
241003
237545
234223
230980
227845
224775
221831
218918
216144
213356
210661
207983
205415
202894
200464
198121
195894
193709
191612
189545
187543
185574
183654
181767
179917
178114
176352
174644
172978
171363
169796
168272
166802
165365
163967
162605
161279
159994
158744
157537
156366
155221
154114
153017
151946
150879
149829
148786
147767
146784
145827
144903
144013
143154
142317
141506
140716
139937
139156
138405
137665
136954
136259
135591
134938
134312
133704
133127
132547
132001
131447
130934
130418
129918
129435
128972
128527
128091
127663
127247
126829
126448
126059
125709
125357
125047
124748
124450
124173
123898
123638
123380
123140
122909
122696
122493
122317
122160
122033
121928
121848
121782
121726
121673
121632
121589
121553
121511
121461
121399
121332
121259
121179
121089
120994
120889
120796
120695
120578
120425
120250
120038
119800
119537
119255
118950
118626
118281
117924
117545
117015
857706
219247
217994
243675
258513
253394
237424
223903
211492
201096
194360
191172
190430
192004
195483
199975
205155
210917
217206
224062
231586
239862
248999
259089
270287
282767
296585
311759
328268
346406
366007
387059
408995
432552
457361
483358
508696
533830
557977
580562
600842
616511
630393
640870
651095
654598
657115
656076
654339
648115
639676
629727
619621
608851
596877
584605
572663
560675
549328
537842
527359
516651
506733
496437
486936
477033
468071
458966
450450
442339
434149
426718
419062
412133
404943
398435
391691
385463
379023
372956
366854
360604
354801
348812
343240
337584
332142
326759
321388
316172
310974
305849
300862
295930
291127
286455
281852
277368
272950
268602
264316
260169
256114
252176
248314
244596
240948
237443
233978
230631
227358
224209
221123
218144
215204
212376
209578
206910
204245
201635
199036
196533
194062
191676
189353
187141
184969
182882
180821
178820
176854
174930
173039
171175
169355
167571
165834
164135
162483
160874
159305
157788
156297
154846
153428
152041
150694
149378
148106
146864
145652
144474
143309
142172
141040
139928
138824
137737
136691
135665
134672
133707
132780
131866
130989
130123
129271
128423
127599
126786
126000
125228
124485
123756
123056
122373
121720
121067
120442
119813
119220
118625
118046
117486
116945
116426
115917
115423
114942
114461
114014
113563
113142
112725
112339
111967
111595
111246
110899
110571
110247
109941
109646
109369
109104
108864
108640
108448
108275
108130
107997
107880
107766
107668
107568
107485
107400
107313
107221
107131
107039
106946
106846
106747
106640
106547
106450
106341
106204
106050
105869
105666
105443
105203
104941
104659
104355
104037
103696
103210
857293
227774
220839
231919
234324
223092
211047
200470
190932
183665
179520
178007
178400
181090
185175
190176
195897
202266
209245
216900
225359
234789
245319
257044
270129
284826
301216
319334
339059
360770
384295
409746
435790
462861
489936
516996
541849
564057
583762
599943
615251
623266
630648
631300
631095
626217
619304
609994
600275
588412
575431
561559
546759
533922
520096
504866
491242
477067
464665
451518
440437
428828
419148
408939
400468
391511
384163
376549
370297
364262
358734
354028
349179
345136
340873
337265
333495
330135
326591
323160
319625
315934
312324
308563
304998
301396
297835
294247
290620
286988
283298
279626
275910
272180
268443
264756
261118
257607
254101
250639
247166
243769
240404
237108
233854
230691
227598
224562
221546
218598
215698
212881
210122
207441
204792
202223
199688
197243
194832
192447
190056
187743
185436
183204
181017
178914
176857
174867
172911
171000
169126
167285
165475
163683
161926
160199
158509
156852
155232
153651
152103
150603
149122
147680
146264
144878
143525
142204
140917
139659
138435
137235
136054
134894
133741
132609
131481
130367
129289
128231
127206
126202
125238
124283
123367
122460
121570
120684
119819
118963
118130
117310
116519
115742
114993
114261
113558
112857
112180
111500
110851
110202
109566
108950
108350
107773
107208
106660
106129
105600
105102
104604
104130
103662
103218
102790
102362
101956
101550
101166
100788
100429
100080
99749.5
99429.4
99135
98854.5
98605
98373.1
98169
97976.7
97804.6
97635
97485
97333.2
97203.6
97074
96949.5
96821.1
96701.4
96582
96467.2
96347.7
96233.4
96113.6
96011
95908
95796.9
95664.6
95520.5
95354.6
95172.8
94975
94763.3
94532.6
94282.7
94012.1
93727.1
93418.4
92974.2
857110
230727
217207
217740
212263
201200
191691
183175
175809
170683
168129
167502
168852
172109
176558
181930
188094
195006
202658
211139
220601
231305
243415
257027
272301
289575
308964
330513
354001
379784
407318
436189
463990
490931
515872
538828
559017
574917
588365
595965
602485
600605
597202
590304
582236
570981
558187
543421
527802
511533
494379
476121
457074
438994
422462
404696
389856
374339
361803
348601
338038
327050
318493
309580
302644
295395
289771
283913
279621
275232
272005
269020
266597
264626
262620
261346
260005
259180
258325
257808
257255
256683
256165
255524
254833
254037
253155
252123
250965
249660
248187
246594
244868
242962
240918
238767
236563
234331
232056
229723
227327
224880
222390
219869
217321
214786
212248
209765
207280
204838
202421
200053
197717
195432
193166
190951
188775
186651
184578
182500
180399
178337
176269
174242
172253
170328
168446
166617
164827
163068
161348
159651
157983
156327
154693
153081
151494
149933
148400
146900
145425
143991
142574
141191
139829
138492
137185
135906
134657
133431
132240
131066
129915
128774
127644
126528
125415
124311
123239
122182
121157
120150
119178
118219
117295
116380
115482
114589
113712
112842
111992
111153
110340
109540
108768
108011
107281
106558
105853
105147
104464
103786
103117
102465
101826
101211
100608
100023
99455.4
98894.3
98360.2
97830.7
97320.2
96818.3
96333.4
95866.6
95397
94948.8
94500.5
94074.1
93655.4
93254.1
92863.7
92491.1
92128.1
91790.2
91464.1
91168.2
90887.4
90634.6
90392.6
90173.2
89956.2
89761.3
89564.2
89393.1
89222.3
89062.6
88899.5
88749.3
88601
88461.6
88318
88184.3
88046
87928.3
87814.5
87695.4
87560.4
87417.4
87258.3
87087.7
86905.4
86712.7
86504.3
86279.3
86035.8
85778.5
85498.4
85093
857881
231392
209874
202996
194694
185060
176919
169890
164107
160421
158854
158779
160753
164288
168963
174616
181165
188604
196969
206380
216998
229189
243181
259082
277028
297391
320342
345893
373259
402226
431165
459808
485432
508132
527800
544771
560108
566672
570605
568824
566080
558343
547996
534701
519838
503274
484272
463389
440146
419104
398272
377824
359128
339849
324491
308363
294972
281130
270152
258872
249909
240705
233586
226291
220592
214778
210259
205622
202211
198674
196245
193661
192170
190619
189452
188844
188159
188117
188207
188530
189024
189769
190685
191649
192704
193763
194900
195902
196969
198044
199014
199905
200825
201399
201869
202186
202289
202220
201989
201575
200963
200165
199182
198040
196752
195345
193837
192272
190654
188998
187315
185614
183893
182160
180410
178654
176905
175159
173426
171683
169914
168152
166376
164614
162874
161184
159529
157916
156341
154788
153269
151769
150293
148814
147340
145875
144423
142988
141571
140179
138805
137466
136140
134841
133567
132311
131083
129878
128701
127539
126412
125294
124205
123114
122038
120966
119895
118830
117791
116765
115765
114783
113829
112895
111989
111094
110215
109340
108477
107619
106778
105945
105134
104335
103560
102802
102067
101343
100631
99922.7
99227.9
98543.2
97861.7
97196.3
96540.2
95906
95283.2
94678.3
94090.7
93512.8
92958.7
92412.9
91882.5
91361.9
90852.8
90362.8
89869.3
89393.6
88918.2
88462.9
88016.6
87586.9
87167.7
86765.9
86372.7
86003.4
85644.2
85313.7
84996.1
84705.9
84425.3
84168.7
83914.1
83683.1
83449.5
83244
83038.7
82848.6
82655.7
82477.6
82303.5
82140.4
81973.5
81820.2
81663
81527.4
81401.1
81271.3
81129.8
80983.6
80826.3
80661.5
80489.1
80309.5
80118.1
79913
79692
79458.6
79203.6
78834.4
859944
230204
200945
190248
181205
172616
165350
159275
154655
151920
150909
151282
153559
157221
162041
167937
174875
182893
192099
202654
214718
228771
245127
263917
285210
309345
336121
365172
394461
423578
450611
475605
496839
513732
528533
536954
544142
542164
538296
530077
519837
506255
490107
471018
448229
424183
398682
375469
351044
330596
309990
291827
275892
259687
247127
234232
223860
213291
204786
196208
189259
182179
176507
170757
166098
161375
157541
153624
150510
147324
144886
142330
140569
138723
137376
136329
135233
134625
134072
133833
133873
134137
134590
135200
136001
136931
138024
139214
140566
142046
143636
145353
147147
148947
150783
152634
154439
156267
157885
159500
160899
162215
163244
164157
164831
165402
165722
165955
165936
165825
165595
165247
164767
164180
163489
162705
161833
160878
159840
158735
157554
156312
155023
153703
152366
151045
149732
148442
147167
145895
144631
143366
142103
140836
139565
138292
137020
135752
134494
133247
132008
130798
129599
128418
127265
126124
125011
123914
122833
121759
120714
119674
118660
117641
116634
115625
114615
113606
112619
111641
110687
109746
108832
107938
107069
106211
105369
104528
103697
102869
102054
101245
100452
99670.2
98910.2
98166.3
97442.1
96732.8
96031.1
95336.4
94649
93974.2
93299.4
92637.5
91982.3
91345.9
90720.1
90111
89518.3
88937.2
88377.5
87828.2
87292.4
86767.1
86249.3
85750.3
85247.8
84759.1
84271.3
83800.1
83339
82893.6
82458.2
82039.8
81628.9
81240.6
80860.8
80507.9
80166
79850.2
79543.1
79259.9
78978.5
78720.9
78460.6
78229.2
77997.7
77784.1
77568.3
77367.8
77173
76990.2
76803.7
76633.5
76460.2
76307.4
76168.8
76028.6
75880
75730
75573.3
75412.8
75248.1
75079.4
74902.1
74714.2
74513
74301.1
74069.3
73734.1
863762
227249
191906
179659
170512
162603
155990
150543
146723
144601
143919
144603
146993
150710
155656
161821
169237
177994
188290
200367
214381
230909
250317
272813
298054
326010
355459
385936
414401
441194
464565
483923
500391
510925
518371
518166
516976
510290
500195
486028
468735
448737
424966
398893
370296
344835
318749
297590
276550
259500
242725
229390
216893
205617
195909
186455
178862
171286
164987
158628
153222
147756
143203
138603
134752
130845
127546
124168
121361
118502
116182
113805
111897
109973
108379
106987
105567
104468
103358
102464
101676
101087
100683
100319
100167
100079
100143
100296
100587
101016
101594
102335
103204
104202
105350
106625
108033
109545
111130
112799
114525
116293
118029
119783
121497
123235
124840
126448
127939
129451
130815
132193
133377
134511
135516
136438
137186
137815
138205
138512
138522
138424
138204
137872
137450
136964
136425
135848
135233
134574
133867
133106
132294
131438
130542
129610
128650
127667
126667
125655
124631
123618
122604
121594
120602
119613
118635
117667
116712
115761
114830
113901
112993
112079
111170
110256
109336
108414
107505
106603
105719
104846
103994
103159
102344
101539
100745
99953.6
99168.9
98383.8
97607.6
96835.6
96075.8
95323.9
94591.1
93872.7
93171.2
92486.8
91809.1
91139
90473.3
89820
89164.8
88519.1
87877.4
87251.4
86634.6
86032.9
85446.3
84871.9
84316.7
83773.4
83242.2
82722.7
82208
81711.1
81211.1
80721.4
80232.3
79756.4
79291
78840.4
78399.2
77974.6
77556.7
77159.9
76770.6
76406
76051
75720.3
75397.8
75098.2
74800.1
74525.3
74247.8
73999.1
73749.7
73520.1
73288.7
73072.4
72863.1
72666
72465.2
72282.5
72097
71930.4
71782.4
71635.2
71481.1
71330.6
71176.1
71020.5
70863.6
70705.6
70541.9
70370.4
70188.2
69997.2
69787.9
69486.8
867850
223102
183454
170558
161590
154227
148128
143214
139863
138128
137649
138518
140940
144706
149831
156384
164491
174298
186122
200348
217068
236930
260211
286981
315917
346580
376746
406523
432813
455726
474195
486730
498421
500936
500418
495150
487022
474564
458500
438248
413145
385118
354004
326516
298578
276344
254952
238146
223025
210108
198510
189016
179520
171705
163857
157058
151052
145242
140150
134963
130559
126078
122270
118404
115125
111760
108918
106022
103653
101254
99276.9
97270.5
95555.8
93860
92354.5
91011.4
89663.4
88526.9
87391.5
86336.5
85351.2
84465.8
83713.2
82962.4
82361.7
81754
81222.3
80742.4
80313.7
79990.5
79698.8
79565.2
79440.9
79446.3
79515.5
79662.5
79899.5
80216.4
80616.8
81106.1
81684.7
82342.5
83074.6
83891.3
84791.7
85772.3
86816.9
87938.2
89138.8
90429.7
91792
93230.1
94724.7
96289.9
97921.3
99610.8
101309
103026
104614
106163
107556
108842
109988
111048
111983
112887
113695
114460
115147
115732
116246
116595
116875
116965
116921
116786
116554
116231
115830
115363
114842
114280
113685
113062
112418
111752
111066
110367
109658
108941
108221
107496
106770
106035
105288
104526
103748
102958
102162
101363
100572
99784.4
99011.1
98252.5
97512.8
96784.9
96066.3
95349.2
94635.3
93918.5
93205.8
92494
91789.7
91089.7
90404.5
89730.4
89071.5
88428.4
87794.9
87163.6
86534.3
85914.6
85291.3
84674.1
84058.1
83454.1
82857.7
82274.2
81704.4
81146.2
80605.1
80076.3
79558.8
79053.9
78552.4
78066.9
77578.7
77097.6
76615.4
76143.9
75681.9
75234
74794.8
74371.6
73954.7
73557.3
73166.7
72799
72439.9
72102.7
71773.6
71465.9
71159.7
70875.7
70588.8
70329.9
70069.9
69830.4
69590.2
69364.1
69145.8
68939.8
68729.8
68538.9
68345.4
68170.3
68015.1
67864.4
67707.5
67558
67406.2
67257.2
67108.1
66961
66810.6
66655.1
66491.8
66321.5
66135
65869.3
871702
218531
175616
162533
153896
147038
141348
136874
133856
132320
131966
132945
135399
139287
144741
151931
161116
172523
186566
203795
224238
248446
276087
306873
338502
370544
399756
427197
450498
467825
480243
486139
490434
487191
481231
470231
454938
435357
410781
381635
347870
317632
287676
264176
242410
225698
210563
198441
187805
178138
169740
161811
154427
148261
141607
136438
130896
126056
121639
117181
113423
109643
106418
103105
100291
97447.4
95138.5
92844.9
91000.4
89131.7
87538
85909.9
84482.9
83068
81826.1
80651
79515.7
78532.2
77535.4
76548.7
75648.4
74836.9
74081.5
73318.2
72679.5
72034.9
71400
70806.2
70250
69743.4
69252.4
68827.3
68423.8
68026.8
67688.9
67386.7
67115.6
66885.1
66668.3
66471
66336.6
66214.8
66139.2
66089.4
66103
66149.7
66233.4
66365
66553.4
66808.8
67129.9
67523.6
67993.2
68552
69208.9
69968.7
70821.4
71757.9
72759
73817.9
74916.7
76053.3
77219.6
78417.4
79653.3
80938.7
82276.3
83675
85126.5
86623.5
88144.7
89642.4
91099.6
92444.8
93663.1
94733.1
95663.9
96463.3
97132.5
97706.2
98169.8
98566.1
98877.6
99124.3
99289.6
99405.8
99412.4
99371.8
99278.7
99129.6
98929.2
98680.8
98390.3
98057.5
97680.2
97258
96788.8
96278
95731.5
95158.7
94568.1
93965.8
93357.4
92754.6
92162.2
91577.3
90994.5
90407.2
89813.5
89211.8
88602.6
87987
87367.1
86744.4
86128.2
85517.1
84915.4
84325.6
83742.8
83163.7
82587.8
82019.5
81447.2
80878.4
80308.3
79746
79188.7
78642
78106.8
77582
77071.8
76573.4
76085.3
75609.4
75137.1
74675.5
74210.3
73748
73282.2
72824.5
72374.8
71938
71509.1
71095.7
70688.2
70298.6
69915.1
69552.4
69197.7
68862.5
68535.5
68227.8
67921.4
67635
67345.7
67082.6
66818.1
66573.9
66330.4
66099.8
65877
65666.7
65452.3
65257
65059.6
64879.1
64717.7
64564.1
64404.9
64256
64106.4
63962.7
63819.9
63682.7
63543.7
63402.4
63256.2
63105.5
62941
62710.7
875155
213930
168367
155334
147149
140745
135397
131299
128555
127097
126820
127896
130468
134659
140737
149000
159869
173687
190978
212402
237643
266866
298743
332944
366001
397658
424856
448324
467202
477121
482952
482147
479604
471600
458770
440267
415588
385154
349112
316224
284517
259290
236818
219352
204226
192175
181248
171902
163432
155567
148294
140730
134530
128170
122779
118120
113329
109534
105582
102173
99165.8
96057
93394.1
90670.1
88447.5
86331.6
84596.5
82932.8
81493.2
80004.8
78681.1
77332.5
76183.9
75040.3
74041.6
73051.1
72089.9
71242.9
70376.9
69574.1
68843.9
68149.4
67483.7
66812.4
66251.3
65682.5
65118.4
64588.3
64085.9
63612.8
63139.7
62709.6
62284.1
61853.5
61465.5
61089
60737.1
60385.3
60031
59695.1
59373.4
59057.7
58741.3
58445.7
58163.5
57897.6
57627.7
57376.7
57143.1
56940.9
56759.5
56604.9
56464.7
56373.1
56312
56322.1
56363.3
56442.2
56555.8
56705.3
56889.5
57116.2
57385.2
57702.2
58075
58513.8
59030.1
59637.1
60339.2
61145
62047.1
63040.3
64111.9
65243.3
66412.5
67600.4
68786.6
69961.3
71100.8
72235.2
73336.5
74445.8
75545.1
76635.7
77731.8
78764.2
79783.1
80711.2
81596.6
82384.4
83118.7
83758.5
84326.9
84819.6
85211
85528.6
85729.6
85858.3
85854.1
85804.3
85702
85551
85362.2
85144.4
84905.4
84648.8
84374
84076.3
83751.5
83396.4
83011.1
82597.1
82158.7
81702.7
81235.2
80761.2
80283.8
79809.5
79334.5
78858.9
78382.9
77906.2
77424.4
76938
76446.2
75953.9
75461.8
74975.1
74494.9
74021
73557.2
73101.6
72653.2
72213.8
71774.8
71345.5
70914.6
70484
70049.5
69619.8
69196.9
68785.5
68381.1
67991.6
67607.5
67239.5
66876.6
66532.3
66195.1
65874.8
65563.2
65266
64968.8
64688.4
64404.7
64145.1
63883.8
63642.1
63401.9
63173.7
62952.6
62743.9
62531.5
62336.8
62140.4
61957.7
61790.9
61634.5
61473.3
61323.7
61175.1
61034.2
60895.2
60764.7
60633.4
60503.5
60370.7
60236
60090.6
59892.4
878305
210027
161792
148913
141187
135145
130135
126350
123813
122459
122246
123483
126363
131168
138340
148355
161832
179321
201227
228124
259001
293549
328892
365257
398193
427749
451423
468455
480691
482773
482193
476312
465832
449421
426137
395772
358637
321755
287746
260284
236664
218011
202439
189759
178686
169091
160176
151898
143803
136397
128970
122218
116109
110026
105459
101105
97215.2
94090
90653.2
88329.8