/*--------------------------------*- C++ -*----------------------------------*\
| =========                 |                                                 |
| \\      /  F ield         | OpenFOAM: The Open Source CFD Toolbox           |
|  \\    /   O peration     | Version:  2312                                  |
|   \\  /    A nd           | Website:  www.openfoam.com                      |
|    \\/     M anipulation  |                                                 |
\*---------------------------------------------------------------------------*/
FoamFile
{
    version     2.0;
    format      ascii;
    arch        "LSB;label=32;scalar=64";
    class       volScalarField;
    location    "0.001";
    object      p;
}
// * * * * * * * * * * * * * * * * * * * * * * * * * * * * * * * * * * * * * //

dimensions      [1 -1 -2 0 0 0 0];

internalField   nonuniform List<scalar> 
48128
(
3241.96
3243.42
3224.26
3212.75
3211.48
3207.71
3203.32
3195.01
3182.57
3174.44
3155.87
3150.14
3128.59
3098.35
3064.67
3039.73
3020.68
3008.88
3003.14
3003.75
3008.86
3018.94
3034.15
3054.86
3081.46
3113.85
3153.43
3201.91
3257.88
3322.06
3395.02
3477.98
3570.64
3674.4
3787.98
3914.66
4050.8
4201.07
4359.14
4532.67
4711.7
4908.11
5106.07
5321.56
5536.77
5770.18
6002.08
6248.73
6491.26
6748.56
7002.45
7267.52
7527.09
7796.36
8061.91
8324.1
8586.08
8842.4
9093.21
9336.39
9572.42
9800.43
10020.4
10232
10435.1
10630.3
10814.1
10990.1
11154.6
11305.3
11447.5
11571.9
11694.1
11799.8
11905.2
11994.9
12080.4
12154.5
12221.5
12285.4
12340.7
12398.2
12441.4
12481
12512.2
12541.7
12566.9
12590.5
12614.8
12638.1
12657.6
12677.5
12687.1
12695.3
12707.7
12724
12740.5
12753.7
12759
12764.4
12773.3
12785.2
12798.7
12813.4
12829.8
12846.8
12862.5
12874.7
12889.3
12906.6
12925.8
12941.6
12955.9
12970.8
12987.1
13004.1
13017.5
13026.4
13025.5
13022.6
13026.8
13032.3
13043.4
13063.5
13085.8
13107
13126.7
13141.3
13153.1
13161
13167.1
13168.6
13169.5
13171.4
13174.2
13178.4
13184.2
13191.4
13199.9
13210
13222.1
13235.5
13250.1
13265.5
13280.6
13293.6
13304.3
13313.3
13319.2
13321.6
13320.8
13318.6
13316
13314.4
13314.5
13318.7
13321.5
13330.6
13343.2
13355.6
13366.5
13375.5
13381.3
13383
13380.6
13375.8
13370.1
13365
13361.8
13361.2
13363.6
13368.5
13376.2
13386.9
13399.7
13413.1
13423.9
13432.8
13439.3
13443.5
13447.2
13443.3
13441.3
13438.7
13436.5
13435.7
13436.5
13438.8
13443.8
13450.8
13457.6
13464.3
13469.7
13474.9
13479.2
13479.8
13482
13485.4
13490.3
13497.1
13505.6
13513.9
13521.9
13529
13534.7
13538.9
13542.6
13546.1
13550.2
13555.4
13562.2
13570.8
13581.7
13594.6
13609.6
13625.3
13638.5
13649.1
13655.6
13660.4
13664.9
13669.2
13675
13681.9
13692.1
13703.2
13715.3
13730.3
13735.3
13743.5
13742.9
13744.8
13747.8
13749.3
13751.1
13754.5
13754.1
13756.4
13755.8
13752.3
3225.86
3232.67
3222.79
3212.64
3214.18
3213.18
3211.86
3207.93
3201.8
3198.59
3180.24
3162.61
3132.3
3099.06
3076.77
3051.96
3031.9
3018.88
3012.19
3011.91
3016.22
3025.5
3039.86
3059.72
3085.72
3117.65
3156.08
3201.44
3255.78
3318.76
3391.37
3473.3
3564.98
3667.64
3779.95
3904.72
4039.08
4187.7
4344.27
4515.6
4692.45
4886.08
5081.99
5295.15
5508.38
5738.84
5968.47
6212.56
6453.73
6708.2
6960.08
7222.34
7481.1
7748.87
8013.83
8277.09
8538.16
8793.73
9043.93
9287.08
9523.29
9751.7
9972.13
10184
10387.6
10582
10765.3
10941.2
11106.5
11258.5
11401.2
11527.2
11650.6
11758.3
11865.1
11956.7
12043.5
12119.3
12187.8
12252.9
12310.6
12369.6
12413.6
12454.1
12486.7
12517.8
12543.9
12568.8
12594.5
12618.6
12639.3
12660.3
12670.4
12679.3
12692.7
12710
12727.5
12741.3
12747
12752.9
12762.4
12775
12789
12804.2
12821.1
12838.6
12854.7
12867
12882
12899.7
12919.2
12935.4
12949.9
12965
12981.6
12998.8
13012.5
13021.5
13021
13018.2
13022.5
13028.5
13039.4
13059.7
13082.5
13103.8
13123.6
13138.2
13150.2
13158.2
13164.4
13166.1
13167.1
13169
13172
13176.4
13182.3
13189.5
13198.1
13208.3
13220.4
13234
13248.7
13264
13279.1
13292.2
13302.9
13311.9
13317.9
13320.5
13319.9
13318.1
13315.5
13314
13314.1
13318.1
13320.8
13329.9
13342.3
13354.7
13365.7
13374.8
13380.8
13382.4
13380.4
13375.5
13369.8
13364.8
13361.7
13361.1
13363.6
13368.4
13376.2
13386.9
13399.7
13413.1
13424
13432.8
13439.4
13443.5
13447.2
13443.5
13441.3
13438.7
13436.5
13435.8
13436.6
13438.9
13443.9
13450.9
13457.8
13464.5
13470
13475.3
13479.7
13480.3
13482.5
13485.9
13490.7
13497.6
13506
13514.3
13522.3
13529.4
13535.1
13539.4
13543.1
13546.7
13550.9
13556.1
13562.9
13571.5
13582.4
13595.3
13610.3
13626.1
13639.3
13649.8
13656.3
13661
13665.5
13669.9
13675.6
13682.6
13692.7
13703.9
13716.1
13731
13735.9
13744.1
13743.3
13745.3
13748.3
13749.8
13751.6
13755
13754.6
13756.7
13756.2
13752.7
3232.87
3231.27
3222.79
3213.36
3214.46
3212.28
3209.87
3202.55
3196.95
3180.64
3157.53
3138.18
3119.07
3087.62
3053.23
3030.64
3015.09
3005.19
3001
3002.17
3007.55
3017.59
3032.64
3053.15
3079.27
3111.71
3150.84
3198.14
3252.97
3316.26
3388.5
3470.15
3561.22
3663.64
3775.29
3899.59
4032.45
4179.79
4334.92
4505.26
4680.95
4873.78
5068.79
5281.27
5493.51
5723.33
5952
6195.36
6435.67
6689.85
6940.84
7202.52
7460.49
7726.75
7987.78
8247.17
8507.41
8762.6
9012.61
9256.03
9492.73
9721.91
9943.12
10155.7
10360.2
10555.4
10740.5
10918.1
11084.1
11237.4
11380.5
11507.4
11632.2
11741.2
11849.5
11942.1
12029.9
12106.4
12176.1
12241.6
12301.2
12361.5
12405.5
12446.2
12479.2
12511
12537.3
12562.9
12589.2
12613.5
12634.6
12655.9
12665.9
12674.9
12688.7
12706.6
12724.4
12738.1
12743.7
12749.9
12759.7
12772.4
12786.5
12801.9
12818.9
12836.6
12852.7
12865.1
12880.2
12898.2
12917.7
12933.8
12948.4
12963.6
12980.3
12997.4
13010.9
13019.8
13019.6
13017.1
13021.3
13027.9
13038.8
13058.9
13081.8
13103.1
13122.6
13137.2
13149.3
13157.3
13163.4
13165.1
13166.3
13168.2
13171.3
13175.7
13181.6
13189
13197.6
13207.9
13220.1
13233.8
13248.6
13264
13278.9
13291.9
13302.3
13311.1
13316.9
13319.5
13319.1
13317.6
13315.4
13314.2
13314.3
13318.2
13320.9
13329.9
13341.9
13354.2
13365.1
13374.2
13380.2
13381.7
13379.9
13375.2
13369.5
13364.6
13361.6
13361
13363.6
13368.3
13376.1
13386.8
13399.6
13413
13423.9
13432.6
13439.2
13443.4
13446.9
13443.6
13441.1
13438.5
13436.4
13435.7
13436.5
13438.8
13443.7
13450.7
13457.6
13464.3
13469.8
13475.1
13479.6
13480.5
13482.6
13486
13490.9
13497.7
13506.1
13514.4
13522.3
13529.4
13535.1
13539.3
13543.1
13546.7
13550.9
13556.1
13563
13571.7
13582.6
13595.4
13610.5
13626.2
13639.6
13650.1
13656.4
13661.1
13665.6
13670
13675.7
13682.7
13692.8
13704.1
13716.2
13731.2
13736
13744.1
13743.5
13745.4
13748.3
13749.9
13751.7
13755.1
13754.7
13756.8
13756.3
13752.8
3232.31
3225.79
3220.32
3211.99
3213.55
3211.45
3211.06
3202.5
3185.05
3164.63
3144.67
3121.43
3091.84
3068.56
3045.15
3026.14
3012.5
3003.66
3000.29
3001.63
3007.06
3017.06
3032.01
3052.08
3077.63
3109.75
3148.4
3194.91
3248.84
3311.67
3383.07
3463.91
3553.83
3655.06
3765.06
3887.66
4018.41
4164.1
4316.93
4485.55
4658.88
4850.13
5042.93
5253.67
5463.79
5692.52
5919.97
6162.57
6401.15
6654.73
6904.38
7165.36
7422.1
7688.24
7948.66
8208.34
8468.14
8723.08
8972.44
9215.79
9452.58
9682.37
9904.13
10117.1
10322
10517.3
10702.8
10881.7
11048.1
11202.7
11345.8
11472.9
11599.3
11709.6
11819.6
11913.2
12002.2
12079.3
12150.5
12216.2
12278.1
12340.3
12384.1
12424.9
12458.7
12492.4
12519.7
12546.7
12574.5
12599.3
12621.5
12643.9
12654.1
12664
12678.8
12697.5
12715.8
12730
12735.9
12742.9
12753.4
12766.4
12780.8
12796.7
12814.1
12832
12848.3
12861.1
12876.6
12894.9
12914.5
12930.7
12945.4
12960.8
12977.6
12994.5
13007.6
13016.3
13017.1
13014.9
13019.2
13026.6
13037.6
13057.4
13080.3
13101.4
13120.8
13135.3
13147.5
13155.6
13161.5
13163.5
13164.9
13166.9
13170
13174.5
13180.6
13188.1
13196.9
13207.3
13219.7
13233.6
13248.6
13264
13278.6
13291.2
13301.4
13309.7
13315.1
13317.9
13317.8
13316.9
13315.3
13314.7
13315
13318.7
13321.4
13329.9
13341.5
13353.3
13364.2
13373.3
13379.2
13380.6
13379.2
13374.8
13369.1
13364.5
13361.5
13361
13363.6
13368.4
13376.1
13386.8
13399.5
13412.8
13423.7
13432.4
13439
13443.2
13446.5
13443.6
13440.9
13438.3
13436.2
13435.6
13436.5
13438.8
13443.5
13450.4
13457.2
13463.9
13469.4
13474.7
13479.5
13480.7
13482.7
13486.1
13491.2
13498
13506.4
13514.6
13522.4
13529.3
13535
13539.3
13543.1
13546.7
13550.9
13556.2
13563.1
13571.9
13582.8
13595.7
13610.7
13626.5
13639.9
13650.3
13656.6
13661.3
13665.8
13670.2
13675.9
13682.9
13692.9
13704.3
13716.5
13731.5
13736.2
13744.3
13743.7
13745.6
13748.4
13750
13752
13755.4
13754.9
13757
13756.4
13752.9
3233.38
3224.89
3221.84
3210.85
3211.7
3211.9
3204.65
3191.18
3170.75
3151.08
3125.12
3104.45
3078.21
3057.02
3036.15
3020.12
3008.5
3000.94
2998.34
2999.89
3005.43
3015.34
3029.9
3049.45
3074.59
3106.15
3144.21
3190.15
3243.42
3305.81
3376.35
3456.56
3545.33
3645.83
3754.32
3875.87
4004.72
4149.47
4300.28
4468.07
4639.38
4830.54
5022.4
5233.27
5442.44
5671.54
5897.99
6140.05
6376.97
6631.72
6880.94
7142.84
7399.4
7667.61
7925.93
8185.74
8446.32
8700.68
8949.72
9192.58
9430.32
9660.52
9883.14
10095.9
10301.3
10496.1
10682.3
10862.5
11028.6
11184.7
11326.4
11453.2
11580.9
11690.9
11801.6
11895.4
11985.2
12062.4
12134.9
12200.5
12264.8
12328.4
12371.3
12411.9
12446
12481.2
12509
12537.1
12565.9
12590.6
12613.5
12636.3
12646.4
12657
12672.7
12691.6
12709.8
12723.8
12730.1
12737.9
12749
12762
12776.4
12792.6
12810.2
12827.9
12844.3
12857.5
12873.6
12892
12911.4
12927.7
12942.7
12958.5
12975.3
12991.7
13004.2
13012.8
13014.8
13013.3
13017.9
13026.2
13037.5
13056.5
13079
13100.1
13119.1
13133.4
13145.8
13153.9
13159.7
13162
13163.8
13165.8
13169
13173.7
13179.9
13187.5
13196.5
13207.1
13219.7
13233.8
13249
13264.3
13278.5
13290.6
13300.3
13308
13313
13315.9
13316.4
13316.2
13315.5
13315.5
13316.2
13319.7
13322.3
13330.3
13341.1
13352.4
13363.1
13372
13377.9
13379.2
13378.2
13374.1
13368.9
13364.4
13361.6
13361.1
13363.8
13368.6
13376.4
13386.9
13399.4
13412.4
13423.3
13432.1
13438.8
13443
13446
13443.5
13440.7
13438
13436.1
13435.6
13436.5
13438.7
13443.3
13450
13456.7
13463.4
13468.9
13474.2
13479.2
13480.9
13483
13486.4
13491.6
13498.5
13506.6
13514.7
13522.3
13529.1
13534.8
13539.1
13542.9
13546.6
13550.9
13556.3
13563.3
13572.1
13583.1
13596
13611
13626.7
13640.2
13650.6
13656.8
13661.5
13666
13670.4
13676.2
13683.1
13693
13704.4
13716.7
13731.8
13736.4
13744.3
13744
13745.7
13748.5
13750.3
13752.3
13755.7
13755.2
13757.2
13756.6
13753.1
3238.78
3226.16
3224.05
3211.12
3214.12
3207.16
3195.82
3178.28
3158.41
3135.68
3112.86
3089.87
3066.07
3046.95
3029.09
3015.17
3004.97
2998.33
2996.13
2997.8
3003.33
3012.95
3027.02
3046.05
3070.58
3101.58
3139.04
3184.4
3236.96
3299.01
3368.65
3448.29
3535.78
3635.78
3742.59
3863.43
3990.44
4135.06
4284.11
4451.67
4620.85
4812.38
5003.8
5215.37
5424.02
5654.85
5880.7
6122.58
6358.3
6615.27
6862.77
7125.3
7380.68
7656.08
7908.03
8165.5
8431.78
8682.09
8932.27
9172.72
9413.02
9642.81
9867.51
10079
10286.1
10479.3
10667.1
10848.7
11014.3
11172.5
11312.1
11438.7
11567.5
11677.4
11788.1
11881.6
11971.9
12049.1
12122.9
12188.3
12255.2
12319.1
12360.9
12400.6
12434
12470.1
12498.5
12528.1
12558
12582.3
12606.1
12629.1
12639.2
12651.1
12668.1
12686.9
12704.3
12717.9
12724.8
12734.1
12745.8
12758.6
12773
12789.6
12807.2
12824.5
12840.8
12854.7
12871.5
12890
12908.9
12925
12940.4
12956.7
12973.3
12988.8
13000.2
13008.7
13012.4
13011.9
13017
13026.4
13038.3
13056.4
13077.7
13098.5
13116.9
13131.2
13143.7
13151.9
13157.6
13160.4
13162.6
13164.8
13168.2
13173
13179.4
13187.2
13196.4
13207.2
13220.1
13234.5
13249.9
13264.9
13278.4
13289.8
13298.9
13306
13310.4
13313.4
13314.8
13315.5
13316
13316.8
13317.9
13321.3
13323.7
13331.1
13341
13351.4
13361.7
13370.4
13376.2
13377.5
13377
13373.2
13368.7
13364.5
13361.8
13361.5
13364
13369.1
13376.8
13387.2
13399.4
13412
13422.9
13431.6
13438.4
13442.6
13445.4
13443.2
13440.4
13437.7
13435.9
13435.6
13436.5
13438.8
13443.1
13449.5
13456.1
13462.6
13468.2
13473.6
13478.8
13481.1
13483.3
13486.7
13492.1
13499
13506.9
13514.8
13522.3
13528.9
13534.5
13538.8
13542.7
13546.4
13550.8
13556.4
13563.5
13572.4
13583.4
13596.4
13611.2
13626.8
13640.4
13650.8
13657
13661.6
13666.1
13670.6
13676.4
13683.4
13693.1
13704.6
13716.9
13732.1
13736.6
13744.4
13744.2
13745.9
13748.7
13750.5
13752.6
13756.1
13755.6
13757.4
13756.9
13753.2
3248.29
3229.5
3229.54
3218.22
3212.03
3201.15
3185.31
3166.81
3145.67
3123.95
3099.64
3077.27
3055.99
3038.34
3022.66
3010.29
3001.22
2995.41
2993.46
2995.21
3000.61
3009.8
3023.37
3041.83
3065.72
3096.2
3132.97
3177.84
3229.64
3291.39
3360.09
3439.31
3525.4
3625.61
3731
3851.21
3975.56
4120.69
4269.28
4437.47
4604.73
4796.05
4986.7
5198.78
5407.14
5639.75
5864
6105.15
6338.56
6601.09
6843.46
7105.57
7353.33
7645.96
7888.17
8134.24
8411.02
8655.31
8905.59
9140.78
9385.59
9612.9
9842.19
10052
10261.5
10453.9
10642.9
10826.7
10991.9
11153.8
11291.5
11418.5
11549.3
11661.1
11773.5
11867.2
11958.4
12036.4
12112.3
12178
12248.9
12311.9
12352
12391.6
12424.4
12461.9
12490
12522
12552.3
12576.2
12601
12623.5
12632.7
12646.3
12665.1
12683
12699.3
12712.5
12720.2
12731.5
12743.8
12756.5
12770.8
12787.9
12805.2
12821.7
12837.8
12852.8
12870.7
12889.1
12907.1
12922.9
12938.9
12955.9
12971.8
12986.1
12996
13004.4
13010.3
13011.1
13017.4
13028
13040.4
13057.3
13077.3
13097.3
13114.9
13129
13141.8
13149.8
13155.5
13158.8
13161.7
13164
13167.7
13172.6
13179.2
13187.2
13196.8
13207.8
13221.1
13235.5
13251.1
13265.8
13278.3
13289
13297.3
13303.4
13307.2
13310.7
13313
13314.9
13316.5
13318.4
13320.2
13323.6
13325.8
13332.3
13341.2
13350.6
13359.9
13368.4
13374.2
13375.5
13375.5
13372.1
13368.6
13364.7
13362.1
13362.1
13364.7
13369.8
13377.5
13387.7
13399.4
13411.6
13422.4
13431.1
13437.9
13442.2
13444.6
13442.8
13440.1
13437.4
13435.8
13435.7
13436.6
13438.9
13442.9
13448.9
13455.3
13461.8
13467.3
13472.8
13478.2
13481.3
13483.6
13487.2
13492.8
13499.7
13507.3
13514.9
13522.1
13528.6
13534.1
13538.4
13542.4
13546.2
13550.7
13556.4
13563.7
13572.8
13583.8
13596.8
13611.5
13626.9
13640.6
13651
13657.1
13661.7
13666.2
13670.8
13676.6
13683.6
13693.2
13704.7
13717.1
13732.4
13736.8
13744.3
13744.5
13746.2
13748.8
13750.8
13753
13756.5
13756
13757.6
13757.1
13753.4
3260.73
3233.47
3236.75
3222.21
3210.04
3193.89
3176.09
3156.57
3135.63
3111.79
3088.01
3066.7
3047.36
3030.97
3016.91
3005.75
2997.59
2992.43
2990.61
2992.25
2997.38
3006.17
3019.16
3037.06
3060.24
3090.22
3126.24
3170.66
3221.54
3283.13
3351.03
3430.33
3514.34
3614.18
3718.37
3839.41
3961.81
4107
4253.94
4422.49
4588.94
4780.35
4969.44
5179.71
5385.61
5620.66
5838.72
6076.73
6302.03
6578.91
6811.9
7071.21
7306.99
7613.78
7854.29
8086.17
8363.73
8603.51
8854.76
9083.07
9331.73
9557.62
9790.23
10000.4
10211.2
10405.9
10594.8
10781.9
10947.3
11114.7
11249.8
11380.5
11513.7
11628.2
11743.5
11837
11931.5
12010.7
12093.7
12156.8
12235.8
12298
12332.7
12378.7
12408.3
12453.3
12477.6
12515.4
12547
12568.8
12596.3
12618.5
12625.1
12643.5
12664.1
12680
12694.8
12707.1
12715.9
12730.3
12742.1
12754.9
12769.1
12787.1
12803.6
12818.9
12835.2
12850.8
12871.1
12888.5
12905.8
12920.6
12937.8
12955.5
12971.2
12983
12991.2
12999.3
13008
13010.6
13018.9
13030.4
13043.6
13059.5
13077.6
13096
13112.8
13126.6
13139.7
13147.2
13153.3
13157.2
13160.8
13163.6
13167.5
13172.6
13179.4
13187.7
13197.8
13209.1
13222.6
13237.3
13252.8
13266.9
13278
13288
13295.2
13300.5
13303.7
13307.8
13311.1
13314.3
13317.2
13320.4
13323
13326.5
13328.6
13333.9
13341.5
13350
13358.2
13366
13371.7
13373.3
13373.6
13371
13368.5
13365
13362.7
13363
13365.5
13370.7
13378.4
13388.4
13399.6
13411.1
13421.7
13430.5
13437.3
13441.4
13443.5
13442.4
13439.8
13437.2
13435.8
13435.8
13436.8
13439.1
13442.8
13448.3
13454.3
13460.7
13466.2
13471.8
13477.5
13481.4
13484.1
13487.9
13493.7
13500.5
13507.8
13515
13521.9
13528.2
13533.6
13538
13542
13545.9
13550.5
13556.4
13563.9
13573.1
13584.3
13597.2
13611.9
13626.9
13640.7
13651.1
13657.2
13661.7
13666.3
13671
13676.9
13683.9
13693.3
13704.7
13717.2
13732.6
13736.9
13744.2
13744.7
13746.4
13748.9
13751.1
13753.4
13757
13756.4
13757.9
13757.3
13753.6
3272.1
3241.23
3241.15
3224.56
3207.24
3188.51
3168.82
3148.58
3125.03
3101.02
3078.1
3057.92
3040.02
3024.75
3011.9
3001.7
2994.23
2989.46
2987.57
2989.02
2993.89
3002.23
3014.59
3031.92
3054.29
3083.85
3119
3163.08
3213.11
3274.54
3340.8
3420.19
3502.7
3602.83
3705.85
3827.4
3948.32
4093.41
4238.01
4404.37
4569.31
4759.51
4944.31
5152.18
5349.03
5593.28
5798.9
6033.85
6241.22
6531.58
6758.73
7017.09
7235.96
7536.23
7799.06
8017.92
8285.59
8517.4
8770.8
8996.34
9242.79
9467.92
9700.84
9916.98
10128.1
10327.9
10517.1
10706.2
10873.9
11046.5
11181.3
11320.3
11460.4
11573
11699
11783.1
11892.2
11965.3
12065.2
12119
12213.1
12275.4
12296.9
12359.3
12381.4
12435.8
12458.1
12503.3
12534.2
12555.9
12586.7
12607.9
12616.9
12640.5
12662.4
12675.8
12688.6
12699.6
12712.6
12728.9
12741.2
12753.5
12768.4
12786.7
12802.1
12816
12832.2
12849.5
12871.4
12888.1
12904.3
12918.6
12936.7
12955.2
12969.8
12979.3
12985.8
12993.8
13004.8
13010.7
13021.6
13033.9
13047.5
13062.3
13078.8
13094.6
13110.3
13123.8
13137.1
13144.5
13150.8
13155.6
13159.9
13163.4
13167.6
13173
13180.2
13188.9
13199.3
13211
13224.8
13239.4
13254.6
13267.6
13277.6
13286.6
13292.8
13297.1
13300.2
13304.6
13309.1
13313.8
13318.2
13323.1
13326
13330.1
13331.7
13335.4
13342.1
13349.4
13356.5
13363.5
13368.8
13370.8
13371.4
13369.9
13368.2
13365.4
13363.6
13364.1
13366.8
13372
13379.5
13389.2
13399.7
13410.6
13421
13429.7
13436.6
13440.3
13442.5
13441.8
13439.4
13437
13435.8
13436
13437.1
13439.4
13442.8
13447.7
13453.3
13459.4
13465
13470.7
13476.8
13481.4
13484.5
13488.8
13494.7
13501.4
13508.3
13515.1
13521.7
13527.7
13533
13537.4
13541.5
13545.5
13550.3
13556.5
13564.2
13573.6
13584.8
13597.7
13612.2
13626.9
13640.7
13651.2
13657.2
13661.7
13666.4
13671.2
13677.1
13684.1
13693.4
13704.8
13717.2
13732.8
13737
13744.1
13744.9
13746.6
13749
13751.4
13753.8
13757.4
13756.9
13758.2
13757.6
13753.7
3281.3
3247.52
3245.37
3226.24
3205.21
3184.43
3162.63
3140.92
3115.64
3091.78
3069.87
3050.73
3033.94
3019.61
3007.7
2998.21
2991.19
2986.51
2984.53
2985.77
2990.25
2998.15
3009.8
3026.59
3048.04
3077.34
3111.74
3155.29
3203.42
3264.91
3329.78
3409.92
3491.6
3592.26
3693.44
3814.04
3932.87
4075.88
4217.49
4378.47
4540.3
4734.89
4905.13
5111.89
5289.47
5544.02
5736.57
5971.92
6154.41
6444.4
6669.09
6932.73
7143.48
7407.69
7694.61
7913.96
8163.94
8387.79
8634.38
8864.7
9104.41
9333.33
9566.17
9791.95
10001
10217.4
10400.9
10603.9
10762.7
10947.3
11080.3
11231.1
11387.4
11492.9
11636.8
11708
11833.8
11904.9
12018.2
12071.4
12177.9
12231.8
12255.8
12330.9
12350.1
12407.1
12436.7
12483.9
12515.6
12541
12574.2
12588.7
12608.4
12637
12655.6
12668.9
12679.4
12690.8
12707.2
12726.2
12738.9
12751.9
12767.8
12785.4
12799.3
12813
12829.4
12848.6
12871
12886.2
12902.4
12917
12935.6
12954.6
12967
12973.8
12980.1
12988.3
13001.1
13011.9
13024.7
13037.9
13051.8
13065.3
13079.7
13093.5
13107.8
13120.9
13133.8
13140.7
13148
13153.7
13159
13163.3
13168
13173.9
13181.3
13190.4
13201.3
13213.3
13227.8
13241.9
13256.2
13268.2
13276.7
13284.7
13289.4
13293.2
13296.6
13301.4
13307.1
13313.3
13319.3
13325.9
13329.3
13334.2
13335
13337.7
13342.9
13348.9
13354.8
13361
13365.4
13367.9
13369
13368.4
13367.7
13365.9
13364.7
13365.5
13368.4
13373.5
13380.9
13390
13400
13410.2
13420.1
13428.7
13435.6
13439.2
13441.3
13441.2
13439
13436.9
13436
13436.3
13437.6
13439.7
13442.7
13447
13452.2
13457.9
13463.7
13469.5
13475.9
13481.3
13485.1
13489.8
13495.9
13502.3
13508.9
13515.2
13521.5
13527.1
13532.3
13536.6
13540.8
13545.1
13550.1
13556.5
13564.5
13574
13585.3
13598.2
13612.5
13626.9
13640.5
13651.1
13657.1
13661.7
13666.5
13671.4
13677.4
13684.4
13693.5
13704.8
13717.2
13732.9
13737
13743.9
13745.1
13746.8
13749.2
13751.7
13754.2
13757.9
13757.4
13758.5
13757.8
13753.9
3284.78
3255.05
3246.24
3225.46
3203.41
3180.33
3157.68
3133.28
3107.72
3084.12
3063.23
3044.99
3029.09
3015.54
3004.32
2995.3
2988.46
2983.74
2981.76
2982.58
2986.59
2994.06
3004.92
3021.29
3041.86
3070.78
3103.56
3146.81
3193.21
3255.74
3319.85
3400.22
3480.37
3580.5
3678.97
3795.85
3913.33
4053.39
4189.39
4345.24
4490.2
4696.4
4847.37
5055.21
5205.81
5460.41
5640.38
5881.19
6039.94
6308.08
6523.63
6791.37
7005.92
7237.62
7521.83
7756.53
7996.24
8217.28
8451.56
8699.69
8914.75
9170.1
9372.72
9638.99
9816.28
10077.2
10237.8
10475.2
10610.7
10822.4
10944.6
11118.1
11270.4
11401.6
11548.4
11617.5
11760.5
11829
11952
12011.3
12124
12164.6
12209
12291.6
12310.3
12371.4
12406.9
12459.2
12485.2
12520.1
12556.4
12569.3
12597.5
12631.9
12645.2
12660.8
12669.8
12682.2
12702.2
12723
12736.3
12750.4
12767.1
12783.9
12796.2
12809.7
12826.8
12847.2
12869.8
12884
12899.8
12915.2
12934.5
12952
12962.2
12967.2
12973.4
12982.6
12997.4
13012.7
13028.5
13042.2
13056.7
13068.3
13080.5
13092.2
13105.1
13117.2
13129.4
13136.7
13144.6
13151.5
13157.8
13163.1
13168.6
13175
13182.9
13192.6
13203.9
13216.6
13231
13244.3
13257.8
13267.8
13275
13281.8
13285.5
13289.1
13292.9
13298.2
13305
13312.8
13320.6
13328.6
13332.8
13338.3
13338.7
13340.2
13344
13348.6
13353.2
13358.2
13361.9
13364.5
13366.2
13366.7
13366.9
13366.3
13366
13367.1
13370.2
13375.4
13382.5
13391.1
13400.3
13409.8
13419.1
13427.4
13434.4
13437.7
13439.9
13440.3
13438.5
13436.8
13436.2
13436.7
13438.1
13440.1
13442.8
13446.4
13451
13456.4
13462.2
13468.2
13474.9
13481.1
13485.7
13491
13497.3
13503.4
13509.5
13515.3
13521.2
13526.5
13531.5
13535.8
13540.1
13544.5
13549.8
13556.5
13564.8
13574.6
13586
13598.8
13612.9
13626.8
13640.3
13650.9
13657
13661.6
13666.5
13671.6
13677.7
13684.7
13693.7
13704.8
13717.2
13732.8
13736.9
13743.6
13745.2
13747.1
13749.3
13752
13754.6
13758.3
13757.8
13758.7
13758
13754
3288.13
3258.52
3245.24
3223.65
3200.9
3175.73
3153.66
3126.9
3101.3
3078.15
3058.13
3040.65
3025.47
3012.51
3001.76
2992.98
2986.15
2981.35
2979.28
2979.58
2982.99
2990.13
3000.19
3016.21
3035.08
3063.68
3094.93
3139.05
3184.6
3247.57
3310.24
3389.74
3467.71
3565.41
3660.87
3770.62
3884.02
4028.67
4145.86
4301.21
4418.42
4629.47
4763.24
4972.15
5101.51
5335.26
5493.33
5733.48
5885.41
6130.25
6338.8
6589.24
6813.07
7033.15
7284.27
7546.62
7757.27
8023.5
8212.28
8501.01
8676.01
8967.93
9133.86
9437.2
9598.87
9889.97
10041
10303.7
10426.3
10664
10779.1
10990.7
11109.5
11291.7
11406.3
11514.2
11678.3
11733.7
11869.7
11930.8
12046.4
12075.8
12151.3
12241
12260.4
12328.4
12365.2
12426.2
12443.5
12489.7
12526.9
12543.1
12581.8
12620.3
12628.1
12645.4
12655.4
12672.3
12695.5
12715.2
12731.1
12748.4
12766.4
12781
12793
12807.3
12826.1
12847
12868.7
12882.5
12898.3
12915.3
12934.9
12948.9
12957.1
12960.8
12967.2
12977.8
12994.2
13013.4
13032.7
13046.5
13061.6
13071.7
13081.3
13090.8
13102.1
13112.6
13124.1
13131.7
13140.6
13148.7
13156.3
13162.9
13169.3
13176.5
13185.1
13195.2
13207
13220.2
13234.4
13246.4
13258.6
13266.6
13272.3
13278.1
13280.9
13284.4
13288.9
13295.1
13303.1
13312.3
13321.7
13331.2
13336.2
13342.5
13342.6
13343.1
13345.3
13348.3
13351.6
13355.3
13358.1
13360.8
13363.1
13364.8
13366
13366.6
13367.3
13369
13372.3
13377.5
13384.3
13392.2
13400.6
13409.3
13418
13425.9
13433
13436.1
13438.3
13439.3
13437.9
13436.8
13436.6
13437.3
13438.7
13440.6
13442.8
13445.7
13449.7
13454.8
13460.6
13466.7
13473.7
13480.8
13486.3
13492.3
13498.7
13504.4
13510.1
13515.4
13520.8
13525.7
13530.6
13534.9
13539.3
13543.9
13549.5
13556.6
13565.2
13575.2
13586.6
13599.5
13613.2
13626.6
13640
13650.6
13656.7
13661.5
13666.5
13671.8
13677.9
13685
13693.8
13704.8
13717.1
13732.7
13736.8
13743.3
13745.3
13747.3
13749.5
13752.3
13755.1
13758.8
13758.3
13759
13758.3
13754.1
3286.9
3257.47
3243.11
3221.24
3197.63
3172.85
3148.94
3121.72
3096.29
3073.86
3054.54
3037.69
3023.05
3010.5
3000.03
2991.29
2984.36
2979.45
2977.13
2976.87
2979.53
2986.55
2995.26
3010.83
3028.11
3057.4
3087.9
3132.54
3176.85
3239.6
3299.75
3375.98
3451.8
3545.37
3636.72
3739.28
3834.72
3990.84
4085.67
4242.41
4329.62
4529.07
4644.69
4847.25
4963
5174.19
5313.02
5535.16
5689.05
5915.3
6108
6346.13
6562.94
6816.36
7004.91
7296.23
7457.26
7780.11
7942.92
8256.86
8413.61
8727.38
8876.66
9195.4
9354.71
9670.13
9816.06
10102.7
10224
10489.2
10607.9
10850.6
10953.8
11162.2
11246
11419.8
11586.6
11642.1
11798.9
11846
11961.8
11988.5
12092.7
12185.6
12210.7
12289.9
12324.6
12390.2
12401.1
12455.3
12493.7
12519.8
12568.7
12598.5
12606.4
12627.1
12638.2
12661.8
12686.5
12701.4
12720.2
12742.1
12761.1
12772.8
12785.8
12802.6
12823.4
12843.9
12863.7
12878.2
12895.4
12914.6
12934.5
12943.2
12950.4
12954.2
12962
12975
12993
13015
13038
13052.3
13067.3
13075.6
13082.8
13090.4
13099.9
13108.4
13118.9
13127.2
13136.9
13146.1
13155.1
13162.8
13170.6
13178.8
13188.1
13198.7
13210.9
13224.3
13237.8
13248.1
13258.8
13264.5
13268.8
13273.4
13275.6
13279.6
13285
13292.4
13301.5
13311.8
13322.7
13333.4
13339.3
13346.3
13346.4
13346.1
13346.8
13348.2
13350
13352.4
13354.2
13356.5
13359.5
13362.4
13364.8
13366.8
13368.7
13371.1
13374.7
13379.7
13386.2
13393.5
13401
13408.7
13416.6
13424.2
13431.3
13434.1
13436.5
13438.1
13437.2
13436.8
13437
13437.9
13439.4
13441.1
13442.8
13445.1
13448.5
13453.2
13458.9
13465.2
13472.5
13480.3
13487
13493.8
13500.2
13505.5
13510.8
13515.6
13520.4
13524.9
13529.5
13533.8
13538.3
13543.2
13549.2
13556.6
13565.6
13575.8
13587.4
13600.2
13613.5
13626.4
13639.5
13650.1
13656.4
13661.3
13666.5
13671.9
13678.2
13685.3
13693.9
13704.7
13717
13732.4
13736.5
13743
13745.4
13747.5
13749.7
13752.6
13755.5
13759.3
13758.8
13759.3
13758.4
13754.2
3283.6
3254.12
3239.67
3217.76
3194.16
3170.81
3144.96
3117.88
3092.77
3071.18
3052.42
3036.05
3021.79
3009.47
2999.13
2990.31
2983.21
2978.05
2975.32
2974.7
2976.15
2982.77
2990.11
3006.04
3022.65
3052.79
3082.21
3126.64
3168.97
3230.1
3286.57
3355.99
3429.09
3521.19
3599.23
3705.12
3768.97
3926
4003.61
4161.07
4231.81
4403.03
4495.29
4680.06
4790.46
4980.49
5106.87
5301.55
5454.25
5657.46
5849.37
6051.1
6230.47
6484.07
6608.93
6912.47
7056.96
7368.1
7543.71
7873.46
8024.18
8361.79
8521.27
8871.83
9031.58
9374.95
9518.7
9838.74
9963.77
10261.1
10386.6
10654.5
10747.8
10979.1
11061
11267.1
11428
11506.3
11683.3
11718.4
11841.1
11878.8
11999.3
12083.6
12130.8
12228.9
12260.3
12334.1
12348.1
12407.6
12444.2
12482.2
12540.3
12564.9
12578
12603.4
12617.8
12647
12672.5
12686.6
12710.2
12735.3
12752.6
12763
12777.4
12798
12819.6
12837.2
12854.7
12871.2
12890.7
12910.9
12929.6
12932.2
12938.2
12944.2
12955.4
12971.4
12991.4
13015.1
13040.6
13057.1
13072.7
13080.3
13085.3
13091.1
13098.4
13104.5
13113.9
13122.6
13133.8
13144.2
13154.5
13164.3
13173.2
13182.3
13192.3
13203.4
13216
13229
13241.3
13249.4
13258.3
13261.9
13264.9
13268.4
13270.6
13275
13281.5
13290.1
13300.2
13311.7
13323.6
13335.4
13342.3
13350.1
13350.4
13349.5
13348.6
13348.3
13348.6
13349.7
13350.5
13352.5
13355.8
13359.7
13363.4
13366.9
13370
13373.2
13377.2
13382.2
13388.4
13394.8
13401.3
13408
13415.1
13422.2
13429.2
13432
13434.5
13436.6
13436.6
13436.8
13437.5
13438.6
13440.1
13441.5
13442.7
13444.4
13447.2
13451.5
13457.1
13463.6
13471.2
13479.7
13487.8
13495.2
13501.7
13506.7
13511.5
13515.7
13520
13524.1
13528.4
13532.7
13537.3
13542.4
13548.8
13556.6
13566
13576.5
13588.2
13601
13613.8
13626.2
13639
13649.5
13655.9
13661
13666.4
13672.1
13678.4
13685.6
13694.1
13704.6
13716.8
13732
13736.2
13742.7
13745.4
13747.7
13750
13752.9
13756
13759.7
13759.2
13759.5
13758.6
13754.3
3277.75
3249.07
3235.11
3213.93
3191.49
3168.63
3141.97
3115.42
3090.81
3070.02
3051.73
3035.72
3021.69
3009.43
2999.1
2990.09
2982.84
2977.12
2973.78
2972.73
2972.88
2979.46
2985.95
3002.8
3018.65
3049.35
3076.96
3119.64
3159.05
3216.2
3269.05
3329.14
3391.49
3492.63
3547.14
3660.42
3698.81
3840.6
3901.15
4048.91
4111.94
4253.88
4335.74
4486.35
4588.62
4753.57
4870.86
5005.89
5147.45
5275.05
5451.08
5593.44
5835.37
6012.23
6272.31
6510.62
6686.72
7013.01
7181.93
7522.73
7679.1
8043.58
8194.16
8567.26
8724.44
9093.32
9227.23
9575.47
9712.47
10047.8
10181.3
10476.4
10566.8
10822.9
10918.3
11156.6
11289.4
11423.7
11610.7
11620.2
11759.5
11821.8
11955
12007.6
12088.1
12199.4
12215.1
12289.9
12313.4
12382.1
12411.7
12466.8
12523
12531.8
12559.4
12584.5
12607.6
12638
12654.9
12669.6
12695
12722.1
12739
12750
12767.5
12789.8
12812.6
12826.6
12843.1
12860.6
12882.3
12902
12919.2
12919.6
12925.2
12932.1
12946.1
12965
12986.1
13010.1
13037.9
13057
13073.7
13080.2
13084
13088.3
13093.5
13097.8
13106.6
13115.8
13128.7
13140.1
13152.7
13164.4
13175.7
13186.4
13197.3
13208.8
13221.3
13233.6
13244.6
13251.1
13257.8
13259.4
13260.8
13263.6
13266
13271.4
13279.1
13288.9
13300
13312.1
13324.6
13337.1
13344.8
13353.3
13354.3
13353
13350.8
13348.8
13347.5
13347.1
13346.8
13348.4
13352
13356.9
13362.1
13367
13371.5
13375.6
13380
13385
13390.8
13396.3
13401.7
13407.5
13413.6
13420.1
13426.8
13429.7
13432.4
13435.1
13435.8
13436.9
13438.2
13439.5
13440.9
13442
13442.7
13443.8
13446
13449.9
13455.3
13461.9
13469.8
13479.2
13488.4
13496.7
13503.2
13507.9
13512.1
13515.8
13519.5
13523.1
13527.1
13531.4
13536.1
13541.5
13548.3
13556.7
13566.4
13577.2
13589.1
13601.7
13614
13626
13638.4
13648.7
13655.4
13660.8
13666.4
13672.3
13678.7
13685.8
13694.2
13704.5
13716.5
13731.5
13735.8
13742.4
13745.4
13747.9
13750.2
13753.2
13756.4
13760.1
13759.6
13759.7
13758.8
13754.4
3270.26
3243.21
3230.15
3210.16
3189.96
3166.28
3140.15
3114.22
3090.48
3070.37
3052.43
3036.64
3022.67
3010.33
2999.91
2990.74
2983.19
2976.49
2972.21
2971.08
2970.47
2977.75
2983.11
3000.58
3015.18
3045.53
3069.93
3108.32
3144.84
3197.87
3243.06
3303.41
3340.46
3452.08
3486.12
3598.03
3624.92
3744.65
3787.7
3904.3
3966.66
4071.72
4150.33
4269.38
4351.38
4446.02
4512.33
4616.23
4750.96
4934.47
5060.18
5244.12
5422.27
5554.54
5788.33
5941.33
6240.34
6497.16
6678.96
7042.16
7216.16
7608.58
7772.44
8181.9
8343.09
8734.2
8870.37
9255.08
9419.98
9793.65
9921.27
10239.6
10340.5
10633.1
10759.2
11017.4
11106.7
11299.9
11465.9
11503.8
11672
11749.7
11879.2
11911.6
12027.3
12138.8
12153.3
12239.3
12273.8
12349.4
12379.3
12437.7
12493.8
12495.2
12536.8
12566.3
12599.1
12631.3
12641.9
12663.3
12691.9
12716.4
12728.5
12743.6
12766.1
12791.3
12810.1
12820.3
12837
12857.6
12881.1
12897
12908.5
12904.2
12911.9
12923.4
12941.1
12962