/*--------------------------------*- C++ -*----------------------------------*\
| =========                 |                                                 |
| \\      /  F ield         | OpenFOAM: The Open Source CFD Toolbox           |
|  \\    /   O peration     | Version:  2312                                  |
|   \\  /    A nd           | Website:  www.openfoam.com                      |
|    \\/     M anipulation  |                                                 |
\*---------------------------------------------------------------------------*/
FoamFile
{
    version     2.0;
    format      ascii;
    arch        "LSB;label=32;scalar=64";
    class       surfaceScalarField;
    location    "0.001";
    object      phi;
}
// * * * * * * * * * * * * * * * * * * * * * * * * * * * * * * * * * * * * * //

dimensions      [1 0 -1 0 0 0 0];

oriented        oriented;

internalField   nonuniform List<scalar> 
95760
(
1.72168e-08
-1.73178e-08
2.11779e-08
-4.0619e-09
2.15056e-08
-4.27673e-10
2.00078e-08
1.40171e-09
1.81118e-08
1.79801e-09
1.60678e-08
1.94081e-09
1.36782e-08
2.27812e-09
1.01522e-08
3.38795e-09
2.91229e-09
7.078e-09
-8.60741e-09
1.13302e-08
-2.78354e-08
1.90414e-08
-5.37887e-08
2.58029e-08
-7.6317e-08
2.24189e-08
-9.41428e-08
1.77709e-08
-1.08244e-07
1.40837e-08
-1.19335e-07
1.10887e-08
-1.28511e-07
9.1937e-09
-1.36445e-07
7.96773e-09
-1.43461e-07
7.04953e-09
-1.4989e-07
6.46074e-09
-1.55892e-07
6.0273e-09
-1.61543e-07
5.66147e-09
-1.66902e-07
5.34615e-09
-1.71983e-07
5.03831e-09
-1.76762e-07
4.70021e-09
-1.81296e-07
4.41839e-09
-1.85551e-07
4.10432e-09
-1.89427e-07
3.69046e-09
-1.93121e-07
3.48706e-09
-1.9626e-07
2.91881e-09
-1.98984e-07
2.50904e-09
-2.01237e-07
2.05935e-09
-2.02965e-07
1.56931e-09
-2.04021e-07
9.4363e-10
-2.04534e-07
4.38763e-10
-2.04298e-07
-2.4958e-10
-2.03335e-07
-9.18301e-10
-2.01175e-07
-2.06773e-09
-1.98115e-07
-2.9497e-09
-1.93817e-07
-4.17994e-09
-1.88476e-07
-5.23978e-09
-1.81486e-07
-6.92125e-09
-1.73149e-07
-8.30951e-09
-1.632e-07
-9.95362e-09
-1.52165e-07
-1.10796e-08
-1.39169e-07
-1.30432e-08
-1.24554e-07
-1.46686e-08
-1.07835e-07
-1.67214e-08
-9.03034e-08
-1.74833e-08
-7.06734e-08
-1.95471e-08
-4.95498e-08
-2.09994e-08
-2.60436e-08
-2.33943e-08
-1.70949e-09
-2.42237e-08
2.45676e-08
-2.61723e-08
5.32131e-08
-2.85612e-08
8.30903e-08
-2.98065e-08
1.14756e-07
-3.16076e-08
1.4777e-07
-3.29659e-08
1.82086e-07
-3.42671e-08
2.17193e-07
-3.50419e-08
2.53025e-07
-3.57399e-08
2.89429e-07
-3.62755e-08
3.26411e-07
-3.68072e-08
3.63976e-07
-3.73324e-08
4.01954e-07
-3.76764e-08
4.40294e-07
-3.79685e-08
4.78408e-07
-3.76945e-08
5.16859e-07
-3.80227e-08
5.55083e-07
-3.78094e-08
5.93194e-07
-3.77356e-08
6.31125e-07
-3.75976e-08
6.6808e-07
-3.66438e-08
7.04515e-07
-3.61642e-08
7.39844e-07
-3.51285e-08
7.74643e-07
-3.46392e-08
8.08312e-07
-3.35579e-08
8.41329e-07
-3.291e-08
8.72952e-07
-3.15324e-08
9.03759e-07
-3.0705e-08
9.33247e-07
-2.93985e-08
9.61279e-07
-2.79588e-08
9.8906e-07
-2.77072e-08
1.01599e-06
-2.6864e-08
1.04208e-06
-2.59652e-08
1.06679e-06
-2.45425e-08
1.09056e-06
-2.3566e-08
1.11336e-06
-2.25701e-08
1.13484e-06
-2.12855e-08
1.15564e-06
-2.06251e-08
1.17546e-06
-1.96897e-08
1.1944e-06
-1.8798e-08
1.21285e-06
-1.82952e-08
1.23048e-06
-1.75385e-08
1.24701e-06
-1.646e-08
1.26243e-06
-1.53638e-08
1.27708e-06
-1.45871e-08
1.29121e-06
-1.40798e-08
1.30495e-06
-1.36735e-08
1.31808e-06
-1.30397e-08
1.33049e-06
-1.23147e-08
1.34227e-06
-1.16993e-08
1.35349e-06
-1.11391e-08
1.36422e-06
-1.06665e-08
1.37449e-06
-1.02114e-08
1.38439e-06
-9.82395e-09
1.39396e-06
-9.48908e-09
1.40331e-06
-9.22195e-09
1.41229e-06
-8.82531e-09
1.42082e-06
-8.32744e-09
1.42902e-06
-7.9499e-09
1.43706e-06
-7.77103e-09
1.44486e-06
-7.54442e-09
1.45237e-06
-7.2634e-09
1.45957e-06
-6.9464e-09
1.46649e-06
-6.69582e-09
1.47314e-06
-6.48137e-09
1.47952e-06
-6.22811e-09
1.48553e-06
-5.83499e-09
1.49108e-06
-5.41651e-09
1.49654e-06
-5.37713e-09
1.50144e-06
-4.86157e-09
1.50612e-06
-4.62651e-09
1.51089e-06
-4.7189e-09
1.51518e-06
-4.19235e-09
1.51958e-06
-4.31063e-09
1.52396e-06
-4.31563e-09
1.5283e-06
-4.27679e-09
1.53241e-06
-4.04548e-09
1.53634e-06
-3.85761e-09
1.54007e-06
-3.67713e-09
1.54356e-06
-3.41958e-09
1.54677e-06
-3.12935e-09
1.54979e-06
-2.92339e-09
1.55265e-06
-2.72958e-09
1.55526e-06
-2.49442e-09
1.55772e-06
-2.33493e-09
1.55998e-06
-2.14677e-09
1.56209e-06
-2.02667e-09
1.56391e-06
-1.75829e-09
1.56565e-06
-1.71652e-09
1.56711e-06
-1.47664e-09
1.5685e-06
-1.46735e-09
1.56987e-06
-1.53462e-09
1.5712e-06
-1.61258e-09
1.5725e-06
-1.63248e-09
1.57368e-06
-1.56325e-09
1.57469e-06
-1.34632e-09
1.5755e-06
-1.03851e-09
1.57604e-06
-5.87607e-10
1.57635e-06
-1.05182e-10
1.57638e-06
2.8903e-10
1.57638e-06
4.38246e-10
1.57633e-06
4.89185e-10
1.57628e-06
3.43939e-10
1.57633e-06
9.60674e-11
1.57657e-06
-2.94635e-10
1.57691e-06
-4.69576e-10
1.57725e-06
-6.38397e-10
1.57753e-06
-6.08961e-10
1.5777e-06
-4.74894e-10
1.57777e-06
-3.36134e-10
1.57784e-06
-2.36569e-10
1.57785e-06
-1.64117e-10
1.57761e-06
1.8328e-10
1.57715e-06
4.21011e-10
1.57664e-06
4.58924e-10
1.57581e-06
8.52559e-10
1.57489e-06
9.77711e-10
1.57395e-06
1.01078e-09
1.57296e-06
1.14607e-09
1.57206e-06
1.04549e-09
1.57112e-06
1.09368e-09
1.5702e-06
1.0896e-09
1.56933e-06
1.03754e-09
1.56854e-06
9.57847e-10
1.56778e-06
8.87485e-10
1.56706e-06
8.09991e-10
1.56649e-06
6.21967e-10
1.56575e-06
7.74898e-10
1.56523e-06
5.69914e-10
1.56456e-06
7.5178e-10
1.56421e-06
4.76352e-10
1.56376e-06
6.13438e-10
1.56315e-06
7.92881e-10
1.56243e-06
9.37057e-10
1.56165e-06
9.8959e-10
1.56081e-06
1.07819e-09
1.55991e-06
1.13555e-09
1.55886e-06
1.33673e-09
1.55773e-06
1.47292e-09
1.55648e-06
1.66507e-09
1.5552e-06
1.75973e-09
1.5537e-06
2.0453e-09
1.5522e-06
2.09339e-09
1.55045e-06
2.40653e-09
1.54889e-06
2.17286e-09
1.54743e-06
2.07039e-09
1.54597e-06
2.05229e-09
1.54459e-06
1.9565e-09
1.5433e-06
1.81826e-09
1.5421e-06
1.66426e-09
1.54094e-06
1.58815e-09
1.53978e-06
1.58072e-09
1.53851e-06
1.70211e-09
1.5371e-06
1.86041e-09
1.53542e-06
2.16726e-09
1.53357e-06
2.40177e-09
1.53149e-06
2.68163e-09
1.5292e-06
2.95085e-09
1.52675e-06
3.17733e-09
1.5242e-06
3.33385e-09
1.52168e-06
3.37158e-09
1.51923e-06
3.37325e-09
1.51687e-06
3.34337e-09
1.51473e-06
3.17977e-09
1.51284e-06
2.97094e-09
1.51133e-06
2.56511e-09
1.51006e-06
2.27518e-09
1.50889e-06
2.15424e-09
1.50749e-06
2.36759e-09
1.50598e-06
2.44361e-09
1.50425e-06
2.66528e-09
1.50236e-06
2.81488e-09
1.5002e-06
3.0781e-09
1.49782e-06
3.31352e-09
1.49512e-06
3.71788e-09
1.4927e-06
3.373e-09
1.49075e-06
2.86497e-09
1.48914e-06
2.39772e-09
1.48762e-06
2.2124e-09
1.48612e-06
2.09728e-09
1.48452e-06
2.0306e-09
1.48263e-06
2.04462e-09
1.48046e-06
2.24685e-09
1.47804e-06
2.1876e-09
1.47529e-06
2.18577e-09
1.47254e-06
1.92883e-09
1.46966e-06
1.84701e-09
1.46667e-06
1.75935e-09
1.52737e-09
1.34787e-08
-3.08929e-08
1.76683e-08
-8.34629e-09
1.84626e-08
-1.31571e-09
1.68378e-08
2.93643e-09
1.37496e-08
4.79627e-09
8.44463e-09
7.15154e-09
-2.62662e-10
1.08803e-08
-1.39963e-08
1.69844e-08
-3.53116e-08
2.82343e-08
-6.44155e-08
4.02538e-08
-8.94792e-08
4.39184e-08
-1.08032e-07
4.42068e-08
-1.22616e-07
3.68995e-08
-1.3348e-07
2.85868e-08
-1.41342e-07
2.19362e-08
-1.48209e-07
1.79601e-08
-1.53959e-07
1.49639e-08
-1.58857e-07
1.28966e-08
-1.63102e-07
1.13231e-08
-1.6687e-07
1.0253e-08
-1.70266e-07
9.43737e-09
-1.73335e-07
8.72814e-09
-1.76109e-07
8.09559e-09
-1.78605e-07
7.48125e-09
-1.80851e-07
6.85921e-09
-1.8281e-07
6.26175e-09
-1.8433e-07
5.47368e-09
-1.85544e-07
4.73292e-09
-1.86166e-07
3.92142e-09
-1.86333e-07
2.88798e-09
-1.8613e-07
2.11015e-09
-1.85306e-07
1.05425e-09
-1.83872e-07
-1.77457e-11
-1.81688e-07
-1.35366e-09
-1.78843e-07
-2.46399e-09
-1.75095e-07
-3.93966e-09
-1.7046e-07
-5.53408e-09
-1.64575e-07
-7.89292e-09
-1.57607e-07
-9.83801e-09
-1.49307e-07
-1.23925e-08
-1.39923e-07
-1.45466e-08
-1.28855e-07
-1.7938e-08
-1.16407e-07
-2.07375e-08
-1.02206e-07
-2.4158e-08
-8.67376e-08
-2.6581e-08
-6.91726e-08
-3.06352e-08
-4.98856e-08
-3.39814e-08
-2.83632e-08
-3.82153e-08
-5.69744e-09
-4.00708e-08
1.91764e-08
-4.43068e-08
4.57527e-08
-4.74222e-08
7.47613e-08
-5.22548e-08
1.04858e-07
-5.41647e-08
1.3715e-07
-5.83092e-08
1.71863e-07
-6.31305e-08
2.08029e-07
-6.58525e-08
2.46e-07
-6.94655e-08
2.85391e-07
-7.22491e-08
3.262e-07
-7.49637e-08
3.67866e-07
-7.65812e-08
4.10365e-07
-7.80854e-08
4.53509e-07
-7.92256e-08
4.97343e-07
-8.03922e-08
5.41777e-07
-8.14575e-08
5.86669e-07
-8.2188e-08
6.32178e-07
-8.30362e-08
6.77542e-07
-8.25813e-08
7.23358e-07
-8.3341e-08
7.68873e-07
-8.28473e-08
8.14128e-07
-8.25499e-08
8.59199e-07
-8.22693e-08
9.0312e-07
-8.01992e-08
9.46539e-07
-7.92793e-08
9.88697e-07
-7.70743e-08
1.03021e-06
-7.59938e-08
1.07036e-06
-7.35999e-08
1.10969e-06
-7.21173e-08
1.14751e-06
-6.92237e-08
1.18435e-06
-6.73778e-08
1.21992e-06
-6.47962e-08
1.25408e-06
-6.19526e-08
1.28769e-06
-6.11469e-08
1.32026e-06
-5.92617e-08
1.35191e-06
-5.73521e-08
1.38226e-06
-5.45456e-08
1.41152e-06
-5.24206e-08
1.43975e-06
-5.03909e-08
1.46678e-06
-4.79434e-08
1.49297e-06
-4.64853e-08
1.51814e-06
-4.4625e-08
1.54233e-06
-4.28017e-08
1.56573e-06
-4.15188e-08
1.58813e-06
-3.98394e-08
1.60958e-06
-3.78031e-08
1.6301e-06
-3.58012e-08
1.64991e-06
-3.43141e-08
1.669e-06
-3.30601e-08
1.6874e-06
-3.1951e-08
1.70507e-06
-3.05224e-08
1.72207e-06
-2.9104e-08
1.7386e-06
-2.79931e-08
1.75463e-06
-2.69206e-08
1.77013e-06
-2.59294e-08
1.78514e-06
-2.49886e-08
1.79973e-06
-2.42031e-08
1.81386e-06
-2.34308e-08
1.82752e-06
-2.26892e-08
1.84072e-06
-2.1837e-08
1.85354e-06
-2.09222e-08
1.86605e-06
-2.02001e-08
1.87827e-06
-1.96924e-08
1.89011e-06
-1.90734e-08
1.90158e-06
-1.83771e-08
1.91275e-06
-1.77185e-08
1.92369e-06
-1.71977e-08
1.93426e-06
-1.66238e-08
1.94435e-06
-1.59026e-08
1.95379e-06
-1.4824e-08
1.96264e-06
-1.38773e-08
1.97129e-06
-1.37068e-08
1.97961e-06
-1.29472e-08
1.98772e-06
-1.25427e-08
1.99599e-06
-1.28516e-08
2.0042e-06
-1.22809e-08
2.01217e-06
-1.21745e-08
2.01986e-06
-1.19525e-08
2.02722e-06
-1.16061e-08
2.03417e-06
-1.09435e-08
2.04078e-06
-1.03838e-08
2.04707e-06
-9.86764e-09
2.05301e-06
-9.21075e-09
2.05859e-06
-8.51285e-09
2.064e-06
-8.06598e-09
2.06927e-06
-7.69863e-09
2.07437e-06
-7.27063e-09
2.07932e-06
-6.96376e-09
2.08407e-06
-6.61127e-09
2.08871e-06
-6.40801e-09
2.09324e-06
-6.07615e-09
2.09765e-06
-5.96527e-09
2.10201e-06
-5.72532e-09
2.10627e-06
-5.7059e-09
2.11045e-06
-5.80005e-09
2.11462e-06
-5.99467e-09
2.11862e-06
-5.92904e-09
2.12236e-06
-5.66088e-09
2.12582e-06
-5.13076e-09
2.12895e-06
-4.38861e-09
2.13167e-06
-3.30614e-09
2.13397e-06
-2.1462e-09
2.13588e-06
-1.22869e-09
2.13756e-06
-7.13009e-10
2.13918e-06
-5.63413e-10
2.14089e-06
-9.75365e-10
2.14277e-06
-1.53348e-09
2.14486e-06
-2.33671e-09
2.14729e-06
-2.87164e-09
2.14969e-06
-3.22726e-09
2.1521e-06
-3.26049e-09
2.15437e-06
-2.99166e-09
2.15641e-06
-2.59692e-09
2.15823e-06
-2.16129e-09
2.15966e-06
-1.67547e-09
2.16075e-06
-9.11881e-10
2.16125e-06
-5.35888e-11
2.16151e-06
2.10194e-10
2.16166e-06
8.08293e-10
2.16174e-06
1.04255e-09
2.16175e-06
1.17057e-09
2.16192e-06
1.21566e-09
2.16211e-06
1.08682e-09
2.16237e-06
1.09034e-09
2.16273e-06
9.99124e-10
2.16321e-06
8.42832e-10
2.16374e-06
6.99633e-10
2.16411e-06
7.45692e-10
2.16431e-06
8.14686e-10
2.16445e-06
6.23313e-10
2.16423e-06
1.09827e-09
2.16409e-06
7.89805e-10
2.16347e-06
1.46253e-09
2.16301e-06
1.03887e-09
2.16249e-06
1.25854e-09
2.16181e-06
1.61969e-09
2.16105e-06
1.86477e-09
2.16032e-06
1.9007e-09
2.15961e-06
1.99971e-09
2.15901e-06
1.97994e-09
2.15834e-06
2.3266e-09
2.15765e-06
2.57413e-09
2.15669e-06
3.12974e-09
2.15567e-06
3.38424e-09
2.15418e-06
4.18748e-09
2.15263e-06
4.34469e-09
2.15054e-06
5.22595e-09
2.14858e-06
4.77821e-09
2.14667e-06
4.56242e-09
2.14476e-06
4.50892e-09
2.14302e-06
4.20528e-09
2.1414e-06
3.88072e-09
2.1398e-06
3.62967e-09
2.13818e-06
3.51517e-09
2.13649e-06
3.55865e-09
2.13451e-06
3.97204e-09
2.13223e-06
4.41945e-09
2.12967e-06
4.98714e-09
2.12682e-06
5.50743e-09
2.12367e-06
6.09001e-09
2.12021e-06
6.66326e-09
2.11655e-06
7.09808e-09
2.11279e-06
7.38366e-09
2.10908e-06
7.39974e-09
2.10551e-06
7.30844e-09
2.10193e-06
7.33992e-09
2.09847e-06
7.09204e-09
2.0951e-06
6.88182e-09
2.0919e-06
6.25475e-09
2.08877e-06
5.84386e-09
2.08555e-06
5.79811e-09
2.08226e-06
6.05118e-09
2.07889e-06
6.1886e-09
2.07532e-06
6.60394e-09
2.07183e-06
6.6722e-09
2.06808e-06
7.18514e-09
2.06444e-06
7.33335e-09
2.06034e-06
8.23852e-09
2.0565e-06
7.62097e-09
2.05268e-06
7.05322e-09
2.04923e-06
6.14223e-09
2.04563e-06
6.04984e-09
2.04262e-06
5.30987e-09
2.03942e-06
5.30578e-09
2.03605e-06
5.20392e-09
2.03241e-06
5.6341e-09
2.02869e-06
5.34031e-09
2.02461e-06
5.34221e-09
2.02059e-06
4.75964e-09
2.01643e-06
4.60471e-09
2.01219e-06
4.38106e-09
4.15275e-09
1.10768e-08
-4.20608e-08
1.45301e-08
-1.18885e-08
1.48152e-08
-1.6871e-09
1.11272e-08
6.54228e-09
4.4875e-09
1.1353e-08
-6.36012e-09
1.79101e-08
-2.36198e-08
2.80375e-08
-4.98458e-08
4.30819e-08
-7.61305e-08
5.43591e-08
-9.59146e-08
5.98573e-08
-1.10149e-07
5.79733e-08
-1.19248e-07
5.31609e-08
-1.25505e-07
4.30624e-08
-1.31847e-07
3.48762e-08
-1.37717e-07
2.77832e-08
-1.42366e-07
2.2593e-08
-1.46249e-07
1.88438e-08
-1.49588e-07
1.6241e-08
-1.52509e-07
1.42487e-08
-1.55084e-07
1.28295e-08
-1.57368e-07
1.17171e-08
-1.5938e-07
1.07254e-08
-1.61155e-07
9.8386e-09
-1.62664e-07
8.9376e-09
-1.63816e-07
7.93046e-09
-1.64531e-07
6.87358e-09
-1.64903e-07
5.71444e-09
-1.64837e-07
4.511e-09
-1.6429e-07
3.20353e-09
-1.63233e-07
1.65356e-09
-1.61608e-07
3.07172e-10
-1.59314e-07
-1.40578e-09
-1.56368e-07
-3.10866e-09
-1.52537e-07
-5.29937e-09
-1.47886e-07
-7.19598e-09
-1.42168e-07
-9.73898e-09
-1.35461e-07
-1.22375e-08
-1.27362e-07
-1.5953e-08
-1.18032e-07
-1.91077e-08
-1.0719e-07
-2.31665e-08
-9.51328e-08
-2.65419e-08
-8.12421e-08
-3.17867e-08
-6.57918e-08
-3.61677e-08
-4.83288e-08
-4.16189e-08
-2.94411e-08
-4.54855e-08
-8.23808e-09
-5.1845e-08
1.4801e-08
-5.70202e-08
4.02667e-08
-6.36237e-08
6.70016e-08
-6.66976e-08
9.62987e-08
-7.34619e-08
1.27429e-07
-7.83729e-08
1.61197e-07
-8.58438e-08
1.96101e-07
-8.88744e-08
2.33659e-07
-9.5666e-08
2.7373e-07
-1.03e-07
3.14909e-07
-1.06851e-07
3.58198e-07
-1.12581e-07
4.02955e-07
-1.16835e-07
4.4922e-07
-1.21052e-07
4.96238e-07
-1.23409e-07
5.44138e-07
-1.2577e-07
5.92633e-07
-1.27463e-07
6.4182e-07
-1.29258e-07
6.91578e-07
-1.30829e-07
7.41604e-07
-1.31752e-07
7.92051e-07
-1.32963e-07
8.42193e-07
-1.32185e-07
8.92497e-07
-1.3311e-07
9.42227e-07
-1.32056e-07
9.91567e-07
-1.31401e-07
1.04045e-06
-1.30703e-07
1.08803e-06
-1.27359e-07
1.13486e-06
-1.25753e-07
1.18026e-06
-1.22248e-07
1.22473e-06
-1.20309e-07
1.2676e-06
-1.16377e-07
1.30938e-06
-1.13792e-07
1.34951e-06
-1.09233e-07
1.38854e-06
-1.06209e-07
1.4262e-06
-1.02238e-07
1.46252e-06
-9.80599e-08
1.49811e-06
-9.65146e-08
1.53245e-06
-9.33707e-08
1.56576e-06
-9.03244e-08
1.5977e-06
-8.60503e-08
1.62849e-06
-8.26856e-08
1.65814e-06
-7.949e-08
1.68658e-06
-7.58731e-08
1.71418e-06
-7.3617e-08
1.74064e-06
-7.07454e-08
1.76611e-06
-6.80006e-08
1.79063e-06
-6.5851e-08
1.81404e-06
-6.31564e-08
1.83646e-06
-6.0141e-08
1.85813e-06
-5.74009e-08
1.87923e-06
-5.53371e-08
1.89954e-06
-5.32695e-08
1.91904e-06
-5.13076e-08
1.93769e-06
-4.89648e-08
1.95575e-06
-4.68933e-08
1.97345e-06
-4.53754e-08
1.99074e-06
-4.38735e-08
2.00758e-06
-4.23957e-08
2.02394e-06
-4.09978e-08
2.03995e-06
-3.98681e-08
2.05545e-06
-3.86438e-08
2.07039e-06
-3.73562e-08
2.0848e-06
-3.59928e-08
2.09888e-06
-3.47646e-08
2.11272e-06
-3.37898e-08
2.12625e-06
-3.29255e-08
2.1393e-06
-3.18444e-08
2.15196e-06
-3.06843e-08
2.16436e-06
-2.97002e-08
2.17661e-06
-2.89507e-08
2.18848e-06
-2.79444e-08
2.19981e-06
-2.66472e-08
2.21032e-06
-2.46949e-08
2.22026e-06
-2.32324e-08
2.22987e-06
-2.27834e-08
2.23927e-06
-2.19278e-08
2.24859e-06
-2.15185e-08
2.25814e-06
-2.21419e-08
2.26787e-06
-2.18377e-08
2.27723e-06
-2.14187e-08
2.28624e-06
-2.09176e-08
2.29481e-06
-2.01714e-08
2.30285e-06
-1.89786e-08
2.31046e-06
-1.79542e-08
2.31766e-06
-1.69985e-08
2.32446e-06
-1.58581e-08
2.33086e-06
-1.46939e-08
2.33712e-06
-1.39899e-08
2.34328e-06
-1.3442e-08
2.34932e-06
-1.28696e-08
2.35525e-06
-1.24581e-08
2.36105e-06
-1.19952e-08
2.36673e-06
-1.17235e-08
2.37234e-06
-1.13791e-08
2.37784e-06
-1.12286e-08
2.38332e-06
-1.10269e-08
2.3887e-06
-1.10148e-08
2.39402e-06
-1.11412e-08
2.39928e-06
-1.14169e-08
2.40431e-06
-1.12224e-08
2.40902e-06
-1.06869e-08
2.41337e-06
-9.77046e-09
2.41732e-06
-8.52678e-09
2.42078e-06
-6.74933e-09
2.42377e-06
-4.86017e-09
2.42635e-06
-3.40199e-09
2.42867e-06
-2.49281e-09
2.4309e-06
-2.18125e-09
2.43322e-06
-2.88792e-09
2.43574e-06
-3.72237e-09
2.43851e-06
-4.99913e-09
2.44167e-06
-5.93757e-09
2.44492e-06
-6.54635e-09
2.44823e-06
-6.70709e-09
2.45135e-06
-6.29944e-09
2.4542e-06
-5.61575e-09
2.45676e-06
-4.7656e-09
2.4588e-06
-3.76801e-09
2.46041e-06
-2.50904e-09
2.46148e-06
-1.09855e-09
2.462e-06
-2.65387e-10
2.46251e-06
4.25226e-10
2.46304e-06
7.05799e-10
2.46356e-06
8.87734e-10
2.46424e-06
8.5082e-10
2.46491e-06
7.29767e-10
2.46575e-06
5.75353e-10
2.46678e-06
3.14567e-10
2.46796e-06
2.07134e-11
2.46919e-06
-1.85119e-10
2.4702e-06
5.18538e-11
2.47092e-06
3.81837e-10
2.47138e-06
3.94604e-10
2.47154e-06
1.12122e-09
2.47161e-06
8.72766e-10
2.47122e-06
1.97161e-09
2.47061e-06
1.76067e-09
2.46997e-06
2.0141e-09
2.46923e-06
2.48019e-09
2.46841e-06
2.80394e-09
2.46764e-06
2.7949e-09
2.46693e-06
2.86734e-09
2.46641e-06
2.69131e-09
2.46591e-06
3.13909e-09
2.46542e-06
3.48333e-09
2.46469e-06
4.41813e-09
2.46387e-06
4.86868e-09
2.46256e-06
6.2399e-09
2.46114e-06
6.55829e-09
2.45913e-06
8.06728e-09
2.45706e-06
7.5802e-09
2.45502e-06
7.23796e-09
2.45298e-06
7.12233e-09
2.45104e-06
6.66627e-09
2.44932e-06
6.01509e-09
2.44754e-06
5.72949e-09
2.44569e-06
5.6464e-09
2.4437e-06
5.80294e-09
2.44138e-06
6.53892e-09
2.4388e-06
7.23361e-09
2.43588e-06
8.12592e-09
2.43262e-06
8.94732e-09
2.42902e-06
9.83676e-09
2.42511e-06
1.06947e-08
2.42096e-06
1.13361e-08
2.4167e-06
1.17361e-08
2.4124e-06
1.17824e-08
2.40817e-06
1.16485e-08
2.40407e-06
1.15865e-08
2.39997e-06
1.13464e-08
2.39582e-06
1.12405e-08
2.39158e-06
1.06516e-08
2.38719e-06
1.03139e-08
2.38293e-06
1.01314e-08
2.37848e-06
1.05386e-08
2.37394e-06
1.07438e-08
2.36925e-06
1.13117e-08
2.36469e-06
1.12525e-08
2.35995e-06
1.19537e-08
2.3555e-06
1.18427e-08
2.35061e-06
1.32341e-08
2.34577e-06
1.25076e-08
2.34067e-06
1.21331e-08
2.33623e-06
1.04694e-08
2.3314e-06
1.07318e-08
2.32707e-06
9.4669e-09
2.32268e-06
9.42863e-09
2.31822e-06
9.16645e-09
2.31357e-06
9.74729e-09
2.3089e-06
9.18631e-09
2.30396e-06
9.13721e-09
2.29906e-06
8.26015e-09
2.29403e-06
8.00902e-09
2.28893e-06
7.64974e-09
7.4542e-09
6.19147e-09
-4.83339e-08
7.88937e-09
-1.3666e-08
7.32816e-09
-1.20006e-09
9.0281e-10
1.28963e-08
-1.03083e-08
2.24925e-08
-2.80176e-08
3.55392e-08
-5.32501e-08
5.31815e-08
-7.58894e-08
6.56038e-08
-9.26252e-08
7.09514e-08
-1.03864e-07
7.09313e-08
-1.11012e-07
6.49533e-08
-1.15902e-07
5.79128e-08
-1.20524e-07
4.75853e-08
-1.24607e-07
3.89017e-08
-1.28199e-07
3.1337e-08
-1.31357e-07
2.57196e-08
-1.34122e-07
2.15847e-08
-1.36541e-07
1.86388e-08
-1.38697e-07
1.63829e-08
-1.40573e-07
1.46787e-08
-1.42188e-07
1.33016e-08
-1.43563e-07
1.20627e-08
-1.44651e-07
1.08765e-08
-1.45372e-07
9.59303e-09
-1.45743e-07
8.21943e-09
-1.4571e-07
6.74063e-09
-1.45269e-07
5.15721e-09
-1.44298e-07
3.40845e-09
-1.42754e-07
1.51528e-09
-1.40573e-07
-6.78011e-10
-1.37713e-07
-2.70391e-09
-1.34086e-07
-5.18087e-09
-1.29683e-07
-7.64483e-09
-1.24229e-07
-1.0864e-08
-1.17787e-07
-1.37202e-08
-1.10126e-07
-1.747e-08
-1.01369e-07
-2.10105e-08
-9.10211e-08
-2.62833e-08
-7.92358e-08
-3.08537e-08
-6.56989e-08
-3.66522e-08
-5.07942e-08
-4.13934e-08
-3.38437e-08
-4.86963e-08
-1.51217e-08
-5.48603e-08
5.94006e-09
-6.26606e-08
2.86045e-08
-6.81375e-08
5.39551e-08
-7.71697e-08
8.12491e-08
-8.42771e-08
1.11268e-07
-9.35439e-08
1.42608e-07
-9.78854e-08
1.76996e-07
-1.07664e-07
2.13389e-07
-1.14545e-07
2.527e-07
-1.24931e-07
2.93125e-07
-1.2905e-07
3.36775e-07
-1.39042e-07
3.82997e-07
-1.48934e-07
4.30106e-07
-1.53701e-07
4.79717e-07
-1.61938e-07
5.30616e-07
-1.67485e-07
5.83104e-07
-1.73289e-07
6.36078e-07
-1.76122e-07
6.90028e-07
-1.79441e-07
7.44409e-07
-1.81522e-07
7.9942e-07
-1.83867e-07
8.54726e-07
-1.85661e-07
9.1017e-07
-1.86634e-07
9.6573e-07
-1.87888e-07
1.02075e-06
-1.86582e-07
1.07568e-06
-1.87449e-07
1.12955e-06
-1.85354e-07
1.18285e-06
-1.84155e-07
1.23512e-06
-1.82471e-07
1.28584e-06
-1.776e-07
1.33549e-06
-1.74995e-07
1.38336e-06
-1.69841e-07
1.42984e-06
-1.6662e-07
1.47439e-06
-1.60844e-07
1.51754e-06
-1.5687e-07
1.55883e-06
-1.50416e-07
1.59892e-06
-1.46087e-07
1.63744e-06
-1.40522e-07
1.67475e-06
-1.35111e-07
1.71114e-06
-1.3262e-07
1.74596e-06
-1.27915e-07
1.77962e-06
-1.23594e-07
1.81177e-06
-1.17694e-07
1.84266e-06
-1.12956e-07
1.87223e-06
-1.08385e-07
1.90058e-06
-1.03573e-07
1.92808e-06
-1.00509e-07
1.95433e-06
-9.65134e-08
1.97959e-06
-9.28686e-08
2.00376e-06
-8.9801e-08
2.02671e-06
-8.60165e-08
2.04856e-06
-8.19429e-08
2.06989e-06
-7.86848e-08
2.09074e-06
-7.61307e-08
2.11074e-06
-7.32084e-08
2.12983e-06
-7.02646e-08
2.148e-06
-6.69164e-08
2.1657e-06
-6.42939e-08
2.18313e-06
-6.24363e-08
2.20026e-06
-6.05765e-08
2.21699e-06
-5.8651e-08
2.23332e-06
-5.68576e-08
2.24936e-06
-5.54506e-08
2.26488e-06
-5.3758e-08
2.2798e-06
-5.19031e-08
2.2941e-06
-4.99754e-08
2.30818e-06
-4.85606e-08
2.32207e-06
-4.742e-08
2.33562e-06
-4.62037e-08
2.34862e-06
-4.46006e-08
2.36123e-06
-4.29732e-08
2.37362e-06
-4.17031e-08
2.38595e-06
-4.07868e-08
2.39787e-06
-3.92854e-08
2.40923e-06
-3.73266e-08
2.41971e-06
-3.43948e-08
2.42965e-06
-3.24054e-08
2.43919e-06
-3.16059e-08
2.44863e-06
-3.07556e-08
2.4582e-06
-3.05714e-08
2.46797e-06
-3.15156e-08
2.47808e-06
-3.17033e-08
2.4878e-06
-3.09726e-08
2.49713e-06
-3.01953e-08
2.50593e-06
-2.89953e-08
2.51414e-06
-2.72359e-08
2.52187e-06
-2.57037e-08
2.52912e-06
-2.42384e-08
2.53594e-06
-2.25571e-08
2.54236e-06
-2.09084e-08
2.54868e-06
-1.99621e-08
2.55492e-06
-1.92053e-08
2.56112e-06
-1.85391e-08
2.56726e-06
-1.80636e-08
2.57333e-06
-1.75502e-08
2.5793e-06
-1.72407e-08
2.58522e-06
-1.69326e-08
2.59105e-06
-1.67647e-08
2.59687e-06
-1.66431e-08
2.6026e-06
-1.66411e-08
2.6083e-06
-1.68436e-08
2.6139e-06
-1.71532e-08
2.61922e-06
-1.677e-08
2.62417e-06
-1.59047e-08
2.6287e-06
-1.45484e-08
2.63278e-06
-1.27531e-08
2.63635e-06
-1.02521e-08
2.63939e-06
-7.64601e-09
2.64208e-06
-5.66146e-09
2.64447e-06
-4.36836e-09
2.6468e-06
-3.91955e-09
2.64917e-06
-4.86047e-09
2.65177e-06
-5.9631e-09
2.65468e-06
-7.76816e-09
2.65797e-06
-9.08993e-09
2.66152e-06
-1.0062e-08
2.66512e-06
-1.03555e-08
2.66855e-06
-9.83567e-09
2.67169e-06
-8.85949e-09
2.67447e-06
-7.55142e-09
2.67667e-06
-5.98847e-09
2.67837e-06
-4.18744e-09
2.67956e-06
-2.27989e-09
2.68007e-06
-7.30863e-10
2.68061e-06
1.99319e-11
2.68121e-06
3.09494e-10
2.68184e-06
5.06993e-10
2.6827e-06
3.77748e-10
2.68355e-06
2.37095e-10
2.6846e-06
-1.00111e-10
2.68592e-06
-6.10248e-10
2.68744e-06
-1.08743e-09
2.689e-06
-1.35256e-09
2.69033e-06
-9.11968e-10
2.69131e-06
-2.44006e-10
2.69199e-06
2.24335e-11
2.69233e-06
1.04297e-09
2.69244e-06
9.93503e-10
2.6922e-06
2.39794e-09
2.69149e-06
2.61782e-09
2.69074e-06
2.91568e-09
2.68989e-06
3.45117e-09
2.68896e-06
3.83677e-09
2.68806e-06
3.76453e-09
2.68724e-06
3.7869e-09
2.68662e-06
3.45172e-09
2.68614e-06
3.87643e-09
2.68566e-06
4.37041e-09
2.68499e-06
5.64927e-09
2.68423e-06
6.32906e-09
2.68302e-06
8.25477e-09
2.68165e-06
8.799e-09
2.6798e-06
1.08445e-08
2.67768e-06
1.05175e-08
2.67557e-06
1.00589e-08
2.67348e-06
9.83335e-09
2.67148e-06
9.20052e-09
2.66967e-06
8.26245e-09
2.66784e-06
7.87249e-09
2.66585e-06
7.90267e-09
2.66365e-06
8.25585e-09
2.6612e-06
9.23767e-09
2.65842e-06
1.02514e-08
2.65528e-06
1.1487e-08
2.65178e-06
1.26218e-08
2.64792e-06
1.38214e-08
2.64374e-06
1.49429e-08
2.63931e-06
1.57867e-08
2.63475e-06
1.62833e-08
2.63013e-06
1.63629e-08
2.62556e-06
1.6172e-08
2.62101e-06
1.61244e-08
2.61658e-06
1.57557e-08
2.61193e-06
1.59014e-08
2.60713e-06
1.54031e-08
2.60208e-06
1.5225e-08
2.597e-06
1.50376e-08
2.5917e-06
1.56328e-08
2.58629e-06
1.59048e-08
2.58076e-06
1.66079e-08
2.57539e-06
1.63994e-08
2.5699e-06
1.72266e-08
2.56473e-06
1.68443e-08
2.55925e-06
1.85844e-08
2.5537e-06
1.78621e-08
2.54784e-06
1.77003e-08
2.54246e-06
1.54562e-08
2.53668e-06
1.60461e-08
2.53127e-06
1.44074e-08
2.52589e-06
1.42616e-08
2.52048e-06
1.38232e-08
2.51496e-06
1.44658e-08
2.50943e-06
1.36754e-08
2.50372e-06
1.35148e-08
2.49805e-06
1.23592e-08
2.49228e-06
1.19962e-08
2.48643e-06
1.15008e-08
1.13328e-08
2.23246e-09
-5.0637e-08
1.29243e-09
-1.27936e-08
-2.10153e-09
2.12848e-09
-1.18479e-08
2.25787e-08
-2.83941e-08
3.89741e-08
-5.11438e-08
5.82228e-08
-7.09521e-08
7.29097e-08
-8.56404e-08
8.01949e-08
-9.57603e-08
8.09485e-08
-1.01955e-07
7.69797e-08
-1.06758e-07
6.96111e-08
-1.09448e-07
6.04789e-08
-1.1206e-07
5.01047e-08
-1.14506e-07
4.12836e-08
-1.16916e-07
3.36921e-08
-1.19173e-07
2.79249e-08
-1.21212e-07
2.35729e-08
-1.22996e-07
2.03721e-08
-1.24566e-07
1.79006e-08
-1.25876e-07
1.59348e-08
-1.26922e-07
1.42921e-08
-1.27672e-07
1.27544e-08
-1.28083e-07
1.12237e-08
-1.2816e-07
9.5993e-09
-1.27848e-07
7.829e-09
-1.27044e-07
5.84834e-09
-1.25718e-07
3.73413e-09
-1.23762e-07
1.34513e-09
-1.21154e-07
-1.20787e-09
-1.17763e-07
-4.18933e-09
-1.13569e-07
-7.02221e-09
-1.0846e-07
-1.04154e-08
-1.02458e-07
-1.37666e-08
-9.52076e-08
-1.82199e-08
-8.67911e-08
-2.22223e-08
-7.69336e-08
-2.73911e-08
-6.58416e-08
-3.21337e-08
-5.28897e-08
-3.92347e-08
-3.82327e-08
-4.54859e-08
-2.14754e-08
-5.3369e-08
-3.17584e-09
-5.96415e-08
1.74937e-08
-6.93195e-08
4.02133e-08
-7.75377e-08
6.58538e-08
-8.8261e-08
9.3279e-08
-9.55219e-08
1.24044e-07
-1.07877e-07
1.56921e-07
-1.17084e-07
1.93171e-07
-1.29655e-07
2.3088e-07
-1.35388e-07
2.72543e-07
-1.4908e-07
3.16425e-07
-1.58145e-07
3.63667e-07
-1.71886e-07
4.11804e-07
-1.76859e-07
4.64025e-07
-1.90881e-07
5.18876e-07
-2.03383e-07
5.74079e-07
-2.0855e-07
6.32427e-07
-2.19928e-07
6.91599e-07
-2.26327e-07
7.52407e-07
-2.33767e-07
8.13316e-07
-2.36695e-07
8.74976e-07
-2.40754e-07
9.36773e-07
-2.42931e-07
9.98807e-07
-2.45397e-07
1.06084e-06
-2.47096e-07
1.12254e-06
-2.47621e-07
1.18399e-06
-2.48523e-07
1.24431e-06
-2.46129e-07
1.30401e-06
-2.46451e-07
1.36191e-06
-2.42628e-07
1.41865e-06
-2.40293e-07
1.47369e-06
-2.36968e-07
1.52672e-06
-2.30067e-07
1.57808e-06
-2.25878e-07
1.6273e-06
-2.18726e-07
1.67491e-06
-2.14014e-07
1.72023e-06
-2.06069e-07
1.76388e-06
-2.00453e-07
1.80534e-06
-1.91786e-07
1.84548e-06
-1.86034e-07
1.88384e-06
-1.78639e-07
1.92107e-06
-1.72031e-07
1.95711e-06
-1.68321e-07
1.99113e-06
-1.61596e-07
2.02384e-06
-1.55861e-07
2.05472e-06
-1.48e-07
2.08433e-06
-1.41842e-07
2.11239e-06
-1.3565e-07
2.13933e-06
-1.29706e-07
2.16538e-06
-1.25793e-07
2.19008e-06
-1.20567e-07
2.21384e-06
-1.16091e-07
2.23641e-06
-1.12081e-07
2.25757e-06
-1.07059e-07
2.27755e-06
-1.019e-07
2.29725e-06
-9.83858e-08
2.31647e-06
-9.5329e-08
2.33485e-06
-9.15534e-08
2.35226e-06
-8.75748e-08
2.36874e-06
-8.31812e-08
2.38495e-06
-8.01887e-08
2.40096e-06
-7.80329e-08
2.41676e-06
-7.58926e-08
2.43222e-06
-7.35445e-08
2.44742e-06
-7.14815e-08
2.46242e-06
-6.98641e-08
2.47687e-06
-6.76805e-08
2.49074e-06
-6.52923e-08
2.50396e-06
-6.27787e-08
2.51706e-06
-6.13095e-08
2.53004e-06
-6.01009e-08
2.54264e-06
-5.85533e-08
2.55467e-06
-5.64024e-08
2.56628e-06
-5.43266e-08
2.57781e-06
-5.28851e-08
2.58924e-06
-5.17659e-08
2.6003e-06
-4.97806e-08
2.61076e-06
-4.70616e-08
2.62036e-06
-4.31086e-08
2.62945e-06
-4.05909e-08
2.63816e-06
-3.93965e-08
2.64696e-06
-3.87493e-08
2.65604e-06
-3.89556e-08
2.66533e-06
-4.02401e-08
2.67494e-06
-4.09582e-08
2.68433e-06
-4.01237e-08
2.69324e-06
-3.9043e-08
2.70153e-06
-3.7333e-08
2.70921e-06
-3.50011e-08
2.71637e-06
-3.29561e-08
2.72299e-06
-3.09165e-08
2.72917e-06
-2.86641e-08
2.73497e-06
-2.65529e-08
2.74072e-06
-2.5366e-08
2.74646e-06
-2.44401e-08
2.75222e-06
-2.37031e-08
2.75798e-06
-2.31999e-08
2.76373e-06
-2.27048e-08
2.76941e-06
-2.24022e-08
2.7751e-06
-2.2196e-08
2.78071e-06
-2.20463e-08
2.78639e-06
-2.20948e-08
2.79196e-06
-2.2113e-08
2.79757e-06
-2.24623e-08
2.80301e-06
-2.27237e-08
2.80813e-06
-2.20731e-08
2.81284e-06
-2.0834e-08
2.81711e-06
-1.8994e-08
2.82087e-06
-1.65881e-08
2.82411e-06
-1.33688e-08
2.82686e-06
-1.01472e-08
2.8292e-06
-7.58481e-09
2.83134e-06
-6.02028e-09
2.8334e-06
-5.47022e-09
2.83549e-06
-6.54114e-09
2.8378e-06
-7.93397e-09
2.84045e-06
-1.02563e-08
2.8435e-06
-1.19718e-08
2.84697e-06
-1.34085e-08
2.85049e-06
-1.38154e-08
2.85388e-06
-1.32371e-08
2.85696e-06
-1.1977e-08
2.85965e-06
-1.01895e-08
2.86171e-06
-8.03883e-09
2.86321e-06
-5.67e-09
2.86417e-06
-3.24238e-09
2.86449e-06
-1.01276e-09
2.86482e-06
-1.88325e-10
2.86518e-06
1.49831e-10
2.86559e-06
3.50112e-10
2.86635e-06
3.85056e-11
2.86712e-06
-1.38229e-10
2.86819e-06
-7.537e-10
2.86954e-06
-1.52241e-09
2.8711e-06
-2.21003e-09
2.87271e-06
-2.53405e-09
2.87412e-06
-1.91175e-09
2.87513e-06
-8.75234e-10
2.87584e-06
-3.13236e-10
2.87618e-06
1.0252e-09
2.87625e-06
1.22025e-09
2.87594e-06
2.99672e-09
2.87513e-06
3.6508e-09
2.87417e-06
4.06501e-09
2.87313e-06
4.64398e-09
2.872e-06
5.05778e-09
2.8709e-06
4.91817e-09
2.86987e-06
4.86794e-09
2.86897e-06
4.42274e-09
2.8684e-06
4.65509e-09
2.86779e-06
5.33862e-09
2.86702e-06
6.95896e-09
2.86617e-06
7.90594e-09
2.86494e-06
1.0317e-08
2.86351e-06
1.11581e-08
2.8617e-06
1.36404e-08
2.85955e-06
1.35669e-08
2.85732e-06
1.30854e-08
2.85515e-06
1.26833e-08
2.85311e-06
1.18116e-08
2.85117e-06
1.06637e-08
2.84927e-06
1.01013e-08
2.84713e-06
1.03035e-08
2.8448e-06
1.08335e-08
2.8422e-06
1.21039e-08
2.83924e-06
1.34617e-08
2.83591e-06
1.50562e-08
2.83222e-06
1.65136e-08
2.82815e-06
1.80302e-08
2.82376e-06
1.93993e-08
2.81911e-06
2.04392e-08
2.8143e-06
2.10166e-08
2.80943e-06
2.11195e-08
2.80461e-06
2.08511e-08
2.79977e-06
2.08233e-08
2.79507e-06
2.03135e-08
2.79011e-06
2.07398e-08
2.78487e-06
2.04448e-08
2.77928e-06
2.05267e-08
2.77358e-06
2.03929e-08
2.7676e-06
2.1228e-08
2.76151e-06
2.15539e-08
2.75528e-06
2.24051e-08
2.74921e-06
2.20319e-08
2.74307e-06
2.29629e-08
2.73723e-06
2.2319e-08
2.73122e-06
2.428e-08
2.72508e-06
2.3612e-08