/*--------------------------------*- C++ -*----------------------------------*\
| =========                 |                                                 |
| \\      /  F ield         | OpenFOAM: The Open Source CFD Toolbox           |
|  \\    /   O peration     | Version:  2312                                  |
|   \\  /    A nd           | Website:  www.openfoam.com                      |
|    \\/     M anipulation  |                                                 |
\*---------------------------------------------------------------------------*/
FoamFile
{
    version     2.0;
    format      ascii;
    arch        "LSB;label=32;scalar=64";
    class       volScalarField;
    location    "0.001";
    object      rho;
}
// * * * * * * * * * * * * * * * * * * * * * * * * * * * * * * * * * * * * * //

dimensions      [1 -3 0 0 0 0 0];

internalField   nonuniform List<scalar> 
48128
(
0.0312222
0.0312252
0.0310921
0.0310024
0.0309932
0.0309669
0.0309323
0.0308659
0.0307787
0.0308678
0.0308994
0.0309804
0.0308789
0.030673
0.0304945
0.0303799
0.0303164
0.030314
0.0303627
0.0304642
0.0306111
0.0308043
0.0310444
0.031335
0.031679
0.0320748
0.0325344
0.033072
0.0336735
0.034348
0.0351036
0.0359334
0.0368543
0.0378628
0.0389608
0.040165
0.0414551
0.0428621
0.0443391
0.0459529
0.047611
0.0494353
0.0512642
0.0532683
0.0552697
0.057455
0.0596318
0.0619638
0.0642788
0.0667464
0.0692039
0.0717847
0.0743458
0.0770269
0.079704
0.0823849
0.0851001
0.0877971
0.0904796
0.0931258
0.0957394
0.09831
0.100836
0.103315
0.105739
0.10812
0.110412
0.112655
0.114819
0.116867
0.11887
0.120702
0.122542
0.124215
0.125901
0.127441
0.128942
0.130338
0.131657
0.132937
0.13412
0.135309
0.136357
0.137366
0.138278
0.139149
0.13996
0.140737
0.141485
0.142216
0.142878
0.143547
0.144095
0.144631
0.145172
0.145718
0.146256
0.146766
0.147186
0.147603
0.148025
0.14845
0.148874
0.149297
0.149722
0.150139
0.150541
0.150908
0.151285
0.151671
0.152071
0.152438
0.152785
0.153131
0.153478
0.153818
0.154121
0.154377
0.154524
0.154663
0.154827
0.15499
0.155225
0.155493
0.155794
0.15609
0.156379
0.156618
0.156834
0.15701
0.15717
0.157277
0.15738
0.15748
0.157581
0.157682
0.157791
0.157904
0.158025
0.158145
0.158282
0.158426
0.158579
0.158737
0.158891
0.159027
0.159139
0.159234
0.159301
0.159335
0.159335
0.159325
0.15931
0.159301
0.159302
0.159338
0.159362
0.159436
0.159537
0.159634
0.159713
0.159782
0.159819
0.159821
0.159784
0.159728
0.159659
0.159592
0.15954
0.159513
0.159507
0.159522
0.159561
0.159627
0.159713
0.159807
0.159878
0.159938
0.159973
0.159993
0.160004
0.159961
0.159932
0.159895
0.159859
0.159834
0.159822
0.159822
0.159843
0.159881
0.159919
0.159956
0.159981
0.160004
0.16002
0.160003
0.160001
0.160009
0.16003
0.160069
0.160122
0.160175
0.160226
0.160266
0.160296
0.160309
0.160317
0.160324
0.160335
0.160356
0.160393
0.160451
0.160532
0.160638
0.160768
0.160913
0.161041
0.161156
0.161235
0.161295
0.161348
0.161395
0.161449
0.161508
0.161589
0.161674
0.161769
0.16189
0.161925
0.161991
0.161964
0.161952
0.161936
0.161893
0.161837
0.161783
0.161674
0.161579
0.161442
0.161186
0.0311278
0.0311776
0.0311206
0.0310444
0.0310529
0.0310318
0.0309974
0.0309804
0.0310603
0.0312918
0.0313668
0.0314157
0.0313541
0.0312652
0.0312347
0.0311533
0.0310978
0.0310889
0.0311249
0.0312064
0.0313279
0.03149
0.0316935
0.0319421
0.0322416
0.0325896
0.0329949
0.033457
0.0339941
0.0346055
0.0352979
0.0360679
0.0369235
0.0378701
0.0389029
0.0400417
0.0412653
0.0426149
0.0440339
0.0455938
0.0472025
0.0489777
0.0507756
0.0527535
0.0547451
0.0569217
0.0591106
0.0614633
0.063823
0.0663403
0.0688748
0.0715428
0.074221
0.0770288
0.0798667
0.0827386
0.0856467
0.0885583
0.091476
0.094379
0.0972681
0.100133
0.10297
0.105772
0.108534
0.111252
0.113889
0.116486
0.119015
0.121427
0.123794
0.12599
0.128193
0.130227
0.132265
0.134148
0.135988
0.137717
0.139362
0.14097
0.142473
0.143981
0.145332
0.146646
0.14786
0.149032
0.150135
0.151198
0.152228
0.153229
0.154153
0.155075
0.155861
0.156636
0.15742
0.158204
0.158976
0.159712
0.160348
0.160984
0.161627
0.162273
0.162916
0.163554
0.164186
0.164807
0.165398
0.16595
0.16651
0.167075
0.167651
0.168189
0.168706
0.169224
0.169745
0.17026
0.170732
0.171152
0.171452
0.17174
0.172063
0.172374
0.17276
0.173169
0.17361
0.174036
0.174448
0.174802
0.17513
0.175413
0.175681
0.175894
0.176102
0.176312
0.176523
0.176735
0.17695
0.177167
0.17739
0.177624
0.177868
0.178122
0.178382
0.178643
0.178901
0.179134
0.179338
0.179522
0.17967
0.17978
0.179848
0.179902
0.179948
0.18
0.180081
0.180185
0.180294
0.180447
0.180617
0.180789
0.180942
0.181075
0.181172
0.181217
0.181219
0.181193
0.181149
0.181117
0.181091
0.181097
0.181124
0.181174
0.181249
0.181352
0.181474
0.181603
0.181701
0.181782
0.181832
0.181859
0.181873
0.181826
0.181791
0.181748
0.181705
0.181675
0.181661
0.18166
0.181684
0.181725
0.181762
0.181797
0.181811
0.181821
0.181815
0.181769
0.181738
0.181718
0.181711
0.181725
0.181753
0.18178
0.181803
0.181812
0.181801
0.181767
0.181721
0.181666
0.181611
0.181562
0.181525
0.181507
0.181514
0.181544
0.181598
0.181667
0.181723
0.181758
0.181763
0.181744
0.181721
0.181693
0.181675
0.181662
0.181672
0.181684
0.181705
0.181756
0.181725
0.181727
0.181641
0.181577
0.181513
0.181422
0.181321
0.181224
0.181071
0.180934
0.180753
0.180429
0.0312159
0.0312018
0.031149
0.0310675
0.0310574
0.0310003
0.0310019
0.0311026
0.0313644
0.0315118
0.0315376
0.0315495
0.0315056
0.031319
0.0311018
0.0309801
0.0309156
0.0308965
0.0309198
0.0309847
0.0310869
0.0312283
0.0314116
0.0316411
0.0319173
0.0322508
0.0326377
0.0330948
0.0336147
0.0342063
0.0348755
0.0356254
0.0364588
0.037391
0.0384064
0.0395346
0.0407402
0.0420812
0.0434937
0.0450573
0.0466768
0.0484725
0.0503005
0.0523167
0.0543561
0.0565923
0.0588524
0.0612881
0.0637413
0.0663694
0.0690231
0.0718269
0.0746496
0.077611
0.0805938
0.0836174
0.0867201
0.0898399
0.0929768
0.0961071
0.0992308
0.102336
0.105418
0.108468
0.11148
0.114451
0.117344
0.120195
0.122966
0.125617
0.128215
0.130634
0.133059
0.135302
0.137544
0.139607
0.141625
0.143513
0.145319
0.147078
0.14873
0.150392
0.151871
0.153309
0.154642
0.155937
0.157151
0.158325
0.159465
0.160564
0.161583
0.162595
0.163455
0.164305
0.165164
0.166027
0.166878
0.167685
0.168389
0.169092
0.169807
0.170526
0.171245
0.17196
0.172668
0.173367
0.174027
0.174646
0.175271
0.1759
0.176537
0.177135
0.177711
0.178288
0.178871
0.179452
0.179987
0.180469
0.180831
0.181176
0.181562
0.181935
0.182379
0.182852
0.183355
0.183837
0.184301
0.184702
0.185077
0.185403
0.185711
0.185964
0.186213
0.186466
0.186723
0.186984
0.187248
0.187515
0.187786
0.188067
0.188359
0.18866
0.188967
0.189274
0.189574
0.189848
0.190088
0.190306
0.190486
0.190625
0.190723
0.190807
0.190883
0.190964
0.191072
0.191205
0.191345
0.191534
0.191738
0.191945
0.192133
0.192298
0.192423
0.19249
0.192515
0.192507
0.19248
0.192467
0.19246
0.192489
0.19254
0.192606
0.192704
0.192831
0.192978
0.19313
0.19325
0.193347
0.193413
0.193449
0.193469
0.193424
0.193383
0.193335
0.193288
0.193255
0.193237
0.193234
0.193258
0.193303
0.193346
0.193386
0.193406
0.193419
0.193419
0.19337
0.193331
0.193301
0.193285
0.193286
0.193303
0.193316
0.193324
0.193318
0.193291
0.193239
0.193172
0.193094
0.193013
0.192935
0.192869
0.192818
0.192789
0.192781
0.192798
0.192824
0.192835
0.192818
0.192766
0.192696
0.192622
0.192543
0.192478
0.192419
0.192388
0.192362
0.192342
0.192347
0.192261
0.192209
0.192074
0.191964
0.191859
0.191731
0.191597
0.191471
0.191287
0.191122
0.190913
0.190547
0.031222
0.0311717
0.0311347
0.0310502
0.0310256
0.0310292
0.0312002
0.0314533
0.0316026
0.0316274
0.0315837
0.0314621
0.0312492
0.031089
0.0309372
0.0308192
0.0307446
0.0307101
0.0307192
0.0307672
0.0308526
0.0309774
0.0311446
0.0313551
0.0316138
0.0319278
0.0322964
0.0327323
0.0332317
0.0338084
0.0344606
0.0351958
0.0360131
0.0369317
0.0379305
0.0390476
0.0402419
0.0415816
0.0429924
0.0445655
0.0461977
0.0480213
0.0498823
0.051944
0.0540391
0.0563521
0.0587047
0.0612491
0.0638149
0.0665825
0.0693851
0.0723603
0.0753593
0.0785281
0.0817296
0.0849847
0.0883289
0.0916977
0.0950884
0.098478
0.101867
0.105242
0.108595
0.111917
0.115193
0.118427
0.121571
0.124678
0.127678
0.130556
0.133363
0.135972
0.138595
0.141008
0.14342
0.145618
0.147768
0.149763
0.151681
0.153534
0.155289
0.157059
0.158606
0.160113
0.161509
0.162871
0.164139
0.165362
0.166555
0.16769
0.168747
0.169792
0.170668
0.171535
0.172408
0.173288
0.174154
0.174969
0.17568
0.176392
0.177119
0.17785
0.178585
0.179319
0.180044
0.180764
0.18144
0.182073
0.182712
0.183351
0.183999
0.184604
0.185184
0.185769
0.186357
0.18695
0.187494
0.187984
0.188367
0.188724
0.189127
0.189522
0.189981
0.190473
0.190993
0.19149
0.191964
0.192373
0.192757
0.193088
0.193398
0.193656
0.193911
0.194172
0.19444
0.194715
0.194995
0.195279
0.195567
0.195865
0.196173
0.196491
0.196815
0.197139
0.197452
0.197737
0.197985
0.198209
0.198392
0.198537
0.198642
0.198735
0.198819
0.198909
0.199021
0.199159
0.199307
0.199505
0.199721
0.199941
0.200142
0.200319
0.200454
0.200526
0.200558
0.200554
0.200531
0.200522
0.200519
0.200556
0.200616
0.20069
0.200797
0.200935
0.201093
0.201257
0.201388
0.201492
0.20157
0.201611
0.201633
0.201592
0.201545
0.201491
0.201438
0.201399
0.201374
0.201365
0.201383
0.201424
0.201466
0.201507
0.201529
0.201543
0.201549
0.201502
0.20146
0.201426
0.201407
0.201403
0.201412
0.201417
0.201415
0.201398
0.201362
0.201299
0.20122
0.201129
0.201033
0.200939
0.200854
0.200784
0.200734
0.200703
0.200695
0.200695
0.200676
0.200626
0.200536
0.200427
0.200314
0.200197
0.200095
0.200001
0.199937
0.199881
0.19983
0.199804
0.199677
0.199584
0.199409
0.199259
0.199118
0.198957
0.198794
0.198642
0.198431
0.198243
0.198012
0.197613
0.0312404
0.0311705
0.0311346
0.0310234
0.0310446
0.0312017
0.0314563
0.0316386
0.0316477
0.0315854
0.0314129
0.0312625
0.0310511
0.0308809
0.0307244
0.0306101
0.0305348
0.030496
0.0304984
0.0305364
0.0306113
0.0307245
0.030877
0.0310738
0.031318
0.0316164
0.0319701
0.0323921
0.0328779
0.0334441
0.0340832
0.0348099
0.0356161
0.0365319
0.0375233
0.0386433
0.0398387
0.0411958
0.0426219
0.0442286
0.0458948
0.0477817
0.0497147
0.0518699
0.0540668
0.0565108
0.0590029
0.0617113
0.0644473
0.0674379
0.0704695
0.0737097
0.0769757
0.0804587
0.0839527
0.0875269
0.0912175
0.0949228
0.0986595
0.102391
0.106134
0.109856
0.11355
0.117207
0.120802
0.124348
0.127781
0.131181
0.13442
0.137534
0.140538
0.143313
0.146114
0.148652
0.151198
0.153492
0.155738
0.157794
0.15978
0.161676
0.163489
0.165313
0.166869
0.168385
0.169782
0.171149
0.172408
0.173622
0.174812
0.175924
0.176965
0.177988
0.178829
0.179659
0.18049
0.181331
0.182152
0.182922
0.18359
0.184263
0.184954
0.185649
0.186353
0.187058
0.187756
0.18845
0.1891
0.189711
0.190324
0.190938
0.191558
0.192131
0.192683
0.193238
0.193799
0.19436
0.194873
0.195335
0.195709
0.196048
0.196439
0.196829
0.197274
0.197757
0.198261
0.198747
0.199203
0.199593
0.19996
0.200269
0.200554
0.200793
0.201029
0.201272
0.201528
0.201793
0.202066
0.202345
0.202628
0.202922
0.203226
0.203542
0.203862
0.204184
0.204488
0.204763
0.205001
0.205211
0.205379
0.205514
0.205614
0.2057
0.205779
0.205865
0.205966
0.206093
0.206231
0.206422
0.206633
0.206849
0.207049
0.207224
0.207356
0.207423
0.20745
0.20744
0.207412
0.207395
0.207386
0.207417
0.207473
0.207547
0.207655
0.207794
0.207951
0.208113
0.208247
0.208351
0.208431
0.208472
0.208493
0.208451
0.208397
0.208335
0.208275
0.208228
0.208193
0.208172
0.208178
0.208209
0.208244
0.208278
0.208297
0.208308
0.208315
0.20827
0.208225
0.208188
0.208165
0.208156
0.208157
0.208155
0.208144
0.208118
0.208072
0.208
0.207913
0.207812
0.207705
0.207598
0.207499
0.207413
0.207346
0.207297
0.20727
0.207249
0.20721
0.207134
0.207015
0.206874
0.206729
0.206581
0.206446
0.206322
0.206227
0.206144
0.206066
0.206013
0.205852
0.205724
0.205514
0.205327
0.205151
0.204958
0.204766
0.204586
0.20435
0.204137
0.203883
0.203453
0.0312906
0.03118
0.0311419
0.0310592
0.0311958
0.0314187
0.0316214
0.031661
0.0315887
0.0314335
0.0312515
0.0310503
0.0308396
0.0306705
0.0305227
0.0304115
0.0303359
0.030294
0.03029
0.0303197
0.0303852
0.0304864
0.030627
0.0308101
0.0310401
0.0313255
0.0316668
0.0320775
0.0325522
0.0331123
0.0337421
0.0344663
0.0352664
0.0361894
0.0371821
0.0383193
0.0395309
0.0409299
0.0423956
0.0440681
0.0457999
0.0477914
0.0498465
0.0521567
0.0545219
0.0571851
0.0599029
0.0628779
0.0658951
0.0692406
0.0726203
0.0762609
0.0799408
0.0839227
0.0878167
0.0918615
0.0960894
0.100255
0.10449
0.108698
0.112928
0.11712
0.121264
0.125354
0.129346
0.133276
0.137047
0.140783
0.14427
0.147625
0.1508
0.153707
0.156644
0.159247
0.161878
0.164197
0.16648
0.168516
0.170496
0.172353
0.174138
0.175921
0.177381
0.178804
0.180103
0.181386
0.18256
0.183691
0.184809
0.185824
0.186786
0.18772
0.188461
0.189192
0.189928
0.190673
0.191389
0.192057
0.192634
0.193224
0.193833
0.194443
0.195067
0.195697
0.196326
0.196947
0.197529
0.198081
0.198634
0.199186
0.199739
0.200242
0.200731
0.201221
0.20172
0.202209
0.202646
0.203042
0.203381
0.203675
0.204025
0.204387
0.204795
0.205238
0.205698
0.206145
0.206556
0.206901
0.207227
0.20749
0.207725
0.207923
0.20812
0.208321
0.208541
0.208775
0.209021
0.209274
0.209533
0.209805
0.210088
0.210384
0.210686
0.210985
0.211259
0.211505
0.211715
0.211894
0.212031
0.212143
0.212226
0.212293
0.212359
0.212426
0.212506
0.212607
0.21272
0.212892
0.21308
0.213276
0.213459
0.21362
0.213739
0.213794
0.213804
0.21378
0.213739
0.213703
0.213678
0.213694
0.213732
0.2138
0.2139
0.214029
0.214174
0.214325
0.214451
0.214547
0.21462
0.214654
0.214666
0.214618
0.214553
0.21448
0.214409
0.214351
0.214301
0.214266
0.214254
0.214266
0.214288
0.214308
0.214319
0.214322
0.214324
0.21428
0.214228
0.214184
0.214156
0.214141
0.214132
0.214119
0.214096
0.214059
0.214004
0.213923
0.213826
0.213715
0.213598
0.213481
0.21337
0.21327
0.213187
0.213122
0.213077
0.213038
0.21298
0.212883
0.212739
0.212571
0.212398
0.212223
0.21206
0.211908
0.211785
0.211676
0.211573
0.211496
0.211303
0.211144
0.210902
0.210681
0.21047
0.210248
0.210026
0.209817
0.209555
0.209316
0.209038
0.208574
0.0313698
0.0312191
0.0312258
0.0312208
0.0313764
0.031587
0.0316565
0.0316039
0.0314611
0.0312824
0.0310585
0.0308435
0.0306407
0.0304732
0.0303327
0.0302245
0.030149
0.0301051
0.0300951
0.0301173
0.0301737
0.0302642
0.0303927
0.0305637
0.0307817
0.031057
0.0313877
0.0317911
0.0322582
0.0328176
0.0334438
0.034174
0.0349763
0.0359245
0.0369359
0.0381086
0.0393507
0.0408256
0.042381
0.0441733
0.0460299
0.0481953
0.0504569
0.0530283
0.0556806
0.0587005
0.0617845
0.0651858
0.0686548
0.0725637
0.0764491
0.0806703
0.0849427
0.089699
0.0941415
0.0988382
0.103826
0.108653
0.113531
0.118406
0.123276
0.128112
0.132849
0.137508
0.141987
0.146393
0.15055
0.154689
0.158423
0.162069
0.165364
0.168379
0.171409
0.174033
0.176685
0.178932
0.18114
0.183043
0.184898
0.186592
0.188224
0.189809
0.19103
0.192212
0.193294
0.194364
0.195326
0.196259
0.197184
0.197998
0.198774
0.199506
0.200048
0.200593
0.201172
0.20174
0.202277
0.202768
0.203198
0.203647
0.204115
0.20458
0.205072
0.205576
0.206085
0.206583
0.207049
0.207506
0.207958
0.20841
0.208849
0.209247
0.209636
0.210033
0.210425
0.2108
0.211118
0.211418
0.211691
0.211912
0.212196
0.212506
0.212852
0.213222
0.213613
0.213992
0.214334
0.214611
0.214871
0.215061
0.215223
0.215358
0.215494
0.215632
0.215793
0.215974
0.21617
0.216378
0.216595
0.216827
0.217073
0.217331
0.217597
0.217853
0.218075
0.218275
0.218438
0.218569
0.218661
0.218737
0.218789
0.21883
0.218866
0.218906
0.218954
0.219017
0.219095
0.219231
0.219377
0.219535
0.219688
0.219824
0.219918
0.219948
0.219932
0.219892
0.21983
0.219762
0.21971
0.219699
0.219717
0.219767
0.219846
0.219955
0.220079
0.220207
0.220316
0.220394
0.220451
0.220471
0.220465
0.220404
0.220324
0.220234
0.220147
0.220073
0.220006
0.21995
0.219915
0.219901
0.219902
0.219902
0.219898
0.219887
0.219879
0.219831
0.219769
0.219715
0.219679
0.219652
0.219629
0.219601
0.219563
0.219512
0.219444
0.219351
0.219243
0.219122
0.218993
0.218865
0.218742
0.218628
0.21853
0.218449
0.218386
0.218326
0.218251
0.218135
0.217967
0.217774
0.217578
0.217377
0.217189
0.21701
0.21686
0.216726
0.2166
0.216501
0.216278
0.216089
0.215819
0.215565
0.215321
0.215069
0.214817
0.214579
0.21429
0.214023
0.21372
0.213222
0.0314781
0.0312876
0.0313647
0.0314004
0.0315628
0.0316489
0.0316222
0.0315049
0.031333
0.0311075
0.030872
0.0306543
0.0304593
0.030295
0.0301595
0.0300539
0.0299786
0.0299323
0.0299164
0.0299314
0.0299792
0.0300599
0.0301778
0.0303389
0.0305467
0.0308151
0.0311381
0.0315394
0.0320026
0.0325698
0.0332025
0.033954
0.0347663
0.0357502
0.0368057
0.0380581
0.03938
0.0409811
0.0426861
0.044687
0.0467826
0.0492519
0.0518489
0.0548152
0.0579029
0.0614625
0.0650592
0.0690623
0.0731742
0.0779226
0.0824702
0.0874599
0.0925325
0.098242
0.103512
0.109088
0.114919
0.120636
0.126348
0.132106
0.137764
0.143406
0.148813
0.154134
0.159139
0.164068
0.168611
0.173159
0.17713
0.181084
0.184407
0.187547
0.190579
0.193228
0.195801
0.197949
0.199975
0.20171
0.20337
0.204784
0.206194
0.207456
0.208314
0.209176
0.209924
0.210674
0.211261
0.211886
0.212469
0.212942
0.213404
0.2138
0.214019
0.214293
0.214628
0.214904
0.215163
0.215376
0.215584
0.215821
0.216056
0.216313
0.216611
0.216937
0.217256
0.21757
0.21787
0.218181
0.218501
0.218797
0.219079
0.219327
0.219585
0.219847
0.220103
0.220312
0.220472
0.220644
0.220816
0.220935
0.221135
0.221361
0.221624
0.221889
0.222183
0.222466
0.222711
0.222898
0.223063
0.223158
0.223222
0.223279
0.223333
0.223388
0.223466
0.223572
0.2237
0.223841
0.224002
0.224175
0.22437
0.224572
0.224783
0.22497
0.225125
0.22526
0.225357
0.225423
0.225455
0.225483
0.225492
0.225497
0.225489
0.225495
0.225498
0.225511
0.225547
0.225616
0.225714
0.225823
0.225927
0.226024
0.226082
0.22608
0.226031
0.225958
0.225864
0.225762
0.225675
0.225631
0.225615
0.225634
0.225687
0.225766
0.225858
0.225952
0.226034
0.226087
0.226119
0.226114
0.22608
0.226002
0.225899
0.225786
0.225679
0.225584
0.225493
0.225412
0.225347
0.225301
0.225273
0.225247
0.225221
0.225191
0.225166
0.225111
0.225033
0.224965
0.224916
0.224874
0.224831
0.224782
0.224725
0.224655
0.22457
0.224462
0.22434
0.224205
0.224064
0.223923
0.223787
0.223659
0.223544
0.223445
0.223363
0.223282
0.223187
0.223051
0.222861
0.222644
0.222424
0.2222
0.221986
0.221783
0.221606
0.221448
0.221298
0.221178
0.220927
0.220709
0.220411
0.220127
0.219851
0.219569
0.219288
0.21902
0.218703
0.218408
0.218079
0.217543
0.0315798
0.0314028
0.0315007
0.0315802
0.0316637
0.0316566
0.0315597
0.0314041
0.0311827
0.0309406
0.0307007
0.0304859
0.0302973
0.0301375
0.0300056
0.0299018
0.0298261
0.0297771
0.0297552
0.0297636
0.0298043
0.029877
0.0299858
0.0301396
0.0303395
0.0306058
0.0309251
0.0313312
0.0317993
0.032384
0.033028
0.033817
0.0346675
0.0357262
0.0368721
0.0382612
0.039741
0.0415611
0.0435168
0.0458339
0.048302
0.0512211
0.0542949
0.0578208
0.0614878
0.0658243
0.0700601
0.0748482
0.0797671
0.0855113
0.0909387
0.0969073
0.102887
0.109604
0.116145
0.12264
0.129285
0.135938
0.14247
0.149024
0.155383
0.161676
0.167698
0.173528
0.179021
0.184272
0.189166
0.193891
0.198101
0.202213
0.20551
0.208835
0.211799
0.214486
0.216958
0.219019
0.220893
0.22252
0.224068
0.225214
0.226567
0.227517
0.227982
0.228662
0.229002
0.229547
0.229767
0.230167
0.230368
0.230462
0.230608
0.230625
0.230463
0.230441
0.230428
0.230304
0.230181
0.230038
0.229947
0.229892
0.229827
0.229795
0.229823
0.229899
0.229962
0.230021
0.230103
0.230207
0.230363
0.230456
0.230533
0.230585
0.230675
0.230773
0.230835
0.230842
0.23081
0.23082
0.230858
0.230861
0.230953
0.231069
0.231208
0.231358
0.231521
0.231659
0.231781
0.231857
0.231909
0.231885
0.231834
0.231784
0.231731
0.231688
0.231671
0.231681
0.231721
0.231783
0.231867
0.231963
0.232087
0.232215
0.23235
0.232448
0.232516
0.232568
0.232582
0.232568
0.232529
0.232493
0.23245
0.232407
0.232352
0.232312
0.23225
0.232211
0.232178
0.232173
0.232208
0.232255
0.232297
0.232338
0.232349
0.2323
0.232214
0.2321
0.231966
0.231823
0.231695
0.231606
0.231549
0.231528
0.23154
0.231582
0.231632
0.231683
0.231727
0.231747
0.231744
0.231702
0.231639
0.231532
0.231401
0.23126
0.231126
0.231004
0.230884
0.230772
0.230673
0.230587
0.230524
0.230463
0.23041
0.230354
0.230307
0.230237
0.230141
0.230056
0.229988
0.229924
0.229857
0.229782
0.229701
0.229607
0.2295
0.229373
0.229234
0.229082
0.228926
0.22877
0.228619
0.228474
0.228342
0.228222
0.228118
0.228013
0.227896
0.22774
0.227526
0.227286
0.227042
0.226793
0.226556
0.226327
0.226123
0.225941
0.225767
0.225626
0.225347
0.2251
0.224777
0.224462
0.224154
0.223843
0.223533
0.223235
0.22289
0.222565
0.222209
0.221634
0.0316681
0.0315112
0.0316432
0.0317073
0.0317093
0.0316346
0.0314844
0.0312907
0.0310395
0.0307875
0.0305494
0.0303396
0.0301564
0.0300008
0.029872
0.0297696
0.0296929
0.0296401
0.0296134
0.0296168
0.0296515
0.0297183
0.0298201
0.0299701
0.0301653
0.0304363
0.0307599
0.0311776
0.0316515
0.0322708
0.0329519
0.033817
0.0347582
0.0359515
0.0372532
0.0388561
0.0405885
0.0427353
0.0450676
0.0478175
0.0508075
0.054368
0.0579771
0.0622355
0.066599
0.0718672
0.0769168
0.0826795
0.0884849
0.095161
0.101623
0.108627
0.115373
0.122943
0.130623
0.137894
0.14517
0.152416
0.159554
0.166484
0.173392
0.179848
0.186374
0.192299
0.198143
0.203464
0.208527
0.213216
0.217511
0.221577
0.22493
0.228393
0.231427
0.234136
0.236641
0.238586
0.240517
0.242144
0.243761
0.244865
0.246357
0.247006
0.247381
0.248088
0.248226
0.248647
0.248758
0.248994
0.249013
0.248912
0.24885
0.248527
0.248202
0.247991
0.247638
0.247205
0.246722
0.246273
0.245895
0.245561
0.24517
0.244839
0.244561
0.244334
0.244089
0.24387
0.243694
0.243569
0.243497
0.243341
0.243194
0.24303
0.242916
0.24282
0.242643
0.242399
0.242161
0.241979
0.241854
0.241736
0.241682
0.241655
0.241653
0.241647
0.241647
0.241623
0.241595
0.24153
0.241449
0.241278
0.241103
0.240924
0.240753
0.24059
0.240458
0.240359
0.240291
0.240253
0.240242
0.240246
0.240288
0.240319
0.240353
0.240351
0.240311
0.240262
0.24017
0.240064
0.239945
0.239834
0.239727
0.239625
0.239516
0.239418
0.239284
0.239188
0.239062
0.238978
0.238929
0.238901
0.238869
0.23884
0.238782
0.238684
0.238552
0.23839
0.238211
0.238019
0.237841
0.237701
0.237594
0.237524
0.237488
0.237478
0.237478
0.237479
0.237475
0.237451
0.237405
0.23732
0.237218
0.237074
0.236909
0.236735
0.236569
0.236412
0.236259
0.236111
0.23597
0.23584
0.235732
0.235631
0.235545
0.235458
0.235381
0.235292
0.235174
0.235068
0.234977
0.234885
0.234788
0.234682
0.234571
0.234447
0.234315
0.234164
0.234003
0.233831
0.233657
0.233483
0.233314
0.233151
0.232998
0.232857
0.232728
0.232595
0.232454
0.232275
0.232037
0.231771
0.231503
0.23123
0.230967
0.230712
0.230482
0.230273
0.230075
0.229912
0.229605
0.22933
0.228981
0.228637
0.228298
0.227956
0.227617
0.227289
0.226914
0.226559
0.226174
0.225559
0.03173
0.031637
0.0317491
0.0317735
0.0317225
0.0315887
0.0314072
0.0311728
0.0309094
0.0306524
0.0304197
0.0302153
0.0300371
0.0298853
0.0297592
0.0296574
0.0295791
0.029523
0.0294942
0.0294927
0.0295227
0.0295868
0.029684
0.0298358
0.030032
0.0303138
0.0306428
0.031087
0.0315899
0.0322829
0.0330507
0.0340418
0.0351317
0.036532
0.0380725
0.0399778
0.0420912
0.0446872
0.0474998
0.0507959
0.0543378
0.0587261
0.0629863
0.068099
0.0732337
0.0794123
0.0853897
0.092083
0.0985502
0.105807
0.113174
0.120999
0.128446
0.136466
0.14481
0.15252
0.160382
0.167409
0.174858
0.181726
0.188611
0.195061
0.201433
0.207462
0.213127
0.218548
0.223444
0.228194
0.232328
0.236318
0.239785
0.243105
0.246265
0.249182
0.251727
0.253715
0.255845
0.257519
0.259251
0.260546
0.26216
0.262681
0.263405
0.264257
0.264452
0.264923
0.265205
0.265492
0.265529
0.265549
0.26553
0.265145
0.264902
0.264735
0.264241
0.263746
0.263119
0.26254
0.262057
0.261597
0.261026
0.260493
0.260008
0.259555
0.259054
0.258592
0.258191
0.257854
0.257562
0.257164
0.256787
0.256412
0.256096
0.255769
0.255341
0.254853
0.254397
0.25401
0.253713
0.253455
0.253259
0.253064
0.252898
0.252709
0.252524
0.252318
0.252117
0.251888
0.251648
0.251328
0.251012
0.250693
0.250386
0.25009
0.249827
0.249601
0.249414
0.249263
0.249143
0.249046
0.248978
0.248894
0.248816
0.248682
0.248521
0.248357
0.248149
0.24794
0.24773
0.247533
0.247352
0.247182
0.247009
0.246845
0.246634
0.246462
0.246239
0.246061
0.245915
0.245796
0.245678
0.245566
0.24543
0.245269
0.245082
0.244868
0.244637
0.24439
0.244158
0.243957
0.243794
0.243667
0.243573
0.243503
0.243443
0.243385
0.243323
0.243247
0.243153
0.243014
0.242866
0.242681
0.242474
0.242261
0.242057
0.241861
0.241668
0.241478
0.24129
0.241109
0.240952
0.240805
0.240679
0.240554
0.240443
0.240327
0.240187
0.240056
0.239936
0.23981
0.239678
0.239535
0.239388
0.239231
0.239068
0.238889
0.238702
0.238507
0.23831
0.238116
0.237927
0.237743
0.237568
0.237402
0.237246
0.237081
0.236913
0.236708
0.236444
0.236152
0.235858
0.23556
0.235271
0.234989
0.23473
0.234494
0.234271
0.234084
0.233749
0.233445
0.233071
0.232697
0.232326
0.231955
0.231586
0.231227
0.230822
0.230435
0.230022
0.229364
0.0317916
0.0317275
0.0318139
0.0317982
0.0317044
0.0315287
0.0313327
0.0310672
0.0307955
0.0305386
0.030312
0.0301128
0.0299393
0.029791
0.0296673
0.0295656
0.0294857
0.029428
0.0293982
0.0293927
0.0294196
0.0294854
0.0295825
0.0297422
0.029939
0.0302422
0.0305956
0.031104
0.0316828
0.0324926
0.0333995
0.0345796
0.035892
0.0375822
0.0394649
0.0417576
0.044354
0.0475527
0.0508138
0.0547922
0.0589178
0.0641573
0.0691903
0.0751616
0.0809878
0.0877406
0.0943744
0.101709
0.108702
0.116334
0.124352
0.132298
0.140463
0.148195
0.156648
0.164455
0.172134
0.179123
0.185998
0.192776
0.199117
0.205436
0.211181
0.217178
0.222428
0.227884
0.232536
0.237258
0.241108
0.245082
0.248455
0.251858
0.254914
0.257965
0.260094
0.262567
0.265068
0.266587
0.268455
0.269888
0.271479
0.272222
0.273353
0.274431
0.274849
0.275538
0.276093
0.276657
0.276835
0.277213
0.277396
0.277309
0.277452
0.277542
0.2772
0.276914
0.276493
0.276133
0.275837
0.275494
0.275049
0.274609
0.274176
0.273693
0.273153
0.272647
0.272209
0.271803
0.271414
0.270893
0.270395
0.26991
0.269473
0.26895
0.268326
0.267655
0.267028
0.266481
0.266043
0.265662
0.265346
0.264989
0.264668
0.264303
0.263923
0.263532
0.263156
0.262752
0.262352
0.261882
0.261423
0.260969
0.260528
0.260098
0.259698
0.259339
0.259024
0.25875
0.258513
0.258302
0.258114
0.257896
0.257689
0.25741
0.257114
0.256822
0.256491
0.25617
0.255863
0.255576
0.255313
0.255066
0.254821
0.254584
0.254291
0.254038
0.253709
0.253428
0.253172
0.252948
0.252732
0.252527
0.252301
0.252066
0.251816
0.251543
0.251256
0.250953
0.250659
0.250394
0.250166
0.249974
0.249815
0.249678
0.24955
0.249423
0.249296
0.24916
0.24901
0.24881
0.248608
0.248378
0.248123
0.247867
0.247619
0.247377
0.24714
0.246902
0.246662
0.246427
0.246214
0.246015
0.245842
0.245677
0.245526
0.245379
0.245212
0.245053
0.2449
0.244733
0.244562
0.244378
0.24419
0.243995
0.243796
0.243585
0.243368
0.243146
0.242924
0.242707
0.242495
0.242288
0.242088
0.241895
0.241708
0.24151
0.241311
0.241078
0.240786
0.240466
0.240145
0.23982
0.239504
0.239194
0.238905
0.23864
0.238389
0.238176
0.237812
0.237478
0.237079
0.236676
0.236273
0.235871
0.235472
0.235082
0.234646
0.234227
0.233783
0.233082
0.031816
0.0317717
0.0318442
0.031798
0.0316699
0.031477
0.0312515
0.0309737
0.0306993
0.0304471
0.0302262
0.0300321
0.0298631
0.0297179
0.0295962
0.0294945
0.0294137
0.0293559
0.0293257
0.0293185
0.0293439
0.0294176
0.0295155
0.0296895
0.029902
0.0302577
0.0306758
0.0312881
0.0319906
0.0329751
0.0340813
0.035515
0.037143
0.0392105
0.041523
0.0442775
0.0473256
0.0512533
0.0550225
0.0597686
0.0644659
0.0703533
0.0760726
0.0826678
0.0889936
0.0960688
0.103039
0.110535
0.117843
0.125692
0.133596
0.141446
0.149757
0.157372
0.165209
0.172417
0.179219
0.186347
0.192496
0.199138
0.204883
0.210995
0.216089
0.221781
0.226682
0.232042
0.236352
0.240964
0.244573
0.248601
0.251848
0.255483
0.258246
0.261247
0.263488
0.266251
0.268746
0.270282
0.272435
0.273674
0.275163
0.276057
0.277522
0.278728
0.279383
0.280315
0.280997
0.281761
0.282035
0.282673
0.283062
0.283397
0.283955
0.284162
0.284163
0.284171
0.28412
0.28418
0.284212
0.284128
0.284052
0.284
0.283874
0.283616
0.283352
0.28312
0.282936
0.282726
0.282484
0.282127
0.281782
0.281445
0.281108
0.280567
0.279974
0.279317
0.278707
0.278175
0.277731
0.27735
0.277026
0.276588
0.27618
0.275687
0.275168
0.274652
0.274147
0.273611
0.273092
0.272522
0.271963
0.271407
0.270862
0.270322
0.26981
0.269337
0.268905
0.268516
0.268164
0.267839
0.26753
0.267173
0.266829
0.2664
0.265967
0.265543
0.265092
0.264664
0.264261
0.263886
0.263539
0.263211
0.26289
0.262575
0.262198
0.261858
0.261424
0.261036
0.260664
0.260324
0.26
0.259692
0.259369
0.259048
0.258728
0.258396
0.25805
0.25769
0.257335
0.257002
0.256703
0.25644
0.256209
0.255997
0.255794
0.255593
0.255393
0.25519
0.254979
0.254714
0.254451
0.25417
0.253864
0.253561
0.253263
0.252972
0.252685
0.252395
0.252099
0.251805
0.251532
0.251278
0.251053
0.250842
0.250648
0.250463
0.250269
0.250078
0.249888
0.249677
0.249461
0.249231
0.248998
0.24876
0.248521
0.248275
0.248025
0.247772
0.247522
0.247279
0.247043
0.24681
0.246583
0.246361
0.246139
0.245905
0.245673
0.245408
0.245087
0.244739
0.244389
0.244037
0.243691
0.243352
0.243032
0.242736
0.242455
0.242213
0.24182
0.241457
0.241033
0.2406
0.240166
0.239733
0.239304
0.238882
0.238414
0.237961
0.237486
0.23674
0.0318224
0.0317879
0.0318484
0.0317783
0.0316279
0.0314304
0.0311784
0.0308962
0.0306221
0.0303774
0.030162
0.0299729
0.029808
0.0296655
0.0295458
0.0294444
0.0293639
0.0293065
0.029277
0.0292729
0.0292968
0.0293811
0.0294897
0.0297026
0.0299657
0.030411
0.0309364
0.0317017
0.0325812
0.0338014
0.0351737
0.036919
0.0389503
0.0414922
0.0442225
0.0475861
0.0510227
0.0556256
0.0600235
0.0654954
0.0707602
0.0770019
0.0831127
0.0899279
0.0965464
0.10365
0.110639
0.117899
0.125198
0.133003
0.140131
0.14769
0.154358
0.161784
0.167458
0.174337
0.180058
0.186483
0.19254
0.198921
0.203977
0.209864
0.214815
0.22058
0.225185
0.230569
0.234743