/*--------------------------------*- C++ -*----------------------------------*\
| =========                 |                                                 |
| \\      /  F ield         | OpenFOAM: The Open Source CFD Toolbox           |
|  \\    /   O peration     | Version:  2312                                  |
|   \\  /    A nd           | Website:  www.openfoam.com                      |
|    \\/     M anipulation  |                                                 |
\*---------------------------------------------------------------------------*/
FoamFile
{
    version     2.0;
    format      ascii;
    arch        "LSB;label=32;scalar=64";
    class       volScalarField;
    location    "0.001";
    object      T;
}
// * * * * * * * * * * * * * * * * * * * * * * * * * * * * * * * * * * * * * //

dimensions      [0 0 0 1 0 0 0];

internalField   nonuniform List<scalar> 
48128
(
361.794
361.922
361.324
361.077
361.042
360.923
360.833
360.671
360.285
358.327
355.866
354.292
353.025
351.96
350.171
348.631
347.172
345.845
344.63
343.551
342.484
341.477
340.542
339.688
338.924
338.261
337.721
337.339
337.105
336.996
336.984
337.246
337.58
338.137
338.765
339.598
340.471
341.511
342.556
343.684
344.817
345.935
347.048
348.088
349.05
349.929
350.705
351.376
351.868
352.291
352.563
352.755
352.768
352.669
352.432
352.053
351.547
350.92
350.175
349.323
348.377
347.348
346.248
345.077
343.857
342.576
341.265
339.914
338.5
337.063
335.551
334.049
332.507
330.995
329.477
327.947
326.441
324.926
323.444
322.005
320.601
319.265
317.914
316.583
315.284
314.048
312.856
311.711
310.663
309.636
308.676
307.721
306.783
305.845
305.002
304.248
303.521
302.781
302.042
301.316
300.667
300.086
299.547
299.041
298.576
298.141
297.709
297.265
296.861
296.501
296.161
295.811
295.464
295.136
294.839
294.57
294.297
294.008
293.709
293.38
293.164
292.979
292.785
292.73
292.664
292.582
292.48
292.358
292.217
292.065
291.903
291.736
291.568
291.423
291.299
291.206
291.132
291.083
291.047
291.047
291.064
291.093
291.133
291.182
291.23
291.268
291.296
291.317
291.324
291.315
291.297
291.269
291.239
291.22
291.22
291.246
291.265
291.327
291.418
291.512
291.606
291.676
291.736
291.768
291.783
291.78
291.782
291.793
291.818
291.856
291.917
291.998
292.095
292.208
292.329
292.45
292.556
292.64
292.718
292.772
292.833
292.826
292.835
292.846
292.864
292.893
292.932
292.984
293.053
293.135
293.214
293.293
293.364
293.436
293.501
293.543
293.596
293.655
293.722
293.8
293.886
293.97
294.052
294.131
294.201
294.268
294.334
294.399
294.467
294.541
294.619
294.702
294.788
294.873
294.96
295.035
295.086
295.105
295.101
295.093
295.095
295.102
295.128
295.17
295.241
295.323
295.413
295.515
295.557
295.613
295.649
295.714
295.807
295.918
296.058
296.231
296.422
296.645
296.884
297.281
361.089
361.274
360.83
360.575
360.65
360.783
361.035
360.791
359.176
356.161
353.271
350.766
348.086
345.372
343.224
341.345
339.706
338.344
337.204
336.291
335.468
334.767
334.197
333.762
333.471
333.324
333.288
333.408
333.71
334.156
334.768
335.536
336.412
337.449
338.549
339.779
341.048
342.398
343.754
345.086
346.38
347.6
348.736
349.74
350.588
351.289
351.816
352.186
352.331
352.328
352.105
351.747
351.202
350.512
349.617
348.568
347.354
345.989
344.483
342.864
341.142
339.331
337.44
335.482
333.481
331.419
329.354
327.272
325.156
323.06
320.899
318.792
316.667
314.603
312.57
310.56
308.582
306.626
304.72
302.851
301.069
299.342
297.614
295.911
294.25
292.662
291.118
289.646
288.273
286.938
285.687
284.458
283.25
282.046
280.939
279.929
278.953
277.969
276.988
276.022
275.129
274.304
273.521
272.779
272.087
271.432
270.8
270.159
269.563
269.021
268.504
267.979
267.456
266.95
266.471
266.017
265.561
265.093
264.618
264.117
263.709
263.355
262.988
262.774
262.563
262.347
262.122
261.884
261.632
261.368
261.092
260.809
260.522
260.25
259.998
259.772
259.571
259.397
259.239
259.097
258.979
258.876
258.785
258.706
258.627
258.545
258.459
258.369
258.272
258.166
258.056
257.943
257.827
257.723
257.61
257.538
257.434
257.392
257.388
257.383
257.377
257.364
257.341
257.308
257.266
257.21
257.161
257.112
257.088
257.068
257.077
257.101
257.143
257.202
257.275
257.351
257.42
257.473
257.529
257.57
257.623
257.616
257.624
257.636
257.656
257.683
257.719
257.764
257.827
257.903
257.981
258.062
258.146
258.234
258.327
258.403
258.489
258.583
258.685
258.798
258.918
259.039
259.16
259.283
259.408
259.538
259.676
259.823
259.982
260.153
260.336
260.527
260.727
260.932
261.141
261.344
261.517
261.668
261.786
261.903
262.022
262.146
262.283
262.436
262.615
262.814
263.014
263.228
263.366
263.521
263.631
263.762
263.911
264.073
264.254
264.461
264.677
264.919
265.173
265.582
360.853
360.838
360.5
360.389
360.629
361.048
360.758
358.771
355.154
351.69
348.849
346.58
344.95
343.506
342.051
340.855
339.813
338.908
338.18
337.603
337.095
336.69
336.394
336.214
336.155
336.184
336.376
336.71
337.186
337.801
338.536
339.396
340.341
341.4
342.503
343.684
344.876
346.086
347.274
348.396
349.423
350.339
351.116
351.735
352.144
352.378
352.384
352.215
351.796
351.21
350.377
349.394
348.223
346.89
345.337
343.658
341.818
339.845
337.749
335.573
333.321
331.011
328.644
326.231
323.81
321.346
318.919
316.503
314.077
311.699
309.273
306.93
304.604
302.362
300.175
298.05
295.965
293.93
291.948
290.007
288.181
286.394
284.616
282.87
281.175
279.552
277.975
276.477
275.075
273.718
272.447
271.209
269.995
268.79
267.683
266.666
265.678
264.686
263.695
262.725
261.82
260.976
260.167
259.397
258.678
257.989
257.332
256.668
256.053
255.494
254.957
254.414
253.875
253.35
252.85
252.364
251.874
251.373
250.868
250.34
249.89
249.503
249.103
248.843
248.596
248.347
248.091
247.827
247.553
247.268
246.973
246.669
246.362
246.063
245.781
245.521
245.284
245.071
244.878
244.702
244.55
244.413
244.289
244.176
244.063
243.948
243.832
243.713
243.589
243.459
243.327
243.192
243.055
242.929
242.796
242.698
242.569
242.492
242.454
242.415
242.377
242.333
242.283
242.226
242.163
242.088
242.017
241.946
241.899
241.852
241.836
241.839
241.856
241.89
241.937
241.988
242.034
242.07
242.106
242.136
242.176
242.172
242.179
242.191
242.212
242.241
242.279
242.324
242.382
242.451
242.521
242.592
242.666
242.745
242.827
242.904
242.991
243.089
243.199
243.32
243.451
243.583
243.716
243.85
243.988
244.13
244.282
244.446
244.623
244.817
245.026
245.247
245.481
245.723
245.973
246.226
246.452
246.663
246.844
247.019
247.196
247.376
247.565
247.766
247.988
248.227
248.473
248.738
248.935
249.151
249.313
249.492
249.681
249.876
250.084
250.311
250.544
250.799
251.063
251.482
360.72
360.573
360.391
360.436
360.897
360.619
358.598
354.765
351.165
348.64
346.92
345.687
344.743
343.911
342.962
342.126
341.41
340.791
340.307
339.928
339.601
339.358
339.207
339.161
339.201
339.371
339.667
340.094
340.639
341.303
342.063
342.921
343.838
344.837
345.861
346.906
347.932
348.93
349.865
350.7
351.382
351.915
352.253
352.408
352.293
351.975
351.37
350.574
349.505
348.248
346.719
345.029
343.169
341.13
338.87
336.537
334.044
331.459
328.777
326.071
323.322
320.561
317.778
314.976
312.217
309.435
306.751
304.107
301.502
298.98
296.426
293.997
291.609
289.344
287.152
285.055
283.007
281.033
279.114
277.237
275.492
273.768
272.059
270.387
268.778
267.251
265.766
264.37
263.058
261.792
260.61
259.466
258.344
257.237
256.235
255.31
254.408
253.503
252.596
251.714
250.888
250.112
249.363
248.651
247.987
247.344
246.736
246.121
245.558
245.049
244.557
244.062
243.572
243.097
242.642
242.189
241.729
241.26
240.784
240.289
239.856
239.491
239.115
238.858
238.626
238.392
238.154
237.91
237.657
237.395
237.123
236.842
236.557
236.274
236.004
235.752
235.521
235.312
235.123
234.951
234.802
234.668
234.547
234.434
234.32
234.205
234.089
233.972
233.852
233.728
233.604
233.479
233.353
233.235
233.11
233.013
232.888
232.805
232.755
232.705
232.661
232.613
232.559
232.5
232.438
232.366
232.295
232.225
232.176
232.124
232.1
232.098
232.109
232.134
232.171
232.213
232.25
232.281
232.307
232.332
232.363
232.361
232.368
232.383
232.409
232.444
232.487
232.538
232.6
232.671
232.74
232.809
232.879
232.954
233.03
233.105
233.189
233.286
233.397
233.52
233.653
233.789
233.926
234.065
234.207
234.354
234.511
234.68
234.864
235.067
235.286
235.521
235.77
236.03
236.299
236.574
236.827
237.068
237.284
237.495
237.707
237.921
238.144
238.376
238.627
238.892
239.166
239.46
239.693
239.946
240.147
240.36
240.581
240.804
241.035
241.28
241.527
241.793
242.066
242.491
360.628
360.487
360.562
360.619
360.468
358.676
354.97
351.441
349.09
347.609
346.639
346.002
345.413
344.926
344.317
343.777
343.299
342.872
342.548
342.3
342.092
341.956
341.909
341.936
342.067
342.317
342.678
343.155
343.73
344.411
345.164
345.986
346.839
347.731
348.617
349.473
350.255
350.96
351.546
351.993
352.22
352.251
352.001
351.541
350.737
349.693
348.296
346.677
344.769
342.642
340.224
337.648
334.935
332.051
328.953
325.863
322.632
319.375
316.074
312.821
309.593
306.405
303.267
300.131
297.123
294.108
291.283
288.521
285.872
283.355
280.812
278.457
276.163
274.029
271.965
270.03
268.144
266.357
264.626
262.936
261.391
259.846
258.321
256.834
255.42
254.097
252.803
251.6
250.462
249.367
248.351
247.37
246.405
245.471
244.644
243.873
243.121
242.365
241.602
240.868
240.176
239.521
238.887
238.288
237.728
237.18
236.666
236.147
235.68
235.26
234.851
234.445
234.044
233.658
233.284
232.903
232.514
232.118
231.711
231.283
230.904
230.593
230.272
230.046
229.855
229.663
229.469
229.272
229.068
228.854
228.631
228.398
228.161
227.92
227.687
227.468
227.267
227.085
226.923
226.776
226.652
226.542
226.446
226.35
226.255
226.157
226.059
225.96
225.86
225.76
225.659
225.562
225.463
225.369
225.269
225.19
225.084
225.011
224.963
224.917
224.88
224.841
224.796
224.746
224.699
224.642
224.585
224.528
224.49
224.449
224.432
224.433
224.447
224.474
224.514
224.556
224.595
224.628
224.655
224.681
224.709
224.712
224.724
224.745
224.778
224.82
224.873
224.933
225.003
225.083
225.157
225.231
225.303
225.38
225.456
225.533
225.617
225.714
225.826
225.951
226.085
226.223
226.364
226.506
226.65
226.8
226.96
227.132
227.32
227.528
227.754
227.997
228.256
228.526
228.808
229.094
229.365
229.624
229.861
230.097
230.334
230.573
230.821
231.077
231.35
231.637
231.932
232.247
232.507
232.785
233.017
233.26
233.508
233.756
234.01
234.275
234.537
234.814
235.098
235.534
360.65
360.52
360.723
360.234
358.991
355.672
352.144
349.773
348.381
347.581
347.062
346.731
346.411
346.149
345.786
345.455
345.144
344.858
344.651
344.505
344.397
344.353
344.373
344.479
344.679
344.987
345.39
345.896
346.477
347.146
347.858
348.6
349.335
350.054
350.716
351.296
351.724
352.014
352.093
351.979
351.54
350.856
349.77
348.412
346.632
344.553
342.058
339.277
336.206
332.893
329.276
325.551
321.696
317.867
313.769
309.718
305.747
301.744
297.854
294.033
290.433
286.873
283.528
280.153
277.087
273.968
271.202
268.501
266.011
263.699
261.372
259.298
257.303
255.501
253.732
252.133
250.565
249.134
247.749
246.401
245.214
243.993
242.807
241.648
240.552
239.542
238.544
237.637
236.764
235.927
235.155
234.411
233.677
232.993
232.402
231.837
231.287
230.731
230.164
229.629
229.117
228.629
228.153
227.714
227.298
226.886
226.505
226.119
225.785
225.483
225.189
224.902
224.621
224.356
224.088
223.813
223.528
223.236
222.928
222.598
222.304
222.071
221.83
221.658
221.524
221.395
221.265
221.135
220.999
220.855
220.701
220.538
220.367
220.19
220.015
219.848
219.696
219.561
219.444
219.338
219.256
219.185
219.126
219.064
219.002
218.936
218.868
218.799
218.73
218.665
218.603
218.544
218.485
218.428
218.365
218.316
218.24
218.185
218.155
218.124
218.104
218.081
218.056
218.022
218.002
217.965
217.933
217.902
217.884
217.862
217.865
217.876
217.902
217.94
217.989
218.042
218.09
218.134
218.17
218.205
218.237
218.25
218.271
218.301
218.345
218.399
218.464
218.537
218.619
218.711
218.796
218.882
218.961
219.046
219.128
219.211
219.299
219.401
219.517
219.645
219.783
219.924
220.069
220.215
220.364
220.517
220.68
220.855
221.048
221.26
221.491
221.741
222.007
222.286
222.576
222.872
223.155
223.427
223.679
223.932
224.188
224.447
224.714
224.99
225.281
225.586
225.899
226.231
226.512
226.811
227.068
227.335
227.608
227.88
228.155
228.441
228.718
229.009
229.305
229.753
360.795
360.44
360.368
359.161
356.694
353.114
350.597
349.14
348.383
347.955
347.735
347.633
347.513
347.405
347.214
347.03
346.851
346.684
346.574
346.521
346.497
346.52
346.609
346.775
347.023
347.367
347.789
348.293
348.846
349.455
350.07
350.666
351.199
351.649
351.961
352.122
352.018
351.686
350.995
350.021
348.564
346.735
344.358
341.595
338.362
334.762
330.699
326.333
321.69
316.967
311.905
306.905
301.631
297.004
291.953
286.754
282.267
277.562
273.317
268.984
265.277
261.446
258.138
254.708
251.815
248.814
246.318
243.868
241.754
239.794
237.918
236.286
234.77
233.467
232.179
231.088
230.026
229.119
228.251
227.406
226.747
226.01
225.297
224.629
223.962
223.4
222.803
222.312
221.803
221.312
220.883
220.466
220.03
219.668
219.361
219.053
218.752
218.448
218.119
217.832
217.541
217.264
216.984
216.742
216.501
216.257
216.041
215.817
215.648
215.487
215.336
215.188
215.055
214.931
214.794
214.647
214.488
214.322
214.142
213.933
213.749
213.612
213.468
213.374
213.308
213.256
213.204
213.157
213.106
213.046
212.979
212.899
212.811
212.712
212.613
212.514
212.427
212.353
212.294
212.244
212.216
212.197
212.186
212.172
212.155
212.132
212.105
212.077
212.048
212.03
212.017
212.005
211.997
211.988
211.971
211.964
211.924
211.896
211.896
211.892
211.893
211.895
211.898
211.889
211.903
211.89
211.894
211.897
211.906
211.916
211.94
211.973
212.018
212.075
212.141
212.21
212.276
212.338
212.392
212.44
212.483
212.515
212.549
212.594
212.652
212.721
212.802
212.891
212.99
213.097
213.197
213.3
213.391
213.489
213.583
213.678
213.776
213.886
214.01
214.144
214.288
214.436
214.587
214.74
214.895
215.054
215.222
215.403
215.6
215.817
216.055
216.312
216.585
216.872
217.171
217.475
217.769
218.051
218.316
218.582
218.853
219.129
219.412
219.704
220.011
220.331
220.659
221.006
221.304
221.62
221.9
222.188
222.483
222.776
223.072
223.377
223.671
223.975
224.284
224.749
360.932
360.093
359.572
357.55
354.367
351.625
349.96
349.105
348.691
348.549
348.524
348.577
348.596
348.601
348.543
348.474
348.401
348.339
348.312
348.329
348.37
348.453
348.592
348.797
349.067
349.418
349.822
350.28
350.749
351.229
351.662
352.016
352.212
352.248
352.011
351.508
350.539
349.188
347.235
344.829
341.78
338.185
333.954
329.247
324.081
318.637
312.699
306.582
300.082
294.177
287.799
281.711
275.146
270.036
264.382
258.277
253.586
248.495
244.19
239.568
236.018
232.22
229.229
226.066
223.573
220.991
218.939
216.955
215.345
213.863
212.562
211.431
210.502
209.682
208.978
208.356
207.892
207.472
207.199
206.843
206.763
206.551
206.28
206.196
205.953
205.963
205.792
205.807
205.761
205.661
205.665
205.645
205.542
205.578
205.592
205.586
205.577
205.574
205.518
205.525
205.491
205.453
205.398
205.38
205.342
205.29
205.269
205.225
205.249
205.249
205.259
205.263
205.294
205.33
205.339
205.33
205.311
205.28
205.257
205.188
205.133
205.104
205.068
205.072
205.086
205.113
205.149
205.194
205.247
205.277
205.312
205.322
205.329
205.321
205.309
205.293
205.28
205.281
205.289
205.307
205.339
205.381
205.429
205.476
205.508
205.539
205.562
205.583
205.604
205.641
205.685
205.729
205.781
205.826
205.862
205.904
205.904
205.923
205.952
205.982
206.014
206.047
206.081
206.108
206.157
206.184
206.231
206.271
206.314
206.359
206.412
206.475
206.546
206.627
206.715
206.807
206.896
206.982
207.059
207.127
207.19
207.244
207.299
207.362
207.439
207.526
207.626
207.736
207.853
207.98
208.099
208.222
208.331
208.446
208.558
208.669
208.782
208.904
209.04
209.184
209.337
209.494
209.655
209.817
209.982
210.15
210.326
210.514
210.718
210.943
211.188
211.452
211.734
212.03
212.337
212.649
212.954
213.247
213.523
213.802
214.086
214.376
214.674
214.981
215.301
215.634
215.976
216.336
216.65
216.98
217.28
217.587
217.901
218.215
218.53
218.855
219.164
219.483
219.806
220.287
361.024
359.633
358.507
355.773
352.929
350.947
349.851
349.339
349.188
349.216
349.342
349.499
349.616
349.703
349.749
349.774
349.789
349.806
349.844
349.915
350.005
350.127
350.293
350.509
350.768
351.082
351.417
351.763
352.068
352.321
352.441
352.398
352.045
351.378
350.194
348.548
346.172
343.176
339.331
334.823
329.613
323.766
317.296
310.474
303.113
296.073
288.399
280.887
272.624
266.142
258.961
252.301
245.048
239.577
233.97
227.796
223.302
218.315
214.504
210.342
207.261
204.045
201.557
199.126
197.125
195.286
193.717
192.396
191.257
190.341
189.574
188.874
188.536
188.003
187.885
187.456
187.586
187.358
187.618
187.494
187.822
187.991
187.938
188.33
188.386
188.764
188.922
189.278
189.58
189.831
190.176
190.482
190.753
191.127
191.47
191.774
192.071
192.358
192.63
192.923
193.164
193.377
193.581
193.794
193.974
194.135
194.312
194.486
194.684
194.859
195.038
195.21
195.407
195.603
195.772
195.909
196.035
196.146
196.28
196.366
196.453
196.54
196.626
196.721
196.832
196.953
197.084
197.224
197.379
197.51
197.648
197.763
197.873
197.962
198.04
198.112
198.186
198.264
198.349
198.442
198.545
198.654
198.766
198.877
198.968
199.059
199.14
199.217
199.296
199.394
199.498
199.605
199.718
199.826
199.923
200.017
200.07
200.131
200.2
200.27
200.339
200.41
200.48
200.551
200.635
200.71
200.801
200.884
200.967
201.052
201.142
201.237
201.34
201.45
201.565
201.684
201.801
201.916
202.022
202.115
202.203
202.286
202.364
202.451
202.551
202.661
202.783
202.914
203.054
203.203
203.344
203.489
203.621
203.757
203.891
204.022
204.155
204.295
204.445
204.603
204.767
204.937
205.11
205.285
205.461
205.641
205.828
206.026
206.24
206.474
206.729
207.002
207.293
207.599
207.915
208.236
208.553
208.857
209.145
209.436
209.733
210.036
210.348
210.668
211.001
211.347
211.702
212.074
212.402
212.744
213.063
213.388
213.719
214.053
214.387
214.729
215.055
215.388
215.724
216.223
361.029
359.091
357.357
354.532
352.199
350.742
350.002
349.752
349.744
349.907
350.134
350.358
350.546
350.701
350.822
350.919
351.002
351.077
351.161
351.265
351.382
351.517
351.679
351.87
352.072
352.291
352.481
352.626
352.644
352.516
352.09
351.339
350.014
348.151
345.451
342.014
337.617
332.317
326.067
319.046
311.368
303.449
294.79
286.195
276.734
268.789
259.866
251.672
242.346
235.962
228.661
222.375
215.737
209.94
205.251
199.971
195.948
191.75
188.556
185.528
182.954
180.821
178.842
177.423
175.867
174.973
173.792
173.286
172.409
172.148
171.641
171.34
171.446
171.033
171.342
170.984
171.434
171.304
171.788
171.771
172.237
172.545
172.621
173.183
173.357
173.862
174.2
174.695
175.124
175.551
176.06
176.492
177
177.553
178.067
178.567
179.064
179.551
180.061
180.575
181.043
181.473
181.906
182.325
182.707
183.068
183.434
183.803
184.178
184.514
184.857
185.191
185.545
185.89
186.204
186.489
186.763
187.022
187.302
187.55
187.776
187.988
188.19
188.389
188.596
188.814
189.043
189.282
189.533
189.766
190.009
190.233
190.445
190.636
190.809
190.973
191.134
191.297
191.463
191.634
191.812
191.991
192.171
192.346
192.502
192.656
192.798
192.94
193.084
193.243
193.412
193.584
193.761
193.935
194.094
194.243
194.358
194.465
194.581
194.692
194.804
194.916
195.029
195.145
195.268
195.394
195.53
195.661
195.789
195.918
196.048
196.181
196.318
196.461
196.607
196.756
196.905
197.05
197.19
197.313
197.429
197.547
197.652
197.767
197.893
198.029
198.176
198.332
198.495
198.668
198.834
199.005
199.163
199.323
199.482
199.639
199.793
199.954
200.122
200.296
200.475
200.66
200.848
201.038
201.229
201.423
201.624
201.835
202.061
202.307
202.572
202.857
203.159
203.475
203.802
204.133
204.462
204.778
205.079
205.382
205.692
206.009
206.334
206.668
207.013
207.371
207.738
208.122
208.462
208.817
209.153
209.495
209.843
210.195
210.547
210.907
211.248
211.595
211.945
212.463
360.707
358.492
356.26
353.708
351.855
350.8
350.314
350.22
350.323
350.579
350.866
351.138
351.377
351.582
351.757
351.904
352.031
352.142
352.252
352.368
352.482
352.598
352.718
352.836
352.917
352.961
352.898
352.703
352.206
351.394
349.99
348.027
345.179
341.498
336.692
330.833
323.946
316.048
307.31
298.059
287.927
278.645
268.15
258.652
247.682
239.583
230.155
222.538
213.547
207.731
200.845
195.566
190.048
184.794
180.986
177.198
173.719
171.028
168.411
166.803
164.687
163.803
162.126
161.887
160.482
160.662
159.645
159.947
159.133
159.567
159.036
159.351
159.461
159.429
159.85
159.546
160.164
160.051
160.635
160.629
161.137
161.357
161.501
162.07
162.196
162.711
163.004
163.515
163.834
164.279
164.766
165.175
165.698
166.256
166.741
167.261
167.778
168.313
168.89
169.463
170.011
170.547
171.089
171.613
172.111
172.6
173.099
173.601
174.104
174.566
175.036
175.502
175.981
176.444
176.878
177.286
177.688
178.085
178.498
178.889
179.246
179.572
179.889
180.184
180.484
180.793
181.115
181.448
181.79
182.122
182.462
182.789
183.101
183.392
183.662
183.917
184.166
184.412
184.66
184.909
185.162
185.41
185.656
185.897
186.119
186.337
186.545
186.753
186.964
187.188
187.421
187.659
187.901
188.139
188.359
188.568
188.745
188.903
189.068
189.225
189.381
189.538
189.696
189.858
190.027
190.201
190.383
190.566
190.742
190.916
191.089
191.262
191.437
191.615
191.794
191.975
192.158
192.337
192.512
192.67
192.818
192.971
193.109
193.255
193.41
193.574
193.748
193.93
194.119
194.317
194.51
194.708
194.894
195.08
195.268
195.452
195.633
195.817
196.005
196.197
196.394
196.596
196.802
197.008
197.216
197.427
197.644
197.87
198.111
198.371
198.65
198.947
199.26
199.588
199.926
200.269
200.61
200.94
201.254
201.571
201.894
202.225
202.564
202.911
203.268
203.637
204.016
204.412
204.766
205.133
205.485
205.843
206.206
206.576
206.945
207.322
207.678
208.04
208.404
208.94
360.375
357.851
355.425
353.235
351.78
350.957
350.7
350.696
350.893
351.203
351.527
351.831
352.102
352.34
352.547
352.723
352.873
352.997
353.109
353.21
353.291
353.347
353.372
353.351
353.224
352.979
352.461
351.641
350.227
348.251
345.332
341.558
336.638
330.556
323.215
314.627
305.117
295.192
284.283
273.521
261.299
251.422
239.869
230.497
219.481
211.872
202.815
196.415
188.65
183.607
177.612
173.54
169.004
165.361
162.024
159.891
157.022
156.074
153.841
153.651
151.82
152.102
150.701
151.407
150.366
151.216
150.455
151.318
150.674
151.61
151.166
152.05
151.852
152.516
152.803
152.796
153.511
153.361
154.059
154.03
154.611
154.565
154.888
155.418
155.428
155.898
156.05
156.5
156.618
156.985
157.349
157.601
158.005
158.438
158.731
159.113
159.481
159.903
160.368
160.817
161.278
161.755
162.24
162.712
163.187
163.673
164.176
164.689
165.204
165.699
166.208
166.726
167.251
167.756
168.253
168.724
169.203
169.688
170.183
170.678
171.135
171.547
171.954
172.326
172.7
173.082
173.479
173.884
174.303
174.717
175.141
175.554
175.954
176.333
176.69
177.031
177.362
177.686
178.009
178.331
178.653
178.966
179.275
179.578
179.862
180.144
180.415
180.689
180.967
181.255
181.551
181.852
182.156
182.455
182.734
183.002
183.242
183.451
183.667
183.871
184.073
184.275
184.478
184.687
184.903
185.126
185.354
185.587
185.814
186.035
186.251
186.465
186.679
186.892
187.106
187.321
187.539
187.752
187.964
188.157
188.342
188.53
188.704
188.884
189.07
189.264
189.467
189.676
189.891
190.115
190.336
190.561
190.777
190.992
191.209
191.424
191.633
191.843
192.053
192.265
192.482
192.702
192.927
193.152
193.378
193.607
193.843
194.086
194.344
194.619
194.913
195.224
195.55
195.891
196.241
196.595
196.949
197.293
197.621
197.952
198.29
198.635
198.988
199.348
199.718
200.099
200.491
200.898
201.265
201.645
202.013
202.386
202.764
203.15
203.536
203.929
204.301
204.677
205.054
205.609
359.965
357.238
354.855
352.973
351.803
351.217
351.085
351.171
351.425
351.768
352.112
352.432
352.718
352.97
353.19
353.375
353.525
353.639
353.726
353.783
353.792
353.737
353.592
353.347
352.849
352.075
350.739
348.847
346.013
342.312
337.352
331.211
323.807
315.048
305.168
294.255
282.329
271.306
258.726
247.319
234.012
224.307
212.739
204.304
194.314
187.663
179.663
174.481
168.211
163.979
159.303
156.328
152.696
150.919
147.736
147.447
144.982
145.473
143.773
144.471
143.085
144.122
143.132
144.466
143.791
145.205
144.709
146.085
145.657
147.014
146.761
147.983
147.791
148.873
148.715
149.447
150.221
150.083
150.902
150.819
151.469
151.316
151.826
152.33
152.286
152.764
152.824
153.221
153.206
153.527
153.79
153.928
154.227
154.479
154.576
154.825
154.99
155.246
155.531
155.759
156.032
156.329
156.632
156.918
157.224
157.559
157.919
158.289
158.668
159.049
159.456
159.884
160.322
160.739
161.17
161.596
162.048
162.52
163.006
163.507
163.987
164.426
164.859
165.258
165.66
166.07
166.496
166.93
167.382
167.838
168.307
168.77
169.225
169.663
170.084
170.489
170.884
171.269
171.652
172.036
172.41
172.775
173.136
173.49
173.829
174.167
174.493
174.826
175.165
175.511
175.863
176.219
176.578
176.932
177.265
177.587
177.884
178.145
178.408
178.66
178.906
179.151
179.398
179.652
179.913
180.184
180.458
180.737
181.012
181.279
181.539
181.794
182.047
182.296
182.543
182.791
183.043
183.291
183.54
183.77
183.993
184.217
184.428
184.643
184.862
185.087
185.319
185.555
185.796
186.045
186.294
186.547
186.794
187.039
187.285
187.531
187.771
188.007
188.241
188.474
188.711
188.952
189.197
189.44
189.687
189.935
190.19
190.453
190.729
191.021
191.33
191.656
191.996
192.35
192.712
193.078
193.446
193.805
194.148
194.494
194.846
195.206
195.572
195.946
196.328
196.722
197.126
197.546
197.925
198.318
198.7
199.088
199.481
199.882
200.284
200.692
201.079
201.469
201.86
202.434
359.53
356.689
354.431
352.81
351.888
351.511
351.463
351.619
351.909
352.267
352.617
352.938
353.224
353.473
353.687
353.86
353.988
354.067
354.1
354.076
353.959
353.729
353.293
352.629
351.464
349.772
347.145
343.648
338.898
332.966
325.569
316.73
306.751
295.693
283.586
271.294
257.382
245.92
232.407
221.367
208.38
199.236
188.455
181.332
172.886
167.424
160.83
156.678
151.794
148.21
145.443
142.759
140.64
139.646
137.513
138.153
136.56
137.669
136.516
137.912
137.069
138.829
138.216
140.141
139.747
141.673
141.287
143.147
142.828
144.563
144.396
145.897
145.682
147.04
146.891
147.894
148.693
148.657
149.604
149.437
150.22
150.144
150.775
151.167
151.195
151.753
151.753
152.184
152.139
152.488
152.657
152.785
153.069
153.225
153.251
153.441
153.522
153.687
153.866
153.957
154.126
154.284
154.443
154.565
154.718
154.907
155.104
155.291
155.49
155.69
155.92
156.159
156.417
156.62
156.861
157.107
157.395
157.713
158.052
158.413
158.779
159.136
159.481
159.807
160.14
160.485
160.853
161.228
161.635
162.049
162.488
162.932
163.379
163.818
164.249
164.668
165.081
165.488
165.895
166.301
166.698
167.083
167.469
167.847
168.215
168.587
168.95
169.323
169.704
170.092
170.484
170.88
171.278
171.673
172.047
172.414
172.756
173.063
173.365
173.657
173.943
174.226
174.512
174.805
175.107
175.419
175.735
176.055
176.373
176.683
176.983
177.276
177.565
177.847
178.126
178.406
178.69
178.971
179.254
179.52
179.78
180.039
180.287
180.536
180.788
181.044
181.303
181.566
181.833
182.106
182.381
182.662
182.938
183.212
183.488
183.766
184.036
184.3
184.557
184.812
185.069
185.331
185.596
185.859
186.126
186.395
186.669
186.951
187.247
187.557
187.882
188.223
188.578
188.944
189.318
189.697
190.079
190.452
190.811
191.172
191.539
191.913
192.293
192.681
193.075
193.481
193.897
194.328
194.72
195.123
195.519
195.92
196.325
196.74
197.156
197.579
197.979
198.383
198.787
199.38
359.081
356.197
354.104
352.73
352.027
351.797
351.821
352.027
352.34
352.699
353.042
353.352
353.623
353.853
354.042
354.183
354.268
354.284
354.222
354.068
353.745
353.202
352.24
350.835
348.582
345.481
341.078
335.495
328.46
319.976
310.063
298.672
286.234
273.791
259.87
247.078
232.14
220.612
206.986
196.833
185.081
177.058
167.958
162.118
155.43
150.964
145.775
142.166
138.711
136.222
134.386
132.361
132.587
131.634
131.825
132.164
131.118
132.767
131.991
134.04
133.274
135.59
135.047
137.456
137.09
139.424
139.023
141.282
141.049
143.128
143.032
144.808
144.596
146.211
146.156
147.454
147.984
148.326
149.317
149.032
149.967
150.005
150.724
150.865
151.122
151.733
151.65
152.138
152.124
152.536
152.579
152.846
153.114
153.139
153.275
153.426
153.522
153.704
153.787
153.853
153.989
154.127
154.235
154.302
154.413
154.54
154.683
154.769
154.884
154.998
155.141
155.271
155.413
155.463
155.569
155.664
155.807
155.972
156.146
156.335
156.537
156.731
156.911
157.071
157.239
157.418
157.619
157.822
158.072
158.326
158.619
158.922
159.244
159.574
159.913
160.255
160.601
160.954
161.31
161.671
162.029
162.377
162.729
163.078
163.425
163.786
164.141
164.513
164.895
165.286
165.683
166.085
166.489
166.895
167.281
167.669
168.031
168.364
168.689
169.006
169.316
169.624
169.935
170.255
170.585
170.926
171.273
171.623
171.973
172.317
172.65
172.973
173.292
173.601
173.906
174.213
174.523
174.833
175.145
175.443
175.735
176.027
176.309
176.59
176.873
177.156
177.441
177.728
178.017
178.312
178.611
178.915
179.219
179.521
179.824
180.131
180.431
180.723
181.003
181.278
181.556
181.836
182.121
182.404
182.69
182.978
183.273
183.574
183.889
184.217
184.559
184.915
185.283
185.662
186.048
186.438
186.833
187.22
187.594
187.971
188.352
188.741
189.134
189.535
189.941
190.358
190.784
191.223
191.626
192.04
192.446
192.858
193.275
193.7
194.129
194.564
194.977
195.393
195.809
196.421
358.641
355.774
353.869
352.716
352.194
352.057
352.149
352.39
352.716
353.067
353.393
353.68
353.922
354.117
354.264
354.35
354.362
354.281
354.074
353.697
353.003
351.897
350.057
347.476
343.676
338.703
332.147
324.162
314.666
303.674
291.356
278.109
263.392
250.379
235.196
222.389
207.445
196.328
183.722
174.81
165.182
158.499
151.636
146.787
141.543
137.579
133.66
131.385
129.307
128.678
127.149
126.739
126.295
124.941
125.825
124.621
126.571
127.532
127.226
129.837
129.426
132.34
132.004
134.934
134.663
137.371
137.029
139.718
139.696
142.098
141.957
144.052
143.886
145.761
145.877
147.42
147.399
148.387
149.324
149.182
150.212
150.359
151.124
151.039
151.647