/*--------------------------------*- C++ -*----------------------------------*\
| =========                 |                                                 |
| \\      /  F ield         | OpenFOAM: The Open Source CFD Toolbox           |
|  \\    /   O peration     | Version:  2312                                  |
|   \\  /    A nd           | Website:  www.openfoam.com                      |
|    \\/     M anipulation  |                                                 |
\*---------------------------------------------------------------------------*/
FoamFile
{
    version     2.0;
    format      ascii;
    arch        "LSB;label=32;scalar=64";
    class       volScalarField;
    location    "0.001";
    object      thermo:psiGasEff;
}
// * * * * * * * * * * * * * * * * * * * * * * * * * * * * * * * * * * * * * //

dimensions      [-2 4 2 0 0 0 0];

internalField   nonuniform List<scalar> 
48128
(
0.00987938
0.00987398
0.00997516
0.0100399
0.0100468
0.0100671
0.0100922
0.0101402
0.0102087
0.0102053
0.0102549
0.0102467
0.0103512
0.0105224
0.0107003
0.0108288
0.0109199
0.0109636
0.0109669
0.0109281
0.0108572
0.0107531
0.0106164
0.0104467
0.010244
0.0100124
0.00974704
0.00944343
0.00911541
0.00876378
0.00839087
0.00800157
0.00759918
0.00718789
0.00677586
0.00636003
0.00595498
0.0055535
0.00517382
0.004801
0.00445773
0.00412142
0.0038203
0.0035277
0.0032678
0.00301636
0.00279396
0.00258268
0.00239664
0.00222005
0.00206357
0.00191682
0.00178697
0.0016652
0.00155626
0.00145819
0.00136859
0.0012881
0.00121544
0.00115014
0.00109116
0.0010379
0.000989685
0.000945975
0.000906291
0.000870058
0.000837511
0.000807691
0.000780791
0.000756878
0.000734881
0.000715948
0.000697827
0.00068226
0.00066717
0.000654173
0.000641981
0.000631235
0.000621483
0.0006123
0.000604182
0.000596095
0.000589461
0.000583271
0.000577981
0.000573011
0.000568548
0.000564353
0.000560287
0.000556377
0.000552949
0.000549503
0.000547004
0.000544623
0.000542062
0.000539342
0.000536661
0.000534241
0.000532495
0.000530768
0.000528889
0.000526879
0.000524828
0.000522736
0.000520588
0.000518455
0.00051644
0.000514695
0.00051283
0.000510841
0.000508742
0.000506897
0.000505189
0.000503465
0.000501698
0.000499935
0.000498438
0.000497273
0.000496833
0.000496494
0.00049581
0.000495079
0.000493908
0.000492297
0.000490511
0.000488788
0.000487154
0.00048587
0.000484764
0.000483933
0.000483215
0.000482831
0.000482482
0.000482108
0.000481695
0.000481232
0.000480691
0.000480081
0.000479405
0.000478676
0.000477825
0.000476907
0.000475922
0.000474895
0.000473899
0.000473027
0.000472314
0.000471713
0.000471307
0.000471119
0.000471149
0.000471258
0.000471391
0.000471474
0.000471468
0.000471213
0.000471043
0.000470503
0.000469765
0.000469041
0.000468429
0.000467907
0.000467599
0.000467534
0.000467726
0.000468058
0.000468458
0.000468834
0.000469101
0.0004692
0.000469134
0.000468917
0.000468531
0.000467963
0.000467264
0.000466524
0.000465941
0.000465462
0.000465132
0.000464931
0.00046477
0.000465028
0.000465182
0.00046538
0.000465563
0.000465662
0.000465668
0.00046559
0.000465353
0.000465002
0.000464658
0.000464319
0.00046406
0.000463812
0.000463621
0.000463647
0.000463577
0.000463438
0.00046321
0.000462861
0.000462419
0.000461983
0.000461563
0.000461204
0.000460925
0.000460742
0.000460593
0.000460454
0.000460284
0.000460047
0.000459711
0.000459253
0.000458651
0.000457916
0.000457041
0.000456103
0.000455297
0.00045462
0.000454179
0.000453854
0.000453557
0.000453281
0.000452936
0.000452542
0.000451979
0.000451375
0.000450712
0.000449885
0.000449623
0.000449171
0.000449265
0.000449237
0.000449183
0.000449251
0.00044935
0.000449389
0.000449703
0.000449896
0.000450297
0.000451127
0.00995877
0.00992194
0.00997057
0.0100266
0.010019
0.010029
0.0100443
0.0100621
0.0100554
0.00999105
0.0100247
0.0100649
0.0101823
0.0103207
0.0104056
0.0105176
0.0106061
0.0106549
0.0106662
0.0106393
0.0105829
0.0104961
0.0103795
0.0102318
0.0100514
0.00984219
0.00960296
0.00933613
0.00903527
0.00870721
0.00835364
0.00798246
0.00759697
0.00719977
0.00680037
0.00639584
0.00599975
0.00560354
0.00522751
0.00485711
0.00451475
0.00417868
0.00387533
0.00357989
0.00331611
0.00306124
0.00283447
0.00261887
0.0024278
0.00224707
0.00208606
0.00193534
0.00180098
0.00167536
0.00156241
0.0014602
0.00136749
0.0012841
0.00120875
0.00114089
0.00107955
0.00102411
0.000973874
0.000928348
0.00088699
0.000849426
0.000815625
0.000784622
0.00075652
0.000731489
0.000708518
0.00068856
0.000669557
0.00065306
0.000637212
0.000623454
0.000610587
0.000599151
0.000588748
0.000578939
0.000570148
0.000561487
0.000554293
0.000547541
0.000541629
0.000536035
0.000530991
0.000526211
0.000521588
0.000517186
0.000513248
0.000509349
0.000506378
0.000503519
0.000500483
0.00049732
0.000494224
0.000491415
0.000489247
0.00048709
0.000484791
0.000482385
0.000479957
0.000477514
0.000475051
0.000472615
0.000470337
0.000468321
0.000466203
0.000463988
0.000461698
0.000459647
0.000457725
0.00045579
0.000453811
0.000451839
0.000450117
0.000448701
0.000447933
0.000447278
0.000446292
0.000445282
0.000443914
0.000442177
0.000440284
0.000438493
0.0004368
0.000435429
0.000434217
0.000433253
0.000432388
0.000431811
0.000431265
0.00043069
0.000430078
0.00042942
0.000428705
0.000427945
0.00042713
0.000426239
0.000425262
0.000424222
0.000423133
0.000422024
0.000420939
0.000419975
0.000419162
0.00041845
0.000417914
0.000417579
0.000417439
0.000417372
0.000417345
0.000417271
0.000417083
0.000416714
0.000416379
0.000415741
0.000414966
0.000414183
0.000413493
0.000412908
0.000412505
0.000412353
0.000412408
0.000412617
0.000412894
0.000413121
0.000413277
0.000413281
0.000413143
0.000412881
0.00041247
0.000411907
0.000411236
0.000410532
0.00040998
0.000409528
0.000409215
0.000409027
0.000408883
0.000409103
0.000409248
0.000409423
0.000409587
0.000409677
0.000409684
0.000409615
0.00040941
0.000409105
0.000408812
0.000408529
0.00040833
0.000408149
0.000408028
0.000408112
0.000408115
0.000408059
0.000407928
0.00040769
0.000407372
0.000407062
0.000406771
0.000406537
0.000406387
0.000406336
0.000406327
0.000406341
0.000406341
0.000406295
0.000406173
0.000405953
0.000405615
0.000405163
0.000404594
0.000403975
0.000403459
0.000403069
0.000402867
0.000402771
0.000402687
0.000402622
0.000402492
0.000402317
0.000401996
0.000401642
0.000401238
0.00040069
0.000400616
0.000400374
0.000400584
0.000400668
0.000400723
0.000400878
0.000401051
0.000401165
0.000401518
0.000401756
0.000402176
0.000403001
0.00990912
0.00991852
0.00996148
0.0100169
0.0100168
0.010042
0.010049
0.0100394
0.00997302
0.00997731
0.0100421
0.0101002
0.0101763
0.0103411
0.0105307
0.0106508
0.0107281
0.0107701
0.010777
0.0107502
0.0106957
0.0106118
0.0104976
0.0103514
0.0101748
0.00996459
0.00972418
0.00944803
0.00914517
0.00881546
0.00846199
0.00808897
0.00770193
0.00729996
0.00689679
0.00648641
0.00608706
0.00568534
0.00530386
0.00492622
0.00457682
0.0042329
0.00392213
0.00361926
0.00334889
0.0030874
0.00285478
0.00263365
0.00243773
0.00225225
0.00208735
0.00193299
0.00179559
0.00166755
0.00155336
0.0014501
0.00135545
0.00127028
0.00119337
0.00112414
0.0010616
0.00100513
0.000954033
0.0009078
0.000865835
0.00082776
0.000793446
0.000762022
0.000733696
0.000708417
0.000685334
0.000665227
0.000646089
0.000629483
0.000613565
0.000599809
0.000586948
0.000575565
0.000565156
0.000555409
0.000546584
0.000537902
0.000530777
0.000524077
0.000518188
0.000512576
0.000507548
0.000502762
0.000498125
0.000493763
0.000489829
0.000485958
0.00048302
0.000480181
0.000477162
0.000474015
0.000470941
0.000468167
0.000466005
0.000463842
0.000461534
0.000459132
0.000456701
0.000454252
0.00045179
0.000449352
0.000447085
0.000445071
0.000442964
0.000440766
0.000438511
0.000436484
0.000434583
0.000432664
0.000430702
0.000428741
0.000427024
0.000425593
0.000424745
0.00042402
0.000422981
0.000421902
0.000420521
0.000418789
0.000416907
0.000415141
0.000413477
0.00041212
0.000410909
0.000409936
0.000409068
0.000408457
0.000407873
0.000407261
0.000406607
0.000405904
0.000405147
0.000404345
0.000403498
0.000402582
0.000401586
0.00040053
0.000399433
0.000398322
0.000397244
0.000396286
0.000395473
0.000394761
0.000394217
0.00039385
0.000393661
0.000393531
0.00039344
0.00039331
0.000393083
0.000392694
0.000392327
0.000391678
0.000390909
0.000390128
0.000389426
0.000388827
0.000388401
0.000388224
0.000388224
0.000388377
0.000388597
0.000388764
0.000388868
0.000388827
0.000388648
0.000388377
0.000387955
0.00038739
0.000386725
0.000386032
0.000385482
0.000385035
0.000384715
0.000384524
0.000384385
0.000384569
0.000384721
0.000384891
0.000385046
0.000385132
0.000385144
0.000385084
0.000384895
0.000384606
0.000384325
0.000384053
0.000383857
0.000383681
0.00038355
0.000383625
0.000383642
0.000383605
0.000383497
0.0003833
0.000383027
0.000382767
0.000382526
0.00038234
0.000382233
0.000382215
0.000382241
0.000382293
0.000382337
0.000382342
0.000382281
0.000382136
0.000381886
0.000381541
0.000381085
0.000380595
0.000380202
0.000379941
0.000379867
0.000379875
0.000379896
0.00037993
0.000379899
0.000379821
0.000379604
0.000379341
0.000379045
0.000378621
0.00037866
0.000378536
0.00037882
0.000378985
0.000379113
0.000379323
0.000379537
0.000379692
0.00038007
0.000380338
0.00038077
0.000381599
0.00990892
0.00994494
0.00997369
0.0100268
0.0100298
0.0100352
0.00998145
0.00992761
0.00993484
0.00999114
0.0100685
0.0101826
0.0103501
0.0104824
0.0106148
0.0107224
0.010797
0.010841
0.01085
0.0108282
0.0107787
0.0106997
0.0105897
0.0104495
0.0102779
0.0100717
0.00983457
0.00956235
0.00926229
0.0089316
0.00857763
0.00820243
0.00781345
0.0074081
0.0070023
0.00658744
0.00618398
0.00577534
0.00538807
0.00500248
0.0046462
0.0042935
0.0039753
0.00366438
0.00338686
0.00311734
0.00287745
0.00264934
0.00244805
0.00225689
0.00208742
0.00192869
0.00178787
0.00165634
0.00153931
0.00143352
0.00133693
0.00125018
0.00117209
0.00110187
0.00103853
0.000981363
0.000929767
0.000883179
0.000841023
0.000802871
0.000768554
0.000737078
0.000708922
0.000683725
0.00066089
0.000641031
0.000622044
0.000605642
0.000589914
0.000576444
0.000563846
0.000552781
0.000542595
0.000533161
0.000524477
0.000515957
0.000509115
0.000502668
0.000496974
0.000491486
0.000486628
0.000481988
0.000477479
0.000473312
0.000469521
0.000465806
0.000463037
0.000460339
0.000457472
0.00045448
0.000451568
0.000448964
0.00044694
0.000444893
0.000442701
0.00044043
0.000438124
0.000435789
0.000433442
0.000431118
0.000428965
0.000427048
0.000425042
0.000422958
0.000420833
0.000418928
0.000417141
0.000415332
0.000413485
0.000411638
0.00041003
0.000408686
0.000407832
0.000407128
0.000406127
0.00040505
0.000403732
0.000402079
0.000400283
0.0003986
0.000397028
0.000395746
0.000394591
0.000393672
0.000392863
0.00039228
0.000391724
0.000391139
0.000390507
0.000389822
0.000389082
0.000388296
0.000387466
0.000386571
0.000385601
0.000384572
0.000383506
0.00038243
0.000381404
0.000380495
0.000379726
0.000379061
0.000378557
0.000378201
0.000378002
0.000377852
0.000377739
0.000377585
0.000377363
0.000376997
0.000376641
0.000376026
0.000375296
0.000374549
0.000373869
0.000373286
0.000372868
0.000372696
0.000372675
0.000372806
0.000373006
0.000373151
0.00037324
0.000373186
0.000373002
0.00037273
0.000372316
0.000371764
0.000371121
0.000370452
0.00036991
0.000369477
0.000369153
0.000368963
0.000368832
0.000368987
0.000369148
0.000369318
0.000369471
0.000369559
0.000369582
0.000369537
0.000369372
0.000369107
0.000368844
0.000368586
0.000368395
0.000368223
0.000368083
0.000368137
0.000368157
0.000368125
0.000368024
0.000367844
0.000367601
0.000367369
0.000367159
0.000367003
0.000366915
0.000366913
0.000366953
0.000367021
0.000367083
0.00036711
0.000367078
0.000366969
0.000366766
0.000366473
0.000366085
0.000365662
0.000365336
0.000365149
0.000365143
0.000365217
0.000365303
0.000365399
0.000365432
0.000365417
0.000365268
0.000365066
0.000364834
0.000364483
0.000364589
0.000364545
0.000364879
0.000365105
0.000365289
0.000365542
0.000365789
0.000365978
0.000366378
0.000366672
0.000367115
0.000367949
0.0098998
0.00994811
0.00996902
0.010039
0.0100295
0.00997836
0.00991999
0.00990445
0.00996541
0.0100474
0.0101865
0.0103037
0.0104623
0.0105929
0.01072
0.0108171
0.0108857
0.010927
0.0109356
0.0109163
0.0108695
0.0107939
0.010689
0.0105532
0.0103853
0.0101827
0.00994817
0.00967717
0.00937761
0.00904487
0.00868985
0.00831099
0.00791948
0.00750813
0.00709853
0.00667662
0.00626792
0.00584997
0.00545595
0.0050603
0.00469653
0.00433254
0.00400501
0.00368392
0.00339841
0.00312009
0.00287358
0.00263915
0.00243322
0.00223599
0.0020623
0.00189935
0.0017557
0.00162095
0.00150285
0.00139573
0.00129794
0.00121081
0.00113254
0.00106244
0.000999128
0.000942274
0.000891083
0.000845091
0.000803589
0.000766193
0.000732604
0.000701777
0.000674555
0.000650079
0.000628226
0.000609241
0.000590973
0.000575417
0.000560418
0.000547694
0.00053575
0.000525382
0.000515752
0.000506964
0.000498712
0.000490667
0.000484406
0.000478476
0.000473238
0.000468137
0.000463685
0.000459407
0.000455235
0.000451471
0.000448003
0.000444622
0.000442176
0.000439766
0.000437199
0.000434523
0.000431946
0.000429653
0.000427878
0.000426053
0.000424092
0.000422073
0.000420006
0.000417892
0.000415766
0.000413664
0.000411717
0.000409969
0.00040814
0.000406244
0.000404322
0.000402607
0.00040099
0.000399348
0.00039768
0.000396031
0.000394608
0.000393415
0.000392602
0.000391967
0.00039105
0.000390026
0.000388808
0.000387295
0.000385647
0.000384083
0.000382649
0.000381484
0.000380426
0.000379604
0.000378898
0.00037838
0.000377886
0.000377371
0.0003768
0.000376172
0.000375488
0.000374752
0.000373974
0.000373134
0.00037222
0.000371246
0.000370237
0.000369226
0.000368285
0.000367457
0.000366762
0.000366172
0.000365737
0.000365416
0.000365223
0.000365078
0.000364957
0.000364803
0.000364607
0.000364287
0.000363971
0.000363415
0.000362752
0.000362065
0.000361428
0.000360882
0.000360492
0.00036034
0.000360321
0.000360448
0.000360638
0.000360787
0.00036088
0.000360838
0.000360669
0.00036041
0.000360014
0.00035949
0.000358884
0.000358255
0.000357735
0.000357323
0.000357009
0.000356827
0.00035671
0.000356848
0.000357016
0.000357193
0.000357348
0.000357441
0.000357478
0.000357453
0.000357322
0.000357091
0.000356852
0.000356618
0.000356439
0.000356278
0.000356136
0.000356167
0.00035619
0.000356164
0.000356065
0.000355898
0.000355682
0.000355473
0.000355292
0.000355157
0.000355086
0.000355096
0.000355145
0.000355221
0.000355293
0.000355332
0.000355318
0.000355233
0.000355061
0.000354808
0.000354465
0.000354092
0.000353808
0.000353668
0.000353711
0.000353832
0.000353963
0.000354102
0.000354183
0.000354216
0.000354124
0.00035397
0.000353787
0.000353488
0.000353648
0.000353663
0.000354034
0.00035431
0.000354544
0.000354831
0.000355113
0.000355336
0.000355759
0.00035608
0.000356537
0.000357384
0.00986746
0.00994117
0.00995987
0.0100266
0.00997337
0.00992409
0.00989548
0.00993763
0.0100231
0.0101456
0.0102794
0.010423
0.0105757
0.0107007
0.0108159
0.0109056
0.0109699
0.0110094
0.0110189
0.011002
0.0109581
0.0108868
0.0107865
0.0106554
0.0104919
0.0102924
0.01006
0.00978973
0.00949033
0.00915434
0.00879775
0.00841399
0.00801963
0.00760013
0.00718612
0.00675477
0.00633933
0.00590851
0.00550579
0.00509745
0.00472514
0.00434801
0.00400928
0.00367625
0.00338149
0.0030924
0.00283873
0.00259757
0.00238675
0.0021832
0.00200652
0.00184033
0.00169487
0.00155638
0.00143998
0.00133317
0.00123426
0.00114888
0.00107143
0.00100296
0.000940745
0.000885454
0.000835726
0.000791492
0.000751615
0.000716006
0.000684048
0.00065475
0.000629317
0.000606306
0.000586216
0.000568764
0.000551882
0.000537752
0.000524045
0.000512578
0.000501737
0.0004925
0.000483817
0.000476037
0.000468583
0.00046143
0.000456083
0.000451007
0.000446549
0.000442108
0.000438267
0.000434539
0.000430881
0.0004277
0.000424697
0.000421813
0.000419819
0.000417802
0.000415626
0.000413387
0.000411275
0.000409406
0.00040796
0.000406416
0.000404768
0.000403093
0.00040135
0.000399538
0.00039771
0.000395925
0.000394256
0.000392732
0.000391127
0.000389484
0.000387836
0.000386381
0.000384979
0.000383559
0.000382121
0.000380743
0.000379588
0.0003786
0.000377863
0.000377331
0.000376537
0.000375597
0.000374507
0.000373182
0.00037174
0.000370345
0.00036909
0.000368074
0.000367144
0.000366451
0.000365878
0.000365452
0.000365044
0.000364631
0.000364152
0.000363612
0.000363008
0.000362354
0.000361653
0.00036089
0.000360051
0.000359155
0.000358223
0.000357309
0.000356482
0.000355762
0.000355166
0.000354679
0.000354333
0.000354064
0.000353889
0.000353759
0.000353636
0.000353502
0.00035334
0.000353084
0.00035283
0.00035235
0.000351779
0.000351181
0.00035061
0.000350118
0.000349769
0.000349647
0.000349644
0.000349782
0.000349967
0.000350136
0.000350247
0.000350229
0.000350101
0.000349857
0.000349492
0.00034901
0.000348456
0.000347884
0.000347396
0.000347017
0.000346724
0.00034656
0.000346469
0.000346601
0.000346778
0.000346967
0.000347129
0.000347231
0.000347287
0.000347287
0.000347194
0.00034701
0.000346804
0.000346602
0.000346443
0.000346297
0.000346161
0.000346173
0.000346201
0.000346183
0.000346089
0.000345938
0.00034575
0.000345569
0.000345415
0.000345306
0.000345251
0.000345272
0.000345329
0.000345413
0.000345491
0.000345539
0.000345537
0.000345471
0.000345325
0.000345101
0.000344797
0.000344468
0.000344216
0.000344111
0.00034419
0.000344345
0.000344511
0.000344682
0.0003448
0.000344873
0.000344828
0.000344716
0.000344573
0.000344316
0.000344519
0.000344584
0.000344982
0.000345301
0.000345579
0.000345898
0.000346211
0.000346467
0.000346914
0.000347265
0.00034774
0.000348604
0.00981372
0.00991845
0.00991621
0.00995268
0.00992242
0.00988976
0.00991712
0.00999163
0.0101045
0.0102328
0.0103874
0.0105359
0.0106794
0.0108006
0.0109068
0.0109909
0.0110517
0.0110893
0.0111002
0.0110855
0.0110449
0.0109783
0.0108828
0.0107562
0.0105968
0.0103995
0.0101691
0.00989835
0.00959855
0.00925792
0.00889883
0.0085081
0.00810994
0.00767763
0.00725648
0.00681365
0.00639219
0.00594428
0.00552682
0.00510159
0.00471799
0.00432626
0.00397437
0.00362738
0.00332147
0.00302065
0.00276012
0.00251276
0.00229795
0.00208769
0.00191141
0.00174458
0.00160101
0.00145809
0.00134662
0.00124383
0.00114511
0.00106336
0.000989068
0.000923941
0.000864292
0.000812003
0.000764809
0.000723466
0.000686346
0.00065344
0.000624112
0.000597097
0.000574265
0.000553198
0.000535563
0.00052012
0.000505139
0.000492754
0.000480727
0.000470941
0.000461652
0.000453893
0.00044652
0.000440081
0.000433741
0.000427918
0.0004238
0.000419851
0.000416399
0.00041286
0.000409903
0.000406912
0.000404025
0.000401599
0.000399242
0.000397069
0.000395705
0.000394205
0.000392487
0.000390828
0.000389292
0.000387946
0.00038689
0.000385694
0.000384438
0.000383182
0.000381835
0.000380391
0.000378938
0.000377538
0.000376214
0.00037495
0.000373613
0.000372273
0.00037097
0.000369814
0.00036867
0.000367488
0.000366355
0.000365303
0.000364473
0.000363721
0.000363088
0.000362685
0.000362027
0.000361204
0.000360274
0.000359183
0.000357978
0.000356798
0.00035575
0.000354908
0.000354134
0.000353607
0.000353187
0.000352877
0.000352577
0.000352288
0.000351929
0.000351503
0.000351008
0.000350458
0.00034985
0.000349185
0.00034844
0.000347647
0.000346814
0.000346022
0.000345344
0.000344752
0.000344278
0.000343911
0.00034367
0.00034346
0.00034332
0.000343207
0.000343109
0.000342997
0.000342874
0.00034269
0.000342511
0.00034213
0.000341676
0.000341191
0.000340713
0.000340288
0.000339994
0.000339915
0.00033994
0.000340088
0.000340272
0.000340476
0.000340623
0.000340642
0.000340548
0.00034034
0.000340022
0.000339594
0.000339105
0.000338603
0.000338162
0.000337823
0.000337566
0.000337427
0.000337376
0.000337512
0.000337703
0.000337909
0.000338083
0.0003382
0.00033828
0.000338309
0.00033826
0.000338132
0.000337971
0.000337807
0.000337675
0.000337554
0.00033743
0.000337427
0.000337463
0.000337456
0.000337372
0.00033724
0.000337086
0.00033694
0.000336818
0.000336736
0.000336702
0.000336738
0.000336804
0.000336897
0.000336982
0.000337038
0.000337046
0.000336996
0.000336872
0.000336677
0.000336409
0.000336121
0.000335899
0.000335821
0.00033593
0.000336115
0.000336307
0.000336504
0.000336653
0.000336758
0.000336756
0.000336681
0.000336573
0.00033635
0.00033659
0.000336699
0.000337118
0.000337473
0.00033779
0.000338137
0.00033848
0.000338768
0.000339238
0.00033962
0.000340115
0.000341002
0.00974265
0.00988461
0.00985028
0.00988352
0.00986996
0.00989284
0.00995669
0.0100555
0.0101783
0.0103306
0.0104896
0.0106375
0.0107735
0.0108905
0.0109904
0.0110699
0.011128
0.0111644
0.0111771
0.0111654
0.0111285
0.0110662
0.0109755
0.0108529
0.0106975
0.0105014
0.0102727
0.00999992
0.00969955
0.00935181
0.00898774
0.00858564
0.0081846
0.00773947
0.0073069
0.00684366
0.00640961
0.00594146
0.0055071
0.00506004
0.00465806
0.00424736
0.00388111
0.00352206
0.00320676
0.00289471
0.00263254
0.00238282
0.00216852
0.00195068
0.00178007
0.00161697
0.00147901
0.00133693
0.00123
0.00113367
0.00104043
0.000963499
0.000893839
0.000833388
0.000777865
0.0007296
0.000686387
0.000648763
0.000615384
0.000585735
0.000559789
0.000535624
0.000515703
0.000496847
0.000482034
0.000468521
0.000455734
0.000445061
0.000434899
0.000426782
0.00041911
0.000412765
0.000406589
0.000401687
0.000396364
0.00039196
0.000389249
0.000386203
0.000383908
0.00038116
0.000379361
0.000377098
0.000375117
0.000373633
0.000372011
0.000370669
0.000370098
0.000369086
0.000367908
0.000366974
0.000366107
0.00036539
0.000364785
0.000363972
0.00036324
0.000362444
0.000361544
0.000360491
0.0003595
0.000358552
0.000357603
0.000356658
0.000355574
0.000354614
0.000353686
0.00035288
0.000351995
0.000351095
0.000350265
0.000349614
0.000349138
0.00034865
0.000348145
0.000347886
0.000347352
0.000346691
0.00034593
0.000345096
0.000344161
0.000343242
0.000342424
0.000341777
0.000341182
0.000340842
0.000340589
0.000340399
0.000340224
0.000340068
0.000339849
0.000339557
0.000339186
0.000338759
0.000338258
0.000337708
0.000337069
0.000336393
0.000335684
0.000335048
0.000334537
0.000334084
0.00033376
0.000333529
0.000333402
0.000333259
0.000333161
0.000333075
0.000333015
0.000332923
0.000332856
0.00033275
0.000332643
0.000332409
0.000332076
0.000331704
0.000331349
0.000331011
0.000330788
0.000330751
0.000330813
0.000330985
0.000331185
0.00033142
0.000331605
0.000331663
0.000331625
0.000331468
0.0003312
0.000330836
0.000330425
0.000330005
0.000329626
0.000329331
0.000329117
0.000329024
0.000329021
0.000329163
0.000329377
0.000329605
0.000329797
0.000329936
0.000330043
0.000330107
0.000330109
0.000330042
0.000329934
0.000329819
0.00032972
0.000329626
0.000329523
0.00032951
0.000329558
0.000329563
0.000329495
0.000329391
0.000329275
0.000329171
0.000329085
0.000329037
0.000329028
0.000329082
0.000329162
0.000329265
0.000329359
0.000329423
0.000329442
0.000329407
0.000329305
0.000329139
0.000328905
0.000328661
0.000328468
0.000328416
0.000328552
0.000328762
0.000328976
0.000329196
0.000329371
0.000329505
0.000329541
0.0003295
0.000329425
0.000329232
0.000329504
0.000329654
0.000330088
0.000330474
0.000330828
0.0003312
0.00033157
0.000331888
0.000332382
0.000332796
0.000333311
0.000334224
0.0096775
0.00982473
0.00979446
0.00982007
0.00984709
0.00990716
0.00999932
0.0101134
0.010262
0.0104224
0.010582
0.0107269
0.0108572
0.0109699
0.0110651
0.0111413
0.0111974
0.0112337
0.0112491
0.0112405
0.0112069
0.0111486
0.0110626
0.0109432
0.0107915
0.010595
0.0103675
0.0100905
0.00978717
0.00943017
0.0090629
0.00864598
0.00823519
0.00776906
0.00731837
0.00682869
0.0063731
0.00587799
0.00542229
0.00495373
0.00453093
0.00410197
0.0037251
0.00335682
0.00304046
0.00271613
0.00246143
0.00221426
0.00200867
0.00179045
0.00162701
0.00147059
0.00134322
0.00121067
0.00110398
0.00101698
0.000933539
0.000863681
0.000800278
0.000745899
0.0006963
0.000653283
0.000614701
0.000581103
0.00055153
0.000525447
0.000502647
0.000481734
0.000464226
0.00044768
0.000435186
0.000423
0.000411981
0.000402861
0.000393982
0.000387489
0.000380678
0.000375586
0.000369902
0.000366389
0.000361394
0.000358057
0.000356701
0.000353845
0.000352692
0.000350313
0.000349353
0.000347482
0.000346323
0.000345586
0.000344519
0.000343915
0.000343912
0.000343303
0.000342727
0.00034255
0.000342389
0.000342303
0.00034209
0.000341733
0.000341499
0.000341217
0.000340777
0.000340178
0.000339676
0.000339218
0.00033867
0.000338062
0.000337257
0.000336684
0.00033615
0.000335703
0.000335102
0.000334483
0.000334014
0.000333761
0.000333639
0.00033342
0.000333082
0.000332928
0.000332517
0.000332036
0.000331491
0.0003309
0.000330248
0.000329654
0.000329087
0.00032864
0.000328233
0.000328083
0.000327997
0.00032795
0.000327916
0.00032789
0.000327811
0.000327662
0.000327426
0.000327122
0.000326745
0.000326322
0.000325806
0.000325268
0.000324707
0.000324251
0.000323913
0.000323622
0.000323452
0.000323364
0.000323345
0.000323288
0.000323236
0.000323184
0.000323153
0.000323089
0.000323106
0.000323061
0.000323068
0.000322984
0.000322774
0.000322533
0.000322304
0.000322076
0.000321934
0.000321954
0.000322057
0.000322255
0.000322481
0.000322745
0.000322969
0.00032308
0.000323094
0.000322999
0.000322801
0.00032251
0.000322187
0.000321853
0.000321543
0.000321306
0.000321145
0.000321116
0.00032115
0.000321314
0.000321556
0.000321808
0.000322022
0.00032219
0.000322329
0.000322432
0.000322489
0.000322491
0.000322445
0.000322384
0.000322322
0.000322264
0.000322187
0.000322172
0.000322232
0.000322251
0.000322204
0.000322134
0.000322063
0.000322006
0.000321962
0.000321952
0.000321974
0.00032205
0.000322148
0.000322264
0.000322369
0.000322443
0.000322473
0.000322454
0.000322375
0.000322237
0.00032204
0.000321841
0.000321681
0.000321655
0.000321815
0.000322048
0.000322283
0.000322523
0.000322722
0.000322883
0.000322954
0.000322947
0.000322902
0.000322738
0.00032304
0.000323226
0.000323672
0.000324085
0.000324473
0.000324869
0.000325264
0.00032561
0.000326127
0.000326573
0.000327111
0.000328051
0.00962347
0.009772
0.00973767
0.00977563
0.00983917
0.00992674
0.0100428
0.0101749
0.0103404
0.0105055
0.0106629
0.010804
0.0109298
0.0110386
0.0111301
0.0112038
0.0112591
0.0112968
0.0113145
0.0113085
0.0112783
0.0112234
0.0111418
0.0110245
0.010876
0.0106766
0.0104475
0.0101653
0.0098626
0.00949114
0.0091139
0.00867202
0.00823982
0.0077431
0.00726784
0.00674772
0.00626452
0.00574108
0.00526119
0.00477632
0.00433502
0.00388463
0.00351638
0.00314329
0.00283873
0.00250985
0.00226637
0.00202533
0.00183631
0.00163065
0.00147552
0.00132789
0.00121337
0.00109804
0.000994951
0.000916358
0.000843764
0.000782221
0.000725872
0.000677579
0.000633461
0.000595744
0.00056089
0.000531072
0.000504639
0.00048103
0.00046107
0.000442296
0.000427166
0.000412258
0.000401238
0.000389846
0.000379457
0.000371623
0.000363142
0.000357991
0.000351341
0.000346898
0.000341347
0.000338311
0.000333322
0.000330981
0.000329832
0.000326889
0.000326201
0.000324152
0.000323235
0.000321707
0.000320869
0.000320351
0.000319582
0.000319629
0.000319548
0.000319096
0.000319082
0.000319303
0.000319665
0.000319959
0.000320037
0.000319994
0.000320186
0.000320293
0.000320257
0.000320113
0.000320086
0.000320029
0.000319853
0.000319537
0.000319075
0.000318903
0.000318695
0.000318552
0.00031824
0.000317901
0.00031783
0.000317983
0.000318141
0.000318179
0.00031803
0.000317922
0.00031768
0.000317394
0.000317056
0.000316738
0.00031639
0.000316088
0.000315778
0.000315548
0.000315343
0.000315401
0.000315454
0.000315554
0.000315651
0.000315761
0.000315821
0.000315811
0.000315721
0.000315554
0.000315309
0.000315016
0.000314615
0.00031424
0.000313858
0.000313576
0.000313427
0.000313303
0.000313311
0.000313359
0.000313434
0.000313468
0.000313473
0.00031346
0.000313461
0.000313435
0.000313529
0.000313542
0.000313687
0.000313734
0.000313676
0.000313572
0.000313475
0.000313369
0.000313341
0.00031341
0.000313559
0.000313785
0.000314039
0.000314334
0.000314597
0.000314763
0.000314837
0.000314808
0.000314683
0.000314482
0.000314249
0.000314006
0.000313779
0.000313613
0.000313512
0.000313541
0.000313625
0.000313819
0.000314089
0.000314369
0.00031461
0.000314811
0.000314986
0.000315133
0.00031525
0.000315324
0.000315347
0.000315347
0.000315326
0.000315308
0.000315261
0.000315254
0.000315323
0.000315355
0.000315335
0.000315308
0.000315285
0.000315281
0.000315284
0.000315318
0.000315375
0.000315478
0.000315597
0.00031573
0.000315848
0.000315934
0.000315977
0.000315975
0.000315919
0.000315811
0.000315653
0.000315502
0.000315377
0.000315377
0.000315561
0.000315817
0.000316072
0.00031633
0.000316552
0.000316739
0.000316844
0.000316871
0.000316856
0.00031672
0.000317048
0.00031727
0.000317725
0.000318162
0.000318581
0.000319
0.000319417
0.000319792
0.000320332
0.000320809
0.00032137
0.000322339
0.00959453
0.00971062
0.00970262
0.00975762
0.00984057
0.00995397
0.0100833
0.0102382
0.0104104
0.010578
0.0107316
0.0108689
0.0109908
0.0110963
0.0111849
0.0112571
0.0113127
0.0113522
0.0113708
0.0113683
0.0113414
0.0112887
0.011211
0.0110935
0.0109466
0.0107427
0.0105151
0.0102224
0.00991345
0.00951432
0.00911381
0.00863934
0.00817853
0.00764509
0.00713943
0.00658981
0.00607104
0.00552079
0.00502527
0.00453065
0.0040986
0.00362583
0.0032753
0.00290485
0.00262303
0.00230616
0.00207631
0.0018465
0.00168005
0.0014983
0.00135443
0.00121695
0.00111119
0.00101254
0.000917998
0.000845364
0.0007798
0.000726878
0.00067671
0.000632571
0.000594746
0.000559057
0.000529677
0.00050008
0.000477986
0.000454063
0.000437143
0.000418343
0.000405654
0.000391004
0.00038105
0.000369977
0.000360296
0.000351979
0.000343992
0.000339267
0.000332352
0.000328279
0.00032273
0.000319541
0.000314622
0.000312948
0.000310954
0.000307867
0.000307175
0.000305115
0.000303917
0.000302313
0.000301642
0.00030078
0.000299931
0.00030006
0.00029966
0.000299033
0.000299278
0.00029947
0.000299971
0.000300338
0.000300417
0.000300454
0.000300798
0.00030108
0.000301246
0.000301377
0.000301666
0.000301888
0.000301955
0.000301868
0.000301681
0.000301813
0.000301888
0.000301968
0.000301889
0.000301867
0.000302135
0.000302596
0.000302995
0.000303242
0.00030325
0.000303203
0.000303069