/*--------------------------------*- C++ -*----------------------------------*\
| =========                 |                                                 |
| \\      /  F ield         | OpenFOAM: The Open Source CFD Toolbox           |
|  \\    /   O peration     | Version:  2312                                  |
|   \\  /    A nd           | Website:  www.openfoam.com                      |
|    \\/     M anipulation  |                                                 |
\*---------------------------------------------------------------------------*/
FoamFile
{
    version     2.0;
    format      ascii;
    arch        "LSB;label=32;scalar=64";
    class       volScalarField;
    location    "0.001";
    object      thermo:psiLiqEff;
}
// * * * * * * * * * * * * * * * * * * * * * * * * * * * * * * * * * * * * * //

dimensions      [-2 4 2 0 0 0 0];

internalField   nonuniform List<scalar> 
48128
(
3.98646e-13
3.98505e-13
3.99165e-13
3.99439e-13
3.99478e-13
3.99609e-13
3.99709e-13
3.99889e-13
4.00317e-13
4.02505e-13
4.05288e-13
4.07089e-13
4.0855e-13
4.09787e-13
4.1188e-13
4.13699e-13
4.15438e-13
4.17033e-13
4.18502e-13
4.19817e-13
4.21125e-13
4.22367e-13
4.23527e-13
4.24592e-13
4.25548e-13
4.26384e-13
4.27065e-13
4.27549e-13
4.27846e-13
4.27984e-13
4.28e-13
4.27666e-13
4.27244e-13
4.2654e-13
4.25749e-13
4.24705e-13
4.23615e-13
4.22325e-13
4.21036e-13
4.19654e-13
4.18275e-13
4.16923e-13
4.15585e-13
4.14345e-13
4.13202e-13
4.12164e-13
4.11252e-13
4.10466e-13
4.09892e-13
4.094e-13
4.09083e-13
4.08862e-13
4.08846e-13
4.0896e-13
4.09235e-13
4.09677e-13
4.10266e-13
4.10999e-13
4.11874e-13
4.12878e-13
4.13999e-13
4.15225e-13
4.16544e-13
4.17958e-13
4.19442e-13
4.2101e-13
4.22626e-13
4.24307e-13
4.2608e-13
4.27896e-13
4.29824e-13
4.31757e-13
4.3376e-13
4.35741e-13
4.37748e-13
4.3979e-13
4.4182e-13
4.4388e-13
4.45915e-13
4.47907e-13
4.49868e-13
4.51751e-13
4.53671e-13
4.55578e-13
4.57456e-13
4.59256e-13
4.61007e-13
4.62699e-13
4.6426e-13
4.658e-13
4.67249e-13
4.687e-13
4.70133e-13
4.71574e-13
4.72878e-13
4.74051e-13
4.75186e-13
4.76348e-13
4.77513e-13
4.78663e-13
4.79696e-13
4.80626e-13
4.81491e-13
4.82304e-13
4.83057e-13
4.83761e-13
4.84464e-13
4.85188e-13
4.85847e-13
4.86438e-13
4.86996e-13
4.87572e-13
4.88144e-13
4.88687e-13
4.89179e-13
4.89626e-13
4.90081e-13
4.90562e-13
4.91061e-13
4.91613e-13
4.91974e-13
4.92284e-13
4.92612e-13
4.92704e-13
4.92815e-13
4.92953e-13
4.93124e-13
4.93332e-13
4.93569e-13
4.93826e-13
4.941e-13
4.94382e-13
4.94668e-13
4.94915e-13
4.95125e-13
4.95283e-13
4.95409e-13
4.95493e-13
4.95553e-13
4.95553e-13
4.95524e-13
4.95475e-13
4.95406e-13
4.95324e-13
4.95242e-13
4.95178e-13
4.9513e-13
4.95094e-13
4.95082e-13
4.95097e-13
4.95129e-13
4.95176e-13
4.95226e-13
4.95259e-13
4.95258e-13
4.95215e-13
4.95183e-13
4.95077e-13
4.94923e-13
4.94762e-13
4.94604e-13
4.94485e-13
4.94383e-13
4.94328e-13
4.94302e-13
4.94308e-13
4.94305e-13
4.94287e-13
4.94244e-13
4.94179e-13
4.94076e-13
4.9394e-13
4.93775e-13
4.93585e-13
4.93379e-13
4.93175e-13
4.92997e-13
4.92856e-13
4.92724e-13
4.92634e-13
4.92531e-13
4.92543e-13
4.92528e-13
4.92509e-13
4.92478e-13
4.9243e-13
4.92364e-13
4.92277e-13
4.9216e-13
4.92023e-13
4.9189e-13
4.91759e-13
4.91639e-13
4.91519e-13
4.9141e-13
4.91338e-13
4.9125e-13
4.91151e-13
4.91039e-13
4.90909e-13
4.90765e-13
4.90625e-13
4.90489e-13
4.90357e-13
4.9024e-13
4.90128e-13
4.90019e-13
4.89911e-13
4.89797e-13
4.89675e-13
4.89544e-13
4.89407e-13
4.89264e-13
4.89123e-13
4.88979e-13
4.88854e-13
4.8877e-13
4.88739e-13
4.88746e-13
4.88758e-13
4.88755e-13
4.88743e-13
4.887e-13
4.8863e-13
4.88512e-13
4.88377e-13
4.88228e-13
4.88061e-13
4.87991e-13
4.87897e-13
4.8784e-13
4.87732e-13
4.87579e-13
4.87396e-13
4.87166e-13
4.8688e-13
4.86566e-13
4.862e-13
4.85809e-13
4.85161e-13
3.99425e-13
3.99221e-13
3.99712e-13
3.99994e-13
3.99911e-13
3.99764e-13
3.99485e-13
3.99755e-13
4.01553e-13
4.04952e-13
4.08265e-13
4.11182e-13
4.14347e-13
4.17604e-13
4.20218e-13
4.22531e-13
4.2457e-13
4.26278e-13
4.2772e-13
4.28881e-13
4.29934e-13
4.30834e-13
4.31569e-13
4.32132e-13
4.32509e-13
4.32699e-13
4.32746e-13
4.3259e-13
4.32198e-13
4.31621e-13
4.30832e-13
4.29846e-13
4.28726e-13
4.27409e-13
4.2602e-13
4.24478e-13
4.22898e-13
4.21231e-13
4.19569e-13
4.17949e-13
4.16387e-13
4.14926e-13
4.13574e-13
4.12387e-13
4.1139e-13
4.10568e-13
4.09953e-13
4.09522e-13
4.09353e-13
4.09357e-13
4.09616e-13
4.10033e-13
4.1067e-13
4.11478e-13
4.12531e-13
4.13772e-13
4.15219e-13
4.16857e-13
4.18679e-13
4.20656e-13
4.2278e-13
4.25036e-13
4.27419e-13
4.29913e-13
4.32493e-13
4.35184e-13
4.37912e-13
4.40698e-13
4.43566e-13
4.46444e-13
4.4945e-13
4.52422e-13
4.55458e-13
4.58446e-13
4.61429e-13
4.64415e-13
4.67393e-13
4.70373e-13
4.73316e-13
4.76237e-13
4.79056e-13
4.8182e-13
4.84618e-13
4.87408e-13
4.90159e-13
4.92819e-13
4.95433e-13
4.97951e-13
5.00323e-13
5.02651e-13
5.04852e-13
5.07033e-13
5.09196e-13
5.11369e-13
5.13385e-13
5.15237e-13
5.17041e-13
5.18871e-13
5.20708e-13
5.2253e-13
5.24228e-13
5.25804e-13
5.27309e-13
5.28743e-13
5.30089e-13
5.31368e-13
5.32608e-13
5.33873e-13
5.35052e-13
5.3613e-13
5.37164e-13
5.38216e-13
5.39268e-13
5.40291e-13
5.41262e-13
5.42186e-13
5.43117e-13
5.44076e-13
5.45051e-13
5.46087e-13
5.46931e-13
5.47666e-13
5.48432e-13
5.48877e-13
5.49318e-13
5.4977e-13
5.50242e-13
5.50742e-13
5.51274e-13
5.51831e-13
5.52413e-13
5.53012e-13
5.53622e-13
5.542e-13
5.54738e-13
5.55221e-13
5.55651e-13
5.56025e-13
5.56362e-13
5.56668e-13
5.56921e-13
5.57143e-13
5.57339e-13
5.57508e-13
5.57678e-13
5.57856e-13
5.58041e-13
5.58235e-13
5.58445e-13
5.58675e-13
5.58913e-13
5.59158e-13
5.59409e-13
5.59636e-13
5.59881e-13
5.60037e-13
5.60264e-13
5.60356e-13
5.60363e-13
5.60374e-13
5.60387e-13
5.60416e-13
5.60467e-13
5.60539e-13
5.6063e-13
5.60751e-13
5.60857e-13
5.60965e-13
5.61017e-13
5.61061e-13
5.61041e-13
5.60989e-13
5.60898e-13
5.60768e-13
5.6061e-13
5.60445e-13
5.60294e-13
5.60178e-13
5.60056e-13
5.59968e-13
5.59853e-13
5.59868e-13
5.59851e-13
5.59825e-13
5.59782e-13
5.59722e-13
5.59644e-13
5.59545e-13
5.5941e-13
5.59246e-13
5.59075e-13
5.58901e-13
5.58718e-13
5.58529e-13
5.58327e-13
5.58162e-13
5.57977e-13
5.57774e-13
5.57554e-13
5.57311e-13
5.57052e-13
5.56793e-13
5.56532e-13
5.56268e-13
5.56e-13
5.55721e-13
5.55426e-13
5.55111e-13
5.54773e-13
5.54408e-13
5.54019e-13
5.53611e-13
5.53187e-13
5.52753e-13
5.5231e-13
5.5188e-13
5.51515e-13
5.51196e-13
5.50949e-13
5.50703e-13
5.50452e-13
5.50192e-13
5.49904e-13
5.49584e-13
5.49209e-13
5.48794e-13
5.48375e-13
5.47931e-13
5.47642e-13
5.47321e-13
5.47093e-13
5.46821e-13
5.46512e-13
5.46176e-13
5.45802e-13
5.45375e-13
5.4493e-13
5.44433e-13
5.43911e-13
5.43072e-13
3.99686e-13
3.99703e-13
4.00078e-13
4.00201e-13
3.99934e-13
3.99471e-13
3.99791e-13
4.02006e-13
4.06101e-13
4.10101e-13
4.13441e-13
4.16148e-13
4.18114e-13
4.19872e-13
4.21658e-13
4.23138e-13
4.24436e-13
4.2557e-13
4.26485e-13
4.27214e-13
4.27858e-13
4.28373e-13
4.2875e-13
4.2898e-13
4.29055e-13
4.29018e-13
4.28773e-13
4.28347e-13
4.27743e-13
4.26964e-13
4.26037e-13
4.24957e-13
4.23776e-13
4.22462e-13
4.21102e-13
4.19655e-13
4.18203e-13
4.16741e-13
4.15316e-13
4.13978e-13
4.12761e-13
4.11681e-13
4.10771e-13
4.10048e-13
4.09572e-13
4.09299e-13
4.09292e-13
4.09488e-13
4.09976e-13
4.1066e-13
4.11636e-13
4.12795e-13
4.14182e-13
4.15774e-13
4.17644e-13
4.19684e-13
4.21944e-13
4.24393e-13
4.27027e-13
4.29796e-13
4.32701e-13
4.35721e-13
4.38858e-13
4.42105e-13
4.45411e-13
4.48827e-13
4.52242e-13
4.55694e-13
4.59214e-13
4.62718e-13
4.66347e-13
4.69909e-13
4.73497e-13
4.77007e-13
4.80484e-13
4.8391e-13
4.87319e-13
4.90693e-13
4.94025e-13
4.97332e-13
5.00482e-13
5.03606e-13
5.06751e-13
5.09879e-13
5.12954e-13
5.15932e-13
5.1886e-13
5.2167e-13
5.24329e-13
5.26929e-13
5.29388e-13
5.31804e-13
5.34196e-13
5.36592e-13
5.38812e-13
5.40866e-13
5.42876e-13
5.44912e-13
5.46959e-13
5.4898e-13
5.50878e-13
5.5266e-13
5.54378e-13
5.56024e-13
5.5757e-13
5.59058e-13
5.60485e-13
5.61936e-13
5.63285e-13
5.64518e-13
5.65708e-13
5.66916e-13
5.68119e-13
5.69296e-13
5.70421e-13
5.7152e-13
5.72633e-13
5.73774e-13
5.7493e-13
5.76142e-13
5.77179e-13
5.78075e-13
5.79003e-13
5.79609e-13
5.80184e-13
5.80767e-13
5.81365e-13
5.81984e-13
5.8263e-13
5.833e-13
5.83998e-13
5.84716e-13
5.85446e-13
5.86157e-13
5.8683e-13
5.87452e-13
5.88019e-13
5.8853e-13
5.88993e-13
5.89417e-13
5.89784e-13
5.90114e-13
5.90414e-13
5.90688e-13
5.9096e-13
5.91239e-13
5.91521e-13
5.91809e-13
5.9211e-13
5.92426e-13
5.9275e-13
5.93078e-13
5.93413e-13
5.93719e-13
5.94045e-13
5.94284e-13
5.946e-13
5.94789e-13
5.94884e-13
5.94979e-13
5.95073e-13
5.95179e-13
5.95303e-13
5.95444e-13
5.95599e-13
5.95781e-13
5.95958e-13
5.96131e-13
5.96249e-13
5.96363e-13
5.96404e-13
5.96397e-13
5.96353e-13
5.9627e-13
5.96155e-13
5.96029e-13
5.95916e-13
5.95826e-13
5.95738e-13
5.95663e-13
5.95566e-13
5.95576e-13
5.9556e-13
5.95529e-13
5.95476e-13
5.95405e-13
5.95313e-13
5.95203e-13
5.95059e-13
5.9489e-13
5.94718e-13
5.94545e-13
5.94363e-13
5.9417e-13
5.93969e-13
5.93781e-13
5.93568e-13
5.93328e-13
5.93061e-13
5.92766e-13
5.92447e-13
5.92126e-13
5.91803e-13
5.91476e-13
5.91143e-13
5.90798e-13
5.9043e-13
5.90035e-13
5.89607e-13
5.89141e-13
5.88639e-13
5.88107e-13
5.87547e-13
5.86967e-13
5.8637e-13
5.85769e-13
5.85231e-13
5.84731e-13
5.84302e-13
5.83887e-13
5.83469e-13
5.83046e-13
5.826e-13
5.82128e-13
5.81606e-13
5.81047e-13
5.80471e-13
5.79853e-13
5.79393e-13
5.78892e-13
5.78514e-13
5.781e-13
5.77662e-13
5.7721e-13
5.76731e-13
5.76207e-13
5.75672e-13
5.75087e-13
5.74482e-13
5.73526e-13
3.99834e-13
3.99997e-13
4.00199e-13
4.00149e-13
3.99638e-13
3.99945e-13
4.022e-13
4.06546e-13
4.10713e-13
4.13689e-13
4.1574e-13
4.17223e-13
4.18365e-13
4.19378e-13
4.20538e-13
4.21566e-13
4.2245e-13
4.23218e-13
4.23819e-13
4.24292e-13
4.24701e-13
4.25005e-13
4.25194e-13
4.25251e-13
4.25202e-13
4.24989e-13
4.24618e-13
4.24084e-13
4.23407e-13
4.22582e-13
4.21644e-13
4.20589e-13
4.19466e-13
4.18251e-13
4.17013e-13
4.15756e-13
4.1453e-13
4.13345e-13
4.12239e-13
4.11258e-13
4.1046e-13
4.09838e-13
4.09445e-13
4.09265e-13
4.09398e-13
4.09767e-13
4.10474e-13
4.11405e-13
4.12664e-13
4.14154e-13
4.1598e-13
4.18017e-13
4.20283e-13
4.22795e-13
4.25616e-13
4.28566e-13
4.31765e-13
4.35132e-13
4.38682e-13
4.42323e-13
4.46083e-13
4.49926e-13
4.53866e-13
4.57904e-13
4.61951e-13
4.66104e-13
4.70183e-13
4.74271e-13
4.7837e-13
4.82404e-13
4.86561e-13
4.90581e-13
4.94599e-13
4.9847e-13
5.02277e-13
5.05971e-13
5.09634e-13
5.13214e-13
5.16743e-13
5.20241e-13
5.23537e-13
5.26834e-13
5.30144e-13
5.33422e-13
5.36615e-13
5.39682e-13
5.42697e-13
5.45564e-13
5.48286e-13
5.50938e-13
5.53435e-13
5.55875e-13
5.58291e-13
5.60693e-13
5.62887e-13
5.64926e-13
5.66929e-13
5.68953e-13
5.70996e-13
5.72997e-13
5.74884e-13
5.76668e-13
5.78399e-13
5.80055e-13
5.8161e-13
5.83121e-13
5.84559e-13
5.86019e-13
5.87363e-13
5.88583e-13
5.89768e-13
5.90965e-13
5.92152e-13
5.93311e-13
5.94423e-13
5.95535e-13
5.96668e-13
5.97828e-13
5.99009e-13
6.00245e-13
6.01327e-13
6.02243e-13
6.03192e-13
6.0384e-13
6.04427e-13
6.05021e-13
6.05625e-13
6.06247e-13
6.06891e-13
6.07561e-13
6.0826e-13
6.08981e-13
6.09715e-13
6.10445e-13
6.11144e-13
6.11797e-13
6.12396e-13
6.12941e-13
6.13434e-13
6.13883e-13
6.14273e-13
6.14623e-13
6.14939e-13
6.15237e-13
6.15535e-13
6.15839e-13
6.16143e-13
6.16451e-13
6.16768e-13
6.17094e-13
6.17423e-13
6.17753e-13
6.18087e-13
6.184e-13
6.18732e-13
6.18989e-13
6.19321e-13
6.19542e-13
6.19675e-13
6.19807e-13
6.19926e-13
6.20053e-13
6.20197e-13
6.20355e-13
6.20519e-13
6.20711e-13
6.20902e-13
6.2109e-13
6.21221e-13
6.21359e-13
6.21423e-13
6.2143e-13
6.21401e-13
6.21333e-13
6.21232e-13
6.21121e-13
6.21023e-13
6.2094e-13
6.20871e-13
6.20803e-13
6.20721e-13
6.20727e-13
6.20707e-13
6.20666e-13
6.20596e-13
6.20504e-13
6.20388e-13
6.20253e-13
6.20088e-13
6.19899e-13
6.19715e-13
6.19531e-13
6.19345e-13
6.19146e-13
6.18945e-13
6.18745e-13
6.18521e-13
6.18264e-13
6.1797e-13
6.17645e-13
6.17293e-13
6.16934e-13
6.16572e-13
6.16205e-13
6.15833e-13
6.15446e-13
6.15035e-13
6.14592e-13
6.14108e-13
6.1358e-13
6.13007e-13
6.12396e-13
6.1175e-13
6.11075e-13
6.10378e-13
6.09671e-13
6.09017e-13
6.08399e-13
6.07846e-13
6.07306e-13
6.06763e-13
6.06217e-13
6.0565e-13
6.0506e-13
6.04424e-13
6.03753e-13
6.03062e-13
6.02322e-13
6.01735e-13
6.01102e-13
6.00599e-13
6.00065e-13
5.99515e-13
5.98959e-13
5.98385e-13
5.97777e-13
5.97165e-13
5.9651e-13
5.95837e-13
5.94791e-13
3.99936e-13
4.00092e-13
4.00009e-13
3.99946e-13
4.00114e-13
4.02113e-13
4.06311e-13
4.10392e-13
4.13155e-13
4.14916e-13
4.16077e-13
4.16843e-13
4.17554e-13
4.18143e-13
4.18883e-13
4.19541e-13
4.20125e-13
4.20648e-13
4.21046e-13
4.21352e-13
4.21608e-13
4.21776e-13
4.21834e-13
4.218e-13
4.21638e-13
4.2133e-13
4.20887e-13
4.20302e-13
4.19599e-13
4.18768e-13
4.17855e-13
4.16862e-13
4.15837e-13
4.1477e-13
4.13716e-13
4.12702e-13
4.11781e-13
4.10953e-13
4.10268e-13
4.09747e-13
4.09483e-13
4.09447e-13
4.09737e-13
4.10274e-13
4.11215e-13
4.12442e-13
4.14096e-13
4.1603e-13
4.18333e-13
4.2093e-13
4.23922e-13
4.27156e-13
4.30616e-13
4.34356e-13
4.38447e-13
4.42605e-13
4.47038e-13
4.51598e-13
4.56314e-13
4.61059e-13
4.65867e-13
4.70714e-13
4.75585e-13
4.80555e-13
4.85419e-13
4.90397e-13
4.95153e-13
4.99893e-13
5.04525e-13
5.09008e-13
5.13617e-13
5.17961e-13
5.22265e-13
5.26332e-13
5.30328e-13
5.34127e-13
5.37886e-13
5.41495e-13
5.45035e-13
5.48539e-13
5.51783e-13
5.55063e-13
5.5834e-13
5.61573e-13
5.64682e-13
5.67623e-13
5.70529e-13
5.73257e-13
5.75862e-13
5.7839e-13
5.80757e-13
5.8306e-13
5.85345e-13
5.87571e-13
5.89557e-13
5.91422e-13
5.93251e-13
5.95103e-13
5.96983e-13
5.98801e-13
6.00526e-13
6.02169e-13
6.03768e-13
6.05285e-13
6.06712e-13
6.08113e-13
6.09433e-13
6.10773e-13
6.11982e-13
6.13077e-13
6.14144e-13
6.15208e-13
6.16262e-13
6.17279e-13
6.18271e-13
6.1928e-13
6.20317e-13
6.21375e-13
6.22468e-13
6.23618e-13
6.24642e-13
6.25485e-13
6.26357e-13
6.26972e-13
6.27493e-13
6.28019e-13
6.28549e-13
6.29091e-13
6.29651e-13
6.30238e-13
6.30855e-13
6.31497e-13
6.32154e-13
6.32823e-13
6.3347e-13
6.3408e-13
6.3464e-13
6.35149e-13
6.35601e-13
6.36015e-13
6.36362e-13
6.36671e-13
6.36943e-13
6.3721e-13
6.3748e-13
6.37755e-13
6.38032e-13
6.38311e-13
6.38594e-13
6.38878e-13
6.39163e-13
6.39439e-13
6.39717e-13
6.39986e-13
6.40269e-13
6.40495e-13
6.40796e-13
6.41005e-13
6.4114e-13
6.41271e-13
6.41377e-13
6.41489e-13
6.41616e-13
6.41759e-13
6.41893e-13
6.42057e-13
6.42221e-13
6.42382e-13
6.42492e-13
6.4261e-13
6.42659e-13
6.42655e-13
6.42616e-13
6.42536e-13
6.42424e-13
6.42302e-13
6.42193e-13
6.42096e-13
6.4202e-13
6.41945e-13
6.41865e-13
6.41857e-13
6.41824e-13
6.41764e-13
6.41669e-13
6.41547e-13
6.41397e-13
6.41226e-13
6.41026e-13
6.408e-13
6.40589e-13
6.40376e-13
6.40173e-13
6.39954e-13
6.39739e-13
6.3952e-13
6.39282e-13
6.39007e-13
6.3869e-13
6.38338e-13
6.37958e-13
6.37568e-13
6.37173e-13
6.36773e-13
6.36367e-13
6.35946e-13
6.35499e-13
6.35018e-13
6.34491e-13
6.33912e-13
6.33282e-13
6.32607e-13
6.31891e-13
6.31142e-13
6.30366e-13
6.29577e-13
6.28833e-13
6.28124e-13
6.27476e-13
6.26835e-13
6.26189e-13
6.25539e-13
6.24868e-13
6.24175e-13
6.23438e-13
6.22666e-13
6.21873e-13
6.21029e-13
6.20336e-13
6.19593e-13
6.18977e-13
6.18333e-13
6.17676e-13
6.17019e-13
6.1635e-13
6.15653e-13
6.14965e-13
6.14239e-13
6.13498e-13
6.12362e-13
3.99912e-13
4.00056e-13
3.9983e-13
4.00373e-13
4.01759e-13
4.05509e-13
4.09572e-13
4.12349e-13
4.13996e-13
4.14949e-13
4.1557e-13
4.15966e-13
4.16351e-13
4.16666e-13
4.17104e-13
4.17503e-13
4.17879e-13
4.18226e-13
4.18477e-13
4.18655e-13
4.18786e-13
4.18839e-13
4.18815e-13
4.18687e-13
4.18443e-13
4.18069e-13
4.17581e-13
4.16971e-13
4.16271e-13
4.15469e-13
4.14619e-13
4.13736e-13
4.12865e-13
4.12018e-13
4.11239e-13
4.1056e-13
4.10061e-13
4.09723e-13
4.09631e-13
4.09763e-13
4.10275e-13
4.11075e-13
4.12351e-13
4.13959e-13
4.16085e-13
4.18595e-13
4.21649e-13
4.25105e-13
4.28988e-13
4.33258e-13
4.38018e-13
4.4303e-13
4.48339e-13
4.5374e-13
4.59667e-13
4.65679e-13
4.71728e-13
4.77987e-13
4.8423e-13
4.90522e-13
4.96602e-13
5.02766e-13
5.08699e-13
5.14828e-13
5.20524e-13
5.2645e-13
5.31819e-13
5.37171e-13
5.42198e-13
5.46952e-13
5.51822e-13
5.56237e-13
5.6055e-13
5.64503e-13
5.68439e-13
5.72046e-13
5.75624e-13
5.78932e-13
5.82169e-13
5.85353e-13
5.88188e-13
5.9113e-13
5.9402e-13
5.96868e-13
5.99588e-13
6.02115e-13
6.04635e-13
6.06942e-13
6.09181e-13
6.11342e-13
6.1335e-13
6.15298e-13
6.1723e-13
6.19042e-13
6.20617e-13
6.22129e-13
6.2361e-13
6.25112e-13
6.26652e-13
6.28111e-13
6.29517e-13
6.3086e-13
6.32175e-13
6.33393e-13
6.34555e-13
6.35706e-13
6.36775e-13
6.37863e-13
6.38805e-13
6.39662e-13
6.40499e-13
6.41316e-13
6.42116e-13
6.42875e-13
6.43644e-13
6.44436e-13
6.45259e-13
6.46101e-13
6.46995e-13
6.47953e-13
6.48812e-13
6.49493e-13
6.50197e-13
6.50702e-13
6.51095e-13
6.51476e-13
6.51857e-13
6.5224e-13
6.52641e-13
6.53067e-13
6.53522e-13
6.54007e-13
6.54513e-13
6.55041e-13
6.55561e-13
6.56059e-13
6.56512e-13
6.56918e-13
6.57268e-13
6.57586e-13
6.5783e-13
6.58043e-13
6.5822e-13
6.58406e-13
6.58594e-13
6.58793e-13
6.58997e-13
6.59205e-13
6.59412e-13
6.59608e-13
6.59797e-13
6.59975e-13
6.60152e-13
6.60324e-13
6.60515e-13
6.60662e-13
6.60893e-13
6.61059e-13
6.61153e-13
6.61245e-13
6.61307e-13
6.61374e-13
6.61452e-13
6.61555e-13
6.61615e-13
6.61727e-13
6.61825e-13
6.6192e-13
6.61974e-13
6.62041e-13
6.62033e-13
6.61996e-13
6.6192e-13
6.61803e-13
6.61653e-13
6.61494e-13
6.61348e-13
6.61213e-13
6.61105e-13
6.61e-13
6.60904e-13
6.60862e-13
6.608e-13
6.60708e-13
6.60576e-13
6.60413e-13
6.60216e-13
6.59995e-13
6.59746e-13
6.5947e-13
6.59215e-13
6.58955e-13
6.58718e-13
6.58463e-13
6.58216e-13
6.57966e-13
6.577e-13
6.57397e-13
6.57049e-13
6.56666e-13
6.56254e-13
6.55831e-13
6.55401e-13
6.54966e-13
6.54524e-13
6.54068e-13
6.53586e-13
6.53067e-13
6.52499e-13
6.51873e-13
6.51191e-13
6.50457e-13
6.49678e-13
6.48862e-13
6.48017e-13
6.47156e-13
6.46334e-13
6.45549e-13
6.44821e-13
6.44092e-13
6.43357e-13
6.42614e-13
6.41851e-13
6.41063e-13
6.40235e-13
6.3937e-13
6.38484e-13
6.37545e-13
6.36756e-13
6.35917e-13
6.35195e-13
6.34449e-13
6.33689e-13
6.32933e-13
6.32169e-13
6.31379e-13
6.30613e-13
6.29813e-13
6.29e-13
6.27771e-13
3.9975e-13
4.00144e-13
4.00225e-13
4.0157e-13
4.04348e-13
4.08447e-13
4.1138e-13
4.13097e-13
4.13993e-13
4.14504e-13
4.14765e-13
4.14888e-13
4.1503e-13
4.1516e-13
4.15389e-13
4.15608e-13
4.15823e-13
4.16023e-13
4.16155e-13
4.16218e-13
4.16247e-13
4.1622e-13
4.16113e-13
4.15914e-13
4.15617e-13
4.15205e-13
4.14701e-13
4.14101e-13
4.13445e-13
4.12724e-13
4.11999e-13
4.11298e-13
4.10674e-13
4.10149e-13
4.09784e-13
4.09598e-13
4.09719e-13
4.10105e-13
4.10913e-13
4.12056e-13
4.13778e-13
4.15961e-13
4.18832e-13
4.2222e-13
4.26255e-13
4.30839e-13
4.36133e-13
4.41968e-13
4.48348e-13
4.55028e-13
4.62415e-13
4.69949e-13
4.78166e-13
4.85616e-13
4.94018e-13
5.02975e-13
5.10972e-13
5.19633e-13
5.27705e-13
5.36206e-13
5.43699e-13
5.51668e-13
5.58737e-13
5.66262e-13
5.7277e-13
5.79678e-13
5.85552e-13
5.91434e-13
5.96608e-13
6.01484e-13
6.06227e-13
6.10414e-13
6.14358e-13
6.17787e-13
6.21213e-13
6.24145e-13
6.27028e-13
6.29511e-13
6.31904e-13
6.34253e-13
6.36098e-13
6.38172e-13
6.40192e-13
6.42096e-13
6.44008e-13
6.45626e-13
6.47358e-13
6.48788e-13
6.50276e-13
6.51719e-13
6.52986e-13
6.54221e-13
6.55518e-13
6.56598e-13
6.57517e-13
6.5844e-13
6.59348e-13
6.60265e-13
6.61261e-13
6.62132e-13
6.63017e-13
6.63864e-13
6.64719e-13
6.65462e-13
6.66204e-13
6.66954e-13
6.67621e-13
6.68315e-13
6.68837e-13
6.69338e-13
6.69808e-13
6.70268e-13
6.70682e-13
6.7107e-13
6.71499e-13
6.71958e-13
6.72457e-13
6.72977e-13
6.73543e-13
6.74202e-13
6.74782e-13
6.75214e-13
6.7567e-13
6.75969e-13
6.76175e-13
6.76343e-13
6.76508e-13
6.76657e-13
6.76817e-13
6.77008e-13
6.77221e-13
6.77476e-13
6.77756e-13
6.7807e-13
6.78387e-13
6.78702e-13
6.78982e-13
6.79219e-13
6.79406e-13
6.79565e-13
6.79655e-13
6.79717e-13
6.79751e-13
6.79797e-13
6.7985e-13
6.79926e-13
6.80011e-13
6.80103e-13
6.80194e-13
6.80252e-13
6.80295e-13
6.80331e-13
6.80358e-13
6.80386e-13
6.80442e-13
6.80465e-13
6.80593e-13
6.80684e-13
6.80683e-13
6.80696e-13
6.80693e-13
6.80686e-13
6.80676e-13
6.80706e-13
6.80658e-13
6.80702e-13
6.80689e-13
6.80678e-13
6.80649e-13
6.80617e-13
6.80542e-13
6.80434e-13
6.8029e-13
6.80108e-13
6.79896e-13
6.79674e-13
6.79465e-13
6.79265e-13
6.79094e-13
6.78939e-13
6.78801e-13
6.78701e-13
6.7859e-13
6.78447e-13
6.78263e-13
6.78043e-13
6.77786e-13
6.775e-13
6.77187e-13
6.76844e-13
6.76528e-13
6.76202e-13
6.75913e-13
6.75604e-13
6.75305e-13
6.75006e-13
6.74695e-13
6.74349e-13
6.73959e-13
6.73535e-13
6.73084e-13
6.72619e-13
6.72145e-13
6.71667e-13
6.71183e-13
6.70685e-13
6.70161e-13
6.696e-13
6.68987e-13
6.68313e-13
6.67577e-13
6.66785e-13
6.65944e-13
6.65061e-13
6.64148e-13
6.6322e-13
6.62324e-13
6.61466e-13
6.60664e-13
6.59858e-13
6.59041e-13
6.58213e-13
6.57363e-13
6.56488e-13
6.55574e-13
6.54622e-13
6.53647e-13
6.5262e-13
6.51741e-13
6.50814e-13
6.49991e-13
6.49147e-13
6.48289e-13
6.47435e-13
6.46576e-13
6.45692e-13
6.44845e-13
6.43968e-13
6.43081e-13
6.41752e-13
3.99599e-13
4.0053e-13
4.0111e-13
4.03379e-13
4.07003e-13
4.10177e-13
4.12128e-13
4.13138e-13
4.13628e-13
4.13797e-13
4.13827e-13
4.13764e-13
4.13741e-13
4.13736e-13
4.13804e-13
4.13886e-13
4.13973e-13
4.14046e-13
4.14078e-13
4.14059e-13
4.1401e-13
4.13911e-13
4.13746e-13
4.13503e-13
4.13182e-13
4.12768e-13
4.12291e-13
4.11752e-13
4.11201e-13
4.10639e-13
4.10133e-13
4.09721e-13
4.09493e-13
4.09451e-13
4.09727e-13
4.10313e-13
4.11448e-13
4.1304e-13
4.15363e-13
4.18261e-13
4.21992e-13
4.26478e-13
4.31883e-13
4.38056e-13
4.45041e-13
4.52645e-13
4.6124e-13
4.70444e-13
4.80634e-13
4.90283e-13
5.01149e-13
5.11981e-13
5.24199e-13
5.34119e-13
5.45541e-13
5.58438e-13
5.68769e-13
5.80423e-13
5.90657e-13
6.02054e-13
6.11111e-13
6.21106e-13
6.29209e-13
6.38015e-13
6.45129e-13
6.52669e-13
6.58786e-13
6.6481e-13
6.69782e-13
6.74424e-13
6.78553e-13
6.82182e-13
6.85192e-13
6.87872e-13
6.90188e-13
6.92252e-13
6.93795e-13
6.952e-13
6.96115e-13
6.97315e-13
6.97584e-13
6.98299e-13
6.99218e-13
6.99501e-13
7.00326e-13
7.00292e-13
7.00875e-13
7.00823e-13
7.00981e-13
7.01323e-13
7.01308e-13
7.01376e-13
7.01729e-13
7.01604e-13
7.01559e-13
7.01577e-13
7.01609e-13
7.0162e-13
7.01809e-13
7.01787e-13
7.01903e-13
7.02031e-13
7.02221e-13
7.02282e-13
7.02411e-13
7.02589e-13
7.0266e-13
7.02811e-13
7.02731e-13
7.0273e-13
7.02696e-13
7.02683e-13
7.02575e-13
7.02451e-13
7.02421e-13
7.02451e-13
7.02516e-13
7.02624e-13
7.02703e-13
7.02939e-13
7.03127e-13
7.03227e-13
7.03352e-13
7.03335e-13
7.03287e-13
7.03197e-13
7.03072e-13
7.02919e-13
7.02737e-13
7.02634e-13
7.02513e-13
7.0248e-13
7.02457e-13
7.02483e-13
7.02522e-13
7.0258e-13
7.02622e-13
7.02621e-13
7.02591e-13
7.02531e-13
7.02421e-13
7.02276e-13
7.02114e-13
7.01951e-13
7.01843e-13
7.01738e-13
7.01659e-13
7.01588e-13
7.01515e-13
7.01389e-13
7.01241e-13
7.0109e-13
7.00913e-13
7.00759e-13
7.00636e-13
7.00492e-13
7.00492e-13
7.00429e-13
7.00331e-13
7.00228e-13
7.0012e-13
7.00007e-13
6.99892e-13
6.998e-13
6.99633e-13
6.99541e-13
6.99382e-13
6.99247e-13
6.991e-13
6.98949e-13
6.98768e-13
6.98557e-13
6.98316e-13
6.98043e-13
6.97745e-13
6.97434e-13
6.97135e-13
6.96844e-13
6.96584e-13
6.96356e-13
6.96145e-13
6.95962e-13
6.9578e-13
6.95566e-13
6.9531e-13
6.95016e-13
6.94682e-13
6.94317e-13
6.93924e-13
6.93499e-13
6.93103e-13
6.92695e-13
6.92332e-13
6.9195e-13
6.91579e-13
6.91212e-13
6.90837e-13
6.90431e-13
6.89985e-13
6.89507e-13
6.89004e-13
6.88486e-13
6.87959e-13
6.87427e-13
6.86889e-13
6.86339e-13
6.85764e-13
6.85153e-13
6.84488e-13
6.83759e-13
6.82965e-13
6.82111e-13
6.81204e-13
6.80253e-13
6.7927e-13
6.78272e-13
6.77301e-13
6.76371e-13
6.75495e-13
6.74614e-13
6.73718e-13
6.72807e-13
6.71874e-13
6.70915e-13
6.69917e-13
6.68881e-13
6.67822e-13
6.66709e-13
6.65745e-13
6.64733e-13
6.63814e-13
6.62875e-13
6.61922e-13
6.6097e-13
6.60015e-13
6.59037e-13
6.58106e-13
6.57149e-13
6.56185e-13
6.54752e-13
3.99497e-13
4.01042e-13
4.02303e-13
4.05394e-13
4.0866e-13
4.10969e-13
4.12257e-13
4.1286e-13
4.1304e-13
4.13006e-13
4.12857e-13
4.12672e-13
4.12534e-13
4.12431e-13
4.12377e-13
4.12348e-13
4.1233e-13
4.1231e-13
4.12265e-13
4.12182e-13
4.12075e-13
4.11932e-13
4.11737e-13
4.11483e-13
4.11179e-13
4.10812e-13
4.1042e-13
4.10015e-13
4.09661e-13
4.09366e-13
4.09227e-13
4.09276e-13
4.09687e-13
4.10465e-13
4.11853e-13
4.13798e-13
4.16638e-13
4.20276e-13
4.25038e-13
4.30761e-13
4.37571e-13
4.45474e-13
4.54557e-13
4.64547e-13
4.75829e-13
4.87144e-13
5.00108e-13
5.13484e-13
5.29048e-13
5.41935e-13
5.56963e-13
5.71668e-13
5.88588e-13
6.02033e-13
6.1646e-13
6.3317e-13
6.45913e-13
6.60671e-13
6.72411e-13
6.85715e-13
6.95909e-13
7.06879e-13
7.15606e-13
7.24345e-13
7.31696e-13
7.38588e-13
7.4457e-13
7.49682e-13
7.54149e-13
7.57779e-13
7.60847e-13
7.63665e-13
7.65035e-13
7.67201e-13
7.67683e-13
7.69444e-13
7.6891e-13
7.69846e-13
7.68778e-13
7.69283e-13
7.67942e-13
7.6725e-13
7.67468e-13
7.65872e-13
7.65644e-13
7.64109e-13
7.63471e-13
7.62033e-13
7.60818e-13
7.59812e-13
7.58433e-13
7.57214e-13
7.5614e-13
7.54659e-13
7.53309e-13
7.52112e-13
7.50951e-13
7.4983e-13
7.4877e-13
7.47633e-13
7.467e-13
7.45877e-13
7.45091e-13
7.44273e-13
7.43583e-13
7.42964e-13
7.42289e-13
7.41626e-13
7.40868e-13
7.40205e-13
7.39526e-13
7.38873e-13
7.38128e-13
7.37388e-13
7.36753e-13
7.36236e-13
7.35764e-13
7.35348e-13
7.34843e-13
7.34523e-13
7.34198e-13
7.33872e-13
7.33551e-13
7.33196e-13
7.32782e-13
7.32334e-13
7.31846e-13
7.31327e-13
7.30754e-13
7.30269e-13
7.29756e-13
7.29333e-13
7.28928e-13
7.286e-13
7.28315e-13
7.28049e-13
7.27777e-13
7.2749e-13
7.27177e-13
7.26838e-13
7.26462e-13
7.26061e-13
7.25652e-13
7.25248e-13
7.24915e-13
7.24585e-13
7.24291e-13
7.24011e-13
7.23722e-13
7.23369e-13
7.2299e-13
7.22603e-13
7.22193e-13
7.21804e-13
7.21453e-13
7.21112e-13
7.20921e-13
7.20702e-13
7.20453e-13
7.20204e-13
7.19952e-13
7.19698e-13
7.19446e-13
7.19193e-13
7.18892e-13
7.18622e-13
7.18299e-13
7.18002e-13
7.17703e-13
7.174e-13
7.1708e-13
7.16739e-13
7.16374e-13
7.15983e-13
7.15574e-13
7.15152e-13
7.14737e-13
7.14331e-13
7.13955e-13
7.13628e-13
7.13317e-13
7.13023e-13
7.12749e-13
7.12441e-13
7.12092e-13
7.11705e-13
7.11277e-13
7.10816e-13
7.10328e-13
7.09807e-13
7.09313e-13
7.08806e-13
7.08347e-13
7.07875e-13
7.07411e-13
7.06954e-13
7.06496e-13
7.06012e-13
7.05494e-13
7.04949e-13
7.04382e-13
7.03799e-13
7.03205e-13
7.02606e-13
7.02003e-13
7.01389e-13
7.00751e-13
7.00078e-13
6.99351e-13
6.98559e-13
6.97699e-13
6.96776e-13
6.95798e-13
6.94774e-13
6.93717e-13
6.92646e-13
6.91596e-13
6.90588e-13
6.89637e-13
6.88679e-13
6.87703e-13
6.86709e-13
6.85692e-13
6.84649e-13
6.8357e-13
6.82451e-13
6.81307e-13
6.8011e-13
6.79062e-13
6.77968e-13
6.76954e-13
6.75922e-13
6.74875e-13
6.73823e-13
6.72773e-13
6.717e-13
6.70683e-13
6.69645e-13
6.68601e-13
6.67059e-13
3.99492e-13
4.01647e-13
4.03597e-13
4.06814e-13
4.09508e-13
4.1121e-13
4.12079e-13
4.12373e-13
4.12383e-13
4.12191e-13
4.11923e-13
4.1166e-13
4.1144e-13
4.11258e-13
4.11115e-13
4.11001e-13
4.10905e-13
4.10817e-13
4.10719e-13
4.10597e-13
4.10461e-13
4.10303e-13
4.10113e-13
4.09891e-13
4.09656e-13
4.09401e-13
4.0918e-13
4.09012e-13
4.08991e-13
4.0914e-13
4.09635e-13
4.1051e-13
4.12064e-13
4.14269e-13
4.17508e-13
4.21704e-13
4.27196e-13
4.3401e-13
4.42329e-13
4.52064e-13
4.63212e-13
4.75303e-13
4.89265e-13
5.0396e-13
5.2119e-13
5.36597e-13
5.55024e-13
5.73098e-13
5.95154e-13
6.11257e-13
6.30777e-13
6.48609e-13
6.68569e-13
6.8703e-13
7.02726e-13
7.21285e-13
7.36095e-13
7.52211e-13
7.64956e-13
7.77442e-13
7.88383e-13
7.97684e-13
8.06508e-13
8.12962e-13
8.20156e-13
8.24344e-13
8.2995e-13
8.3237e-13
8.36607e-13
8.37874e-13
8.40348e-13
8.41827e-13
8.41304e-13
8.43339e-13
8.41816e-13
8.43577e-13
8.41362e-13
8.42001e-13
8.39628e-13
8.39712e-13
8.37441e-13
8.35946e-13
8.35576e-13
8.32863e-13
8.32028e-13
8.29609e-13
8.28002e-13
8.25654e-13
8.2363e-13
8.21628e-13
8.19251e-13
8.17245e-13
8.14903e-13
8.12363e-13
8.10019e-13
8.0775e-13
8.05506e-13
8.0332e-13
8.01044e-13
7.98763e-13
7.96701e-13
7.94813e-13
7.92922e-13
7.91097e-13
7.89444e-13
7.87888e-13
7.86313e-13
7.84734e-13
7.83138e-13
7.8171e-13
7.80258e-13
7.78852e-13
7.77366e-13
7.75922e-13
7.74616e-13
7.73433e-13
7.72295e-13
7.71224e-13
7.70072e-13
7.69055e-13
7.68131e-13
7.67263e-13
7.66438e-13
7.6563e-13
7.64787e-13
7.63906e-13
7.6298e-13
7.62017e-13
7.61008e-13
7.60071e-13
7.59099e-13
7.58208e-13
7.57363e-13
7.56603e-13
7.55917e-13
7.5527e-13
7.5463e-13
7.53987e-13
7.53334e-13
7.52663e-13
7.51966e-13
7.51261e-13
7.5056e-13
7.49875e-13
7.49267e-13
7.48668e-13
7.48116e-13
7.47568e-13
7.47009e-13
7.46393e-13
7.45743e-13
7.45079e-13
7.44399e-13
7.43732e-13
7.43122e-13
7.42551e-13
7.42113e-13
7.41703e-13
7.41262e-13
7.4084e-13
7.40415e-13
7.39986e-13
7.39558e-13
7.39117e-13
7.38652e-13
7.38178e-13
7.37665e-13
7.37169e-13
7.36686e-13
7.36204e-13
7.35716e-13
7.35216e-13
7.34702e-13
7.34168e-13
7.33623e-13
7.33067e-13
7.32512e-13
7.31971e-13
7.31453e-13
7.30996e-13
7.30566e-13
7.30131e-13
7.29741e-13
7.29317e-13
7.28855e-13
7.28354e-13
7.27814e-13
7.27242e-13
7.26644e-13
7.26011e-13
7.25403e-13
7.2478e-13
7.24206e-13
7.23625e-13
7.23048e-13
7.2248e-13
7.2192e-13
7.2134e-13
7.20735e-13
7.20109e-13
7.19464e-13
7.18802e-13
7.18128e-13
7.17451e-13
7.16769e-13
7.16078e-13
7.15364e-13
7.14618e-13
7.13817e-13
7.1295e-13
7.12015e-13
7.11016e-13
7.0996e-13
7.08856e-13
7.0772e-13
7.0657e-13
7.05436e-13
7.04345e-13
7.03313e-13
7.02273e-13
7.01214e-13
7.00135e-13
6.99032e-13
6.97903e-13
6.96741e-13
6.95538e-13
6.94309e-13
6.93028e-13
6.91895e-13
6.90719e-13
6.89609e-13
6.88484e-13
6.87344e-13
6.86193e-13
6.85045e-13
6.83876e-13
6.82771e-13
6.81649e-13
6.80523e-13
6.78867e-13
3.99848e-13
4.02319e-13
4.04839e-13
4.07761e-13
4.09908e-13
4.11142e-13
4.11711e-13
4.11822e-13
4.11701e-13
4.11401e-13
4.11064e-13
4.10745e-13
4.10467e-13
4.10227e-13
4.10023e-13
4.09851e-13
4.09703e-13
4.09574e-13
4.09446e-13
4.09312e-13
4.09179e-13
4.09044e-13
4.08906e-13
4.08769e-13
4.08675e-13
4.08624e-13
4.08697e-13
4.08922e-13
4.095e-13
4.10446e-13
4.12092e-13
4.14417e-13
4.17837e-13
4.22341e-13
4.2837e-13
4.35957e-13
4.45226e-13
4.56353e-13
4.6933e-13
4.83898e-13
5.00929e-13
5.17615e-13
5.37877e-13
5.5763e-13
5.8233e-13
6.02019e-13
6.26681e-13