/*--------------------------------*- C++ -*----------------------------------*\
| =========                 |                                                 |
| \\      /  F ield         | OpenFOAM: The Open Source CFD Toolbox           |
|  \\    /   O peration     | Version:  2312                                  |
|   \\  /    A nd           | Website:  www.openfoam.com                      |
|    \\/     M anipulation  |                                                 |
\*---------------------------------------------------------------------------*/
FoamFile
{
    version     2.0;
    format      ascii;
    arch        "LSB;label=32;scalar=64";
    class       volVectorField;
    location    "0.001";
    object      U;
}
// * * * * * * * * * * * * * * * * * * * * * * * * * * * * * * * * * * * * * //

dimensions      [0 1 -1 0 0 0 0];

internalField   nonuniform List<vector> 
48128
(
(18.9609 -11.1473 0)
(20.8116 -2.89961 0)
(24.6479 -0.313828 0)
(23.7043 0.840965 0)
(21.7473 1.07161 0)
(19.6094 1.04076 0)
(17.0799 1.08439 0)
(13.8052 1.58787 0)
(7.66693 3.71404 0)
(-3.21769 5.98699 0)
(-20.8446 8.74767 0)
(-47.03 11.3544 0)
(-75.1076 10.4777 0)
(-98.7808 7.88734 0)
(-117.995 4.88382 0)
(-133.221 3.85644 0)
(-145.421 3.18068 0)
(-155.484 2.78674 0)
(-163.949 2.48866 0)
(-171.055 2.31371 0)
(-177.434 2.17912 0)
(-183.044 2.06847 0)
(-187.926 1.97098 0)
(-192.095 1.86954 0)
(-195.54 1.75996 0)
(-198.267 1.70607 0)
(-200.237 1.71516 0)
(-201.356 1.80331 0)
(-201.725 1.65507 0)
(-201.337 1.29956 0)
(-199.968 1.07793 0)
(-197.8 0.828616 0)
(-194.767 0.577562 0)
(-190.912 0.306836 0)
(-186.289 0.116183 0)
(-180.953 -0.204347 0)
(-174.749 -0.466041 0)
(-167.804 -0.918964 0)
(-159.965 -1.21734 0)
(-151.697 -1.60459 0)
(-142.61 -1.90409 0)
(-133.188 -2.36064 0)
(-122.828 -2.67671 0)
(-112.323 -3.02402 0)
(-101.296 -3.20352 0)
(-90.2126 -3.5777 0)
(-78.5111 -3.82605 0)
(-66.6243 -4.13821 0)
(-54.7034 -4.12907 0)
(-42.863 -4.40483 0)
(-30.8103 -4.52186 0)
(-18.6314 -4.8085 0)
(-6.56756 -4.75975 0)
(5.30191 -4.72552 0)
(17.4412 -4.30385 0)
(29.4639 -3.53211 0)
(41.4218 -3.56195 0)
(53.2516 -3.55703 0)
(64.9211 -3.54413 0)
(76.3178 -3.47761 0)
(87.4066 -3.40516 0)
(98.178 -3.3212 0)
(108.656 -3.23756 0)
(118.879 -3.16748 0)
(128.835 -3.07438 0)
(138.608 -3.02112 0)
(147.99 -2.9599 0)
(157.131 -2.90885 0)
(166.092 -2.80455 0)
(174.715 -2.71097 0)
(183.293 -2.62137 0)
(191.368 -2.4915 0)
(199.313 -2.38412 0)
(206.73 -2.25224 0)
(213.993 -2.15626 0)
(220.877 -2.03733 0)
(227.535 -1.94911 0)
(233.935 -1.82734 0)
(239.942 -1.73666 0)
(245.806 -1.63172 0)
(251.176 -1.50563 0)
(256.352 -1.45003 0)
(261.454 -1.38174 0)
(266.447 -1.31554 0)
(271.205 -1.22147 0)
(275.688 -1.14796 0)
(280.004 -1.08191 0)
(284.083 -0.995536 0)
(287.828 -0.940841 0)
(291.503 -0.881651 0)
(294.891 -0.821936 0)
(298.211 -0.785788 0)
(301.468 -0.748379 0)
(304.633 -0.692372 0)
(307.435 -0.629547 0)
(309.886 -0.578689 0)
(312.2 -0.54643 0)
(314.535 -0.526385 0)
(316.836 -0.499926 0)
(319.079 -0.464874 0)
(321.088 -0.428507 0)
(322.894 -0.396312 0)
(324.574 -0.371727 0)
(326.167 -0.348207 0)
(327.626 -0.327352 0)
(329.003 -0.309415 0)
(330.355 -0.298962 0)
(331.732 -0.283035 0)
(332.99 -0.260383 0)
(334.068 -0.239291 0)
(335.079 -0.230843 0)
(336.12 -0.222617 0)
(337.135 -0.212742 0)
(338.103 -0.199612 0)
(338.963 -0.187226 0)
(339.775 -0.179279 0)
(340.609 -0.17257 0)
(341.499 -0.166961 0)
(342.447 -0.152598 0)
(343.495 -0.147787 0)
(344.291 -0.127484 0)
(344.987 -0.110961 0)
(345.724 -0.108434 0)
(346.012 -0.0856799 0)
(346.32 -0.0889877 0)
(346.655 -0.0915171 0)
(347.028 -0.0950656 0)
(347.439 -0.0927317 0)
(347.881 -0.089337 0)
(348.344 -0.0849606 0)
(348.825 -0.0799017 0)
(349.319 -0.0729358 0)
(349.809 -0.0657574 0)
(350.259 -0.0588033 0)
(350.653 -0.0505532 0)
(351 -0.0451412 0)
(351.28 -0.0385755 0)
(351.53 -0.0342777 0)
(351.696 -0.0228645 0)
(351.833 -0.0206848 0)
(351.872 -0.0100043 0)
(351.864 -0.00773603 0)
(351.834 -0.00781533 0)
(351.789 -0.00800297 0)
(351.741 -0.00966827 0)
(351.726 -0.0109714 0)
(351.721 -0.00882622 0)
(351.718 -0.00486027 0)
(351.725 0.000559026 0)
(351.743 0.00666966 0)
(351.766 0.0160591 0)
(351.792 0.0205016 0)
(351.817 0.0233397 0)
(351.821 0.0245994 0)
(351.829 0.0193969 0)
(351.782 0.0123372 0)
(351.799 0.00914533 0)
(351.705 0.00757657 0)
(351.549 0.00686236 0)
(351.395 0.00735346 0)
(351.238 0.00802579 0)
(351.106 0.00609676 0)
(351.029 0.00373067 0)
(350.995 0.00844571 0)
(350.988 0.0147922 0)
(351.013 0.0163319 0)
(351.003 0.0237495 0)
(350.957 0.0283145 0)
(350.865 0.0300951 0)
(350.73 0.034473 0)
(350.535 0.0333421 0)
(350.288 0.0342585 0)
(349.991 0.0344313 0)
(349.647 0.0334325 0)
(349.274 0.0316675 0)
(348.9 0.029316 0)
(348.564 0.025343 0)
(348.308 0.0197833 0)
(348.062 0.0205611 0)
(347.9 0.0156763 0)
(347.709 0.0160969 0)
(347.725 0.0109741 0)
(347.694 0.0128218 0)
(347.652 0.0161684 0)
(347.582 0.0193166 0)
(347.478 0.0207506 0)
(347.33 0.0229596 0)
(347.134 0.0248484 0)
(346.864 0.0293422 0)
(346.539 0.0324509 0)
(346.193 0.0347455 0)
(345.835 0.0357991 0)
(345.465 0.0389348 0)
(345.088 0.039359 0)
(344.693 0.0421322 0)
(344.378 0.0387696 0)
(344.039 0.0364119 0)
(343.688 0.0355064 0)
(343.325 0.0354948 0)
(342.945 0.0333192 0)
(342.554 0.0300346 0)
(342.186 0.0278912 0)
(341.821 0.0268768 0)
(341.46 0.0269187 0)
(341.098 0.0279359 0)
(340.721 0.0333982 0)
(340.314 0.0369846 0)
(339.863 0.0414693 0)
(339.356 0.0453071 0)
(338.787 0.0492687 0)
(338.158 0.0522676 0)
(337.478 0.0539046 0)
(336.752 0.055196 0)
(335.999 0.0530266 0)
(335.218 0.0503441 0)
(334.464 0.0446378 0)
(333.83 0.0382184 0)
(333.293 0.032881 0)
(332.872 0.0265237 0)
(332.455 0.0309241 0)
(332.025 0.0323284 0)
(331.571 0.0355923 0)
(331.061 0.039251 0)
(330.493 0.0430653 0)
(329.827 0.0477187 0)
(329.076 0.0531617 0)
(328.35 0.0487549 0)
(327.591 0.0389138 0)
(327.155 0.0291696 0)
(326.696 0.0236164 0)
(326.42 0.0262179 0)
(326.094 0.0242153 0)
(325.743 0.0247492 0)
(325.374 0.0267676 0)
(324.983 0.0273467 0)
(324.543 0.0275164 0)
(324.159 0.0244938 0)
(323.734 0.0221633 0)
(323.353 0.0213464 0)
(322.835 0.0166727 0)
(14.982 -16.3155 0)
(16.7042 -3.86116 0)
(21.2072 -0.43902 0)
(20.3353 1.19949 0)
(17.5829 1.91936 0)
(12.8399 2.59512 0)
(4.83575 3.4858 0)
(-7.95518 5.21852 0)
(-27.8292 9.30926 0)
(-56.7614 12.5932 0)
(-87.0013 17.305 0)
(-111.638 19.7104 0)
(-130.672 15.9258 0)
(-145.593 12.4272 0)
(-156.423 11.0629 0)
(-165.197 8.83848 0)
(-172.783 7.35663 0)
(-178.966 6.33048 0)
(-183.963 5.55004 0)
(-187.845 5.00762 0)
(-191.155 4.58765 0)
(-193.818 4.2153 0)
(-195.849 3.8795 0)
(-197.251 3.55243 0)
(-198.014 3.22561 0)
(-198.196 2.93426 0)
(-197.66 2.55705 0)
(-196.36 2.33462 0)
(-194.265 2.02772 0)
(-191.286 1.58455 0)
(-187.576 1.26735 0)
(-183.028 0.895298 0)
(-177.686 0.563114 0)
(-171.553 0.14768 0)
(-164.661 -0.116461 0)
(-157.111 -0.455691 0)
(-148.763 -0.830934 0)
(-139.778 -1.38052 0)
(-129.944 -1.74228 0)
(-119.704 -2.26798 0)
(-108.795 -2.6625 0)
(-97.6468 -3.30893 0)
(-85.7166 -3.76325 0)
(-73.7087 -4.28472 0)
(-61.2208 -4.54911 0)
(-48.7171 -5.09345 0)
(-35.6842 -5.45548 0)
(-22.5663 -5.91996 0)
(-9.38593 -5.92353 0)
(3.65622 -6.3067 0)
(16.8511 -6.46886 0)
(30.0532 -6.86382 0)
(43.1056 -6.79853 0)
(55.9124 -7.04874 0)
(68.9048 -7.46008 0)
(81.7127 -7.61105 0)
(94.3588 -7.73314 0)
(106.788 -7.73798 0)
(118.986 -7.72664 0)
(130.844 -7.60378 0)
(142.34 -7.47235 0)
(153.466 -7.31805 0)
(164.254 -7.17502 0)
(174.738 -7.0313 0)
(184.909 -6.8763 0)
(194.882 -6.72087 0)
(204.494 -6.46265 0)
(213.866 -6.33266 0)
(223.024 -6.11493 0)
(231.799 -5.93586 0)
(240.512 -5.75891 0)
(248.687 -5.46638 0)
(256.699 -5.27172 0)
(264.21 -5.00157 0)
(271.504 -4.82331 0)
(278.448 -4.56922 0)
(285.096 -4.38796 0)
(291.505 -4.11845 0)
(297.505 -3.93457 0)
(303.352 -3.69819 0)
(308.756 -3.46196 0)
(313.944 -3.36993 0)
(319.069 -3.20993 0)
(324.038 -3.04966 0)
(328.822 -2.83912 0)
(333.344 -2.68328 0)
(337.689 -2.53324 0)
(341.851 -2.36121 0)
(345.687 -2.25536 0)
(349.458 -2.12505 0)
(352.975 -2.00257 0)
(356.41 -1.91836 0)
(359.756 -1.81326 0)
(363.038 -1.68636 0)
(366.004 -1.56193 0)
(368.652 -1.46783 0)
(371.173 -1.39564 0)
(373.68 -1.33413 0)
(376.141 -1.25689 0)
(378.542 -1.1779 0)
(380.74 -1.11205 0)
(382.767 -1.04947 0)
(384.673 -0.993926 0)
(386.508 -0.942484 0)
(388.206 -0.897942 0)
(389.838 -0.856789 0)
(391.416 -0.820894 0)
(393.012 -0.779105 0)
(394.5 -0.731567 0)
(395.833 -0.693745 0)
(397.081 -0.668642 0)
(398.35 -0.640738 0)
(399.576 -0.610201 0)
(400.752 -0.57979 0)
(401.833 -0.554213 0)
(402.859 -0.528775 0)
(403.896 -0.499903 0)
(404.97 -0.460216 0)
(406.081 -0.426364 0)
(407.264 -0.422711 0)
(408.276 -0.385443 0)
(409.186 -0.368098 0)
(410.141 -0.375312 0)
(410.723 -0.338026 0)
(411.302 -0.335894 0)
(411.884 -0.329274 0)
(412.474 -0.318475 0)
(413.078 -0.296632 0)
(413.692 -0.279561 0)
(414.312 -0.263962 0)
(414.94 -0.242712 0)
(415.574 -0.221134 0)
(416.198 -0.207212 0)
(416.792 -0.19406 0)
(417.338 -0.178235 0)
(417.854 -0.166972 0)
(418.316 -0.154258 0)
(418.744 -0.147085 0)
(419.124 -0.133364 0)
(419.479 -0.129667 0)
(419.773 -0.118516 0)
(420.031 -0.117146 0)
(420.259 -0.120038 0)
(420.467 -0.124569 0)
(420.681 -0.122582 0)
(420.905 -0.11471 0)
(421.138 -0.0992673 0)
(421.37 -0.0782566 0)
(421.603 -0.0487704 0)
(421.841 -0.0186815 0)
(422.068 0.0036413 0)
(422.29 0.0127872 0)
(422.511 0.0121175 0)
(422.707 0.00165662 0)
(422.915 -0.0117281 0)
(423.061 -0.0333041 0)
(423.285 -0.044512 0)
(423.391 -0.0525748 0)
(423.432 -0.0502072 0)
(423.487 -0.0409946 0)
(423.551 -0.0311934 0)
(423.631 -0.0230371 0)
(423.735 -0.0156067 0)
(423.855 0.0018953 0)
(423.988 0.0154041 0)
(424.15 0.01644 0)
(424.274 0.0347708 0)
(424.378 0.0403973 0)
(424.433 0.0415128 0)
(424.451 0.0460244 0)
(424.417 0.0413109 0)
(424.346 0.0425929 0)
(424.232 0.0417998 0)
(424.074 0.0389591 0)
(423.884 0.0350648 0)
(423.686 0.0324261 0)
(423.498 0.0303417 0)
(423.352 0.0226147 0)
(423.207 0.0306966 0)
(423.11 0.0221507 0)
(422.991 0.0318792 0)
(423.011 0.0201781 0)
(422.996 0.025064 0)
(422.973 0.0329271 0)
(422.931 0.0388235 0)
(422.865 0.0408379 0)
(422.77 0.0437391 0)
(422.64 0.0450433 0)
(422.454 0.0520966 0)
(422.222 0.0571332 0)
(421.968 0.0661052 0)
(421.696 0.0698638 0)
(421.405 0.0830149 0)
(421.098 0.0847046 0)
(420.773 0.0997823 0)
(420.486 0.0888994 0)
(420.177 0.0843288 0)
(419.849 0.0830224 0)
(419.503 0.0766894 0)
(419.136 0.0712152 0)
(418.754 0.0650642 0)
(418.379 0.0620721 0)
(418.002 0.0620158 0)
(417.622 0.0678019 0)
(417.236 0.0741267 0)
(416.835 0.08438 0)
(416.406 0.092899 0)
(415.939 0.102685 0)
(415.422 0.112278 0)
(414.848 0.119196 0)
(414.216 0.123392 0)
(413.529 0.122673 0)
(412.791 0.120546 0)
(412.01 0.120437 0)
(411.197 0.113714 0)
(410.366 0.107383 0)
(409.606 0.0922616 0)
(408.907 0.0822069 0)
(408.29 0.0808689 0)
(407.69 0.0854743 0)
(407.086 0.0872906 0)
(406.472 0.0937169 0)
(405.827 0.0962756 0)
(405.146 0.104198 0)
(404.399 0.109699 0)
(403.588 0.122474 0)
(402.78 0.110025 0)
(401.926 0.0950013 0)
(401.306 0.0820302 0)
(400.645 0.0768974 0)
(400.17 0.0681673 0)
(399.669 0.067264 0)
(399.17 0.0665668 0)
(398.669 0.0726564 0)
(398.175 0.0689291 0)
(397.643 0.0683673 0)
(397.182 0.0596566 0)
(396.681 0.0574503 0)
(396.235 0.0542071 0)
(395.602 0.0488183 0)
(11.8999 -25.4085 0)
(13.6549 -7.80003 0)
(17.8336 -1.31252 0)
(15.2301 3.19385 0)
(9.10158 5.31147 0)
(-0.785406 8.13646 0)
(-16.8212 12.5819 0)
(-41.5333 18.8435 0)
(-71.4792 25.5443 0)
(-96.6093 31.9993 0)
(-116.094 31.4845 0)
(-129.392 29.7625 0)
(-138.459 25.1494 0)
(-145.903 20.142 0)
(-154.21 16.6256 0)
(-160.741 13.4267 0)
(-165.98 11.0595 0)
(-170.295 9.42062 0)
(-173.704 8.16304 0)
(-176.35 7.27615 0)
(-178.54 6.58248 0)
(-180.172 5.96605 0)
(-181.253 5.42495 0)
(-181.78 4.94612 0)
(-181.71 4.37982 0)
(-180.906 3.82773 0)
(-179.375 3.21983 0)
(-177.139 2.60975 0)
(-174.027 1.93465 0)
(-170.173 1.21489 0)
(-165.525 0.66461 0)
(-160.082 -0.0314987 0)
(-153.843 -0.679588 0)
(-146.823 -1.48099 0)
(-138.949 -2.1047 0)
(-130.399 -2.91163 0)
(-121.022 -3.64741 0)
(-111.032 -4.68519 0)
(-100.163 -5.45998 0)
(-88.8749 -6.42329 0)
(-76.9035 -7.12666 0)
(-64.7411 -8.24596 0)
(-51.8017 -9.03332 0)
(-38.7765 -9.95811 0)
(-25.2792 -10.4317 0)
(-11.8113 -11.3779 0)
(2.13283 -11.9937 0)
(16.0713 -12.7966 0)
(30.0512 -12.8259 0)
(43.8304 -13.4793 0)
(57.7543 -13.7548 0)
(71.5834 -14.4064 0)
(85.1864 -14.2687 0)
(98.5591 -14.6213 0)
(112.078 -15.0087 0)
(125.212 -14.8523 0)
(138.123 -14.9704 0)
(150.746 -14.9124 0)
(163.081 -14.8371 0)
(174.993 -14.5548 0)
(186.492 -14.2696 0)
(197.567 -13.9363 0)
(208.266 -13.628 0)
(218.62 -13.3246 0)
(228.599 -12.9785 0)
(238.347 -12.6907 0)
(247.634 -12.2401 0)
(256.643 -11.9702 0)
(265.391 -11.5497 0)
(273.712 -11.1775 0)
(281.98 -10.8378 0)
(289.672 -10.3036 0)
(297.186 -9.92822 0)
(304.227 -9.43118 0)
(311.009 -9.07951 0)
(317.458 -8.60393 0)
(323.595 -8.24706 0)
(329.499 -7.7651 0)
(335.012 -7.40786 0)
(340.382 -7.00206 0)
(345.326 -6.58296 0)
(350.088 -6.36657 0)
(354.81 -6.06785 0)
(359.369 -5.78111 0)
(363.755 -5.42244 0)
(367.889 -5.12712 0)
(371.869 -4.85624 0)
(375.66 -4.56011 0)
(379.176 -4.35402 0)
(382.624 -4.12404 0)
(385.848 -3.90415 0)
(388.998 -3.72939 0)
(392.073 -3.53305 0)
(395.09 -3.31794 0)
(397.81 -3.11229 0)
(400.252 -2.95158 0)
(402.596 -2.80601 0)
(404.917 -2.6742 0)
(407.201 -2.52464 0)
(409.414 -2.38271 0)
(411.446 -2.26964 0)
(413.339 -2.16182 0)
(415.127 -2.06061 0)
(416.852 -1.96474 0)
(418.453 -1.88328 0)
(420.004 -1.80305 0)
(421.503 -1.72461 0)
(423.017 -1.64225 0)
(424.431 -1.56051 0)
(425.705 -1.49296 0)
(426.91 -1.43849 0)
(428.131 -1.37696 0)
(429.307 -1.31195 0)
(430.434 -1.25225 0)
(431.474 -1.20364 0)
(432.47 -1.15135 0)
(433.475 -1.08969 0)
(434.508 -1.00565 0)
(435.565 -0.932472 0)
(436.681 -0.907364 0)
(437.667 -0.856346 0)
(438.552 -0.822902 0)
(439.478 -0.832852 0)
(440.106 -0.801141 0)
(440.712 -0.782513 0)
(441.321 -0.757969 0)
(441.935 -0.726885 0)
(442.553 -0.679129 0)
(443.176 -0.637446 0)
(443.798 -0.599421 0)
(444.422 -0.55535 0)
(445.052 -0.509484 0)
(445.664 -0.478679 0)
(446.254 -0.454253 0)
(446.803 -0.427723 0)
(447.327 -0.407681 0)
(447.806 -0.38575 0)
(448.257 -0.371352 0)
(448.67 -0.352657 0)
(449.057 -0.343173 0)
(449.394 -0.330013 0)
(449.696 -0.325819 0)
(449.969 -0.3267 0)
(450.225 -0.333347 0)
(450.485 -0.326177 0)
(450.752 -0.309582 0)
(451.025 -0.280883 0)
(451.295 -0.242523 0)
(451.562 -0.188301 0)
(451.832 -0.130679 0)
(452.093 -0.0845448 0)
(452.341 -0.056717 0)
(452.589 -0.04636 0)
(452.812 -0.0636887 0)
(453.046 -0.0883899 0)
(453.224 -0.124558 0)
(453.472 -0.148784 0)
(453.615 -0.164921 0)
(453.707 -0.166743 0)
(453.808 -0.155117 0)
(453.918 -0.136472 0)
(454.04 -0.114594 0)
(454.182 -0.0896921 0)
(454.336 -0.056183 0)
(454.498 -0.0163508 0)
(454.683 -8.50591e-05 0)
(454.837 0.0221506 0)
(454.981 0.0308738 0)
(455.059 0.0362488 0)
(455.142 0.0353282 0)
(455.14 0.0319354 0)
(455.117 0.0295551 0)
(455.057 0.0246198 0)
(454.959 0.0176252 0)
(454.831 0.012581 0)
(454.694 0.0163947 0)
(454.559 0.021451 0)
(454.449 0.016493 0)
(454.345 0.0354314 0)
(454.268 0.0251203 0)
(454.178 0.0516876 0)
(454.193 0.0405387 0)
(454.183 0.0462154 0)
(454.164 0.0582669 0)
(454.128 0.0663282 0)
(454.072 0.0661988 0)
(453.991 0.0683183 0)
(453.88 0.0655614 0)
(453.723 0.0767068 0)
(453.525 0.0841978 0)
(453.306 0.10373 0)
(453.07 0.112156 0)
(452.815 0.140226 0)
(452.542 0.145089 0)
(452.255 0.17558 0)
(451.989 0.16117 0)
(451.703 0.152769 0)
(451.397 0.149717 0)
(451.07 0.138819 0)
(450.721 0.126409 0)
(450.356 0.118128 0)
(449.99 0.113912 0)
(449.62 0.114819 0)
(449.245 0.127666 0)
(448.862 0.141298 0)
(448.466 0.157629 0)
(448.044 0.172705 0)
(447.589 0.189272 0)
(447.088 0.205259 0)
(446.534 0.216869 0)
(445.925 0.223851 0)
(445.261 0.222874 0)
(444.546 0.218386 0)
(443.783 0.217458 0)
(442.98 0.209887 0)
(442.155 0.203685 0)
(441.369 0.187178 0)
(440.627 0.176089 0)
(439.949 0.173478 0)
(439.286 0.178659 0)
(438.621 0.181072 0)
(437.948 0.191004 0)
(437.252 0.190005 0)
(436.529 0.202233 0)
(435.753 0.2019 0)
(434.925 0.225072 0)
(434.089 0.208475 0)
(433.206 0.19597 0)
(432.514 0.169482 0)
(431.777 0.168251 0)
(431.208 0.145963 0)
(430.618 0.14505 0)
(430.043 0.140527 0)
(429.466 0.150311 0)
(428.912 0.141181 0)
(428.327 0.140345 0)
(427.813 0.124884 0)
(427.264 0.11995 0)
(426.77 0.113502 0)
(426.069 0.108672 0)
(6.34232 -31.0816 0)
(7.70318 -8.83954 0)
(9.98929 -1.16527 0)
(5.35468 6.17106 0)
(-5.07578 10.8394 0)
(-21.5241 17.0776 0)
(-46.1087 25.2237 0)
(-72.7985 33.9451 0)
(-94.415 39.7112 0)
(-110.343 40.7838 0)
(-121.184 38.8204 0)
(-128.812 35.507 0)
(-134.479 29.0433 0)
(-140.082 23.5543 0)
(-145.189 18.6026 0)
(-149.71 15.0677 0)
(-153.503 12.5215 0)
(-156.749 10.7302 0)
(-159.284 9.34667 0)
(-161.242 8.32105 0)
(-162.804 7.49473 0)
(-163.855 6.75624 0)
(-164.397 6.08381 0)
(-164.361 5.34633 0)
(-163.672 4.60768 0)
(-162.296 3.82281 0)
(-160.14 3.01826 0)
(-157.252 2.19421 0)
(-153.493 1.33876 0)
(-148.933 0.376167 0)
(-143.485 -0.454655 0)
(-137.223 -1.43746 0)
(-130.112 -2.35488 0)
(-122.181 -3.47075 0)
(-113.308 -4.37159 0)
(-103.729 -5.51673 0)
(-93.2856 -6.5296 0)
(-82.2495 -8.02141 0)
(-70.244 -9.13581 0)
(-57.8087 -10.5134 0)
(-44.6444 -11.4598 0)
(-31.3588 -13.0141 0)
(-17.2669 -14.1067 0)
(-3.09621 -15.4451 0)
(11.5575 -16.0943 0)
(26.121 -17.419 0)
(41.1411 -18.1987 0)
(56.0281 -19.2591 0)
(70.8969 -19.2287 0)
(85.4828 -20.1424 0)
(100.2 -20.4576 0)
(114.703 -21.3001 0)
(128.879 -21.0301 0)
(142.78 -21.5973 0)
(156.75 -22.1165 0)
(170.148 -21.8851 0)
(183.286 -22.0406 0)
(196.01 -21.8439 0)
(208.366 -21.66 0)
(220.179 -21.1409 0)
(231.528 -20.6901 0)
(242.38 -20.136 0)
(252.804 -19.6446 0)
(262.839 -19.1319 0)
(272.415 -18.5721 0)
(281.744 -18.0756 0)
(290.532 -17.3753 0)
(299.015 -16.9177 0)
(307.202 -16.2447 0)
(314.908 -15.6872 0)
(322.571 -15.1299 0)
(329.613 -14.3473 0)
(336.463 -13.784 0)
(342.832 -13.0541 0)
(348.907 -12.5085 0)
(354.646 -11.8132 0)
(360.096 -11.2828 0)
(365.306 -10.6011 0)
(370.167 -10.0971 0)
(374.897 -9.52725 0)
(379.201 -8.98048 0)
(383.395 -8.66334 0)
(387.556 -8.22563 0)
(391.563 -7.81776 0)
(395.399 -7.33043 0)
(398.979 -6.93295 0)
(402.434 -6.56204 0)
(405.688 -6.17759 0)
(408.723 -5.90857 0)
(411.694 -5.59591 0)
(414.47 -5.30875 0)
(417.188 -5.067 0)
(419.856 -4.7963 0)
(422.47 -4.51391 0)
(424.8 -4.26764 0)
(426.903 -4.06992 0)
(428.934 -3.86448 0)
(430.939 -3.66983 0)
(432.923 -3.46072 0)
(434.826 -3.28247 0)
(436.574 -3.1461 0)
(438.215 -3.01155 0)
(439.77 -2.87901 0)
(441.265 -2.75493 0)
(442.654 -2.65098 0)
(444.012 -2.53974 0)
(445.323 -2.42507 0)
(446.648 -2.31202 0)
(447.879 -2.21605 0)
(448.992 -2.13508 0)
(450.056 -2.05632 0)
(451.133 -1.96668 0)
(452.166 -1.87566 0)
(453.153 -1.80058 0)
(454.063 -1.73929 0)
(454.946 -1.65764 0)
(455.837 -1.56202 0)
(456.744 -1.42809 0)
(457.672 -1.33401 0)
(458.65 -1.29531 0)
(459.526 -1.24392 0)
(460.304 -1.21559 0)
(461.119 -1.24428 0)
(461.707 -1.22384 0)
(462.257 -1.18236 0)
(462.815 -1.14189 0)
(463.378 -1.0868 0)
(463.942 -1.01096 0)
(464.507 -0.946287 0)
(465.071 -0.885853 0)
(465.636 -0.817849 0)
(466.205 -0.752159 0)
(466.752 -0.712075 0)
(467.286 -0.679472 0)
(467.783 -0.648016 0)
(468.258 -0.623728 0)
(468.696 -0.597748 0)
(469.113 -0.580662 0)
(469.495 -0.562084 0)
(469.855 -0.55031 0)
(470.168 -0.538897 0)
(470.448 -0.533137 0)
(470.7 -0.532108 0)
(470.942 -0.538603 0)
(471.187 -0.52526 0)
(471.437 -0.494333 0)
(471.69 -0.448808 0)
(471.942 -0.39025 0)
(472.19 -0.310008 0)
(472.437 -0.22571 0)
(472.677 -0.162032 0)
(472.9 -0.121014 0)
(473.121 -0.106591 0)
(473.324 -0.134303 0)
(473.536 -0.166345 0)
(473.702 -0.21721 0)
(473.929 -0.25451 0)
(474.063 -0.278324 0)
(474.158 -0.285092 0)
(474.259 -0.266776 0)
(474.366 -0.237263 0)
(474.484 -0.20052 0)
(474.62 -0.158035 0)
(474.769 -0.107824 0)
(474.921 -0.0544211 0)
(475.095 -0.0168463 0)
(475.244 0.00614698 0)
(475.383 0.0150098 0)
(475.461 0.0214021 0)
(475.547 0.0201286 0)
(475.556 0.0155607 0)
(475.542 0.00869182 0)
(475.497 -0.00227858 0)
(475.418 -0.0137367 0)
(475.312 -0.020813 0)
(475.197 -0.0114237 0)
(475.084 0.00254191 0)
(474.985 0.00670767 0)
(474.897 0.0308967 0)
(474.826 0.0255083 0)
(474.748 0.0612388 0)
(474.756 0.0595072 0)
(474.746 0.0667531 0)
(474.726 0.0803409 0)
(474.688 0.0897926 0)
(474.633 0.0882878 0)
(474.553 0.0890093 0)
(474.447 0.081358 0)
(474.301 0.0936166 0)
(474.115 0.103099 0)
(473.911 0.131437 0)
(473.689 0.144823 0)
(473.452 0.186488 0)
(473.196 0.19574 0)
(472.929 0.240573 0)
(472.673 0.228004 0)
(472.404 0.216159 0)
(472.114 0.210768 0)
(471.803 0.196412 0)
(471.47 0.17477 0)
(471.121 0.165582 0)
(470.768 0.163243 0)
(470.409 0.167658 0)
(470.043 0.18726 0)
(469.669 0.205328 0)
(469.281 0.228897 0)
(468.869 0.250178 0)
(468.427 0.272736 0)
(467.942 0.294232 0)
(467.407 0.309268 0)
(466.819 0.317311 0)
(466.18 0.31665 0)
(465.489 0.311136 0)
(464.749 0.306634 0)
(463.968 0.298415 0)
(463.162 0.296456 0)
(462.378 0.281704 0)
(461.628 0.273796 0)
(460.93 0.266942 0)
(460.241 0.275685 0)
(459.546 0.278917 0)
(458.844 0.290366 0)
(458.12 0.285754 0)
(457.372 0.300098 0)
(456.577 0.292794 0)
(455.737 0.323873 0)
(454.884 0.306356 0)
(453.985 0.298783 0)
(453.255 0.255838 0)
(452.479 0.263269 0)
(451.851 0.231901 0)
(451.201 0.228822 0)
(450.569 0.220521 0)
(449.934 0.231777 0)
(449.328 0.216717 0)
(448.695 0.213583 0)
(448.134 0.192841 0)
(447.541 0.185856 0)
(447.003 0.176699 0)
(446.24 0.172313 0)
(1.90094 -34.3195 0)
(2.7636 -9.68788 0)
(0.176429 -0.29019 0)
(-6.95182 11.759 0)
(-22.5946 20.1074 0)
(-45.1907 29.9976 0)
(-68.5617 40.666 0)
(-87.719 46.5199 0)
(-101.817 47.9801 0)
(-111.593 47.153 0)
(-118.641 43.2798 0)
(-123.443 37.5696 0)
(-126.668 30.9326 0)
(-130.378 25.3257 0)
(-133.82 20.5028 0)
(-137.098 16.8641 0)
(-139.938 14.1325 0)
(-142.423 12.1418 0)
(-144.3 10.5925 0)
(-145.693 9.37968 0)
(-146.715 8.38062 0)
(-147.238 7.47268 0)
(-147.227 6.56687 0)
(-146.611 5.64627 0)
(-145.322 4.66558 0)
(-143.315 3.63113 0)
(-140.502 2.55727 0)
(-136.886 1.39941 0)
(-132.35 0.203501 0)
(-126.953 -1.11846 0)
(-120.569 -2.29703 0)
(-113.329 -3.65151 0)
(-105.162 -4.9128 0)
(-96.1578 -6.49406 0)
(-86.0888 -7.78469 0)
(-75.2835 -9.38866 0)
(-63.5363 -10.7437 0)
(-51.2291 -12.7439 0)
(-37.8197 -14.2757 0)
(-23.9701 -16.1315 0)
(-9.31402 -17.3333 0)
(5.34763 -19.3111 0)
(20.8661 -20.695 0)
(36.4655 -22.4554 0)
(52.5799 -23.2285 0)
(68.531 -24.9572 0)
(84.8967 -25.8547 0)
(101.08 -27.2142 0)
(117.206 -27.0787 0)
(132.958 -28.2831 0)
(148.821 -28.5424 0)
(164.288 -29.4953 0)
(179.247 -28.9023 0)
(193.792 -29.6887 0)
(208.342 -30.1268 0)
(222.021 -29.4619 0)
(235.341 -29.6577 0)
(248.092 -29.1551 0)
(260.328 -28.8198 0)
(271.904 -27.9486 0)
(282.848 -27.2799 0)
(293.262 -26.4304 0)
(303.076 -25.7053 0)
(312.547 -24.9201 0)
(321.35 -24.1177 0)
(329.968 -23.3749 0)
(337.885 -22.4122 0)
(345.489 -21.7461 0)
(352.76 -20.7951 0)
(359.47 -20.0266 0)
(366.179 -19.2364 0)
(372.2 -18.2128 0)
(378.032 -17.4493 0)
(383.372 -16.5199 0)
(388.503 -15.7971 0)
(393.308 -14.8965 0)
(397.891 -14.197 0)
(402.235 -13.3289 0)
(406.284 -12.6829 0)
(410.224 -11.9647 0)
(413.755 -11.3051 0)
(417.237 -10.869 0)
(420.69 -10.2924 0)
(424.011 -9.77214 0)
(427.161 -9.14459 0)
(430.032 -8.62581 0)
(432.825 -8.14504 0)
(435.409 -7.67388 0)
(437.844 -7.34129 0)
(440.223 -6.94794 0)
(442.44 -6.60051 0)
(444.62 -6.29254 0)
(446.783 -5.95172 0)
(448.883 -5.60539 0)
(450.714 -5.33443 0)
(452.386 -5.10426 0)
(454.007 -4.84548 0)
(455.6 -4.58782 0)
(457.192 -4.31667 0)
(458.693 -4.11126 0)
(460.077 -3.95315 0)
(461.386 -3.79683 0)
(462.629 -3.6374 0)
(463.81 -3.49104 0)
(464.911 -3.37091 0)
(465.997 -3.2293 0)
(467.043 -3.08278 0)
(468.104 -2.9361 0)
(469.074 -2.83092 0)
(469.957 -2.73999 0)
(470.812 -2.64105 0)
(471.675 -2.51895 0)
(472.501 -2.40393 0)
(473.279 -2.31004 0)
(474.004 -2.2391 0)
(474.715 -2.13217 0)
(475.433 -2.00428 0)
(476.152 -1.82604 0)
(476.895 -1.70252 0)
(477.682 -1.64106 0)
(478.388 -1.58896 0)
(479.006 -1.57452 0)
(479.654 -1.60195 0)
(480.146 -1.61544 0)
(480.587 -1.5587 0)
(481.039 -1.50395 0)
(481.497 -1.42947 0)
(481.955 -1.3302 0)
(482.414 -1.24244 0)
(482.875 -1.15944 0)
(483.334 -1.06849 0)
(483.798 -0.981119 0)
(484.239 -0.928374 0)
(484.676 -0.885245 0)
(485.08 -0.84955 0)
(485.466 -0.822633 0)
(485.823 -0.795617 0)
(486.163 -0.776042 0)
(486.473 -0.758983 0)
(486.768 -0.745774 0)
(487.02 -0.734603 0)
(487.245 -0.726872 0)
(487.442 -0.729888 0)
(487.64 -0.735316 0)
(487.84 -0.712779 0)
(488.044 -0.66868 0)
(488.249 -0.606828 0)
(488.456 -0.528534 0)
(488.655 -0.423776 0)
(488.854 -0.317426 0)
(489.044 -0.2354 0)
(489.216 -0.182635 0)
(489.386 -0.161877 0)
(489.544 -0.19517 0)
(489.708 -0.234584 0)
(489.837 -0.301972 0)
(490.022 -0.349784 0)
(490.126 -0.385856 0)
(490.201 -0.397144 0)
(490.28 -0.374496 0)
(490.364 -0.33631 0)
(490.455 -0.285018 0)
(490.564 -0.224659 0)
(490.688 -0.157927 0)
(490.808 -0.0896372 0)
(490.951 -0.0297735 0)
(491.073 -0.00473406 0)
(491.184 0.00436015 0)
(491.243 0.0110458 0)
(491.305 0.00477603 0)
(491.302 0.00056949 0)
(491.281 -0.0124777 0)
(491.231 -0.0310035 0)
(491.15 -0.0475175 0)
(491.044 -0.0565479 0)
(490.933 -0.0406551 0)
(490.821 -0.016398 0)
(490.719 -0.00531581 0)
(490.628 0.0276447 0)
(490.553 0.0293314 0)
(490.471 0.0714535 0)
(490.465 0.0832013 0)
(490.447 0.0921684 0)
(490.417 0.106575 0)
(490.37 0.116702 0)
(490.305 0.113058 0)
(490.218 0.112458 0)
(490.107 0.10098 0)
(489.961 0.109573 0)
(489.777 0.123714 0)
(489.576 0.159592 0)
(489.357 0.178513 0)
(489.125 0.232243 0)
(488.874 0.247411 0)
(488.614 0.302306 0)
(488.36 0.295333 0)
(488.097 0.281219 0)
(487.815 0.272181 0)
(487.512 0.252592 0)
(487.19 0.225685 0)
(486.853 0.212618 0)
(486.51 0.21335 0)
(486.16 0.222049 0)
(485.802 0.245901 0)
(485.436 0.271459 0)
(485.055 0.301868 0)
(484.651 0.329228 0)
(484.218 0.357698 0)
(483.746 0.383315 0)
(483.226 0.401989 0)
(482.656 0.411347 0)
(482.036 0.410689 0)
(481.367 0.402831 0)
(480.651 0.399669 0)
(479.893 0.387104 0)
(479.108 0.390202 0)
(478.336 0.378463 0)
(477.589 0.373905 0)
(476.888 0.367795 0)
(476.187 0.379893 0)
(475.48 0.383626 0)
(474.762 0.397011 0)
(474.023 0.388653 0)
(473.259 0.403943 0)
(472.453 0.390857 0)
(471.604 0.425734 0)
(470.74 0.408789 0)
(469.831 0.404736 0)
(469.075 0.353614 0)
(468.277 0.365428 0)
(467.606 0.328508 0)
(466.916 0.322437 0)
(466.239 0.310262 0)
(465.557 0.320935 0)
(464.906 0.302057 0)
(464.23 0.296023 0)
(463.626 0.270209 0)
(462.991 0.260586 0)
(462.412 0.248602 0)
(461.59 0.244371 0)
(-2.97646 -34.4487 0)
(-2.24342 -7.30776 0)
(-12.0811 3.63114 0)
(-22.3871 19.3814 0)
(-41.9752 31.7451 0)
(-62.558 43.6407 0)
(-79.763 51.1362 0)
(-92.5985 54.1062 0)
(-101.759 53.8658 0)
(-108.306 50.7004 0)
(-112.478 45.0717 0)
(-114.979 38.772 0)
(-117.043 32.2173 0)
(-119.368 26.6072 0)
(-121.731 21.7964 0)
(-124.062 18.0799 0)
(-126.099 15.2184 0)
(-127.874 13.0711 0)
(-129.114 11.3901 0)
(-129.919 10.0198 0)
(-130.372 8.84647 0)
(-130.283 7.72545 0)
(-129.629 6.64066 0)
(-128.353 5.49341 0)
(-126.388 4.26803 0)
(-123.649 2.92068 0)
(-120.024 1.53054 0)
(-115.528 0.00981616 0)
(-110.045 -1.54474 0)
(-103.634 -3.2922 0)
(-96.1129 -4.87366 0)
(-87.6765 -6.66103 0)
(-78.2034 -8.30527 0)
(-67.8956 -10.4153 0)
(-56.3546 -12.1556 0)
(-44.0332 -14.2812 0)
(-30.664 -15.9714 0)
(-16.7877 -18.5286 0)
(-1.62278 -20.5274 0)
(14.0152 -22.9305 0)
(30.6842 -24.436 0)
(47.4382 -26.9567 0)
(65.1815 -28.6267 0)
(83.0052 -30.8913 0)
(101.294 -31.6906 0)
(119.268 -33.8677 0)
(137.602 -34.7314 0)
(155.662 -36.3532 0)
(173.494 -35.9107 0)
(190.708 -37.4531 0)
(208.005 -37.5255 0)
(224.508 -38.5079 0)
(240.521 -37.473 0)
(255.381 -38.2182 0)
(270.389 -38.5704 0)
(284.486 -37.4829 0)
(297.557 -37.4413 0)
(310.244 -36.6252 0)
(321.997 -35.9593 0)
(333.257 -34.7109 0)
(343.328 -33.671 0)
(353.09 -32.488 0)
(361.819 -31.3899 0)
(370.45 -30.3235 0)
(378.017 -29.1555 0)
(385.598 -28.1567 0)
(392.181 -26.8585 0)
(398.531 -25.9346 0)
(404.441 -24.6651 0)
(409.758 -23.6453 0)
(415.114 -22.5992 0)
(419.733 -21.3302 0)
(424.176 -20.3522 0)
(428.1 -19.2054 0)
(431.974 -18.3268 0)
(435.489 -17.2422 0)
(438.894 -16.3971 0)
(442.04 -15.3663 0)
(444.969 -14.6235 0)
(447.84 -13.7748 0)
(450.296 -13.0533 0)
(452.807 -12.5249 0)
(455.267 -11.7964 0)
(457.641 -11.2038 0)
(459.894 -10.4743 0)
(461.913 -9.90626 0)
(463.918 -9.31798 0)
(465.731 -8.80371 0)
(467.479 -8.41322 0)
(469.181 -7.95296 0)
(470.761 -7.56691 0)
(472.335 -7.20692 0)
(473.909 -6.78467 0)
(475.39 -6.37899 0)
(476.641 -6.1101 0)
(477.818 -5.85041 0)
(478.962 -5.55153 0)
(480.08 -5.24532 0)
(481.213 -4.92659 0)
(482.249 -4.70938 0)
(483.22 -4.53954 0)
(484.14 -4.375 0)
(485.017 -4.19563 0)
(485.823 -4.04109 0)
(486.589 -3.90919 0)
(487.349 -3.74608 0)
(488.077 -3.57426 0)
(488.821 -3.40175 0)
(489.476 -3.29737 0)
(490.085 -3.2048 0)
(490.683 -3.08776 0)
(491.283 -2.94304 0)
(491.853 -2.80559 0)
(492.376 -2.71418 0)
(492.878 -2.62425 0)
(493.377 -2.49628 0)
(493.88 -2.33081 0)
(494.369 -2.1079 0)
(494.887 -1.96821 0)
(495.446 -1.8908 0)
(495.939 -1.85544 0)
(496.362 -1.84684 0)
(496.808 -1.89378 0)
(497.159 -1.9165 0)
(497.462 -1.87215 0)
(497.772 -1.80109 0)
(498.089 -1.70135 0)
(498.403 -1.5787 0)
(498.721 -1.47266 0)
(499.045 -1.36433 0)
(499.366 -1.25226 0)
(499.692 -1.15005 0)
(499.998 -1.09052 0)
(500.307 -1.04397 0)
(500.589 -1.00581 0)
(500.858 -0.978151 0)
(501.103 -0.951558 0)
(501.337 -0.933417 0)
(501.546 -0.91836 0)
(501.746 -0.904344 0)
(501.908 -0.90211 0)
(502.05 -0.896339 0)
(502.17 -0.904306 0)
(502.297 -0.905369 0)
(502.425 -0.868847 0)
(502.559 -0.811815 0)
(502.694 -0.732826 0)
(502.833 -0.63364 0)
(502.959 -0.506613 0)
(503.088 -0.383629 0)
(503.202 -0.283849 0)
(503.305 -0.225989 0)
(503.405 -0.203118 0)
(503.492 -0.237723 0)
(503.592 -0.285191 0)
(503.66 -0.366013 0)
(503.786 -0.42527 0)
(503.846 -0.4763 0)
(503.882 -0.487796 0)
(503.921 -0.466257 0)
(503.961 -0.419077 0)
(504.009 -0.353646 0)
(504.073 -0.27598 0)
(504.16 -0.193146 0)
(504.225 -0.10972 0)
(504.325 -0.0335099 0)