/*--------------------------------*- C++ -*----------------------------------*\
| =========                 |                                                 |
| \\      /  F ield         | OpenFOAM: The Open Source CFD Toolbox           |
|  \\    /   O peration     | Version:  2312                                  |
|   \\  /    A nd           | Website:  www.openfoam.com                      |
|    \\/     M anipulation  |                                                 |
\*---------------------------------------------------------------------------*/
FoamFile
{
    version     2.0;
    format      ascii;
    arch        "LSB;label=32;scalar=64";
    class       volScalarField;
    location    "0.005";
    object      alphat;
}
// * * * * * * * * * * * * * * * * * * * * * * * * * * * * * * * * * * * * * //

dimensions      [1 -1 -1 0 0 0 0];

internalField   nonuniform List<scalar> 
48128
(
6.28508e-09
9.19645e-09
3.29929e-08
3.22357e-07
1.43055e-06
3.48772e-06
5.63762e-06
7.43046e-06
8.85013e-06
9.97382e-06
1.0928e-05
1.17912e-05
1.25822e-05
1.33837e-05
1.42125e-05
1.50828e-05
1.60181e-05
1.70389e-05
1.81672e-05
1.94384e-05
2.09586e-05
2.27235e-05
2.47578e-05
2.70773e-05
2.98491e-05
3.30487e-05
3.67675e-05
4.09883e-05
4.58781e-05
5.15048e-05
5.78877e-05
6.50348e-05
7.30842e-05
8.15281e-05
9.0503e-05
9.95899e-05
0.000109116
0.000117663
0.00012634
0.000134436
0.000141483
0.000148273
0.000157362
0.00016715
0.000176504
0.000184777
0.000192201
0.000198922
0.000204826
0.000210468
0.000215527
0.000220405
0.000224401
0.000222247
0.000212166
0.000203201
0.000194714
0.000187158
0.000179792
0.000172722
0.000166343
0.000159956
0.000154234
0.000148938
0.000143862
0.00013942
0.000134939
0.000130908
0.000126848
0.000123214
0.000119809
0.000116556
0.000113637
0.000110872
0.000108339
0.000105979
0.00010376
0.000101895
9.99201e-05
9.81018e-05
9.69988e-05
9.56527e-05
9.40044e-05
9.25193e-05
9.16854e-05
9.05461e-05
8.93282e-05
8.8031e-05
8.68038e-05
8.66474e-05
8.59343e-05
8.49713e-05
8.39295e-05
8.29709e-05
8.29051e-05
8.23746e-05
8.15619e-05
8.08372e-05
8.03969e-05
7.98545e-05
7.91953e-05
7.85962e-05
7.85023e-05
7.8143e-05
7.7626e-05
7.71672e-05
7.68556e-05
7.64641e-05
7.60745e-05
7.56593e-05
7.52191e-05
7.47188e-05
7.42377e-05
7.38244e-05
7.34226e-05
7.33033e-05
7.31409e-05
7.29663e-05
7.27972e-05
7.26064e-05
7.23549e-05
7.20223e-05
7.16664e-05
7.13938e-05
7.11646e-05
7.09822e-05
7.10622e-05
7.10358e-05
7.10615e-05
7.10705e-05
7.10644e-05
7.10353e-05
7.09626e-05
7.08558e-05
7.06999e-05
7.05028e-05
7.02545e-05
6.99996e-05
6.9785e-05
6.9608e-05
6.94511e-05
6.93467e-05
6.92288e-05
6.91545e-05
6.90532e-05
6.89454e-05
6.88256e-05
6.8714e-05
6.86007e-05
6.84669e-05
6.83431e-05
6.82048e-05
6.80844e-05
6.79551e-05
6.78299e-05
6.77154e-05
6.76058e-05
6.75101e-05
6.74134e-05
6.73306e-05
6.7247e-05
6.71768e-05
6.71046e-05
6.70411e-05
6.69775e-05
6.69179e-05
6.68536e-05
6.67866e-05
6.67203e-05
6.66537e-05
6.65643e-05
6.64889e-05
6.63969e-05
6.63151e-05
6.62345e-05
6.61539e-05
6.60758e-05
6.59979e-05
6.59234e-05
6.58556e-05
6.5787e-05
6.57287e-05
6.56713e-05
6.56204e-05
6.55713e-05
6.55284e-05
6.54874e-05
6.54497e-05
6.54159e-05
6.53874e-05
6.53594e-05
6.53288e-05
6.52924e-05
6.5245e-05
6.51655e-05
6.5097e-05
6.50278e-05
6.49542e-05
6.48866e-05
6.48256e-05
6.47688e-05
6.47234e-05
6.46868e-05
6.46582e-05
6.46334e-05
6.46113e-05
6.45914e-05
6.45732e-05
6.45571e-05
6.45345e-05
6.45023e-05
6.44707e-05
6.44449e-05
6.43713e-05
6.43318e-05
6.4291e-05
6.42448e-05
6.42044e-05
6.41629e-05
6.4124e-05
6.40847e-05
6.40468e-05
6.40103e-05
6.39753e-05
6.39409e-05
6.39074e-05
6.38743e-05
6.38412e-05
6.38078e-05
6.37746e-05
6.37416e-05
6.3709e-05
6.36767e-05
6.36455e-05
6.3615e-05
6.35859e-05
6.35569e-05
6.35306e-05
6.34993e-05
6.34229e-05
4.80213e-08
1.61644e-07
5.20126e-07
1.73869e-06
4.48112e-06
8.92621e-06
1.48599e-05
2.12516e-05
2.80822e-05
3.51693e-05
4.23979e-05
4.95332e-05
5.66051e-05
6.3998e-05
7.18084e-05
8.02046e-05
8.95315e-05
9.99906e-05
0.000111906
0.000125453
0.000141436
0.000159412
0.000181726
0.0002063
0.000234724
0.000266765
0.000302992
0.000343375
0.000381579
0.000424331
0.00047119
0.000521048
0.000574227
0.000629451
0.000688671
0.00074755
0.000810989
0.000868604
0.000924306
0.000978404
0.00102484
0.00106943
0.001111
0.00115045
0.00118585
0.00121663
0.00124254
0.00126407
0.00128196
0.00129875
0.00131209
0.00132446
0.00133162
0.00133751
0.00133956
0.00134314
0.00134282
0.0013422
0.00133857
0.00133081
0.00132425
0.00131182
0.0012993
0.00128683
0.00127168
0.00125908
0.00124327
0.00122872
0.00121165
0.00119511
0.00117858
0.00116127
0.00114486
0.00112826
0.0011125
0.00109696
0.00108173
0.0010681
0.00105354
0.00104041
0.00103011
0.00101897
0.00100549
0.000993652
0.000984687
0.000974001
0.000962839
0.000951243
0.000941015
0.000935253
0.000926726
0.000916674
0.000906387
0.000897622
0.000892715
0.000885613
0.000876851
0.000868632
0.000861901
0.000854956
0.000847322
0.000840441
0.000835866
0.000830081
0.000823428
0.000817055
0.00081176
0.000806023
0.000800309
0.00079454
0.000788393
0.000781977
0.000775061
0.000769088
0.000762648
0.000758003
0.000753579
0.000749319
0.000745504
0.000741797
0.000737632
0.000732938
0.000728034
0.000723207
0.000718849
0.000714621
0.000712544
0.000710265
0.000708569
0.000707107
0.000704047
0.000701224
0.000698721
0.000695968
0.000692995
0.000689851
0.000686275
0.000682557
0.000678542
0.000674607
0.000670651
0.000666728
0.000662954
0.00065927
0.000655708
0.00065232
0.000648919
0.000645642
0.000642593
0.000639415
0.000636411
0.000633321
0.000630407
0.000627498
0.000624621
0.000621806
0.000619055
0.000616347
0.000613703
0.000611176
0.000608682
0.000606403
0.00060414
0.000602062
0.000600034
0.000598152
0.000596341
0.000594637
0.000592969
0.000591407
0.000589958
0.000588472
0.000587001
0.000585529
0.000584063
0.000582607
0.000581146
0.000579695
0.000578241
0.000576796
0.000575361
0.000573936
0.000572535
0.00057124
0.000569935
0.00056874
0.000567603
0.00056651
0.000565512
0.000564533
0.000563653
0.000562913
0.000562166
0.00056145
0.000560805
0.000560043
0.000559282
0.000558461
0.000557586
0.000556619
0.000555697
0.000554613
0.000553666
0.000552824
0.000551978
0.000551165
0.000550442
0.000549772
0.000549189
0.000548695
0.000548307
0.000547887
0.00054757
0.000547137
0.000546673
0.000546225
0.000545744
0.000545218
0.000544675
0.000544091
0.000543492
0.000542887
0.000542267
0.000541661
0.00054105
0.000540463
0.000539887
0.000539336
0.000538796
0.000538287
0.000537795
0.000537326
0.000536881
0.00053645
0.000536038
0.000535637
0.000535255
0.000534882
0.000534556
0.00053397
1.33205e-07
1.19911e-06
2.85931e-06
7.05948e-06
1.52913e-05
2.96242e-05
5.04209e-05
7.42087e-05
9.95538e-05
0.000124556
0.000148091
0.00017017
0.000190948
0.000211506
0.000231545
0.000252131
0.000273987
0.000297565
0.000323445
0.000352256
0.000384946
0.000421154
0.000461992
0.000506098
0.00055476
0.000607864
0.000664059
0.000724274
0.000786757
0.000854492
0.000927291
0.00100283
0.0010821
0.00116115
0.00124657
0.00132806
0.00141463
0.00149316
0.00157113
0.00164318
0.00170505
0.00176737
0.00182273
0.00187563
0.0019227
0.00196428
0.00200124
0.00203315
0.00206139
0.00208731
0.0021089
0.00212862
0.00214192
0.00215342
0.00215775
0.00216305
0.00216224
0.00216104
0.00215595
0.00214721
0.00213758
0.00212272
0.00210793
0.00209249
0.00207406
0.0020579
0.0020373
0.00201815
0.00199565
0.00197381
0.00195145
0.00192825
0.00190604
0.0018835
0.00186173
0.0018402
0.00181908
0.00180038
0.00177939
0.00176081
0.00174698
0.00173134
0.0017118
0.0016938
0.00168093
0.00166566
0.00164853
0.00163118
0.00161441
0.00160634
0.00159384
0.0015781
0.00156253
0.00154729
0.00153964
0.00152871
0.00151479
0.00150094
0.00148986
0.0014784
0.00146593
0.0014538
0.00144596
0.00143611
0.00142479
0.00141349
0.00140404
0.00139393
0.00138377
0.00137334
0.00136226
0.00135059
0.00133838
0.00132714
0.00131596
0.0013073
0.0012988
0.00129057
0.00128296
0.00127553
0.00126733
0.00125811
0.00124861
0.00123949
0.00123128
0.00122335
0.0012184
0.00121319
0.00120897
0.00120524
0.00120193
0.00119879
0.00119535
0.00119162
0.00118732
0.00118235
0.00117649
0.00117031
0.00116412
0.00115825
0.00115245
0.00114725
0.00114207
0.0011375
0.00113282
0.00112841
0.00112383
0.00111955
0.00111528
0.00111073
0.00110646
0.00110193
0.00109759
0.00109319
0.00108879
0.00108451
0.00108032
0.00107631
0.0010724
0.00106872
0.00106514
0.00106182
0.00105867
0.00105573
0.00105297
0.00105036
0.00104792
0.00104547
0.00104318
0.00104095
0.00103848
0.00103618
0.00103363
0.00103114
0.00102862
0.00102608
0.0010235
0.00102093
0.00101835
0.00101582
0.00101333
0.0010109
0.00100861
0.00100639
0.00100434
0.00100237
0.00100059
0.00099885
0.000997354
0.000995943
0.000994804
0.000993698
0.000992654
0.000991544
0.000990154
0.000988671
0.00098704
0.000985268
0.000983406
0.000981499
0.000979601
0.000977743
0.000976032
0.000974518
0.000973141
0.000971922
0.000970879
0.000969984
0.000969311
0.000968705
0.000968072
0.000967471
0.000966889
0.000965918
0.000965045
0.000964128
0.000963095
0.000962033
0.000960927
0.000959783
0.000958616
0.000957482
0.000956339
0.000955276
0.000954206
0.000953218
0.000952241
0.000951335
0.000950432
0.000949599
0.000948774
0.000948013
0.000947248
0.000946547
0.000945834
0.000945198
0.000944531
0.000943952
0.000943337
0.000942252
4.00692e-07
3.85567e-06
8.87732e-06
2.00516e-05
4.08776e-05
7.63987e-05
0.000121002
0.000168815
0.000214121
0.000254614
0.000290365
0.00032276
0.000351858
0.000379801
0.000406985
0.000434551
0.000463254
0.000493835
0.000526984
0.000563254
0.000603259
0.000647145
0.000695298
0.000747289
0.000803373
0.000863172
0.000925922
0.000992545
0.00106258
0.0011364
0.00121477
0.00129363
0.00137755
0.0014548
0.00154142
0.00162332
0.00170887
0.00178396
0.00185961
0.00190804
0.0019601
0.00202707
0.00207295
0.00213773
0.00218059
0.00223742
0.00227055
0.00231438
0.00234092
0.00237652
0.00240791
0.00243394
0.00245351
0.00247146
0.00248264
0.00249439
0.0025002
0.00250485
0.00250482
0.00250331
0.00249762
0.00248913
0.00248139
0.00247211
0.00246125
0.00245045
0.00243539
0.00242084
0.00240298
0.00238588
0.00236739
0.00234852
0.0023304
0.00231202
0.00229394
0.0022759
0.00225827
0.00224306
0.00222526
0.00220865
0.00219856
0.00218622
0.00216946
0.0021525
0.00214204
0.00212933
0.00211392
0.00209789
0.00208024
0.0020745
0.00206442
0.00205054
0.00203585
0.00201972
0.00201353
0.00200427
0.00199148
0.00197752
0.00196672
0.00195573
0.00194353
0.00193029
0.00192321
0.00191391
0.00190279
0.00189088
0.00188114
0.0018708
0.00186017
0.00184885
0.00183662
0.00182349
0.0018097
0.00179693
0.00178441
0.00177517
0.00176603
0.00175719
0.0017488
0.00174051
0.00173116
0.00172031
0.00170897
0.00169825
0.00168883
0.00167953
0.00167404
0.0016683
0.00166391
0.00166003
0.00165647
0.00165299
0.00164898
0.00164456
0.00163931
0.00163318
0.0016258
0.00161786
0.00160997
0.00160259
0.00159525
0.00158871
0.00158227
0.00157663
0.00157074
0.00156522
0.00155941
0.00155398
0.00154857
0.00154275
0.00153718
0.0015313
0.00152565
0.00151985
0.00151402
0.00150835
0.00150277
0.00149748
0.00149225
0.0014874
0.00148259
0.00147821
0.00147397
0.00147005
0.00146634
0.00146279
0.00145943
0.00145603
0.00145284
0.00144969
0.00144616
0.00144289
0.00143925
0.00143572
0.00143213
0.00142852
0.00142487
0.00142124
0.00141759
0.00141405
0.00141054
0.00140715
0.00140391
0.00140082
0.00139791
0.00139514
0.00139258
0.00139015
0.00138799
0.00138599
0.00138429
0.00138265
0.00138107
0.00137941
0.00137732
0.0013751
0.0013727
0.00137012
0.00136743
0.00136471
0.00136202
0.00135943
0.001357
0.0013549
0.00135297
0.00135129
0.00134982
0.00134855
0.00134756
0.00134665
0.00134567
0.00134477
0.00134389
0.00134245
0.00134113
0.00133979
0.0013383
0.00133679
0.00133523
0.00133364
0.00133203
0.00133047
0.00132891
0.00132747
0.00132602
0.00132469
0.00132336
0.00132214
0.0013209
0.00131977
0.00131863
0.0013176
0.00131654
0.00131559
0.00131461
0.00131376
0.00131284
0.00131207
0.00131125
0.00130979
9.31798e-07
8.76691e-06
2.03304e-05
4.34414e-05
8.47653e-05
0.000145107
0.000210375
0.000272864
0.000328381
0.000376673
0.000419679
0.00045686
0.000490481
0.000522599
0.000553451
0.000584374
0.000615934
0.000649223
0.000684733
0.000723086
0.000764794
0.000810094
0.000859036
0.000911315
0.000966871
0.00102608
0.00108746
0.00115184
0.00121891
0.00128606
0.00135804
0.00142312
0.00146687
0.00150068
0.00153334
0.00157304
0.00161491
0.00165011
0.00170248
0.00173827
0.0017606
0.00182903
0.00184974
0.00190438
0.0019228
0.00197302
0.00199041
0.00202799
0.00204943
0.00208445
0.00211148
0.00214105
0.00216986
0.00221048
0.00225541
0.00228964
0.00232421
0.00235221
0.00237823
0.00241261
0.00242954
0.00245308
0.00249406
0.0025172
0.0025334
0.00253299
0.00252838
0.00252317
0.0025147
0.00250701
0.00249703
0.00248686
0.00247703
0.00246676
0.00245635
0.0024458
0.00243539
0.00242712
0.00241682
0.0024054
0.00240156
0.00239568
0.00238593
0.00237382
0.00236823
0.00236118
0.00235175
0.00234039
0.00232652
0.00232412
0.00231943
0.00231181
0.0023013
0.00228837
0.00228503
0.0022803
0.00227247
0.00226209
0.00225419
0.00224685
0.00223786
0.00222697
0.00222242
0.00221678
0.00220913
0.00219981
0.00219237
0.00218467
0.00217644
0.0021671
0.00215676
0.00214532
0.00213319
0.00212214
0.00211087
0.00210362
0.00209658
0.00208976
0.00208299
0.0020762
0.00206818
0.00205858
0.00204821
0.00203854
0.0020303
0.00202197
0.00201786
0.00201394
0.00201143
0.00200925
0.00200726
0.00200526
0.00200262
0.00199932
0.00199513
0.00198979
0.00198294
0.00197526
0.00196765
0.00196062
0.0019536
0.00194744
0.00194139
0.00193626
0.00193083
0.00192577
0.00192033
0.00191526
0.00191017
0.0019046
0.00189921
0.00189338
0.00188782
0.00188208
0.00187628
0.00187061
0.00186502
0.00185974
0.00185451
0.00184969
0.00184494
0.00184064
0.00183654
0.00183273
0.00182916
0.00182573
0.00182247
0.00181914
0.00181599
0.00181279
0.00180917
0.00180578
0.00180195
0.00179822
0.00179443
0.00179057
0.00178667
0.00178276
0.00177882
0.00177502
0.00177121
0.00176759
0.0017641
0.00176082
0.00175771
0.0017548
0.0017521
0.00174959
0.00174738
0.00174537
0.00174366
0.00174203
0.00174042
0.00173872
0.00173645
0.00173401
0.00173131
0.00172841
0.00172537
0.00172228
0.00171925
0.00171633
0.00171365
0.00171138
0.00170932
0.00170756
0.00170604
0.00170481
0.00170385
0.00170301
0.00170203
0.00170119
0.00170034
0.00169877
0.00169733
0.00169587
0.00169423
0.00169257
0.00169084
0.00168911
0.00168732
0.00168564
0.00168394
0.00168241
0.00168085
0.00167946
0.00167806
0.00167679
0.00167549
0.00167433
0.00167313
0.00167208
0.00167097
0.00167002
0.001669
0.00166817
0.00166723
0.00166652
0.00166571
0.00166419
1.7709e-06
1.6248e-05
3.8172e-05
7.72544e-05
0.00014293
0.000218569
0.000295479
0.000365531
0.000426548
0.000480079
0.000526282
0.000565968
0.000602259
0.000636338
0.000668533
0.000700368
0.000732033
0.000764914
0.000799429
0.000836139
0.000875566
0.000918041
0.000963097
0.00101125
0.00106187
0.00111455
0.00116771
0.00122202
0.00125652
0.00127489
0.00129502
0.00131242
0.00132168
0.00133428
0.00134701
0.00136216
0.00139466
0.00140828
0.00144758
0.00146802
0.00146401
0.00151289
0.00151188
0.00153948
0.00153685
0.00156601
0.00157322
0.00159954
0.00162234
0.00164459
0.00166757
0.00169504
0.00171829
0.00176271
0.00179843
0.00184097
0.00186748
0.00190537
0.00192855
0.0019703
0.00199804
0.00202742
0.00208041
0.00210578
0.00215471
0.00219088
0.00221064
0.00225411
0.00227678
0.00231618
0.0023353
0.00236832
0.00239388
0.00239672
0.00239855
0.00239965
0.00240028
0.0024021
0.00240228
0.00240008
0.00240394
0.0024063
0.00240615
0.00240249
0.00240331
0.00240368
0.0024027
0.00239851
0.00239161
0.00239322
0.00239484
0.00239502
0.00239112
0.00238424
0.00238436
0.00238495
0.00238361
0.00237895
0.00237555
0.00237318
0.00236903
0.00236288
0.00236161
0.00236067
0.00235808
0.00235331
0.00234963
0.002346
0.00234177
0.00233593
0.00232927
0.00232142
0.00231301
0.00230537
0.0022973
0.00229333
0.00228995
0.00228664
0.00228285
0.00227881
0.00227358
0.00226706
0.00225963
0.00225271
0.00224717
0.00224147
0.00223998
0.00223928
0.00223974
0.00224027
0.00224096
0.00224159
0.00224146
0.00224053
0.00223867
0.00223552
0.00223079
0.00222498
0.00221927
0.00221409
0.0022089
0.00220455
0.00220025
0.00219692
0.00219333
0.00219001
0.00218628
0.00218278
0.00217929
0.00217527
0.00217134
0.00216683
0.00216261
0.00215817
0.00215363
0.00214926
0.0021449
0.00214085
0.00213686
0.00213322
0.0021297
0.00212656
0.00212363
0.00212096
0.00211853
0.00211622
0.00211403
0.00211177
0.00210959
0.00210736
0.00210468
0.00210214
0.00209909
0.00209611
0.00209305
0.00208989
0.00208666
0.00208339
0.00208005
0.00207686
0.00207361
0.00207061
0.0020677
0.00206504
0.00206252
0.00206024
0.00205816
0.0020563
0.00205472
0.0020534
0.00205234
0.00205136
0.00205035
0.0020493
0.00204748
0.00204544
0.00204314
0.00204057
0.00203782
0.00203501
0.00203225
0.00202961
0.00202728
0.00202542
0.00202376
0.00202247
0.00202141
0.00202072
0.00202027
0.00201998
0.00201949
0.00201915
0.0020188
0.00201758
0.00201649
0.00201536
0.00201403
0.00201267
0.00201121
0.00200977
0.00200824
0.00200686
0.00200542
0.00200421
0.00200294
0.00200189
0.00200079
0.00199987
0.00199887
0.00199805
0.00199716
0.00199644
0.00199564
0.00199503
0.00199432
0.00199384
0.00199321
0.00199287
0.00199241
0.00199132
2.86768e-06
2.61585e-05
6.17747e-05
0.000119725
0.000200923
0.00028637
0.000369284
0.000442914
0.000506911
0.000563864
0.000610793
0.000652334
0.00068995
0.000724599
0.000756635
0.000787492
0.000817421
0.00084767
0.000878786
0.000911242
0.000945683
0.000982038
0.00102039
0.00106063
0.00110211
0.00112609
0.00112742
0.00113568
0.00113906
0.00114394
0.00114022
0.0011416
0.00113148
0.00112819
0.00114374
0.00113657
0.00116572
0.00115109
0.00116721
0.00116245
0.00113832
0.00114785
0.00112983
0.00113519
0.00113396
0.00114255
0.00115363
0.00116597
0.00119281
0.00120034
0.00122736
0.0012518
0.00127217
0.00131751
0.00133739
0.00138251
0.00139787
0.00144255
0.00145947
0.00150377
0.00153231
0.00156852
0.00161434
0.00163935
0.00168223
0.00172029
0.0017449
0.00178936
0.00182042
0.00186114
0.00189169
0.00193172
0.00196528
0.00199596
0.00203013
0.00206137
0.00209381
0.00211801
0.0021513
0.00218085
0.00218669
0.00220615
0.00224313
0.00226862
0.00227671
0.00228783
0.00229681
0.00230228
0.00230522
0.00231214
0.00232126
0.00232998
0.00233397
0.00233543
0.00234008
0.00234689
0.00235258
0.00235513
0.00235761
0.00236116
0.00236293
0.00236343
0.00236628
0.0023708
0.00237391
0.00237499
0.00237611
0.00237736
0.00237793
0.00237659
0.00237475
0.00237173
0.00236837
0.00236521
0.00236186
0.00236182
0.00236285
0.00236372
0.00236362
0.00236306
0.00236167
0.00235938
0.00235601
0.00235309
0.002351
0.00234924
0.00235103
0.00235391
0.00235779
0.00236153
0.00236539
0.00236922
0.00237215
0.0023743
0.00237534
0.00237532
0.00237363
0.00237086
0.00236808
0.00236574
0.00236335
0.00236172
0.00236008
0.00235938
0.00235849
0.00235776
0.00235663
0.00235556
0.00235452
0.00235297
0.0023514
0.00234915
0.00234717
0.00234498
0.00234262
0.00234044
0.00233823
0.00233631
0.00233441
0.00233282
0.00233136
0.00233023
0.00232928
0.00232856
0.00232804
0.00232759
0.00232723
0.00232679
0.00232632
0.00232586
0.00232491
0.00232402
0.00232256
0.00232112
0.0023196
0.00231794
0.00231617
0.00231434
0.00231239
0.00231061
0.00230869
0.00230706
0.00230549
0.00230418
0.00230297
0.00230202
0.00230124
0.00230071
0.00230041
0.00230041
0.0023006
0.00230088
0.00230109
0.00230129
0.00230054
0.00229955
0.00229827
0.00229669
0.00229488
0.00229302
0.00229116
0.00228945
0.00228809
0.00228721
0.00228653
0.00228625
0.0022862
0.00228657
0.00228712
0.00228787
0.00228838
0.00228901
0.00228964
0.00228928
0.00228902
0.00228874
0.0022882
0.00228765
0.00228693
0.00228628
0.0022855
0.00228488
0.00228418
0.00228373
0.0022832
0.00228293
0.00228257
0.00228242
0.00228215
0.00228208
0.00228189
0.00228191
0.0022818
0.00228193
0.0022819
0.00228216
0.00228221
0.0022826
0.00228287
0.00228275
4.11854e-06
3.79109e-05
8.89673e-05
0.000163274
0.000253411
0.000344578
0.00043006
0.000505363
0.000571376
0.000629223
0.000676944
0.000719604
0.000757699
0.000791955
0.00082274
0.000851328
0.000878052
0.000903934
0.000929775
0.000955974
0.000982805
0.00101082
0.00103955
0.00103854
0.0010305
0.00101706
0.00100892
0.00100916
0.000997517
0.000991826
0.000971036
0.000957595
0.000955993
0.000941743
0.000967659
0.000934459
0.000934717
0.000896822
0.000880935
0.000872128
0.000856122
0.000839567
0.00083196
0.000821587
0.000829585
0.000823631
0.000839939
0.000838349
0.000867937
0.000865495
0.000898139
0.000913899
0.000933785
0.000972847
0.000983219
0.00101897
0.0010336
0.00107672
0.00109456
0.00113777
0.00115973
0.00120252
0.00123681
0.00125853
0.00129302
0.00132056
0.00134388
0.00137604
0.00140487
0.00143649
0.00146545
0.00150145
0.00152884
0.00156126
0.00159349
0.00162688
0.00165917
0.00168879
0.00172296
0.00175332
0.00177451
0.00180006
0.0018343
0.00186761
0.00188953
0.00191505
0.00194589
0.00198011
0.00200877
0.00201858
0.00203542
0.00206016
0.00209482
0.00212332
0.00212969
0.00214309
0.00216641
0.0021955
0.00221565
0.00223011
0.00223955
0.00224799
0.00225664
0.00226705
0.00227665
0.00228453
0.00229149
0.00229832
0.00230437
0.00230864
0.00231234
0.00231511
0.00231781
0.00232004
0.00232274
0.00232745
0.00233326
0.00233876
0.00234306
0.00234659
0.00234976
0.00235226
0.00235381
0.00235579
0.0023578
0.00236075
0.00236625
0.00237269
0.00238007
0.00238733
0.00239456
0.00240177
0.002408
0.00241362
0.00241804
0.00242142
0.00242347
0.00242431
0.00242513
0.00242619
0.00242725
0.00242878
0.00243039
0.0024327
0.00243497
0.00243732
0.0024393
0.00244124
0.00244312
0.00244458
0.00244599
0.00244664
0.00244744
0.00244813
0.00244857
0.00244919
0.00244973
0.00245051
0.00245128
0.00245229
0.00245341
0.00245481
0.00245636
0.00245809
0.00245997
0.00246191
0.00246387
0.00246577
0.00246754
0.00246932
0.00247067
0.00247205
0.00247272
0.0024734
0.00247397
0.00247442
0.00247468
0.00247491
0.00247494
0.00247516
0.00247519
0.00247549
0.00247584
0.00247644
0.00247711
0.00247802
0.0024791
0.00248041
0.00248191
0.00248373
0.00248565
0.00248768
0.00248959
0.0024915
0.00249238
0.00249296
0.00249326
0.0024932
0.0024929
0.00249254
0.00249217
0.00249195
0.00249209
0.00249271
0.00249354
0.00249475
0.0024962
0.00249806
0.00250009
0.00250228
0.00250427
0.00250628
0.0025083
0.00250928
0.00251031
0.00251133
0.00251204
0.00251276
0.00251327
0.00251386
0.00251428
0.00251488
0.00251538
0.00251614
0.00251679
0.00251772
0.00251854
0.00251957
0.00252043
0.00252152
0.00252244
0.00252359
0.00252456
0.0025258
0.00252684
0.0025282
0.00252931
0.0025308
0.00253215
0.00253359
5.41818e-06
5.07202e-05
0.000116759
0.000202142
0.000297994
0.000392221
0.000478446
0.000554252
0.000621296
0.000679232
0.000727807
0.000771107
0.000809172
0.000842374
0.000871042
0.000896288
0.00091843
0.000938524
0.000957332
0.000974882
0.000992329
0.000981963
0.000957088
0.000929872
0.000915386
0.000900313
0.000884738
0.00087909
0.000853293
0.000838454
0.000820764
0.000806394
0.000827746
0.000791507
0.000792602
0.000743965
0.000727415
0.000688915
0.000664496
0.000641919
0.000642133
0.000609244
0.00061767
0.000598652
0.000621294
0.000610764
0.000637779
0.000633764
0.000665978
0.000663847
0.000698349
0.000697527
0.000730668
0.00075265
0.000761455
0.000772246
0.000783449
0.000795858
0.000807568
0.000823038
0.00083818
0.000855396
0.000876196
0.00089556
0.000918783
0.000942047
0.000964964
0.000991574
0.00101812
0.0010482
0.00107788
0.00111036
0.00114366
0.00117856
0.00121321
0.00124963
0.00128511
0.00132186
0.00135207
0.00137833
0.001398
0.00141795
0.00144442
0.00147393
0.00149771
0.00152219
0.00154942
0.00158088
0.00161331
0.00163233
0.00165177
0.00167573
0.00170879
0.00174225
0.00176332
0.00178081
0.00180604
0.00183741
0.00186616
0.00188958
0.00191677
0.00194281
0.00195946
0.0019757
0.00199686
0.00202166
0.00204187
0.00205848
0.00207273
0.00209121
0.00211451
0.00213978
0.00216574
0.00218188
0.00219197
0.00220262
0.00221392
0.00222465
0.00223419
0.00224282
0.00225097
0.00225904
0.00226617
0.00227362
0.00228039
0.00228858
0.00229815
0.00230842
0.00231942
0.00233051
0.00234128
0.00235208
0.00236176
0.0023711
0.002379
0.00238624
0.00239226
0.0023972
0.00240202
0.00240691
0.00241175
0.00241688
0.00242198
0.00242764
0.00243334
0.00243907
0.00244445
0.00244976
0.00245486
0.0024597
0.0024644
0.0024684
0.00247238
0.00247634
0.00247999
0.00248377
0.00248742
0.00249124
0.002495
0.00249894
0.00250293
0.00250719
0.00251152
0.00251602
0.00252061
0.00252524
0.00252984
0.00253438
0.00253872
0.00254307
0.00254704
0.00255103
0.00255421
0.00255738
0.0025604
0.00256334
0.00256604
0.0025687
0.00257114
0.00257373
0.00257612
0.00257875
0.00258143
0.00258431
0.00258725
0.00259041
0.00259371
0.00259722
0.00260091
0.00260487
0.00260889
0.00261299
0.00261695
0.00262089
0.00262382
0.00262636
0.00262865
0.00263056
0.00263222
0.00263379
0.00263535
0.00263704
0.00263912
0.00264165
0.00264437
0.00264747
0.00265079
0.00265451
0.00265835
0.00266234
0.00266617
0.00266989
0.00267364
0.00267636
0.00267906
0.00268177
0.00268412
0.00268649
0.00268863
0.00269085
0.00269289
0.0026951
0.00269718
0.00269954
0.00270176
0.00270427
0.00270663
0.00270923
0.00271159
0.00271419
0.00271657
0.0027192
0.00272161
0.0027243
0.00272676
0.00272956
0.00273209
0.00273501
0.00273775
0.00274129
6.68483e-06
6.30351e-05
0.00014236
0.000235056
0.000334353
0.000429397
0.000515272
0.000590848
0.000658669
0.000717205
0.000766709
0.000810301
0.000847823
0.000879309
0.00090489
0.000925504
0.000941515
0.000954043
0.00096358
0.000949829
0.000917663
0.000876795
0.000844942
0.000820634
0.000804229
0.000785507
0.000765109
0.000755473
0.000730436
0.000714924
0.000725835
0.000699103
0.000707557
0.000661611
0.000637693
0.000591496
0.000558519
0.000520676
0.000493279
0.000461688
0.000469118
0.000448348
0.000467715
0.000463171
0.000500569
0.000510312
0.000523945
0.000525955
0.000527117
0.000527849
0.000527239
0.000528307
0.000531904
0.000536892
0.000538459
0.000541367
0.000544218
0.000548009
0.000553293
0.000558965
0.000566907
0.000575048
0.000587751
0.000597073
0.000609765
0.000621544
0.000634513
0.000649751
0.000665706
0.00068377
0.000702484
0.000723588
0.00074516
0.000768496
0.000793613
0.000819544
0.000847518
0.000875665
0.000905917
0.000936184
0.000966799
0.000998109
0.00103176
0.00106607
0.00110022
0.00113471
0.00117046
0.00120634
0.00124198
0.00127542
0.00130999
0.00134372
0.00136871
0.00139883
0.00142246
0.00143828
0.00145872
0.00148618
0.00151398
0.0015375
0.00156344
0.00159029
0.00161107
0.00162878
0.00165134
0.00167714
0.00170201
0.0017225
0.00174074
0.00176587
0.0017923
0.00182177
0.00185298
0.00188305
0.00191212
0.00192678
0.00194147
0.00195351
0.0019648
0.00198066
0.00200029
0.00202439
0.00205102
0.00207842
0.00210197
0.00212213
0.00213508
0.00214595
0.00215347
0.00216672
0.00217694
0.00218874
0.00219905
0.00221453
0.00222573
0.0022442
0.00226283
0.00228827
0.0023059
0.00231659
0.00232578
0.00233491
0.00234385
0.00235321
0.00236257
0.00237199
0.00238099
0.00238997
0.00239857
0.00240709
0.00241534
0.00242306
0.00243055
0.00243798
0.00244504
0.00245218
0.00245915
0.00246624
0.00247323
0.00248038
0.0024875
0.00249483
0.00250216
0.00250965
0.00251713
0.00252466
0.00253206
0.00253948
0.00254658
0.00255372
0.00256048
0.00256726
0.00257317
0.00257906
0.00258477
0.00259042
0.00259579
0.00260114
0.00260624
0.00261146
0.00261646
0.00262169
0.00262693
0.00263234
0.00263779
0.00264345
0.00264922
0.00265516
0.00266126
0.0026676
0.00267396
0.00268032
0.00268658
0.00269275
0.00269797
0.00270278
0.00270735
0.00271153
0.00271546
0.00271928
0.00272308
0.00272699
0.00273131
0.00273602
0.00274093
0.00274619
0.00275164
0.00275746
0.00276337
0.00276941
0.00277533
0.00278102
0.00278675
0.00279151
0.00279619
0.00280086
0.00280516
0.00280948
0.00281356
0.00281772
0.00282169
0.00282582
0.00282981
0.00283406
0.00283817
0.00284256
0.00284679
0.00285123
0.00285541
0.00285982
0.00286396
0.00286836
0.0028725
0.00287692
0.0028811
0.0028856
0.00288985
0.00289447
0.00289888
0.00290497
7.8396e-06
7.39674e-05
0.00016422
0.0002617
0.000362229
0.000456694
0.000542903
0.000619184
0.000687459
0.000746152
0.000796022
0.000839343
0.000875673
0.000904568
0.000925865
0.000940193
0.000948073
0.00094682
0.000901417
0.000849512
0.000807678
0.000770702
0.000741035
0.000716903
0.000703887
0.000687348
0.000667963
0.00065974
0.000656148
0.00064086
0.000656847
0.000616492
0.000595665
0.000550739
0.000508079
0.000461556
0.000414029
0.000377946
0.000342987
0.000320635
0.000313644
0.000307452
0.0003278
0.000336634
0.000368132
0.000385649
0.000394492
0.0004007
0.000406966
0.000410026
0.000412896
0.000414426
0.000415289
0.000417425
0.000416141
0.000415339
0.000415119
0.000416715
0.000418167
0.000422147
0.000425834
0.000431345
0.000437832
0.000443299
0.000449115
0.000454773
0.000460797
0.000468768
0.000475523
0.000483741
0.000491706
0.000501086
0.000510433
0.000520994
0.000532754
0.000545134
0.000558755
0.000573191
0.000588885
0.000605526
0.000623214
0.000642018
0.000662615
0.000684688
0.000708223
0.000732637
0.000758643
0.000786074
0.000814136
0.000842916
0.000872252
0.000903615
0.000936194
0.000969502
0.00100295
0.00103548
0.00107006
0.00110487
0.00114102
0.00117461
0.00120974
0.00124364
0.00127708
0.00130948
0.00134376
0.00137676
0.00139777
0.00142021
0.00143731
0.00146009
0.00148493
0.00151215
0.00153924
0.0015682
0.00159759
0.00161341
0.00162833
0.001642
0.00165814
0.00167779
0.00170075
0.00172643
0.0017552
0.0017855
0.00181577
0.0018377
0.00185536
0.0018701
0.00188182
0.00189645
0.00190831
0.00192254
0.00193468
0.00195134
0.0019644
0.00198699
0.00201026
0.00203858
0.00206025
0.00208269
0.00210331
0.00212134
0.00213826
0.00215353
0.00216915
0.00218503
0.00220158
0.00221798
0.00223209
0.00224842
0.00226381
0.00228104
0.0022952
0.00231055
0.00232626
0.00234195
0.00235701
0.0023723
0.00238675
0.00240151
0.00241321
0.00242394
0.00243453
0.00244522
0.00245576
0.00246638
0.00247676
0.00248723
0.00249727
0.00250732
0.00251693
0.0025266
0.00253542
0.00254421
0.00255276
0.00256128
0.00256952
0.00257772
0.00258566
0.00259369
0.00260148
0.00260948
0.00261745