/*--------------------------------*- C++ -*----------------------------------*\
| =========                 |                                                 |
| \\      /  F ield         | OpenFOAM: The Open Source CFD Toolbox           |
|  \\    /   O peration     | Version:  2312                                  |
|   \\  /    A nd           | Website:  www.openfoam.com                      |
|    \\/     M anipulation  |                                                 |
\*---------------------------------------------------------------------------*/
FoamFile
{
    version     2.0;
    format      ascii;
    arch        "LSB;label=32;scalar=64";
    class       volScalarField;
    location    "0.005";
    object      cSound;
}
// * * * * * * * * * * * * * * * * * * * * * * * * * * * * * * * * * * * * * //

dimensions      [0 1 -1 0 0 0 0];

internalField   nonuniform List<scalar> 
48128
(
300.879
300.927
301.066
301.182
301.199
301.208
301.223
301.112
300.79
300.227
299.554
298.911
298.27
297.72
297.31
296.963
296.672
296.453
296.311
296.251
296.33
296.558
296.942
297.451
298.107
298.913
299.854
300.902
302.027
303.279
304.65
306.133
307.705
309.33
310.953
312.564
314.117
315.606
317.083
318.167
319.059
321.513
322.122
322.597
323.035
323.399
323.684
323.901
324.09
324.223
324.327
324.38
324.449
324.471
324.488
324.452
324.4
324.311
324.206
324.119
323.995
323.938
323.902
323.874
323.862
323.808
323.776
323.727
323.711
323.709
323.721
323.761
323.816
323.881
323.97
324.068
324.192
324.318
324.427
324.607
324.898
325.034
325.144
325.288
325.58
325.73
325.839
325.917
326.084
326.538
326.722
326.852
326.941
327.096
327.523
327.7
327.844
327.975
328.224
328.387
328.527
328.68
329.029
329.224
329.391
329.546
329.766
329.947
330.102
330.247
330.371
330.482
330.612
330.77
330.978
331.258
331.499
331.719
331.924
332.112
332.269
332.397
332.538
332.715
332.901
333.095
333.426
333.679
333.962
334.202
334.44
334.645
334.826
334.998
335.156
335.291
335.397
335.512
335.647
335.785
335.932
336.091
336.246
336.419
336.583
336.744
336.902
337.063
337.212
337.355
337.5
337.634
337.771
337.9
338.028
338.157
338.288
338.421
338.554
338.694
338.83
338.974
339.121
339.272
339.418
339.568
339.713
339.855
339.995
340.124
340.249
340.372
340.484
340.595
340.701
340.803
340.901
340.998
341.094
341.19
341.287
341.385
341.484
341.587
341.692
341.8
341.909
342.021
342.135
342.254
342.372
342.486
342.595
342.688
342.78
342.861
342.93
342.993
343.055
343.118
343.184
343.251
343.326
343.406
343.492
343.582
343.677
343.773
343.874
343.968
344.057
344.145
344.218
344.285
344.356
344.42
344.477
344.536
344.59
344.644
344.699
344.754
344.81
344.867
344.925
344.985
345.044
345.104
345.164
345.224
345.283
345.343
345.401
345.46
345.516
345.575
345.631
345.689
345.739
345.776
300.815
300.876
300.921
300.912
300.846
300.745
300.489
299.968
299.126
298.047
296.983
295.994
295.053
294.28
293.719
293.285
292.961
292.757
292.683
292.761
292.968
293.331
293.842
294.526
295.388
296.424
297.624
298.98
300.509
302.16
303.868
305.636
307.414
309.214
310.93
312.653
314.228
315.405
317.282
318.22
319.05
319.98
320.576
320.986
321.313
321.542
321.684
321.751
321.734
321.635
321.508
321.318
321.146
320.954
320.766
320.552
320.32
320.067
319.8
319.533
319.245
319.002
318.79
318.591
318.405
318.197
317.995
317.787
317.594
317.422
317.262
317.123
317.005
316.901
316.812
316.736
316.687
316.66
316.608
316.585
316.732
316.733
316.693
316.66
316.812
316.82
316.792
316.746
316.691
317.012
317.057
317.052
317.031
316.993
317.295
317.349
317.359
317.364
317.479
317.517
317.532
317.538
317.757
317.825
317.871
317.914
318.016
318.073
318.12
318.154
318.17
318.155
318.149
318.166
318.194
318.342
318.45
318.562
318.673
318.766
318.841
318.875
318.908
318.973
319.049
319.146
319.376
319.535
319.737
319.921
320.094
320.257
320.399
320.519
320.616
320.696
320.741
320.782
320.838
320.909
320.981
321.083
321.177
321.295
321.395
321.495
321.592
321.691
321.782
321.868
321.954
322.032
322.114
322.19
322.265
322.344
322.426
322.511
322.598
322.691
322.784
322.885
322.988
323.095
323.201
323.309
323.414
323.517
323.617
323.711
323.794
323.878
323.951
324.026
324.097
324.164
324.229
324.294
324.358
324.424
324.491
324.561
324.634
324.709
324.789
324.872
324.957
325.047
325.14
325.238
325.336
325.431
325.519
325.597
325.659
325.719
325.769
325.814
325.856
325.902
325.951
326.007
326.069
326.136
326.211
326.291
326.376
326.464
326.556
326.641
326.721
326.799
326.869
326.92
326.981
327.037
327.086
327.137
327.185
327.234
327.283
327.333
327.384
327.437
327.491
327.547
327.603
327.66
327.717
327.774
327.831
327.888
327.945
328.002
328.059
328.116
328.173
328.232
328.285
328.313
300.753
300.742
300.709
300.633
300.532
300.323
299.899
299.203
298.275
297.234
296.163
295.21
294.351
293.666
293.201
292.854
292.626
292.521
292.545
292.693
292.981
293.427
294.037
294.821
295.784
296.914
298.179
299.558
301.046
302.631
304.265
305.979
307.639
309.43
310.907
312.517
314.041
315.065
316.194
317.02
317.707
318.258
318.632
318.873
319.033
319.098
319.076
318.988
318.827
318.596
318.351
318.066
317.818
317.579
317.345
317.091
316.827
316.547
316.265
315.977
315.675
315.425
315.21
315.007
314.815
314.594
314.382
314.167
313.967
313.789
313.618
313.468
313.334
313.212
313.102
313.003
312.928
312.87
312.786
312.724
312.831
312.792
312.713
312.645
312.75
312.719
312.654
312.564
312.478
312.746
312.745
312.7
312.634
312.566
312.81
312.82
312.787
312.761
312.827
312.825
312.795
312.766
312.934
312.958
312.958
312.961
313.015
313.03
313.033
313.024
313
312.946
312.904
312.879
312.865
312.962
313.019
313.078
313.135
313.179
313.206
313.199
313.193
313.211
313.242
313.282
313.466
313.58
313.736
313.874
314.006
314.128
314.234
314.323
314.39
314.439
314.459
314.472
314.497
314.53
314.568
314.625
314.679
314.756
314.822
314.887
314.95
315.016
315.082
315.137
315.196
315.249
315.307
315.359
315.41
315.464
315.521
315.582
315.643
315.712
315.781
315.857
315.934
316.016
316.098
316.181
316.261
316.34
316.417
316.488
316.55
316.613
316.668
316.723
316.774
316.823
316.87
316.917
316.963
317.012
317.061
317.114
317.17
317.229
317.291
317.359
317.428
317.501
317.578
317.662
317.744
317.824
317.898
317.963
318.014
318.063
318.103
318.137
318.169
318.206
318.245
318.29
318.343
318.4
318.465
318.535
318.61
318.689
318.77
318.847
318.919
318.989
319.053
319.098
319.153
319.204
319.247
319.294
319.337
319.381
319.426
319.472
319.519
319.567
319.617
319.669
319.721
319.774
319.827
319.881
319.934
319.988
320.042
320.097
320.151
320.206
320.261
320.317
320.37
320.396
300.569
300.567
300.488
300.403
300.254
299.936
299.408
298.707
297.833
296.851
295.856
294.957
294.173
293.559
293.161
292.874
292.716
292.679
292.759
292.964
293.31
293.811
294.47
295.285
296.246
297.335
298.548
299.863
301.267
302.771
304.274
305.985
307.31
309.154
310.361
311.545
312.657
313.57
314.396
315.005
315.475
315.773
315.918
315.969
315.936
315.829
315.644
315.405
315.089
314.739
314.388
314.028
313.727
313.469
313.231
312.965
312.712
312.441
312.197
311.953
311.697
311.506
311.364
311.225
311.093
310.915
310.753
310.585
310.436
310.309
310.185
310.078
309.982
309.895
309.816
309.746
309.697
309.66
309.59
309.535
309.645
309.613
309.538
309.477
309.571
309.545
309.484
309.394
309.313
309.549
309.551
309.51
309.44
309.373
309.58
309.584
309.547
309.518
309.562
309.552
309.512
309.475
309.624
309.633
309.621
309.612
309.644
309.646
309.633
309.61
309.572
309.508
309.456
309.419
309.394
309.474
309.513
309.55
309.581
309.601
309.607
309.582
309.558
309.557
309.569
309.59
309.745
309.834
309.963
310.072
310.176
310.271
310.352
310.417
310.465
310.495
310.5
310.497
310.507
310.523
310.544
310.581
310.615
310.671
310.716
310.76
310.803
310.847
310.89
310.927
310.966
310.997
311.035
311.07
311.105
311.144
311.184
311.229
311.274
311.326
311.377
311.437
311.496
311.56
311.623
311.689
311.753
311.815
311.875
311.933
311.982
312.03
312.072
312.115
312.153
312.19
312.224
312.259
312.293
312.329
312.366
312.408
312.451
312.498
312.548
312.604
312.661
312.723
312.789
312.861
312.931
313.001
313.065
313.121
313.164
313.203
313.236
313.263
313.288
313.317
313.348
313.386
313.431
313.48
313.537
313.599
313.666
313.738
313.812
313.881
313.948
314.012
314.07
314.111
314.16
314.207
314.246
314.289
314.328
314.368
314.409
314.451
314.494
314.539
314.585
314.633
314.681
314.731
314.78
314.831
314.882
314.933
314.984
315.035
315.087
315.14
315.192
315.247
315.298
315.324
300.411
300.374
300.289
300.204
299.98
299.573
299.05
298.396
297.533
296.58
295.656
294.848
294.159
293.625
293.29
293.067
292.965
292.967
293.079
293.308
293.665
294.158
294.789
295.55
296.442
297.459
298.592
299.828
301.111
302.562
303.692
305.497
306.502
307.714
308.705
309.614
310.45
311.101
311.667
311.986
312.161
312.271
312.135
311.993
311.736
311.485
311.13
310.77
310.295
309.852
309.433
309.037
308.715
308.48
308.284
308.034
307.841
307.611
307.442
307.276
307.092
306.989
306.964
306.906
306.874
306.759
306.676
306.593
306.524
306.485
306.434
306.407
306.377
306.354
306.332
306.316
306.315
306.324
306.289
306.265
306.393
306.393
306.347
306.315
306.415
306.418
306.384
306.32
306.266
306.471
306.505
306.487
306.437
306.39
306.564
306.588
306.565
306.551
306.589
306.589
306.557
306.531
306.66
306.675
306.669
306.665
306.69
306.694
306.679
306.656
306.618
306.559
306.511
306.474
306.45
306.524
306.558
306.587
306.605
306.615
306.616
306.586
306.558
306.55
306.554
306.574
306.707
306.784
306.894
306.986
307.075
307.153
307.218
307.268
307.303
307.324
307.322
307.309
307.312
307.321
307.333
307.36
307.384
307.428
307.462
307.494
307.525
307.558
307.589
307.615
307.641
307.661
307.687
307.707
307.729
307.756
307.785
307.817
307.851
307.89
307.93
307.976
308.021
308.072
308.121
308.175
308.226
308.278
308.327
308.377
308.419
308.458
308.49
308.524
308.554
308.582
308.608
308.634
308.659
308.687
308.716
308.748
308.783
308.822
308.864
308.911
308.959
309.014
309.071
309.135
309.196
309.258
309.315
309.363
309.401
309.433
309.46
309.482
309.502
309.525
309.551
309.584
309.622
309.667
309.718
309.774
309.835
309.901
309.969
310.034
310.095
310.155
310.208
310.247
310.292
310.335
310.371
310.41
310.447
310.484
310.522
310.561
310.601
310.643
310.687
310.731
310.777
310.824
310.871
310.919
310.967
311.016
311.065
311.115
311.164
311.215
311.266
311.319
311.369
311.394
300.21
300.183
300.118
299.986
299.695
299.265
298.781
298.087
297.259
296.391
295.566
294.847
294.244
293.787
293.496
293.307
293.224
293.233
293.342
293.556
293.879
294.316
294.873
295.553
296.361
297.297
298.323
299.489
300.451
301.866
302.705
303.775
304.617
305.421
306.093
306.601
307.101
307.34
307.612
307.604
307.427
307.411
306.996
306.742
306.226
305.881
305.417
304.986
304.493
304.008
303.612
303.242
302.921
302.774
302.607
302.436
302.279
302.143
302.034
301.98
301.886
301.867
302.003
301.995
302.126
302.078
302.085
302.134
302.135
302.233
302.247
302.344
302.386
302.441
302.497
302.547
302.61
302.677
302.695
302.718
302.86
302.922
302.927
302.944
303.057
303.108
303.119
303.103
303.088
303.259
303.348
303.363
303.351
303.337
303.475
303.542
303.548
303.56
303.604
303.626
303.619
303.617
303.724
303.767
303.78
303.794
303.821
303.839
303.832
303.822
303.795
303.751
303.72
303.692
303.681
303.752
303.792
303.82
303.835
303.845
303.852
303.825
303.804
303.8
303.806
303.833
303.949
304.021
304.123
304.205
304.283
304.352
304.41
304.452
304.482
304.5
304.498
304.483
304.486
304.492
304.502
304.524
304.545
304.583
304.611
304.637
304.664
304.69
304.717
304.737
304.757
304.771
304.79
304.805
304.82
304.838
304.858
304.882
304.907
304.937
304.968
305.007
305.044
305.087
305.129
305.175
305.219
305.263
305.305
305.348
305.384
305.417
305.443
305.471
305.496
305.518
305.538
305.558
305.579
305.601
305.624
305.651
305.681
305.714
305.75
305.791
305.835
305.884
305.936
305.994
306.05
306.106
306.158
306.201
306.235
306.263
306.286
306.305
306.322
306.342
306.365
306.394
306.429
306.47
306.518
306.57
306.628
306.689
306.754
306.814
306.873
306.929
306.979
307.016
307.059
307.1
307.134
307.171
307.206
307.242
307.278
307.315
307.354
307.394
307.436
307.479
307.523
307.568
307.614
307.66
307.707
307.754
307.802
307.85
307.899
307.949
307.999
308.051
308.099
308.125
299.977
299.991
299.922
299.747
299.415
299.013
298.503
297.832
297.059
296.275
295.541
294.897
294.357
293.956
293.686
293.504
293.414
293.406
293.482
293.644
293.889
294.241
294.711
295.304
296.011
296.876
297.622
298.69
299.314
300.096
300.704
301.28
301.644
301.843
301.983
301.816
301.943
301.606
301.66
301.414
301.074
301.062
300.555
300.312
299.851
299.55
299.063
298.674
298.303
297.872
297.478
297.081
296.669
296.637
296.421
296.386
296.207
296.225
296.114
296.227
296.259
296.218
296.593
296.6
296.969
297.051
297.059
297.341
297.377
297.642
297.707
297.931
298.047
298.151
298.285
298.389
298.523
298.637
298.73
298.812
298.965
299.078
299.178
299.254
299.383
299.485
299.571
299.615
299.645
299.807
299.924
300.008
300.047
300.07
300.194
300.295
300.358
300.404
300.467
300.522
300.556
300.582
300.676
300.753
300.803
300.841
300.881
300.914
300.929
300.94
300.929
300.916
300.909
300.903
300.906
300.979
301.031
301.066
301.089
301.103
301.121
301.106
301.106
301.114
301.131
301.16
301.271
301.345
301.439
301.517
301.592
301.658
301.712
301.756
301.79
301.807
301.819
301.807
301.814
301.824
301.837
301.858
301.88
301.915
301.944
301.97
301.997
302.022
302.048
302.067
302.088
302.1
302.117
302.131
302.142
302.157
302.173
302.192
302.213
302.238
302.266
302.3
302.333
302.373
302.412
302.454
302.495
302.535
302.575
302.612
302.645
302.676
302.697
302.722
302.743
302.763
302.78
302.798
302.816
302.835
302.856
302.881
302.908
302.938
302.972
303.011
303.052
303.098
303.147
303.202
303.256
303.309
303.358
303.399
303.431
303.458
303.479
303.498
303.513
303.532
303.554
303.582
303.616
303.656
303.701
303.752
303.808
303.867
303.929
303.988
304.045
304.1
304.148
304.185
304.227
304.267
304.301
304.338
304.372
304.407
304.443
304.48
304.518
304.558
304.599
304.642
304.685
304.73
304.775
304.821
304.868
304.915
304.962
305.01
305.058
305.108
305.158
305.21
305.258
305.285
299.752
299.768
299.699
299.492
299.147
298.753
298.256
297.618
296.913
296.205
295.538
294.951
294.464
294.091
293.822
293.627
293.508
293.453
293.461
293.528
293.683
293.94
294.316
294.826
295.298
296.051
296.462
296.969
297.318
297.555
297.578
297.421
297.081
296.416
296.244
295.426
295.434
294.75
294.832
294.476
293.872
293.704
293.017
292.671
292.298
291.895
291.537
291.146
290.928
290.558
290.447
290.353
289.943
290.265
289.803
290.058
289.698
290.032
289.79
290.183
290.269
290.313
290.828
290.839
291.376
291.56
291.604
292.038
292.16
292.525
292.682
293
293.206
293.396
293.619
293.809
294.016
294.202
294.383
294.545
294.725
294.893
295.08
295.224
295.376
295.527
295.682
295.788
295.877
296.029
296.183
296.333
296.431
296.512
296.628
296.775
296.89
296.989
297.086
297.182
297.26
297.33
297.421
297.537
297.623
297.694
297.76
297.818
297.863
297.898
297.922
297.952
297.977
298.003
298.017
298.107
298.175
298.221
298.256
298.282
298.31
298.326
298.356
298.373
298.411
298.439
298.553
298.631
298.722
298.802
298.88
298.95
299.009
299.06
299.099
299.125
299.158
299.158
299.175
299.193
299.208
299.236
299.262
299.3
299.333
299.364
299.394
299.424
299.451
299.477
299.499
299.516
299.535
299.549
299.561
299.575
299.591
299.609
299.629
299.655
299.682
299.717
299.751
299.791
299.83
299.873
299.914
299.955
299.996
300.032
300.065
300.094
300.116
300.14
300.161
300.181
300.198
300.217
300.235
300.255
300.276
300.301
300.328
300.359
300.393
300.432
300.473
300.519
300.568
300.623
300.676
300.729
300.778
300.819
300.851
300.879
300.9
300.921
300.937
300.958
300.981
301.01
301.044
301.085
301.13
301.181
301.237
301.297
301.358
301.417
301.474
301.528
301.577
301.616
301.659
301.699
301.735
301.772
301.807
301.843
301.88
301.918
301.957
301.997
302.039
302.083
302.127
302.172
302.218
302.265
302.312
302.36
302.408
302.457
302.506
302.556
302.607
302.659
302.709
302.737
299.529
299.519
299.447
299.218
298.901
298.533
298.042
297.448
296.805
296.156
295.543
294.998
294.54
294.175
293.889
293.659
293.483
293.347
293.248
293.221
293.28
293.436
293.642
294.002
294.201
294.463
294.596
294.57
294.303
293.786
292.987
291.878
291.208
289.898
289.653
288.509
288.305
287.214
286.869
286.327
285.437
284.842
284.159
283.528
283.293
282.648
282.707
282.172
282.545
282.035
282.453
282.691
282.484
283.43
283.122
283.692
283.216
283.809
283.502
284.116
284.18
284.468
284.942
284.937
285.602
285.828
285.892
286.414
286.575
287.009
287.212
287.618
287.898
288.167
288.474
288.745
289.031
289.293
289.554
289.796
290.03
290.256
290.517
290.737
290.945
291.155
291.38
291.561
291.722
291.897
292.094
292.302
292.472
292.62
292.764
292.948
293.117
293.271
293.414
293.551
293.675
293.786
293.901
294.049
294.175
294.283
294.384
294.475
294.558
294.631
294.701
294.774
294.84
294.901
294.945
295.044
295.13
295.192
295.246
295.295
295.343
295.393
295.449
295.493
295.548
295.589
295.706
295.79
295.887
295.976
296.062
296.141
296.212
296.277
296.332
296.379
296.428
296.45
296.48
296.509
296.537
296.573
296.606
296.652
296.694
296.734
296.773
296.811
296.846
296.88
296.909
296.931
296.953
296.969
296.983
297
297.019
297.041
297.066
297.096
297.129
297.169
297.208
297.253
297.297
297.344
297.39
297.436
297.481
297.521
297.556
297.587
297.612
297.638
297.663
297.686
297.707
297.729
297.75
297.774
297.798
297.826
297.857
297.89
297.927
297.969
298.013
298.061
298.113
298.17
298.225
298.28
298.331
298.374
298.409
298.441
298.465
298.49
298.509
298.533
298.559
298.591
298.628
298.671
298.719
298.772
298.829
298.89
298.953
299.014
299.072
299.128
299.179
299.222
299.267
299.309
299.347
299.386
299.424
299.463
299.502
299.542
299.583
299.625
299.669
299.715
299.761
299.808
299.856
299.904
299.953
300.003
300.053
300.103
300.154
300.206
300.259
300.313
300.365
300.395
299.295
299.254
299.177
298.944
298.671
298.333
297.86
297.312
296.719
296.118
295.545
295.027
294.58
294.202
293.879
293.589
293.323
293.072
292.876
292.742
292.673
292.64
292.623
292.611
292.542
292.332
291.895
291.168
290.061
288.584
287.254
285.474
284.841
283.065
282.524
280.595
280.084
278.227
277.635
276.546
276.016
274.727
274.633
273.306
273.984
272.704
273.784
272.863
274.102
273.459
274.693
274.88
275.43
276.557
276.302
277.416
277.151
277.99
277.657
278.492
278.456
279.127
279.512
279.453
280.219
280.437
280.498
281.06
281.191
281.65
281.821
282.261
282.536
282.838
283.17
283.452
283.779
284.073
284.379
284.664
284.94
285.201
285.526
285.806
286.076
286.34
286.628
286.884
287.122
287.344
287.586
287.853
288.089
288.304
288.505
288.724
288.944
289.156
289.358
289.549
289.73
289.893
290.047
290.233
290.403
290.558
290.707
290.839
290.964
291.087
291.204
291.32
291.428
291.524
291.607
291.713
291.818
291.9
291.978
292.056
292.135
292.223
292.305
292.383
292.458
292.526
292.65
292.747
292.855
292.96
293.062
293.157
293.248
293.333
293.414
293.49
293.558
293.603
293.646
293.691
293.738
293.789
293.838
293.897
293.954
294.009
294.063
294.113
294.16
294.205
294.241
294.27
294.297
294.321
294.346
294.372
294.4
294.432
294.465
294.503
294.546
294.595
294.645
294.7
294.754
294.81
294.865
294.919
294.97
295.016
295.057
295.096
295.127
295.161
295.192
295.221
295.249
295.278
295.306
295.335
295.366
295.4
295.436
295.476
295.518
295.564
295.614
295.668
295.725
295.787
295.846
295.905
295.961
296.008
296.049
296.086
296.117
296.146
296.172
296.201
296.232
296.268
296.31
296.357
296.409
296.466
296.526
296.59
296.656
296.721
296.782
296.841
296.897
296.944
296.993
297.039
297.08
297.123
297.165
297.207
297.25
297.293
297.338
297.384
297.431
297.479
297.529
297.579
297.63
297.681
297.733
297.785
297.838
297.891
297.945
298
298.056
298.112
298.166
298.2
299.063
298.987
298.895
298.699
298.474
298.149
297.706
297.2
296.648
296.084
295.54
295.036
294.58
294.167
293.784
293.403
293.02
292.669
292.356
292.018
291.744
291.468
291.189
290.828
290.262
289.427
288.224
286.625
284.748
282.435
281.18
278.919
277.888
275.399
274.058
271.599
270.224
268.214
266.881
265.67
265.3
263.253
264.022
261.949
263.835
262.603
264.741
263.849
266.047
265.518
267.676
267.573
269.259
270.147
269.999
271.489
271.487
272.791
272.523
273.533
273.451
274.466
274.789
274.71
275.546
275.748
275.875
276.419
276.497
276.974
277.081
277.521
277.718
278.052
278.329
278.563
278.867
279.115
279.41
279.651
279.923
280.168
280.498
280.751
281.053
281.336
281.642
281.924
282.205
282.473
282.74
283.049
283.327
283.597
283.855
284.108
284.367
284.643
284.901
285.146
285.382
285.602
285.809
286.034
286.25
286.459
286.658
286.836
287.003
287.168
287.31
287.441
287.581
287.73
287.87
288.006
288.146
288.263
288.377
288.493
288.607
288.718
288.824
288.95
289.066
289.174
289.319
289.441
289.566
289.696
289.821
289.938
290.055
290.171
290.279
290.392
290.472
290.537
290.599
290.662
290.733
290.809
290.884
290.965
291.043
291.119
291.191
291.259
291.318
291.373
291.421
291.464
291.507
291.55
291.592
291.636
291.68
291.728
291.777
291.83
291.885
291.946
292.009
292.079
292.148
292.218
292.284
292.35
292.41
292.467
292.522
292.573
292.617
292.662
292.703
292.744
292.782
292.821
292.859
292.898
292.938
292.982
293.026
293.075
293.125
293.181
293.239
293.301
293.366
293.435
293.501
293.566
293.629
293.684
293.732
293.777
293.815
293.852
293.885
293.921
293.959
294.002
294.049
294.102
294.16
294.222
294.288
294.357
294.428
294.498
294.564
294.628
294.69
294.743
294.797
294.848
294.895
294.943
294.989
295.036
295.084
295.132
295.182
295.232
295.284
295.336
295.39
295.444
295.499
295.555
295.61
295.667
295.723
295.78
295.838
295.897
295.956
296.015
296.073
296.111
298.843
298.738
298.633
298.485
298.302
297.987
297.578
297.109
296.591
296.054
295.525
295.02
294.541
294.069
293.602
293.104
292.609
292.052
291.541
291.058
290.545
290.031
289.351
288.465
287.255
285.657
283.539
281.104
278.961
276.18
274.725
271.653
269.904
266.589
264.67
261.331
259.332
256.617
255.545
253.991
254.448
252.164
254.441
252.978
255.693
254.365
257.619
256.452
259.579
258.437
261.172
260.544
263.268
264.218
264.331
266.335
266.543
268.136
268.134
269.3
269.292
270.494
270.808
270.771
271.663
271.754
272.216
272.625
272.664
273.189
273.254
273.704
273.835
274.2
274.425
274.604
274.869
275.051
275.295
275.469
275.694
275.864
276.134
276.306
276.58
276.792
277.054
277.278
277.529
277.763
278.001
278.281
278.524
278.803
279.065
279.323
279.592
279.894
280.173
280.452
280.723
280.985
281.239
281.496
281.752
282.011
282.248
282.471
282.643
282.799
282.947
283.115
283.283
283.464
283.665
283.864
284.06
284.23
284.388
284.521
284.639
284.783
284.938
285.098
285.287
285.459
285.652
285.818
285.981
286.147
286.307
286.46
286.606
286.764
286.898
287.045
287.151
287.244
287.332
287.421
287.509
287.597
287.69
287.795
287.897
287.996
288.085
288.172
288.252
288.332
288.408
288.477
288.544
288.612
288.679
288.746
288.814
288.884
288.955
289.029
289.104
289.184
289.264
289.348
289.432
289.517
289.601
289.683
289.76
289.836
289.909
289.977
290.037
290.098
290.155
290.211
290.264
290.317
290.369
290.422
290.476
290.533
290.591
290.652
290.715
290.782
290.852
290.925
291
291.079
291.156
291.229
291.301
291.366
291.424
291.48
291.527
291.574
291.616
291.662
291.709
291.76
291.816
291.877
291.942
292.012
292.085
292.161
292.238
292.315
292.388
292.458
292.528
292.589
292.649
292.706
292.76
292.814
292.867
292.921
292.975
293.029
293.084
293.14
293.197
293.256
293.314
293.374
293.434
293.495
293.556
293.617
293.678
293.74
293.803
293.866
293.93
293.993
294.056
294.098
298.647
298.514
298.417
298.314
298.15
297.855
297.478
297.04
296.547
296.025
295.497
294.979
294.466
293.897
293.298
292.595
291.93
291.293
290.604
289.887
289.127
288.193
286.968
285.446
283.474
281.075
278.103
275.126
272.979
269.563
267.458
263.61
260.987
257.266
253.937
250.68
248.259
246.274
244.619
242.96
243.12
241.781
243.743
242.755
245.98
245.265
249.681
248.693
253.019
252.042
256.009
255.33
259.002
260.134
260.218
262.49
262.264
264.081
264.153
265.672
265.839
267.119
267.491
267.556
268.448
268.429
269.272
269.59
269.596
270.192
270.239
270.718
270.825
271.223
271.433
271.581
271.834
271.966
272.189
272.305
272.508
272.624
272.834
272.955
273.184
273.333
273.531
273.682
273.877
274.034
274.202
274.387
274.53
274.767
274.935
275.125
275.315
275.549
275.753
275.986
276.211
276.437
276.662
276.896
277.136
277.388
277.613
277.822
277.962
278.166
278.364
278.591
278.812
279.041
279.238
279.441
279.666
279.852
280.008
280.174
280.359
280.565
280.784
281
281.212
281.462
281.7
281.922
282.137
282.352
282.557
282.756
282.939
283.139
283.29
283.453
283.596
283.726
283.846
283.965
284.079
284.191
284.304
284.422
284.541
284.661
284.779
284.891
284.999
285.11
285.215
285.314
285.409
285.505
285.6
285.695
285.789
285.885
285.982
286.08
286.179
286.281
286.383
286.487
286.591
286.696
286.799
286.9
286.997
287.093
287.185
287.274
287.355
287.435
287.51
287.585
287.657
287.729
287.799
287.87
287.941
288.015
288.09
288.167
288.247
288.329
288.414
288.502
288.591
288.682
288.771
288.856
288.939
289.017
289.088
289.157
289.216
289.276
289.331
289.389
289.447
289.511
289.577
289.649
289.724
289.804
289.886
289.971
290.056
290.142
290.224
290.302
290.381
290.452
290.52
290.586
290.648
290.711
290.772
290.834
290.895
290.957
291.019
291.083
291.147
291.212
291.277
291.343
291.41
291.477
291.544
291.611
291.679
291.746
291.815
291.884
291.953
292.022
292.09
292.138
298.491
298.332
298.258
298.185
298.032
297.759
297.408
296.993
296.514
295.997
295.451
294.884
294.297
293.504
292.778
292.022
291.236
290.39
289.491
288.504
287.31
285.864
283.994
281.745
278.888
275.905
272.214
269.126
266.533
262.356
259.372
255.019
251.437
247.214
243.955
240.804
237.919
235.224
232.859
231.18
230.024
229.135
228.984
229.538
231.612
232.93
237.334
238.583
244.712
244.031
249.989
249.015
254.566
255.786
256.621
258.587
259.045
260.869
260.997
262.805
262.932
264.244
264.66
264.902
265.719
265.714
266.779
267.105
267.116
267.796
267.841
268.368
268.481
268.91
269.12
269.26
269.516
269.622
269.845
269.933
270.135
270.224
270.412
270.511
270.716
270.823
271
271.111
271.277
271.394
271.514
271.634
271.724
271.901
272.003
272.145
272.256
272.408
272.519
272.686
272.814
272.952
273.08
273.215
273.348
273.496
273.597
273.743
273.837
274.036
274.22
274.443
274.661
274.883
275.065
275.217
275.373
275.51
275.679
275.876
276.104
276.354
276.624
276.887
277.136
277.385
277.663
277.921
278.176
278.428
278.668
278.909
279.124
279.359
279.517
279.71
279.885
280.057
280.212
280.364
280.509
280.65
280.791
280.932
281.075
281.219
281.364
281.503
281.638
281.776
281.909
282.036
282.158
282.283
282.405
282.527
282.649
282.771
282.892
283.015
283.139
283.264
283.389
283.516
283.642
283.768
283.892
284.013
284.129
284.245
284.357
284.467
284.567
284.668
284.762
284.857
284.95
285.042
285.132
285.223
285.314
285.407
285.501
285.596
285.694
285.794
285.896
286
286.105
286.211
286.314
286.413
286.509
286.602
286.687
286.772
286.847
286.921
286.992
287.065
287.139
287.216
287.297
287.382
287.47
287.562
287.656
287.752
287.848
287.944
288.037
288.125
288.214
288.297
288.376
288.452
288.526
288.599
288.67
288.742
288.813
288.885
288.956
289.029
289.101
289.175
289.249
289.323
289.398
289.473
289.548
289.623
289.698
289.773
289.849
289.924
290.001
290.077
290.151
290.207
298.382
298.204
298.153
298.095
297.959
297.706
297.372
296.96
296.471
295.941
295.34
294.658
293.951
293.127
292.306
291.384
290.388
289.325
288.173
286.753
285.04
283.01
280.399
277.358
273.473
270.458
266.24
262.937
259.317
254.789
250.824
246.235
242.045
238.185
234.699
231.322
228.298
225.407
222.868
220.432
218.15
215.999
214.056
212.308
210.81
209.635
208.833
209.103
217.437
223.406
233.549
236.867
246.522
249.513
252.126
254.555
256.012
257.698
258.407
260.197
260.815
261.868
262.104
263.031
263.546
263.555
264.749
265.078
265.1
265.869
265.91
266.501
266.635
267.077
267.297
267.447
267.705
267.792
268.027
268.101
268.31
268.386
268.572
268.665
268.852
268.944
269.117
269.206
269.364
269.444
269.581
269.668
269.732
269.877
269.943
270.083
270.161
270.273
270.353
270.48
270.563
270.663
270.733
270.808
270.871
270.934
270.967
271.061
271.086
271.253
271.375
271.531
271.692
271.834
271.954
272.03
272.103
272.154
272.261
272.404
272.584
272.793
273.026
273.257
273.475
273.663
273.869
274.085
274.322
274.566
274.792
275.037
275.236
275.459
275.645
275.884
276.096
276.323
276.522
276.714
276.896
277.07
277.243
277.411
277.581
277.752
277.923
278.09
278.252
278.415
278.574
278.727
278.876
279.027
279.176
279.324
279.471
279.618
279.765
279.912
280.059
280.207
280.355
280.502
280.648
280.792
280.935
281.074
281.208
281.343
281.472
281.601
281.72
281.839
281.953
282.067
282.18
282.291
282.4
282.51
282.619
282.73
282.841
282.953
283.067
283.183
283.302
283.422
283.544
283.664
283.781
283.895
284.005
284.113
284.213
284.313
284.404
284.495
284.582
284.671
284.762
284.855
284.951
285.051
285.153
285.26
285.368
285.476
285.584
285.692
285.797
285.896
285.999
286.094
286.186
286.274
286.36
286.445
286.529
286.613
286.696
286.779
286.862
286.945
287.029
287.114
287.198
287.283
287.368
287.452
287.537
287.621
287.705
287.79
287.874
287.959
288.045
288.129
288.211
288.275
298.331
298.123
298.095
298.046
297.929
297.68
297.345
296.922
296.397
295.822
295.175
294.444
293.65
292.735
291.719
290.595
289.387
288.072
286.523
284.587
282.276
279.589
276.083
272.415
267.815
264.98
260.221
256.234
251.767
247.047
242.528
238.309
234.337
230.463
226.94
223.899
221.106
218.455
215.906
213.502
211.319
209.367
207.594
205.988
204.561
203.281
202.164
201.223
200.586
200.329
200.622
200.81
212.537
226.396
237.158
245.428
250.36
253.352
255.705
257.585
258.655
259.558
260.319
261.023
261.68
262.014
262.993
263.422
263.483
264.314
264.327
264.993
265.131
265.592
265.823
265.999
266.239
266.318
266.57
266.633
266.855
266.926
267.118
267.21
267.383
267.469
267.639
267.719