/*--------------------------------*- C++ -*----------------------------------*\
| =========                 |                                                 |
| \\      /  F ield         | OpenFOAM: The Open Source CFD Toolbox           |
|  \\    /   O peration     | Version:  2312                                  |
|   \\  /    A nd           | Website:  www.openfoam.com                      |
|    \\/     M anipulation  |                                                 |
\*---------------------------------------------------------------------------*/
FoamFile
{
    version     2.0;
    format      ascii;
    arch        "LSB;label=32;scalar=64";
    class       volScalarField;
    location    "0.005";
    object      k;
}
// * * * * * * * * * * * * * * * * * * * * * * * * * * * * * * * * * * * * * //

dimensions      [0 2 -2 0 0 0 0];

internalField   nonuniform List<scalar> 
48128
(
0.345629
0.508075
1.8293
18.1449
82.0069
206.933
351.465
489.062
614.029
723.857
819.83
905.259
982.565
1053.43
1120.51
1185.49
1248.93
1311.5
1373.89
1436.64
1502.55
1572.93
1649.11
1726.15
1812.77
1904.64
2005.29
2111.9
2226.73
2357.57
2497.39
2649.55
2815.56
2970.5
3116.7
3243.01
3352.9
3411.82
3453.09
3460.18
3425.99
3453.22
3501.34
3576.66
3635.73
3654.62
3647.49
3625.28
3588.94
3551.3
3508.17
3464.94
3413.25
3356.02
3289.38
3225.74
3159.29
3099.39
3038.14
2973.7
2916.66
2854.9
2793
2734.64
2674.78
2623.61
2571.13
2524.19
2476.49
2431.74
2389.75
2348.31
2310.01
2272.83
2238.33
2206.01
2174.54
2146.57
2118.29
2094.42
2070.92
2047.99
2023.86
2005.58
1987.29
1968.24
1950.92
1933.22
1921.94
1909.61
1895.68
1881.64
1867.26
1859.08
1850.05
1839.62
1827.9
1819.86
1811.62
1803.48
1794.57
1789.83
1784.32
1777.8
1770.57
1765.49
1760.36
1754.98
1750.32
1745.72
1741.68
1737.53
1734.64
1731.62
1730.06
1728.41
1726.32
1724.03
1721.69
1719.22
1716.59
1713.89
1711.61
1710.26
1708.67
1708.51
1707.73
1706.4
1704.59
1702.48
1699.97
1697.22
1694.38
1691.48
1688.59
1685.8
1683.42
1681.57
1680.55
1679.66
1679.28
1678.79
1678.26
1677.49
1676.44
1675.24
1673.95
1672.66
1671.32
1670.04
1668.8
1667.68
1666.73
1665.77
1665.04
1664.31
1663.71
1663.08
1662.44
1661.72
1660.95
1660.09
1659.14
1658.08
1656.95
1655.72
1654.43
1653.09
1651.83
1650.5
1649.33
1648.29
1647.37
1646.65
1646.07
1645.58
1645.23
1644.91
1644.72
1644.51
1644.34
1644.13
1643.86
1643.52
1643.11
1642.58
1641.96
1641.23
1640.4
1639.45
1638.39
1637.25
1636.06
1634.84
1633.79
1633.04
1632.58
1632.27
1632.28
1632.35
1632.47
1632.59
1632.55
1632.4
1632.05
1631.5
1630.74
1629.81
1628.69
1627.47
1626.18
1625.08
1623.86
1622.84
1622.26
1621.65
1621.28
1620.92
1620.67
1620.42
1620.16
1619.88
1619.57
1619.21
1618.78
1618.3
1617.75
1617.15
1616.5
1615.83
1615.14
1614.43
1613.74
1613.04
1612.35
1611.65
1610.95
1610.23
1609.23
1608.59
0.944771
2.27118
10.3794
42.3997
121.661
251.029
403.903
556.746
707.973
855.727
1001.45
1146.24
1291.38
1441.62
1600.39
1769.5
1952.97
2152.58
2372.18
2613.67
2882.4
3172.66
3502.89
3848.69
4228.72
4632.14
5061.14
5508.35
5952.34
6423.23
6910.63
7400.23
7886.28
8353.95
8809.25
9212.3
9583.12
9836.88
10044.9
10169.7
10203.5
10247.1
10265.3
10244.6
10164.1
10021.3
9834.82
9616.51
9380.16
9143.61
8901.26
8662.48
8414.35
8163.4
7906.22
7663.14
7415.89
7181.78
6949.19
6714.49
6494.69
6273.11
6058.67
5854.45
5653.87
5468.5
5288.86
5118.67
4954.18
4797.24
4648.16
4505.44
4370.25
4242.29
4121.49
4007.55
3899.63
3799.9
3702.16
3613.51
3533.52
3455.53
3376.73
3304.05
3240.49
3176.26
3114.29
3052.12
2997.78
2951.88
2904.12
2855.69
2806.79
2763.67
2728.42
2691.42
2653.27
2615.74
2582.95
2550.94
2518.57
2488.35
2463.71
2438.22
2412.26
2386.5
2363.92
2341.33
2319.36
2297.96
2276.49
2255.42
2233.99
2214.63
2195.62
2179.72
2165.22
2151.22
2138.36
2125.94
2113.18
2100.03
2086.59
2074.09
2062.21
2051.59
2044.18
2037.11
2030.86
2025.15
2019.44
2013.5
2007.19
2000.52
1993.41
1985.7
1977.46
1969.04
1960.55
1952.71
1944.84
1937.9
1931.02
1924.94
1918.97
1913.44
1907.86
1902.76
1897.79
1892.75
1887.97
1883.13
1878.59
1874.04
1869.64
1865.36
1861.33
1857.41
1853.85
1850.36
1847.27
1844.26
1841.63
1839.07
1836.86
1834.7
1832.82
1830.89
1829.21
1827.49
1825.69
1823.86
1821.92
1819.96
1817.97
1815.96
1813.92
1811.86
1809.86
1807.84
1805.96
1804.06
1802.43
1800.77
1799.4
1798.01
1796.87
1795.72
1794.82
1793.94
1793.37
1792.78
1792.22
1791.52
1790.57
1789.45
1788.15
1786.67
1785.08
1783.47
1781.82
1780.29
1779
1777.83
1776.81
1775.92
1775.29
1774.71
1774.41
1774.14
1773.78
1773.43
1772.9
1772.11
1771.28
1770.36
1769.33
1768.24
1767.1
1765.94
1764.76
1763.62
1762.49
1761.44
1760.41
1759.46
1758.55
1757.71
1756.89
1756.15
1755.4
1754.73
1754.04
1753.41
1752.76
1752.17
1751.55
1750.99
1750.23
1749.1
2.6162
11.3887
38.3348
111.121
253.174
472.8
743.864
1024.85
1303.98
1574.18
1835.17
2089.12
2338.42
2587.33
2841.53
3103.41
3380.47
3675.03
3992.62
4336.02
4711.12
5114.88
5550.55
6013.08
6508.1
7034.29
7585.04
8168.33
8783.49
9425.78
10093
10759
11418.2
12038.3
12637.8
13149.4
13608.2
13905.9
14109.5
14205.3
14190.5
14129.2
14000.8
13806.4
13559.9
13265.8
12940.5
12590.4
12233.3
11875.2
11516.8
11162.5
10805.6
10449.4
10085.6
9737.57
9387.23
9055.33
8730.43
8412.85
8107.37
7814.13
7530.18
7258.57
6997.02
6750.05
6513.7
6288.63
6073.32
5867.03
5670.98
5483.57
5305.8
5137.31
4977.57
4826.8
4683.64
4550.11
4420.66
4299.71
4191.84
4086.2
3981.52
3881.63
3793.91
3707.5
3622.14
3539.93
3460.6
3395.63
3329.44
3262.31
3197.32
3133.59
3082.17
3029.79
2976.76
2923.79
2876.84
2830.91
2785.49
2740.93
2703.3
2665.13
2627.07
2589.16
2555.05
2521.45
2488.67
2456.84
2425.07
2394.05
2362.72
2333.39
2304.42
2278.65
2254.09
2230.45
2208.21
2187.12
2166.16
2144.97
2123.97
2103.79
2084.91
2066.25
2051.24
2036.56
2023.29
2010.91
1999.44
1988.4
1977.55
1966.69
1955.63
1944.1
1932.03
1919.81
1907.4
1895.6
1883.64
1872.79
1861.94
1852.03
1842.21
1832.95
1823.66
1814.89
1806.4
1797.83
1789.6
1781.41
1773.51
1765.8
1758.14
1750.83
1743.63
1736.82
1730.19
1723.9
1717.92
1712.16
1706.86
1701.68
1696.94
1692.32
1688.06
1683.81
1679.88
1676.02
1672.08
1668.22
1664.3
1660.43
1656.58
1652.75
1648.93
1645.15
1641.39
1637.74
1634.15
1630.68
1627.41
1624.2
1621.26
1618.37
1615.82
1613.24
1611.01
1608.79
1606.97
1605.16
1603.5
1601.75
1599.78
1597.7
1595.49
1593.15
1590.7
1588.22
1585.73
1583.28
1581.09
1579.04
1577.14
1575.44
1573.94
1572.64
1571.53
1570.6
1569.62
1568.67
1567.67
1566.4
1565.1
1563.74
1562.28
1560.8
1559.27
1557.72
1556.15
1554.62
1553.08
1551.63
1550.19
1548.86
1547.55
1546.34
1545.15
1544.05
1542.98
1541.98
1541.01
1540.09
1539.2
1538.37
1537.54
1536.79
1535.92
1534.49
7.82836
33.6741
97.0011
238.535
487.544
844.578
1245.38
1635.19
1997.53
2333.77
2651.75
2958.09
3257.29
3554.68
3855.91
4164.09
4487.74
4830.73
5199.69
5596.22
6026.88
6493.3
7000.07
7547.72
8136.3
8766.28
9429.44
10132.6
10876.8
11643.2
12436.2
13218.4
13980.5
14677.7
15324.2
15851.1
16271.1
16516.7
16620.9
16603
16490.2
16274.4
15985.6
15624.4
15222.1
14786.5
14345.1
13892.5
13456.5
13011.1
12582.1
12149.7
11737.5
11327.4
10916.1
10521.3
10132.6
9762.14
9404.09
9062.25
8726.97
8417.35
8115.3
7827.11
7553.31
7289.32
7040.48
6800.39
6572.79
6353.53
6144.81
5945.5
5756.16
5577.04
5406.37
5244.59
5091.16
4946.79
4807.94
4674.65
4557.49
4442.49
4329.37
4218.36
4121.18
4026.69
3932.23
3841.75
3750.04
3676.83
3603.31
3528.86
3456.29
3382.38
3323.27
3264.11
3204.39
3144.02
3089.93
3037.3
2985.44
2932.99
2888.88
2844.5
2800.52
2756.19
2715.91
2676.55
2637.97
2600.42
2563.06
2526.55
2489.76
2455.12
2420.82
2390.05
2360.32
2331.58
2304.22
2278.12
2252.38
2226.4
2200.84
2176.01
2153
2129.6
2110.2
2091.04
2073.67
2057.25
2041.89
2027.11
2012.63
1998.37
1984.14
1969.59
1954.59
1939.59
1924.45
1910.01
1895.41
1881.86
1868.37
1855.8
1843.32
1831.45
1819.58
1808.28
1797.33
1786.29
1775.65
1765.11
1754.87
1744.9
1734.97
1725.5
1716.11
1707.23
1698.47
1690.15
1682.1
1674.37
1667.05
1659.95
1653.28
1646.78
1640.66
1634.62
1628.91
1623.33
1617.69
1612.24
1606.74
1601.4
1596.1
1590.89
1585.69
1580.61
1575.54
1570.64
1565.78
1561.1
1556.57
1552.19
1548.02
1543.96
1540.21
1536.5
1533.17
1529.87
1526.96
1524.07
1521.43
1518.7
1515.85
1512.94
1509.97
1506.91
1503.79
1500.62
1497.48
1494.41
1491.43
1488.7
1486.11
1483.73
1481.51
1479.53
1477.7
1476.09
1474.45
1472.94
1471.4
1469.68
1467.94
1466.17
1464.34
1462.5
1460.62
1458.74
1456.84
1454.99
1453.12
1451.36
1449.59
1447.93
1446.29
1444.75
1443.23
1441.81
1440.42
1439.12
1437.85
1436.67
1435.51
1434.43
1433.37
1432.41
1431.37
1429.74
18.1974
73.8593
191.935
425.489
800.976
1270.93
1724.89
2141.49
2529.48
2895.42
3245.66
3584.82
3917.15
4247.07
4579.66
4920.64
5277.34
5654.88
6061.43
6501.02
6982.3
7510.18
8087.21
8715.08
9391.81
10120.5
10883.5
11683.9
12524.7
13376.5
14242.6
15078.4
15864.6
16547.5
17115.1
17537.4
17761.2
17819.8
17738.8
17546.4
17266.1
16857.9
16388.7
15860.8
15312.6
14750.8
14186.8
13635
13117.7
12593
12121.5
11639.3
11222.3
10803.5
10420.2
10036.4
9684.5
9339.61
9017.55
8717.09
8413.05
8147.37
7882.24
7634.15
7396.46
7158.92
6939.98
6720.56
6516.22
6314.95
6124.38
5941.4
5765.92
5600.16
5440.96
5289.71
5145.31
5009.36
4878.95
4749.46
4637.62
4528.52
4420.9
4312.24
4216.94
4125.28
4033.76
3944.06
3851.53
3777.39
3705.44
3632.66
3559.73
3484.31
3423.37
3364.34
3304.53
3243.44
3187.56
3133.8
3080.42
3025.48
2978.99
2933.72
2888.35
2842.27
2799.7
2758.38
2717.82
2678.1
2638.77
2600.3
2561.46
2524.89
2488.04
2455.25
2423.51
2392.74
2363.17
2334.82
2306.94
2278.83
2251.19
2224.01
2198.77
2172.85
2151.15
2129.82
2110.32
2091.68
2074.07
2057.03
2040.44
2024.07
2007.9
1991.5
1974.68
1957.92
1941.04
1925
1908.81
1893.66
1878.63
1864.53
1850.57
1837.18
1823.85
1811.06
1798.61
1786.14
1774.02
1761.99
1750.3
1738.93
1727.59
1716.77
1706
1695.8
1685.69
1676.09
1666.72
1657.73
1649.08
1640.73
1632.77
1625.02
1617.63
1610.36
1603.38
1596.59
1589.78
1583.2
1576.58
1570.17
1563.84
1557.64
1551.46
1545.45
1539.43
1533.65
1527.87
1522.34
1516.91
1511.69
1506.64
1501.74
1497.13
1492.6
1488.46
1484.34
1480.63
1476.9
1473.5
1470.01
1466.45
1462.88
1459.3
1455.66
1451.99
1448.28
1444.65
1441.06
1437.55
1434.33
1431.21
1428.32
1425.56
1423.05
1420.66
1418.52
1416.34
1414.35
1412.37
1410.25
1408.12
1406
1403.84
1401.69
1399.52
1397.37
1395.19
1393.09
1390.98
1388.96
1386.95
1385.05
1383.16
1381.36
1379.6
1377.92
1376.29
1374.74
1373.24
1371.83
1370.45
1369.17
1367.9
1366.76
1365.58
1363.75
34.678
131.739
320.291
653.579
1136.35
1623.62
2080.69
2505.58
2905.92
3289.05
3659.32
4020.29
4375.58
4729.22
5085.32
5452.19
5833.85
6238.73
6676.87
7154.28
7680.47
8263.31
8901.81
9600.12
10351.5
11161.1
12000.3
12864
13757.9
14641.5
15502.2
16293.6
16988.8
17530.3
17897.8
18110.1
18039.5
17838.5
17398.3
16801.3
16128.5
15385.6
14596.5
13829.5
13045.3
12378.2
11698.7
11123.7
10565.5
10042.5
9611.13
9168.06
8836.41
8498.09
8232.54
7956.02
7729.58
7497.25
7297.21
7112.68
6920.61
6767.49
6610.73
6468.37
6331.06
6187.17
6052.39
5912.33
5781.03
5647.85
5519.19
5394.54
5271.23
5152.97
5034.97
4922.35
4811.3
4707.06
4604.6
4499.8
4408.82
4322.1
4233.87
4143.01
4061.66
3985.25
3908.26
3830.51
3749.53
3683.12
3621.39
3558.29
3493.76
3426.11
3369.9
3317.25
3263.5
3208.25
3156.42
3106.85
3057.18
3005.54
2961.34
2919.2
2876.6
2833.2
2792.29
2752.76
2713.96
2675.55
2637.79
2600.64
2563.15
2527.45
2491.06
2458.98
2427.93
2397.8
2368.51
2340.25
2312.5
2284.72
2257.21
2229.77
2204.19
2177.81
2155.76
2134.1
2114.09
2094.77
2076.45
2058.66
2041.31
2024.17
2007.23
1990.17
1972.69
1955.23
1937.64
1920.98
1904.16
1888.41
1872.73
1858.01
1843.56
1829.56
1815.7
1802.25
1789.14
1776.08
1763.31
1750.59
1738.21
1726.19
1714.17
1702.7
1691.24
1680.39
1669.58
1659.33
1649.23
1639.58
1630.19
1621.15
1612.46
1603.97
1595.84
1587.83
1580.07
1572.52
1565.02
1557.72
1550.4
1543.3
1536.31
1529.47
1522.66
1516.05
1509.42
1503.07
1496.7
1490.63
1484.63
1478.86
1473.25
1467.8
1462.66
1457.58
1452.88
1448.2
1443.92
1439.62
1435.67
1431.66
1427.6
1423.51
1419.49
1415.43
1411.36
1407.28
1403.27
1399.3
1395.48
1391.92
1388.44
1385.19
1382.05
1379.17
1376.39
1373.87
1371.31
1368.95
1366.63
1364.2
1361.75
1359.37
1356.95
1354.57
1352.17
1349.83
1347.46
1345.17
1342.88
1340.7
1338.53
1336.46
1334.41
1332.44
1330.5
1328.65
1326.85
1325.13
1323.46
1321.88
1320.35
1318.92
1317.51
1316.22
1314.95
1312.97
56.5734
203.621
471.101
895.826
1404.06
1883.34
2332.77
2754.29
3157.12
3547.04
3927.12
4301.27
4672.48
5043.79
5417.6
5802.49
6202.3
6627.98
7090.82
7598.43
8160.13
8785.86
9474.08
10228.7
11033.1
11894.5
12775.2
13646.1
14529.3
15376.9
16134.1
16802.4
17271.8
17546
17411.6
17071.9
16424.4
15604.5
14572.3
13486.9
12332.7
11358.8
10327.8
9557.5
8764.55
8181.77
7584.12
7129.37
6692.19
6311.33
6014.68
5714.02
5518.73
5317.81
5184.02
5043.57
4945.84
4844.01
4768.22
4704.7
4638.57
4599.5
4558.2
4525.73
4495.13
4459.15
4430.22
4398.02
4368.1
4335.67
4301.6
4265.81
4227.15
4186.51
4143.08
4098.2
4051.17
4002.54
3951.34
3896.51
3843.81
3794.51
3743.29
3688.91
3636.53
3587.55
3537.05
3484.15
3427.93
3378.66
3335.32
3290.38
3242.9
3192.38
3147.71
3107.47
3066.31
3023.54
2981.79
2941.84
2901.55
2859.7
2822.38
2787.64
2752.42
2716.46
2681.47
2647.8
2614.54
2581.33
2548.96
2516.67
2484.1
2452.42
2420.08
2391.35
2363.66
2336.63
2310.01
2284.15
2259.08
2234.05
2208.77
2183.48
2159.6
2135.21
2114.4
2093.98
2075.08
2056.69
2039.16
2022.15
2005.44
1988.95
1972.48
1956.11
1939.25
1922.34
1905.31
1889.1
1872.76
1857.41
1842.09
1827.68
1813.66
1799.9
1786.4
1773.09
1760.18
1747.37
1734.73
1722.12
1709.84
1697.89
1685.92
1674.49
1663.04
1652.16
1641.31
1630.99
1620.78
1611.04
1601.51
1592.3
1583.42
1574.68
1566.32
1558.02
1549.99
1542.13
1534.41
1526.78
1519.18
1511.78
1504.53
1497.4
1490.33
1483.45
1476.57
1469.96
1463.35
1457.01
1450.78
1444.75
1438.91
1433.19
1427.8
1422.42
1417.44
1412.46
1407.87
1403.25
1398.97
1394.68
1390.35
1385.95
1381.69
1377.36
1373.05
1368.78
1364.55
1360.41
1356.42
1352.67
1348.99
1345.55
1342.19
1339.11
1336.1
1333.35
1330.57
1327.97
1325.45
1322.82
1320.17
1317.62
1315.04
1312.53
1309.99
1307.53
1305.06
1302.67
1300.3
1298.03
1295.78
1293.63
1291.5
1289.45
1287.43
1285.49
1283.59
1281.78
1280.02
1278.35
1276.73
1275.22
1273.72
1272.35
1271.03
1268.99
82.1694
282.955
628.188
1106.96
1600.93
2064.16
2498.58
2909.5
3305.83
3693.18
4075.32
4455.75
4836.46
5218.79
5603.31
5998.38
6409.24
6847.56
7326.94
7855.77
8440.29
9097.58
9819.02
10608.5
11436.1
12299.7
13183.4
14009.2
14817
15552.2
16084
16391.3
16254.5
15859.3
15048.9
13920.9
12605.3
11248
9942.2
8872.78
7753.05
6938.06
6097.62
5518.61
4927.9
4518.9
4111.74
3818.08
3551.79
3330.31
3160.15
2999.15
2900.69
2802
2742.65
2683.93
2652.24
2622.46
2607.59
2601.62
2604.3
2614.77
2628.53
2646.76
2667.48
2686.98
2711.01
2736.74
2765.68
2793.93
2822.56
2851.54
2874.62
2898.09
2915.88
2932.03
2943.44
2951.3
2956.95
2956.41
2954.35
2951.91
2947.85
2940.22
2930.38
2919.73
2907.51
2892.28
2873.31
2853.03
2835.07
2816.46
2795.4
2771.52
2747.03
2725.39
2703.79
2680.64
2656.76
2632.71
2607.88
2581.73
2556.53
2533.53
2510.22
2485.97
2461.37
2437.43
2413.5
2389.54
2365.74
2341.7
2317.3
2292.96
2268.24
2245.41
2223.68
2202.18
2180.96
2159.98
2140
2119.82
2099.35
2078.65
2058.64
2038.38
2020.47
2002.9
1986.82
1970.94
1955.74
1940.95
1926.41
1912.03
1897.61
1883.21
1868.43
1853.46
1838.35
1823.82
1809.18
1795.22
1781.38
1768.25
1755.53
1742.98
1730.68
1718.48
1706.61
1694.86
1683.21
1671.54
1660.14
1649.03
1637.89
1627.18
1616.48
1606.22
1596.01
1586.2
1576.55
1567.24
1558.19
1549.31
1540.79
1532.33
1524.24
1516.15
1508.37
1500.67
1493.16
1485.69
1478.24
1470.96
1463.84
1456.82
1449.87
1443.1
1436.33
1429.8
1423.31
1417.03
1410.91
1404.91
1399.15
1393.46
1388.09
1382.73
1377.73
1372.72
1368.07
1363.4
1359.04
1354.7
1350.33
1345.89
1341.55
1337.19
1332.83
1328.55
1324.29
1320.17
1316.17
1312.4
1308.69
1305.23
1301.83
1298.71
1295.64
1292.83
1289.98
1287.31
1284.71
1282.02
1279.3
1276.7
1274.07
1271.52
1268.97
1266.49
1264.02
1261.63
1259.26
1257
1254.77
1252.63
1250.52
1248.48
1246.46
1244.52
1242.62
1240.8
1239.03
1237.35
1235.72
1234.2
1232.69
1231.31
1229.98
1227.97
109.7
364.235
773.716
1263.74
1737.58
2179.5
2593.37
2987.06
3369.76
3747.6
4125.2
4505.16
4888.36
5274.27
5662.3
6060.35
6474.8
6917.78
7405.68
7948.06
8546
9219.25
9951.67
10746.3
11574.5
12404.3
13244.8
13964.1
14548.1
14956.5
14910.8
14606.2
13811.7
12626.6
11190.7
9660.3
8291.42
7027.3
5921.44
5080.38
4262.17
3698.32
3166.66
2810.07
2471.84
2242.79
2029.28
1878.82
1745.03
1640.3
1553.92
1480.46
1432.25
1384
1353.15
1321.68
1304.57
1287.46
1280.35
1278.78
1283.76
1293.87
1307.87
1327.17
1350.11
1376.17
1406.86
1440.15
1477.46
1516.59
1558.68
1602.03
1645.79
1691.09
1733.2
1776.17
1814.32
1852.76
1888.83
1923.19
1952.34
1981.75
2010.24
2036.52
2058.82
2080.12
2099.86
2117.43
2130.9
2140.31
2149.88
2158.48
2166.9
2171.35
2173.18
2175.15
2178.03
2178.26
2177.32
2175.21
2171.58
2165.78
2158.9
2151.74
2144.35
2135.78
2126.22
2116.05
2105.5
2094.61
2083.4
2071.87
2059.67
2046.67
2032.71
2018.91
2005.62
1992.23
1979.05
1965.71
1952.84
1939.66
1926.08
1912
1897.8
1883.29
1870.2
1857.05
1845.34
1833.51
1822.27
1811.14
1800.37
1789.51
1778.68
1767.7
1756.46
1744.78
1732.87
1721.21
1709.46
1698.04
1686.77
1675.97
1665.49
1655.16
1644.96
1634.86
1624.9
1615.07
1605.31
1595.45
1585.74
1576.25
1566.72
1557.45
1548.22
1539.25
1530.36
1521.71
1513.24
1504.96
1496.94
1488.99
1481.38
1473.75
1466.47
1459.14
1452.07
1445.07
1438.24
1431.44
1424.61
1417.89
1411.31
1404.84
1398.44
1392.15
1385.92
1379.83
1373.83
1367.96
1362.27
1356.67
1351.28
1345.95
1340.89
1335.84
1331.11
1326.35
1321.92
1317.46
1313.28
1309.14
1304.96
1300.74
1296.56
1292.41
1288.23
1284.15
1280.08
1276.16
1272.33
1268.74
1265.2
1261.9
1258.63
1255.64
1252.68
1249.97
1247.22
1244.61
1242.09
1239.48
1236.84
1234.33
1231.79
1229.33
1226.88
1224.51
1222.14
1219.86
1217.61
1215.46
1213.33
1211.31
1209.31
1207.38
1205.46
1203.62
1201.8
1200.07
1198.38
1196.77
1195.21
1193.76
1192.32
1191.02
1189.73
1187.86
137.763
437.325
890.644
1371.63
1823.11
2239.45
2627.45
2999.16
3365.45
3731.2
4098.88
4471.43
4849.2
5230.75
5615.05
6009.54
6421.24
6862.76
7353.35
7902.94
8501.78
9170.25
9898.63
10672.1
11470.8
12210.4
12905.4
13372.6
13540.7
13400.5
12811.4
11823.8
10436.1
8858.39
7404.31
5989.94
4893.89
3928.68
3187.1
2622.02
2175.4
1858.45
1599.08
1425.87
1274.49
1177.44
1083.33
1019.09
954.071
906.978
859.416
823.445
793.737
763.705
739.648
714.599
696.349
677.541
666.246
654.967
649.575
646.402
646.732
649.417
654.276
661.99
672.962
686.367
703.014
722.039
744.287
768.932
796.182
826.01
857.464
890.942
925.464
961.283
997.648
1035.04
1071.02
1107.62
1144.58
1182.59
1218.77
1254.29
1289.16
1322.88
1355.37
1384.08
1412.5
1440.44
1468.81
1494.37
1517.44
1538.12
1559.52
1578.95
1597.83
1613.35
1628.82
1641.07
1651.92
1661.12
1670.7
1678.23
1685.25
1690.85
1695.78
1700.64
1704.72
1708.87
1711.76
1712.84
1711.97
1710.38
1708.15
1705.25
1701.94
1698.34
1694.67
1690.77
1686.44
1681.25
1675.41
1668.88
1662.26
1655.31
1649.02
1642.58
1636.51
1630.36
1624.51
1618.55
1612.67
1606.66
1600.46
1593.74
1586.68
1579.31
1571.72
1564.02
1556.32
1548.91
1541.68
1534.5
1527.37
1520.2
1513.12
1506.07
1499
1491.78
1484.57
1477.44
1470.25
1463.13
1456.03
1449.03
1442.1
1435.26
1428.55
1421.94
1415.53
1409.14
1402.99
1396.8
1390.87
1384.87
1379.06
1373.25
1367.6
1361.93
1356.22
1350.56
1344.99
1339.51
1334.08
1328.71
1323.4
1318.17
1313.02
1307.96
1303.04
1298.17
1293.49
1288.83
1284.41
1279.96
1275.8
1271.6
1267.66
1263.69
1259.98
1256.29
1252.56
1248.81
1245.07
1241.37
1237.64
1234
1230.34
1226.83
1223.4
1220.18
1216.99
1214.03
1211.09
1208.4
1205.72
1203.28
1200.79
1198.42
1196.13
1193.76
1191.36
1189.08
1186.78
1184.55
1182.33
1180.19
1178.06
1176.01
1173.98
1172.05
1170.15
1168.35
1166.57
1164.85
1163.14
1161.48
1159.86
1158.3
1156.78
1155.34
1153.94
1152.63
1151.35
1150.2
1149.03
1147.42
164.69
497.28
973.973
1437.99
1864.62
2252.45
2617.89
2970.65
3317.44
3663.52
4013.69
4371.14
4735.76
5105.58
5480.02
5866.18
6272.59
6710.35
7192.94
7733.66
8323.16
8971.09
9679.3
10420.4
11154.8
11741.7
12170.4
12226.2
11932.9
11287.3
10134.9
8660.61
7115.34
5612.46
4421.06
3385.03
2635.98
2044.58
1632.54
1333.55
1133.99
987.417
887.394
816.327
761.172
727.055
690.299
661.789
631.494
606.724
580.422
556.944
534.045
510.352
489.55
468.173
451.771
436.092
423.76
413.244
404.267
397.659
391.414
387.31
383.126
380.701
379.562
379.723
380.925
383.09
386.685
391.532
397.84
405.634
414.778
425.498
437.635
451.405
466.649
483.618
501.925
521.884
543.483
567.165
592.137
618.475
646.027
674.91
704.593
734.142
764.059
794.626
826.217
857.654
889.038
918.49
948.555
977.772
1007.62
1034.29
1061.26
1086.22
1110.2
1132.27
1154.93
1175.81
1196.68
1215.47
1233.19
1251.09
1267.94
1284.74
1299.79
1313.91
1325.59
1335.32
1344.05
1351.35
1358.25
1364.83
1371.57
1377.9
1384.3
1389.1
1393.26
1395.22
1397.03
1397.45
1397.94
1397.92
1397.94
1397.77
1397.74
1397.6
1397.62
1397.59
1397.49
1396.92
1395.85
1394.28
1392.19
1389.71
1386.97
1384.1
1381.23
1378.27
1375.27
1372.11
1368.88
1365.56
1362.11
1358.43
1354.62
1350.72
1346.7
1342.61
1338.44
1334.23
1329.99
1325.73
1321.49
1317.21
1313
1308.76
1304.63
1300.46
1296.4
1292.27
1288.22
1284.12
1280.11
1276.05
1271.93
1267.78
1263.69
1259.64
1255.6
1251.57
1247.57
1243.59
1239.66
1235.76
1231.96
1228.18
1224.52
1220.87
1217.39
1213.88
1210.58
1207.24
1204.11
1200.92
1197.97
1195.01
1192.02
1189.01
1186
1183
1179.98
1177.01
1174.02
1171.13
1168.32
1165.67
1163.05
1160.61
1158.18
1155.97
1153.75
1151.74
1149.7
1147.73
1145.85
1143.89
1141.9
1140
1138.09
1136.24
1134.4
1132.62
1130.85
1129.15
1127.48
1125.9
1124.34
1122.87
1121.42
1120.01
1118.61
1117.26
1115.92
1114.64
1113.39
1112.2
1111.06
1109.99
1108.96
1108.03
1107.08
1105.82
189.691
543.773
1026.29
1469.26
1868.29
2237.29
2580.05
2907.03
3228.55
3550.47
3878.34
4215.41
4561.58
4914.98
5276.21
5653.58
6050.72
6475.52
6943.67
7469.09
8047.16
8690.44
9390.45
10086.4
10701.6
11050.5
11047.2
10764
10002.2
8811.98
7309.28
5719.22
4376.11
3242.2
2426.11
1789.93
1371.93
1067.4
882.901
748.246
669.345
605.654
570.407
541.685
524.364
509.184
493.732
480.06
464.635
449.999
433.486
416.373
398.503
380.176
366.71
352.88
342.274
331.84
322.91
314.676
307.075
300.955
295.077
290.198
285.404
280.974
277.394
273.759
270.967
268.121
265.925
264.093
262.644
261.842
261.272
261.442
261.974
263.074
264.743
267.138
270.199
274.087
278.873
284.77
291.67
299.687
308.803
319.211
330.805
343.482
357.28
372.33
389.035
407.06
426.423
446.771
468.323
491.069
515.116
539.787
565.076
590.597
616.354
641.756
667.597
693.588
720.122
745.774
771.313
796.997
821.992
846.58
869.983
892.744
913.888
932.699
950.593
967.1
983.768
999.58
1015.5
1030.17
1045.04
1057.8
1070.36
1079.99
1089.18
1096.52
1103.67
1109.79
1115.99
1121.66
1127.53
1133.41
1139.56
1145.83
1152.31
1158.47
1163.79
1168.54
1172.63
1176.05
1179.07
1181.46
1183.87
1185.81
1187.78
1189.28
1190.63
1191.69
1192.68
1193.26
1193.6
1193.7
1193.59
1193.31
1192.84
1192.2
1191.39
1190.45
1189.38
1188.19
1186.91
1185.53
1184.08
1182.54
1180.96
1179.27
1177.53
1175.71
1173.88
1171.98
1169.98
1167.93
1165.84
1163.74
1161.61
1159.44
1157.23
1154.98
1152.72
1150.43
1148.17
1145.89
1143.65
1141.39
1139.2
1136.97
1134.85
1132.69
1130.66
1128.57
1126.66
1124.73
1122.76
1120.76
1118.73
1116.69
1114.61
1112.54
1110.44
1108.4
1106.4
1104.53
1102.66
1100.94
1099.22
1097.66
1096.09
1094.71
1093.29
1091.91
1090.61
1089.24
1087.82
1086.47
1085.1
1083.77
1082.45
1081.17
1079.91
1078.7
1077.51
1076.39
1075.3
1074.27
1073.27
1072.29
1071.31
1070.37
1069.42
1068.52
1067.64
1066.8
1066.01
1065.27
1064.57
1063.95
1063.31
1062.53
211.444
574.037
1050.37
1469.2
1853.14
2199.97
2516.19
2814.86
3108.31
3403.31
3705.74
4018.99
4343.52
4678.31
5025.7
5387.16
5770.79
6181.99
6640.24
7171.73
7771.18
8435.67
9132.65
9732.42
10141.6
10100
9773.21
9018.01
7775.01
6225.1
4707.63
3395.5
2448.64
1743.26
1275.27
953.704
757.977
623.171
538.906
477.115
437.244
405.02
387.394
369.505
359.391
349.461
344.213
338.149
331.653
326.237
317.586
309.782
301.234
297.234
292.564
287.103
281.498
275.56
269.663
263.55
257.846
252.658
247.681
243.326
239.342
235.32
231.894
228.421
225.283
222.106
219.148
216.357
213.662
211.281
208.843
206.701
204.512
202.671
200.795
199.302
197.857
196.699
195.771
195.152
194.968
195.145
195.609
196.483
197.776
199.5
201.698
204.427
207.872
212.033
216.997
222.706
229.271
236.794
245.442
255.1
265.827
277.546
290.269
303.942
318.707
334.637
351.942
370.338
389.946
410.679
432.403
454.897
477.815
501.009
524.113
546.163
567.946
589.391
611.135
632.495
654.065
674.508
695.203
713.753
732.412
748.391
763.6
776.987
790.145
802.126
814.266
825.825
837.682
849.426
861.443
873.142
884.991
896.424
907.116
917.054
926.495
934.977
943.21
950.519
957.816
964.433
971.111
977.247
983.226
988.926
994.531
999.681
1004.41
1008.88
1013
1016.83
1020.38
1023.63
1026.65
1029.38
1031.95
1034.23
1036.41
1038.3
1040.14
1041.65
1043.15
1044.34
1045.46
1046.37
1047.24
1048.02
1048.6
1049.12
1049.51
1049.87
1050.1
1050.27
1050.3
1050.24
1050.11
1049.89
1049.62
1049.26
1048.87
1048.43
1047.95
1047.42
1046.88
1046.27
1045.69
1045.03
1044.46
1043.88
1043.24
1042.58
1041.86
1041.12
1040.31
1039.47
1038.58
1037.68
1036.78
1035.94
1035.09
1034.31
1033.52
1032.82
1032.12
1031.54
1030.94
1030.35
1029.8
1029.22
1028.58
1027.96
1027.32
1026.7
1026.08
1025.48
1024.86
1024.27
1023.69
1023.17
1022.66
1022.2
1021.75
1021.32
1020.87
1020.44
1019.99
1019.57
1019.15
1018.77
1018.41
1018.09
1017.82
1017.6
1017.33
1017.18
230.72
591.499
1049.41
1456.47
1820.88
2143.68
2432.71
2702.55
2966.61
3233.15
3508.51
3796.27
4097.73
4414.2
4741.1
5084.22
5458.31
5874.7
6355.27
6929.02
7582.49
8267.37
8915.16
9322.2
9364.78
9019.99
8227.69
6923.48
5378.07
3850.26
2719.3
1871.02
1320.82
947.868
721.328
573.603
478.917
412.779
368.974
331.881
303.144
278.599
258.202
237.791
221.348
206.802
197.792
192.986
194.267
198.162
205.347
214.553
226.883
241.41
241.443
239.684
237.435
234.504
231.201
227.512
223.751
219.941
216.203
212.723
209.423
206.242
203.41
200.467
197.691
194.887
192.198
189.591
187.049
184.705
182.306
180.034
177.721
175.551
173.344
171.312
169.253
167.364
165.46
163.75
162.093
160.615
159.205
157.879
156.738
155.604
154.695
153.761
153.146
152.627
152.481
152.555
152.824
153.369
154.275
155.536
157.197
159.255
161.758
164.734
168.263
172.445
177.402
183.153
189.866
197.568
206.311
216.073
226.797
238.417
250.783
263.767
277.46
292.015
307.539
324.012
341.355
359.353
377.849
396.486
415.409
433.152
450.787
467.26
483.571
499.128
514.927
530.564
546.58
562.732
579.272
595.292
611.496
627.125
642.291
656.594
670.609
683.558
696.34
708.143
719.896
730.91
741.893
752.309
762.459
772.062
781.368
790.29
798.745
806.894
814.703
822.147
829.308
836.082
842.644
848.8
854.846
860.445
866.07
871.266
876.415
881.1
885.752
890.001
894.117
897.959
901.692
905.293
908.678
911.948
915.032
918.073
920.95
923.715
926.318
928.75
931.064
933.201
935.274
937.135
938.972
940.606
942.252
943.682
945.138
946.356
947.599
948.674
949.761
950.857
951.835
952.829
953.716
954.604
955.358
956.082
956.678
957.25
957.746
958.249
958.683
959.136
959.537
959.962
960.37
960.827
961.26
961.678
962.099
962.536
962.85
963.178
963.477
963.778
964.059
964.333
964.573
964.807
965.031
965.27
965.516
965.78
966.045
966.311
966.541
966.761
966.952
967.139
967.322
967.51
967.713
967.938
968.199
968.496
968.732
969.303
246.819
593.27
1039.35
1430.49
1774.64
2073.71
2336.21
2577.79
2812.62
3050.22
3298.44
3560.97
3839.87
4134.84
4441.33
4775.38
5162.99
5620.46
6163.78
6807.27
7518.09
8161.8
8658.18
8673.51
8401.29
7571.2
6204.41
4610
3251.86
2200.03
1509.49
1048.14
764.238
586.425
474.833
400.618
347.954
306.24
272.519
243.164
218.938
197.719
178.727
162.248
148.34
136.701
127.754
121.043
119.414
120.481
123.232
128.872
137.092
147.591
159.909
173.143
190.942
198.125
198.28
197.379
195.762
193.515
190.982
188.442
185.839
183.462
181.158
178.671
176.283
173.858
171.484
169.18
166.943
164.863
162.732
160.713
158.659
156.69
154.691
152.812
150.913
149.128
147.321
145.644
143.96
142.399
140.852
139.349
137.903
136.47
135.104
133.701
132.415
131.13
130.029
128.947
127.954
126.987
126.158
125.413
124.783
124.252
123.782
123.475
123.22
123.258
123.475
123.924
124.667
125.737
127.176
128.998
131.221
133.841
136.848
140.234
144.098
148.571
153.745
159.679
166.409
173.927
182.202
191.162
200.722
210.698
221.093
231.847
242.984
254.52
266.654
279.393
292.948
307.172
322.264
337.915
354.163
370.689
387.408
403.707
420.079
435.708
451.359
466.3
481.247
495.626
509.962
523.84
537.464
550.49
563.112
575.443
587.32
598.86
610.064
620.857
631.359
641.405
651.216
660.536
669.7
678.349
686.908
694.87
702.757
710.109
717.405
724.257
730.968
737.362
743.649
749.756
755.712
761.499
767.184
772.805
778.261
783.535
788.66
793.536
798.298
802.777
807.212
811.319
815.418
819.201
823.018
826.523
830.077
833.29
836.512
839.524
842.474
845.426
848.226
851.055
853.731
856.426
858.936
861.424
863.728
865.985
868.1
870.193
872.142
874.091
875.913
877.736
879.462
881.221
882.907
884.556
886.159
887.794
889.282
890.766
892.198
893.613
894.993
896.342
897.643
898.906
900.133
901.344
902.538
903.72
904.888
906.022
907.109
908.143
909.141
910.09
911.025
911.931
912.843
913.754
914.686
915.645
916.505
918.001
259.887
588.58
1020.12
1393.96
1718.36
1995.09
2232.45
2446.97
2653.99
2864.12
3086.52
3325.58
3584.02
3857.82
4156.94
4507.53
4947.74
5487.49
6103.38
6799.48
7525.1
7991.09
8091.5
7755.84
6945.84
5562.11
4045.92
2756.71
1862.94
1260.99
887.116
655.529
513.362
422.11
360.185
314.477
277.731
246.311
219.027
195.127
174.563
156.701
141.437
128.439
117.857
109.187
102.19
96.278
92.8357
91.114
89.3127
89.1583
91.0247
95.4548
102.449
111.839
123.727
136.653
149.067
165.402
170.602
170.139
168.763
166.984
164.964
162.958
161.002
158.89
156.989
155.039
153.073
151.165
149.3
147.541
145.742
144.05
142.328
140.667
138.981
137.386
135.775
134.259
132.727
131.284
129.827
128.463
127.095
125.777
124.47
123.186
121.941
120.663
119.441