/*--------------------------------*- C++ -*----------------------------------*\
| =========                 |                                                 |
| \\      /  F ield         | OpenFOAM: The Open Source CFD Toolbox           |
|  \\    /   O peration     | Version:  2312                                  |
|   \\  /    A nd           | Website:  www.openfoam.com                      |
|    \\/     M anipulation  |                                                 |
\*---------------------------------------------------------------------------*/
FoamFile
{
    version     2.0;
    format      ascii;
    arch        "LSB;label=32;scalar=64";
    class       volScalarField;
    location    "0.005";
    object      nut;
}
// * * * * * * * * * * * * * * * * * * * * * * * * * * * * * * * * * * * * * //

dimensions      [0 2 -1 0 0 0 0];

internalField   nonuniform List<scalar> 
48128
(
1.71435e-07
2.51425e-07
9.0355e-07
8.88626e-06
3.96476e-05
9.76555e-05
0.000160633
0.000216221
0.000263141
0.000302152
0.000335504
0.000365144
0.000391919
0.000417399
0.000442372
0.000467369
0.000492804
0.000519051
0.00054648
0.000575574
0.000608099
0.000644019
0.000683644
0.000725815
0.00077377
0.000825752
0.000882787
0.000943389
0.00100868
0.00107994
0.00115469
0.00123275
0.00131423
0.00139005
0.00146125
0.00152362
0.00157942
0.00161687
0.00164775
0.00166682
0.00167205
0.00169049
0.00171649
0.00174852
0.00177452
0.00178833
0.00179407
0.0017948
0.00179082
0.00178588
0.00177875
0.00177116
0.00176053
0.00170326
0.00159237
0.0014944
0.00140602
0.00132859
0.00125653
0.0011911
0.00113235
0.00107733
0.00102839
0.000983494
0.000942254
0.000905555
0.000870777
0.000839384
0.000809436
0.000782566
0.000757763
0.000734603
0.000713689
0.000694219
0.000676377
0.000659951
0.000644543
0.000631131
0.000617672
0.000605288
0.000596064
0.000586067
0.0005753
0.000565625
0.000558682
0.000550698
0.000542853
0.000534704
0.000527304
0.000524066
0.000518779
0.000512819
0.000506466
0.000500879
0.000498683
0.000494745
0.000489923
0.000485614
0.000482468
0.000478987
0.000475094
0.000471677
0.000470174
0.000467674
0.000464679
0.000461994
0.000459899
0.000457562
0.000455319
0.000453022
0.000450795
0.000448418
0.000446323
0.000444477
0.000442799
0.000442178
0.000441285
0.000440292
0.000439266
0.000438134
0.000436853
0.000435377
0.000433929
0.000432892
0.000431964
0.000431261
0.000431459
0.00043113
0.000430905
0.000430506
0.000430003
0.000429367
0.000428577
0.000427691
0.000426706
0.000425632
0.000424514
0.000423475
0.000422682
0.000422052
0.00042151
0.000421168
0.000420744
0.000420461
0.000420065
0.000419614
0.000419127
0.000418675
0.000418186
0.000417679
0.000417197
0.000416705
0.000416291
0.000415851
0.000415456
0.000415104
0.00041478
0.000414505
0.000414218
0.000413981
0.000413725
0.000413506
0.000413266
0.000413045
0.000412802
0.000412561
0.000412297
0.000412011
0.000411742
0.000411437
0.000411115
0.000410825
0.000410526
0.000410276
0.000410049
0.000409834
0.000409646
0.000409466
0.000409315
0.000409187
0.000409063
0.00040897
0.00040887
0.000408785
0.00040869
0.000408607
0.000408513
0.000408413
0.00040831
0.000408206
0.000408086
0.00040793
0.000407768
0.000407523
0.000407242
0.000407023
0.000406835
0.000406659
0.000406546
0.000406468
0.000406414
0.0004064
0.000406401
0.0004064
0.000406391
0.000406362
0.000406313
0.000406242
0.000406153
0.000406019
0.000405841
0.00040569
0.00040552
0.000405253
0.000405135
0.000405015
0.000404902
0.000404816
0.000404739
0.000404677
0.000404616
0.000404559
0.000404505
0.000404449
0.00040439
0.000404326
0.000404256
0.000404179
0.000404097
0.000404011
0.000403922
0.000403833
0.000403744
0.000403657
0.000403571
0.000403488
0.000403402
0.000403323
0.000403201
0.000402992
1.30858e-06
4.41736e-06
1.4229e-05
4.78214e-05
0.000123863
0.000249374
0.000421857
0.000614594
0.000827168
0.00105025
0.00127598
0.00150031
0.00172165
0.0019463
0.00217781
0.00242044
0.00268232
0.00296674
0.00327931
0.0036218
0.00401343
0.00442782
0.00492496
0.00543581
0.00599259
0.00657888
0.00719899
0.00783924
0.00834734
0.0088823
0.00941125
0.0099144
0.0103853
0.0108113
0.0112144
0.011548
0.0118583
0.012034
0.0121863
0.0122509
0.0122241
0.0121924
0.0121169
0.0120233
0.011896
0.0117361
0.0115466
0.0113397
0.0111252
0.0109194
0.0107105
0.0105088
0.0102966
0.0100877
0.00987883
0.00969219
0.00950063
0.00932367
0.00914355
0.00895657
0.00878766
0.0086011
0.00842089
0.00824897
0.00807404
0.00791848
0.00775888
0.00761059
0.00745931
0.00731361
0.00717364
0.00703452
0.00690223
0.00677343
0.00665119
0.0065339
0.00641967
0.00631337
0.00620893
0.00611272
0.00602077
0.0059325
0.00584211
0.0057616
0.00568505
0.00560735
0.00553348
0.00546033
0.00539619
0.00533376
0.00527022
0.00520709
0.0051449
0.00509222
0.0050414
0.0049895
0.00493677
0.0048876
0.00484071
0.00479547
0.00474975
0.00470915
0.00467018
0.00463062
0.00459109
0.00455335
0.00451841
0.00448307
0.00444924
0.00441605
0.00438302
0.00435011
0.00431567
0.00428504
0.00425162
0.00422305
0.00419606
0.00417023
0.00414676
0.00412405
0.00410113
0.00407782
0.00405457
0.00403067
0.00400807
0.00398597
0.0039694
0.00395319
0.00393842
0.00392513
0.00390267
0.00388196
0.00386422
0.00384584
0.00382771
0.00381013
0.00379252
0.00377481
0.00375537
0.00373605
0.00371622
0.00369585
0.00367623
0.00365622
0.00363703
0.00361879
0.00360079
0.00358336
0.00356699
0.00355087
0.00353534
0.00352009
0.00350551
0.00349126
0.00347735
0.00346364
0.00345027
0.00343689
0.00342383
0.00341114
0.00339856
0.00338681
0.00337507
0.00336406
0.00335325
0.00334305
0.00333331
0.00332413
0.00331528
0.00330681
0.00329978
0.00329224
0.00328548
0.00327867
0.00327201
0.00326553
0.00325913
0.00325283
0.0032466
0.0032403
0.00323412
0.00322779
0.00322151
0.00321559
0.00320952
0.00320383
0.00319834
0.0031929
0.00318782
0.00318259
0.00317777
0.00317361
0.00316961
0.00316576
0.00316328
0.00316031
0.00315763
0.00315488
0.00315204
0.00314866
0.00314552
0.00314132
0.00313756
0.00313399
0.0031302
0.00312633
0.00312272
0.00311919
0.00311588
0.00311307
0.00311096
0.00310885
0.003107
0.00310581
0.00310407
0.00310248
0.003101
0.00309924
0.00309749
0.00309551
0.00309348
0.00309139
0.00308917
0.00308695
0.00308466
0.00308243
0.00308019
0.00307806
0.00307596
0.00307401
0.00307213
0.00307036
0.00306872
0.00306713
0.00306564
0.00306415
0.00306278
0.00306138
0.00306019
0.0030588
3.62568e-06
3.27291e-05
7.81848e-05
0.000193922
0.000423146
0.000829106
0.00143317
0.00214531
0.00292417
0.00370802
0.0044557
0.00515111
0.00580053
0.00642343
0.00701331
0.00760091
0.00820337
0.0088279
0.00948539
0.0101814
0.0109318
0.0117146
0.0125493
0.0133769
0.0142215
0.015067
0.0158714
0.016645
0.0173323
0.0180152
0.0186569
0.0192249
0.0197145
0.0200962
0.0204339
0.0206441
0.020812
0.0207952
0.0207304
0.0205778
0.0203182
0.0200748
0.0197736
0.0194657
0.0191292
0.0187678
0.0183959
0.0180195
0.017651
0.0172943
0.0169469
0.0166118
0.0162782
0.0159509
0.015618
0.0153106
0.0149997
0.0147136
0.0144324
0.0141559
0.0138942
0.0136319
0.0133756
0.0131313
0.0128874
0.012664
0.0124398
0.0122289
0.0120184
0.0118136
0.0116162
0.0114213
0.0112342
0.0110525
0.0108775
0.01071
0.010546
0.0103931
0.010239
0.0100991
0.00996514
0.00983438
0.00970016
0.00957679
0.00946158
0.00934554
0.00922992
0.00911899
0.00901571
0.00892049
0.00882188
0.00872085
0.00862536
0.00853543
0.00845447
0.0083708
0.00828539
0.00820282
0.00812601
0.00805009
0.00797467
0.00790386
0.00783747
0.00776918
0.00770081
0.00763412
0.0075725
0.00750986
0.00744954
0.00738968
0.00733004
0.0072702
0.00720931
0.00715131
0.00709326
0.00703963
0.00698767
0.00693749
0.00689077
0.00684554
0.0067999
0.00675325
0.00670728
0.0066612
0.00661781
0.00657545
0.00653871
0.00650315
0.00647003
0.00643978
0.00641171
0.00638504
0.00635906
0.00633299
0.00630625
0.00627824
0.00624957
0.00622045
0.00619092
0.00616219
0.00613345
0.00610651
0.00607952
0.00605434
0.00602918
0.00600535
0.0059812
0.00595851
0.00593581
0.00591305
0.0058913
0.00586947
0.00584824
0.00582719
0.00580639
0.00578599
0.00576607
0.00574668
0.00572775
0.00570967
0.00569191
0.00567506
0.00565889
0.00564334
0.00562869
0.00561443
0.00560124
0.00558795
0.00557576
0.00556357
0.0055515
0.00553984
0.0055281
0.00551657
0.0055051
0.00549369
0.00548232
0.00547105
0.00545992
0.00544886
0.00543815
0.00542738
0.0054172
0.00540711
0.00539772
0.00538838
0.00537988
0.00537127
0.00536368
0.00535613
0.0053498
0.00534346
0.00533779
0.0053318
0.00532592
0.00531987
0.00531349
0.00530683
0.00530002
0.00529297
0.00528593
0.00527885
0.00527204
0.00526561
0.00525957
0.00525395
0.00524888
0.00524426
0.00524036
0.00523688
0.00523341
0.00523044
0.00522707
0.00522374
0.00522041
0.00521692
0.0052133
0.0052095
0.00520563
0.00520159
0.00519748
0.0051935
0.00518939
0.00518561
0.0051817
0.00517811
0.00517448
0.00517117
0.00516784
0.00516484
0.00516186
0.00515918
0.00515649
0.00515408
0.00515162
0.00514948
0.0051472
0.00514526
0.00514307
0.00514039
1.08678e-05
0.000105107
0.000242471
0.000551294
0.00113424
0.00214672
0.00345281
0.00489704
0.00631067
0.00759491
0.00873763
0.00977119
0.010688
0.0115345
0.0123302
0.013105
0.0138802
0.0146692
0.0154837
0.0163259
0.017201
0.0180918
0.0189982
0.0198836
0.020745
0.0215567
0.0223021
0.0229882
0.0235915
0.0241458
0.0246262
0.0249944
0.0252458
0.0253467
0.0253897
0.0252952
0.0251359
0.0248212
0.0244578
0.0237866
0.0232133
0.0228326
0.022264
0.0219271
0.0214116
0.0210674
0.0205435
0.0201654
0.0196804
0.0193078
0.0189578
0.0185972
0.0182498
0.0179078
0.0175696
0.017255
0.0169472
0.0166612
0.0163856
0.0161246
0.0158677
0.0156305
0.0153952
0.0151737
0.0149579
0.0147516
0.0145516
0.014357
0.0141678
0.0139814
0.0138015
0.0136258
0.0134558
0.0132928
0.0131334
0.0129815
0.0128318
0.012692
0.0125501
0.0124171
0.0122949
0.0121742
0.0120493
0.0119285
0.0118202
0.0117113
0.0115996
0.0114926
0.0113837
0.0112951
0.0112012
0.0111036
0.0110096
0.0109142
0.0108365
0.0107544
0.0106699
0.0105848
0.0105072
0.0104298
0.0103528
0.0102758
0.0102085
0.0101381
0.0100672
0.00999555
0.0099305
0.0098638
0.00979926
0.00973406
0.00966891
0.00960285
0.00953564
0.00947075
0.00940695
0.00934803
0.00929028
0.00923438
0.00918138
0.00912998
0.00907764
0.00902325
0.0089692
0.00891563
0.00886562
0.00881571
0.00877259
0.00873056
0.00869198
0.00865614
0.00862246
0.00858976
0.00855747
0.00852512
0.00849179
0.00845674
0.00842065
0.00838384
0.00834655
0.0083106
0.00827447
0.0082406
0.00820688
0.00817538
0.00814345
0.00811334
0.00808249
0.00805349
0.00802437
0.00799509
0.00796663
0.00793824
0.00791049
0.00788278
0.00785535
0.00782847
0.007802
0.00777652
0.00775118
0.00772728
0.00770338
0.00768095
0.00765904
0.00763807
0.00761808
0.00759842
0.00758005
0.0075614
0.0075442
0.00752682
0.00750939
0.00749265
0.00747575
0.0074592
0.00744273
0.00742639
0.00741014
0.00739411
0.00737821
0.00736261
0.00734732
0.00733221
0.0073177
0.00730348
0.00729
0.00727675
0.00726434
0.00725214
0.00724103
0.00723014
0.00722055
0.00721107
0.00720234
0.0071933
0.00718415
0.00717487
0.00716525
0.00715535
0.00714533
0.00713512
0.00712508
0.00711514
0.00710538
0.00709639
0.00708789
0.00708006
0.00707283
0.00706617
0.00706035
0.00705508
0.00704965
0.00704512
0.00703999
0.00703481
0.00702968
0.00702443
0.00701911
0.00701367
0.00700818
0.00700262
0.00699697
0.00699159
0.00698606
0.00698103
0.0069758
0.00697108
0.00696622
0.00696184
0.00695734
0.00695334
0.00694927
0.00694569
0.00694201
0.00693882
0.00693548
0.0069327
0.00692963
0.00692716
0.00692437
0.0069209
2.52222e-05
0.000238659
0.000555901
0.00119773
0.00236317
0.00410033
0.00603688
0.00795514
0.00971437
0.0112752
0.0126693
0.0138687
0.0149318
0.0159035
0.016803
0.0176631
0.0185048
0.0193442
0.0201903
0.0210453
0.0219074
0.0227627
0.0235995
0.0243829
0.0251076
0.0257678
0.0263405
0.0268283
0.0272067
0.0274691
0.0276141
0.0276193
0.0269369
0.0261113
0.0251811
0.0243895
0.0235782
0.022758
0.0221505
0.0214088
0.0205605
0.0202594
0.0195127
0.0191535
0.0184909
0.0181615
0.017589
0.0172366
0.0167893
0.0164837
0.0161708
0.0159077
0.0156925
0.0155674
0.0155074
0.0153842
0.0153048
0.0152009
0.0151235
0.0151075
0.0150163
0.0149946
0.0150634
0.0150503
0.0150001
0.0148628
0.0147337
0.0145996
0.0144734
0.0143452
0.0142223
0.0141011
0.0139823
0.0138699
0.0137576
0.0136511
0.0135442
0.0134455
0.0133445
0.0132434
0.0131575
0.0130722
0.0129827
0.0128894
0.0128101
0.0127313
0.0126497
0.0125671
0.0124786
0.0124138
0.0123468
0.0122764
0.012203
0.0121248
0.0120667
0.0120067
0.0119431
0.0118765
0.0118153
0.0117557
0.011694
0.0116294
0.0115764
0.011523
0.0114668
0.0114083
0.0113555
0.0113015
0.0112489
0.0111948
0.0111407
0.0110851
0.011028
0.0109732
0.0109174
0.0108682
0.0108197
0.0107727
0.0107273
0.0106834
0.0106382
0.010591
0.0105429
0.0104955
0.0104513
0.0104062
0.0103687
0.0103327
0.0103001
0.0102694
0.0102408
0.0102125
0.0101847
0.010156
0.0101268
0.010095
0.0100619
0.0100274
0.00999243
0.00995879
0.00992473
0.00989297
0.0098613
0.00983196
0.00980195
0.00977378
0.00974457
0.00971719
0.0096893
0.00966133
0.00963378
0.00960605
0.00957899
0.00955185
0.00952495
0.0094985
0.00947238
0.00944729
0.00942225
0.00939862
0.00937507
0.00935284
0.00933131
0.00931046
0.00929074
0.00927112
0.00925281
0.00923401
0.00921666
0.00919884
0.00918102
0.00916368
0.00914619
0.00912899
0.00911187
0.00909478
0.00907776
0.00906094
0.00904419
0.00902783
0.00901164
0.00899589
0.00898055
0.00896573
0.00895148
0.0089377
0.00892465
0.00891202
0.00890047
0.00888921
0.00887925
0.00886937
0.00886024
0.00885076
0.00884104
0.00883115
0.00882069
0.00880997
0.00879912
0.00878803
0.0087772
0.0087665
0.00875607
0.00874668
0.00873778
0.00872978
0.00872231
0.00871571
0.00870979
0.00870469
0.00869905
0.00869477
0.0086896
0.00868425
0.00867901
0.00867358
0.00866808
0.00866252
0.00865685
0.00865128
0.00864548
0.00864016
0.00863461
0.00862976
0.00862463
0.0086202
0.0086155
0.00861144
0.00860713
0.00860348
0.00859962
0.00859644
0.00859301
0.0085903
0.00858727
0.00858505
0.00858235
0.00858057
0.00857831
0.00857563
4.78636e-05
0.000442334
0.00104612
0.00213916
0.00400779
0.00621431
0.00853243
0.0107219
0.0126844
0.0144326
0.0159463
0.017237
0.0183854
0.0194167
0.0203536
0.0212293
0.0220613
0.0228685
0.0236594
0.0244344
0.0251884
0.0259108
0.026576
0.0271758
0.0276963
0.0281067
0.0283982
0.0285756
0.0281033
0.0272969
0.0263314
0.0253778
0.0241569
0.0230476
0.021911
0.0208732
0.0200719
0.0191155
0.0184862
0.0177246
0.0167414
0.0163557
0.0155597
0.0150847
0.0143875
0.0140052
0.0134946
0.0131813
0.0128739
0.0125981
0.0123657
0.0121977
0.012032
0.0120183
0.0119627
0.0119636
0.0118959
0.0119146
0.0118734
0.0119454
0.0119667
0.012018
0.0121816
0.012216
0.0123812
0.0124817
0.0125205
0.0126814
0.0127515
0.0128993
0.0129557
0.0130856
0.0131731
0.0131439
0.0131082
0.0130734
0.0130333
0.0129983
0.0129569
0.0129103
0.0128773
0.0128443
0.0128047
0.0127592
0.0127231
0.0126896
0.0126521
0.0126084
0.0125579
0.0125265
0.0124965
0.0124623
0.012423
0.0123767
0.0123463
0.0123168
0.0122837
0.012247
0.0122119
0.0121794
0.0121429
0.0121023
0.0120722
0.0120437
0.0120115
0.0119767
0.011945
0.0119128
0.0118813
0.0118473
0.0118139
0.0117782
0.0117412
0.0117049
0.0116666
0.0116356
0.0116048
0.0115752
0.0115456
0.0115172
0.0114874
0.0114565
0.0114236
0.0113907
0.0113603
0.0113283
0.0113047
0.0112818
0.0112621
0.0112432
0.0112264
0.0112094
0.011193
0.011175
0.0111571
0.011136
0.0111135
0.0110891
0.0110641
0.0110402
0.0110157
0.0109933
0.0109706
0.0109502
0.0109292
0.0109095
0.0108889
0.0108693
0.0108494
0.0108291
0.0108089
0.0107881
0.010768
0.0107477
0.0107274
0.0107075
0.0106878
0.0106689
0.0106501
0.0106324
0.0106149
0.0105983
0.0105824
0.010567
0.0105526
0.0105381
0.0105248
0.0105109
0.0104981
0.0104848
0.0104716
0.0104584
0.0104451
0.0104319
0.0104187
0.0104054
0.0103922
0.0103789
0.0103657
0.0103529
0.01034
0.0103277
0.0103156
0.0103041
0.010293
0.0102825
0.0102726
0.0102632
0.0102546
0.0102465
0.0102395
0.0102325
0.0102262
0.0102197
0.0102125
0.0102051
0.0101972
0.0101888
0.0101801
0.0101713
0.0101626
0.0101541
0.010146
0.010139
0.0101324
0.0101268
0.0101217
0.0101177
0.0101141
0.0101115
0.0101081
0.0101064
0.0101035
0.0101003
0.0100972
0.0100939
0.0100904
0.010087
0.0100833
0.0100798
0.0100759
0.0100727
0.0100691
0.0100664
0.0100633
0.0100611
0.0100585
0.0100566
0.0100543
0.0100528
0.0100509
0.0100499
0.0100484
0.0100479
0.0100468
0.0100468
0.0100461
0.0100465
0.0100464
0.0100468
7.75064e-05
0.000713408
0.0016989
0.0033318
0.00566635
0.00819189
0.0107375
0.013076
0.0151587
0.0170329
0.0185846
0.019939
0.021128
0.0221756
0.0231038
0.0239422
0.0247087
0.0254228
0.0260939
0.0267213
0.0272987
0.0278094
0.0282502
0.0285931
0.0288354
0.0284769
0.0274527
0.0265889
0.0254451
0.0243943
0.0230556
0.0218831
0.0204514
0.0192119
0.0182921
0.0170853
0.0164016
0.0152615
0.0145026
0.0136495
0.0126749
0.0120624
0.0113064
0.0108078
0.0103144
0.00992069
0.00960129
0.00931551
0.00916853
0.00891599
0.00882111
0.00873183
0.00862884
0.00869563
0.00860139
0.00867978
0.00860317
0.00871289
0.00868371
0.00881017
0.00887394
0.00899158
0.00913992
0.00920291
0.00935637
0.00949144
0.00958068
0.00976316
0.00989639
0.0100638
0.0101966
0.010373
0.0105145
0.0106468
0.0107953
0.0109299
0.0110676
0.0111619
0.0113019
0.0114285
0.0114228
0.0114885
0.0116454
0.0117551
0.0117692
0.0117988
0.0118152
0.0118245
0.0118262
0.0118359
0.0118497
0.0118594
0.0118625
0.0118586
0.0118617
0.0118691
0.0118729
0.0118733
0.0118716
0.0118723
0.0118683
0.0118612
0.0118591
0.0118605
0.0118577
0.0118528
0.0118478
0.0118425
0.0118371
0.0118289
0.011822
0.0118118
0.0118008
0.0117881
0.0117736
0.011765
0.0117566
0.0117486
0.0117394
0.0117311
0.0117225
0.0117129
0.0117004
0.0116876
0.0116756
0.0116623
0.011656
0.0116496
0.0116464
0.0116429
0.0116415
0.0116395
0.0116382
0.011635
0.0116322
0.0116265
0.0116193
0.01161
0.0115998
0.0115904
0.01158
0.0115715
0.0115622
0.0115551
0.0115475
0.0115405
0.0115328
0.0115253
0.0115178
0.0115097
0.0115013
0.0114919
0.0114832
0.0114741
0.0114648
0.0114559
0.0114468
0.0114384
0.01143
0.0114223
0.0114148
0.011408
0.0114017
0.0113956
0.0113904
0.0113849
0.0113803
0.0113751
0.0113706
0.0113658
0.011361
0.0113557
0.0113503
0.0113449
0.0113394
0.0113338
0.011328
0.0113222
0.0113161
0.0113106
0.0113046
0.0112994
0.0112941
0.0112895
0.011285
0.0112811
0.0112777
0.0112747
0.0112724
0.0112704
0.0112694
0.0112684
0.0112679
0.0112674
0.0112657
0.0112638
0.0112614
0.0112584
0.0112551
0.0112515
0.011248
0.0112447
0.0112418
0.01124
0.0112384
0.011238
0.0112378
0.0112389
0.0112401
0.0112425
0.0112439
0.0112469
0.0112488
0.0112501
0.0112515
0.0112526
0.0112535
0.0112546
0.0112551
0.011256
0.0112563
0.0112574
0.011258
0.0112597
0.0112607
0.0112627
0.0112642
0.0112665
0.0112682
0.0112708
0.0112728
0.0112758
0.0112782
0.0112816
0.0112844
0.0112883
0.0112914
0.0112958
0.0112996
0.0113057
0.000111468
0.00103735
0.00245743
0.00456723
0.00718689
0.00992319
0.0125928
0.015014
0.0171808
0.019097
0.0206812
0.022072
0.0232734
0.0243077
0.0251926
0.0259536
0.0266103
0.0271824
0.0276798
0.0281027
0.028438
0.0286866
0.028843
0.0280525
0.0269841
0.0257346
0.0245277
0.0235265
0.0221528
0.0209647
0.0194067
0.0180784
0.0169703
0.0156993
0.0150823
0.0137313
0.0128484
0.0116421
0.0107247
0.0100042
0.00930278
0.00860096
0.0081046
0.00759637
0.00731704
0.00692676
0.00676353
0.00647539
0.00644307
0.00621136
0.00623858
0.00616206
0.00613303
0.00620584
0.00611486
0.0061825
0.00614613
0.00627922
0.0062888
0.00643823
0.00648904
0.00665574
0.00676044
0.00682411
0.00694587
0.00703933
0.00713468
0.00726167
0.00739
0.00751812
0.00764892
0.00780745
0.00792508
0.00807302
0.00821673
0.00836806
0.00851068
0.00864091
0.00879075
0.00892766
0.00901421
0.00912063
0.00926658
0.00941909
0.00951267
0.00962238
0.00975468
0.00991103
0.0100444
0.0100776
0.0101395
0.010235
0.0103914
0.0105238
0.0105428
0.0105915
0.0106861
0.0108184
0.0109074
0.0109664
0.011003
0.0110367
0.0110684
0.0111039
0.0111351
0.0111641
0.0111908
0.0112162
0.0112411
0.0112636
0.0112863
0.0113056
0.0113244
0.0113402
0.0113544
0.0113714
0.0113884
0.0114051
0.0114201
0.0114354
0.0114509
0.0114654
0.0114768
0.0114875
0.0114969
0.0115051
0.0115175
0.0115296
0.0115445
0.0115587
0.0115743
0.0115895
0.0116052
0.0116195
0.0116338
0.0116456
0.0116564
0.011665
0.0116723
0.0116799
0.0116861
0.0116936
0.0117003
0.0117086
0.0117168
0.011725
0.0117326
0.01174
0.0117473
0.0117539
0.0117601
0.0117651
0.0117703
0.0117752
0.0117796
0.0117843
0.0117885
0.0117932
0.0117976
0.0118027
0.0118076
0.0118132
0.0118189
0.0118248
0.0118311
0.0118372
0.0118438
0.0118498
0.0118563
0.0118624
0.0118684
0.011874
0.011879
0.011884
0.0118888
0.0118935
0.0118978
0.0119022
0.0119061
0.0119104
0.0119142
0.0119186
0.0119228
0.0119276
0.0119324
0.0119377
0.0119432
0.0119491
0.0119555
0.0119622
0.0119695
0.0119769
0.0119846
0.0119923
0.0119988
0.0120047
0.0120104
0.0120152
0.0120197
0.012024
0.0120282
0.0120326
0.0120374
0.0120431
0.012049
0.0120559
0.012063
0.0120713
0.0120797
0.0120891
0.0120973
0.0121072
0.0121158
0.0121238
0.0121317
0.0121396
0.0121469
0.0121545
0.0121614
0.0121688
0.0121755
0.012183
0.0121898
0.0121977
0.0122049
0.0122132
0.0122207
0.0122292
0.0122368
0.0122454
0.0122531
0.0122619
0.0122698
0.0122791
0.0122873
0.012297
0.0123055
0.0123156
0.012325
0.0123393
0.000147075
0.00139403
0.00324071
0.00568454
0.00849947
0.0113745
0.0141012
0.0165624
0.018777
0.0207052
0.022318
0.0237265
0.0249236
0.0259228
0.0267361
0.0273852
0.0278914
0.0282747
0.0285444
0.0287009
0.0287544
0.0278987
0.0265669
0.0251192
0.0239301
0.0226823
0.0213945
0.0203236
0.0187392
0.0174671
0.0161243
0.0148986
0.0143346
0.0129482
0.0121225
0.0107582
0.00984606
0.00879357
0.00796727
0.00720856
0.00680732
0.00608784
0.00583918
0.00536459
0.00528916
0.0049538
0.00494207
0.00471526
0.00475731
0.00458912
0.00467616
0.00453901
0.00463291
0.00462984
0.00458291
0.00453374
0.00451233
0.00449236
0.00448958
0.00450671
0.00453578
0.00457394
0.00462453
0.00468843
0.00476332
0.00484782
0.00494481
0.00505133
0.00516831
0.00529463
0.00543014
0.00557219
0.0057248
0.00588647
0.0060443
0.00621276
0.00637376
0.00654315
0.00667648
0.00679519
0.00688138
0.00696655
0.00707781
0.00721147
0.0073192
0.00742801
0.0075461
0.00768782
0.00784009
0.00792489
0.0080068
0.00810468
0.00825197
0.00840779
0.00850397
0.00857942
0.00868745
0.00882929
0.00896126
0.00906704
0.00919088
0.00931107
0.00938545
0.00945429
0.00954412
0.00965504
0.00974766
0.00982346
0.00989107
0.00998457
0.0101021
0.0102292
0.0103591
0.0104418
0.0104914
0.0105387
0.0105843
0.0106295
0.0106724
0.0107153
0.0107568
0.0107977
0.0108351
0.0108718
0.0109043
0.0109364
0.0109696
0.0110021
0.0110367
0.0110706
0.0111047
0.0111388
0.0111727
0.011206
0.0112384
0.0112699
0.0112993
0.0113272
0.0113535
0.0113795
0.0114041
0.0114291
0.0114532
0.0114783
0.0115033
0.0115282
0.0115525
0.0115764
0.0115997
0.0116228
0.0116448
0.0116658
0.0116864
0.0117069
0.0117264
0.0117461
0.011765
0.0117844
0.0118031
0.0118223
0.0118412
0.0118605
0.0118798
0.0118991
0.0119186
0.0119377
0.0119571
0.0119758
0.0119948
0.0120134
0.0120317
0.0120496
0.0120667
0.0120837
0.0121004
0.0121171
0.0121332
0.0121494
0.0121649
0.0121808
0.0121961
0.0122118
0.0122273
0.0122432
0.0122589
0.012275
0.0122913
0.0123077
0.0123246
0.0123415
0.0123589
0.0123761
0.0123938
0.0124112
0.0124277
0.0124432
0.0124587
0.0124733
0.0124875
0.0125014
0.0125153
0.0125292
0.0125435
0.0125585
0.0125737
0.0125897
0.0126058
0.012623
0.0126401
0.0126581
0.012675
0.0126932
0.0127102
0.0127267
0.0127427
0.0127589
0.0127744
0.0127902
0.0128053
0.0128209
0.0128357
0.0128512
0.012866
0.0128819
0.012897
0.0129132
0.0129284
0.0129447
0.0129598
0.0129759
0.0129909
0.0130071
0.0130223
0.0130387
0.0130541
0.0130709
0.0130865
0.0131037
0.0131201
0.0131449
0.000182288
0.00174183
0.00397191
0.00664574
0.00959284
0.0125337
0.0152734
0.0177468
0.0199957
0.0219464
0.0235865
0.0250001
0.0261761
0.027117
0.027826
0.0283224
0.0286293
0.028769
0.0287488
0.0279781
0.0265962
0.0248977
0.0234096
0.0220786
0.0209249
0.0196353
0.0183224
0.0172403
0.0157932
0.0145986
0.0139522
0.0127171
0.012039
0.0106995
0.00962931
0.0084695
0.00746633
0.00656997
0.00581931
0.00511547
0.00485082
0.00436616
0.00428872
0.00401941
0.0040974
0.00398517
0.00389947
0.00376475
0.00362198
0.00351832
0.00341019
0.00332788
0.00326206
0.00319309
0.0031406
0.00308382
0.00304737
0.00300864
0.00299305
0.00297588
0.00297901
0.00298413
0.00300609
0.00302856
0.00306153
0.00309858
0.00314586
0.00320102
0.00326534
0.00333666
0.00341705
0.0035045
0.00360001
0.00370336
0.00381396
0.0039305
0.00405479
0.00418215
0.0043174
0.00445534
0.00459557
0.00473876
0.004888
0.005044
0.00520052
0.00535842
0.00551904
0.00568131
0.00584566
0.00600039
0.00615813
0.00630692
0.00641569
0.00655252
0.00666186
0.00673351
0.00682243
0.00694426
0.00707087
0.00717851
0.00729634
0.00741977
0.00751591
0.00759516
0.00769419
0.00780938
0.00792444
0.0080204
0.00810966
0.00823353
0.00836371
0.0085074
0.00865819
0.0088032
0.00894136
0.00900886
0.00907302
0.00912739
0.00918143
0.00926007
0.00935592
0.00947169
0.00959842
0.0097277
0.00983806
0.00992643
0.00997739
0.0100154
0.0100369
0.0100834
0.0101176
0.010159
0.0101984
0.0102623
0.0103117
0.0103969
0.0104843
0.0106062
0.0106916
0.0107444
0.0107897
0.010834
0.0108769
0.0109205
0.0109634
0.0110063
0.0110481
0.0110896
0.0111301
0.0111706
0.0112092
0.0112474
0.0112844
0.0113211
0.0113567
0.0113922
0.0114268
0.0114617
0.0114958
0.0115301
0.0115639
0.0115981
0.0116318
0.0116656
0.011699
0.0117322
0.0117652
0.0117977
0.0118299
0.0118617
0.0118932
0.0119243
0.0119544
0.0119843
0.0120138
0.0120433
0.0120722
0.0121011
0.0121292
0.0121577
0.0121854
0.0122134
0.0122411
0.0122691
0.0122968
0.0123247
0.0123527
0.0123807
0.012409
0.0124371
0.0124656
0.0124937
0.0125224
0.0125504
0.012578
0.0126044
0.0126308
0.0126563
0.0126815
0.0127062
0.0127309
0.0127555
0.0127805
0.012806
0.0128316
0.0128579
0.0128841
0.0129113
0.0129382
0.0129659
0.0129927
0.0130203
0.0130468
0.0130729
0.0130985
0.0131242
0.0131491
0.0131744
0.0131989
0.0132238
0.013248
0.0132729
0.013297
0.0133221
0.0133464
0.0133717
0.013396
0.0134212
0.0134452
0.01347
0.0134937
0.0135184
0.013542
0.0135669
0.0135906
0.0136157
0.0136397
0.0136651
0.0136897
0.0137268
0.000214995
0.00205598
0.00460689
0.00743807
0.0104555
0.0134058
0.0161717
0.0186789
0.0209474
0.0229033
0.0245514
0.0259519
0.0270854
0.0279377
0.0285018
0.0287926
0.0288381
0.0285581
0.0268891
0.0250004
0.0233619
0.0218041
0.0204398
0.019153
0.0181581
0.0169876
0.0157819
0.0147971
0.0139155
0.01288
0.0124148
0.0111124
0.0100715
0.00884521
0.00767684
0.00656976
0.00556592
0.00474799
0.00408644
0.00354714
0.00326561
0.0030201
0.00299344
0.00292662
0.00301096
0.00299107
0.00289493
0.00281816
0.00273392
0.00266703
0.00259505
0.00253349
0.00247371
0.00240915
0.00235744
0.00230324
0.00226773
0.00223504
0.00221386
0.00219855
0.00218879
0.00218667
0.00218557
0.0021922
0.00219702
0.00220953
0.00222287
0.00224463
0.00226514
0.00229131
0.00231993
0.00235269
0.00238892
0.00243059
0.00247679
0.00252803
0.00258393
0.00264513
0.00271138
0.00278351
0.00286055
0.00294362
0.00303296
0.00312952
0.00323263
0.00334117
0.003456
0.00357704
0.00370187
0.00383157
0.00396416
0.0041038
0.00424719
0.00439508
0.00454668
0.00469538
0.00485037
0.00500471
0.00516709
0.00531916
0.00547772
0.00563123
0.0057847
0.00593227
0.00608572
0.00623276
0.00632985
0.00643469
0.00651918
0.00662936
0.00674788
0.00687566
0.00700259
0.00713844
0.00727566
0.00734997
0.00741807
0.00748317
0.00756151
0.00765701
0.00776666
0.00788658
0.00801895
0.0081587
0.0082977
0.00839498
0.00846983
0.00852908
0.00857384
0.00862972
0.00867476
0.00873054
0.00878063
0.00885206
0.00891149
0.00901551
0.00912152
0.00925276
0.00935502
0.00946051
0.00955775
0.00964316
0.0097234
0.00979495
0.00986735
0.00994057
0.0100173
0.0100929
0.0101588
0.0102348
0.0103058
0.0103874
0.0104551
0.0105284
0.0106036
0.0106785
0.0107504
0.0108231
0.0108917
0.0109612
0.0110163
0.0110663
0.0111153
0.0111643
0.0112124
0.0112605
0.0113076
0.0113545
0.0114005
0.0114462
0.0114913
0.0115359
0.0115797
0.0116231
0.011666
0.011709
0.0117512
0.0117934
0.0118348
0.0118763
0.0119171
0.011958
0.0119985
0.0120391
0.0120794
0.0121198
0.0121601
0.0122003
0.0122406
0.0122806
0.0123207
0.0123602
0.0124006
0.0124398
0.0124789
0.0125168
0.0125548
0.0125917
0.0126285
0.0126647
0.0127008
0.0127368
0.0127731
0.0128097
0.0128464
0.0128836
0.0129207
0.0129584
0.0129959
0.013034
0.0130713
0.013109
0.0131459
0.0131823
0.0132181
0.013254
0.0132892
0.0133247
0.0133594
0.0133945
0.013429
0.013464
0.0134983
0.0135334
0.0135678
0.0136031
0.0136374
0.0136724
0.0137061
0.0137405
0.0137737
0.0138078
0.0138408
0.0138748
0.0139079
0.013942
0.0139754
0.0140098
0.0140435
0.0140944
0.000244369
0.00232418
0.00512469
0.00805635
0.0110875
0.0140787
0.0168591
0.0193635
0.021618
0.0235717
0.0252171
0.0265908
0.0276595
0.0283883
0.0287574
0.0287758
0.0274758
0.025802
0.0237028
0.0217909
0.0203722
0.0189004
0.0178237
0.0168084
0.016159
0.0151803
0.0141409
0.0134672
0.0130056
0.011886
0.0110969
0.00985358
0.00860589
0.00735958
0.00600941
0.00502125
0.00406491
0.00343648
0.00291136
0.00250953
0.00228152
0.00211111
0.0020661
0.00208063
0.00218852
0.00230121
0.00228879
0.00223925
0.00218771
0.00214279
0.00209539
0.00204865
0.00200091
0.001952
0.00192675
0.00190079
0.00188669
0.00187359
0.00186432
0.00185802
0.00185266
0.001852
0.00185107
0.00185319
0.00185429
0.00185665
0.00186055
0.00186447
0.00187042
0.00187583
0.00188343
0.00189146
0.00190119
0.00191215
0.00192467
0.00193917
0.00195539
0.00197279
0.00199206
0.00201448
0.00203743
0.00206423
0.00209466
0.00212925
0.00216764
0.00221024
0.00225712
0.00230904
0.00236563
0.00242676
0.00249274
0.00256435
0.00264303
0.00272773
0.0028177
0.00291489
0.00301694
0.00312676
0.00324129
0.00336338
0.00348844
0.00361953
0.00375312
0.00389072
0.00403064
0.00417687
0.00432692
0.00447822
0.00463276
0.00479113
0.00494932
0.0051096
0.00526727
0.00542574
0.00557983
0.00572465
0.00586782
0.00600571
0.00614709
0.00625837
0.00636857
0.00647796
0.00659863
0.00671795
0.00684933
0.00695256
0.00701964
0.00707914
0.00714038
0.00719564
0.00725445
0.00731721
0.00737911
0.00745469