/*--------------------------------*- C++ -*----------------------------------*\
| =========                 |                                                 |
| \\      /  F ield         | OpenFOAM: The Open Source CFD Toolbox           |
|  \\    /   O peration     | Version:  2312                                  |
|   \\  /    A nd           | Website:  www.openfoam.com                      |
|    \\/     M anipulation  |                                                 |
\*---------------------------------------------------------------------------*/
FoamFile
{
    version     2.0;
    format      ascii;
    arch        "LSB;label=32;scalar=64";
    class       volScalarField;
    location    "0.005";
    object      omega;
}
// * * * * * * * * * * * * * * * * * * * * * * * * * * * * * * * * * * * * * //

dimensions      [0 0 -1 0 0 0 0];

internalField   nonuniform List<scalar> 
48128
(
2.01609e+06
2.02078e+06
2.02457e+06
2.0419e+06
2.06839e+06
2.11901e+06
2.188e+06
2.26186e+06
2.33346e+06
2.39567e+06
2.44358e+06
2.47918e+06
2.50706e+06
2.5238e+06
2.53295e+06
2.53652e+06
2.53434e+06
2.52672e+06
2.51407e+06
2.49601e+06
2.47089e+06
2.44236e+06
2.41224e+06
2.37822e+06
2.34278e+06
2.30655e+06
2.27154e+06
2.23863e+06
2.20758e+06
2.18305e+06
2.16282e+06
2.14931e+06
2.14236e+06
2.13697e+06
2.1329e+06
2.12849e+06
2.12287e+06
2.11013e+06
2.09564e+06
2.07591e+06
2.04898e+06
2.04273e+06
2.03982e+06
2.04554e+06
2.04886e+06
2.0436e+06
2.03308e+06
2.01988e+06
2.00408e+06
1.98855e+06
1.97227e+06
1.95631e+06
1.93877e+06
1.91991e+06
1.89897e+06
1.87884e+06
1.85816e+06
1.83933e+06
1.82023e+06
1.80045e+06
1.78263e+06
1.76367e+06
1.74457e+06
1.72636e+06
1.70776e+06
1.69153e+06
1.67501e+06
1.66003e+06
1.6449e+06
1.63057e+06
1.61703e+06
1.60366e+06
1.59116e+06
1.57899e+06
1.5676e+06
1.55688e+06
1.54637e+06
1.53688e+06
1.52736e+06
1.51924e+06
1.51091e+06
1.50288e+06
1.49465e+06
1.48837e+06
1.48174e+06
1.47502e+06
1.46901e+06
1.46289e+06
1.45903e+06
1.45419e+06
1.44912e+06
1.44421e+06
1.4392e+06
1.4364e+06
1.43274e+06
1.42888e+06
1.42478e+06
1.42196e+06
1.41891e+06
1.41596e+06
1.41282e+06
1.41119e+06
1.40895e+06
1.40653e+06
1.40398e+06
1.40218e+06
1.40028e+06
1.39835e+06
1.39671e+06
1.39511e+06
1.39379e+06
1.39249e+06
1.3917e+06
1.39082e+06
1.3905e+06
1.38993e+06
1.3892e+06
1.3884e+06
1.38755e+06
1.38666e+06
1.38579e+06
1.38499e+06
1.3844e+06
1.38412e+06
1.3837e+06
1.38377e+06
1.3834e+06
1.38285e+06
1.38207e+06
1.38115e+06
1.38008e+06
1.37893e+06
1.37778e+06
1.37664e+06
1.37557e+06
1.37459e+06
1.37385e+06
1.37335e+06
1.37315e+06
1.37298e+06
1.37299e+06
1.37291e+06
1.37282e+06
1.37259e+06
1.37229e+06
1.37192e+06
1.37154e+06
1.37114e+06
1.37073e+06
1.37037e+06
1.37001e+06
1.36973e+06
1.36949e+06
1.36927e+06
1.36914e+06
1.36899e+06
1.3689e+06
1.36878e+06
1.36866e+06
1.36849e+06
1.36831e+06
1.36807e+06
1.36779e+06
1.36747e+06
1.36711e+06
1.3667e+06
1.36628e+06
1.36584e+06
1.36542e+06
1.36497e+06
1.36463e+06
1.36431e+06
1.36407e+06
1.36391e+06
1.36379e+06
1.36372e+06
1.3637e+06
1.3637e+06
1.36375e+06
1.36378e+06
1.36383e+06
1.36386e+06
1.36386e+06
1.36382e+06
1.36375e+06
1.36363e+06
1.36346e+06
1.36324e+06
1.36298e+06
1.36266e+06
1.36229e+06
1.36188e+06
1.36147e+06
1.36104e+06
1.36073e+06
1.36054e+06
1.36046e+06
1.36046e+06
1.36058e+06
1.36073e+06
1.36089e+06
1.36104e+06
1.36112e+06
1.36113e+06
1.36106e+06
1.3609e+06
1.36065e+06
1.36032e+06
1.35991e+06
1.35947e+06
1.359e+06
1.35861e+06
1.35816e+06
1.35786e+06
1.3577e+06
1.35753e+06
1.35746e+06
1.3574e+06
1.35738e+06
1.35735e+06
1.35733e+06
1.3573e+06
1.35726e+06
1.35719e+06
1.3571e+06
1.35698e+06
1.35683e+06
1.35666e+06
1.35647e+06
1.35627e+06
1.35607e+06
1.35585e+06
1.35564e+06
1.35543e+06
1.35522e+06
1.355e+06
1.35478e+06
1.35455e+06
1.35421e+06
1.35408e+06
721983
514148
729458
886628
982227
1.00664e+06
957441
905876
855899
814786
784848
764007
750081
740699
734863
731063
728091
725570
723378
721647
718187
716529
711251
708025
705657
704093
703035
702664
713082
723150
734295
746413
759367
772707
785528
797737
808139
817422
824281
830116
834704
840447
847187
852062
854407
853889
851751
848037
843142
837370
831081
824304
817195
809246
800320
790651
780568
770273
760011
749673
739069
729338
719480
709719
700253
690600
681653
672572
664161
655933
647949
640475
633165
626314
619663
613348
607450
601881
596264
591146
586889
582475
577998
573461
570002
566446
562809
558962
555536
553433
551044
548423
545548
542724
541203
539417
537451
535178
533589
531948
530252
528408
527540
526542
525423
524121
523174
522259
521293
520366
519389
518474
517646
516827
516419
516150
516012
515851
515670
515498
515269
514988
514626
514576
514514
514703
514985
515307
515653
515851
516071
516185
516158
516106
516030
515899
515671
515438
515246
515248
515245
515358
515526
515777
515981
516200
516415
516644
516878
517116
517303
517517
517736
517967
518204
518468
518743
519048
519371
519705
520088
520416
520809
521144
521520
521858
522201
522526
522833
523181
523372
523585
523768
523956
524142
524327
524512
524689
524873
525067
525269
525492
525732
525965
526215
526458
526710
526953
527204
527445
527670
527894
528053
528268
528241
528264
528302
528315
528323
528363
528405
528513
528653
528797
528952
529115
529284
529469
529611
529764
529856
529903
529974
529884
529840
529804
529753
529719
529679
529662
529646
529635
529637
529644
529659
529680
529704
529728
529755
529771
529791
529797
529808
529805
529810
529801
529803
529796
529753
529590
721574
347970
490311
573019
598313
570253
519035
477717
445933
424533
411870
405568
403138
402795
405162
408295
412083
416298
420923
425876
430955
436626
442300
449512
457622
466867
477907
490739
506770
523213
540978
559639
579176
599032
618472
636955
653863
668707
680618
690322
698416
703827
708058
709268
708856
706839
703444
698709
693064
686658
679580
671958
663808
655096
645766
636002
625828
615441
604920
594301
583506
573223
562977
552770
542936
533013
523616
514242
505335
496633
488196
480116
472288
464809
457601
450680
444114
437800
431747
425749
420651
415501
410459
405316
400981
396713
392435
388193
383841
380655
377407
374082
370688
367127
364561
361947
359278
356437
354028
351662
349292
346783
344920
343039
341142
339156
337411
335751
334070
332468
330840
329297
327732
326288
324874
323688
322580
321507
320459
319496
318558
317621
316666
315827
315046
314236
313708
313165
312717
312263
311842
311416
310981
310547
310111
309657
309146
308628
308096
307618
307110
306688
306265
305902
305549
305220
304898
304587
304322
304044
303769
303504
303256
303028
302794
302598
302395
302231
302071
301926
301817
301699
301624
301537
301481
301422
301372
301329
301283
301249
301195
301132
301062
300990
300917
300845
300773
300701
300626
300565
300498
300455
300414
300383
300360
300345
300345
300346
300355
300365
300380
300398
300405
300415
300376
300326
300272
300208
300132
300063
299990
299929
299902
299878
299862
299857
299862
299879
299891
299911
299923
299912
299913
299861
299803
299743
299673
299606
299534
299470
299405
299339
299279
299219
299167
299117
299074
299030
298994
298954
298920
298882
298849
298811
298780
298742
298713
298680
298638
298517
720328
320380
400053
432683
429843
393428
360687
333913
316533
307281
303486
302736
304762
308177
312722
317749
323319
329312
335817
342782
350380
358909
368460
379595
392205
406661
422806
440773
461049
482203
505000
528853
553774
579076
603559
626644
647326
665426
679574
690159
700014
704026
706783
706012
703774
699460
694008
687291
679951
671730
662790
653235
643157
632540
621306
609755
597895
585921
573924
562013
549982
538522
527131
515834
504971
494137
483829
473665
463924
454429
445227
436340
427784
419552
411649
404004
396762
389757
383099
376468
370680
364911
359305
353637
348657
343828
338995
334280
329422
325525
321690
317813
313935
309907
306675
303514
300321
297032
294078
291213
288370
285428
282987
280576
278183
275742
273491
271350
269201
267147
265082
263104
261101
259231
257343
255674
254063
252489
250967
249521
248124
246741
245378
244067
242848
241569
240545
239508
238572
237664
236811
235991
235190
234410
233654
232902
232119
231348
230568
229828
229067
228364
227659
226999
226356
225733
225126
224533
223984
223424
222886
222355
221841
221356
220865
220414
219958
219537
219124
218725
218359
217989
217658
217326
217021
216727
216445
216179
215916
215673
215423
215176
214927
214687
214451
214221
213990
213766
213539
213326
213109
212910
212713
212527
212348
212177
212023
211868
211734
211596
211474
211351
211242
211127
210999
210867
210735
210599
210457
210315
210171
210032
209902
209783
209669
209565
209465
209382
209295
209224
209152
209072
209007
208915
208821
208725
208622
208521
208416
208313
208210
208105
208003
207900
207803
207705
207615
207524
207440
207355
207277
207196
207124
207048
206980
206909
206846
206781
206714
206583
721482
309476
345268
355247
338942
309959
285725
269196
260385
256795
256184
258482
262337
267053
272551
278582
285188
292329
300215
308906
318720
329934
342685
357426
374063
392757
413185
435508
460353
486965
515774
545938
577389
609668
639539
667877
690204
709258
722213
730018
738038
737907
736666
732111
726395
718776
710418
700921
690887
679908
668466
656371
644217
631601
618589
605243
592009
578643
565757
553067
540188
528272
516197
504449
493095
481666
471029
460324
450219
440212
430619
421344
412372
403764
395486
387493
379890
372568
365615
358628
352469
346424
340522
334556
329190
324026
318882
313841
308650
304288
300112
295907
291709
287371
283705
280206
276689
273098
269782
266577
263418
260159
257333
254597
251889
249140
246550
244071
241607
239228
236859
234577
232270
230097
227897
225912
223991
222111
220296
218546
216854
215167
213525
211901
210383
208803
207464
206125
204883
203680
202531
201423
200345
199299
198275
197275
196253
195256
194251
193297
192329
191415
190505
189640
188796
187971
187166
186377
185629
184875
184145
183425
182723
182052
181375
180741
180102
179502
178906
178334
177782
177243
176726
176225
175742
175277
174825
174394
173966
173565
173159
172769
172375
171998
171626
171267
170908
170562
170212
169880
169544
169226
168911
168607
168312
168023
167752
167482
167234
166982
166752
166517
166305
166089
165868
165650
165440
165229
165015
164802
164591
164382
164178
163985
163796
163615
163439
163274
163111
162960
162816
162667
162536
162391
162244
162102
161955
161811
161666
161521
161378
161234
161093
160950
160813
160675
160543
160410
160285
160159
160040
159920
159809
159695
159591
159483
159386
159285
159190
159027
724517
297828
306170
305530
283534
261271
243856
233688
229094
227890
229477
233236
237992
243565
249848
256824
264438
272810
282208
292795
304921
318913
334956
353260
373752
397098
422574
450174
480955
513983
549487
586462
622448
658688
686521
713568
729526
743885
751546
753721
755217
750794
743695
733678
722132
709338
695719
681777
667226
652366
638280
623412
610444
596815
584328
571234
559437
547196
536143
525118
513774
503627
493155
483258
473517
463509
454149
444510
435399
426188
417292
408684
400151
392043
384108
376517
369156
362128
355379
348544
342370
336500
330650
324707
319235
314057
308903
303806
298580
294026
289793
285524
281233
276818
272948
269326
265677
261963
258470
255090
251767
248344
245302
242383
239488
236560
233762
231076
228423
225837
223278
220802
218304
215931
213520
211333
209217
207151
205145
203196
201307
199425
197593
195754
194026
192245
190696
189163
187717
186313
184961
183655
182374
181135
179906
178715
177504
176320
175129
173999
172859
171777
170704
169678
168681
167703
166748
165812
164907
164011
163135
162271
161424
160611
159793
159019
158240
157503
156766
156064
155370
154703
154047
153417
152802
152207
151626
151066
150510
149980
149454
148945
148434
147941
147457
146987
146520
146070
145617
145184
144749
144332
143921
143520
143132
142747
142385
142020
141680
141336
141015
140691
140391
140089
139789
139490
139205
138921
138638
138358
138081
137807
137540
137284
137030
136785
136544
136313
136086
135871
135664
135454
135263
135064
134864
134673
134479
134289
134101
133914
133731
133546
133366
133185
133011
132834
132665
132494
132332
132168
132013
131855
131708
131559
131420
131278
131147
131012
130888
130685
729919
285420
277298
268871
247789
229903
217254
210637
208271
208246
211311
215722
221152
227447
234490
242354
251017
260710
271742
284358
298920
315932
335363
357734
382625
411206
442530
475928
512775
551096
589859
629399
661227
693312
711531
730616
736783
740116
735382
725777
712838
697489
679565
661743
642896
626917
609628
594614
578763
564081
550848
536997
526362
514985
505934
496232
488169
479557
472070
464422
456501
449314
441871
434848
427912
420665
414107
407364
401003
394576
388254
382038
375765
369709
363608
357732
351875
346212
340548
334783
329329
324233
319077
313815
308785
304062
299365
294654
289860
285459
281469
277449
273375
269205
265367
261811
258260
254650
251170
247789
244478
241097
237992
235036
232120
229182
226327
223585
220877
218221
215611
213065
210504
208042
205551
203259
201050
198887
196774
194708
192713
190734
188778
186821
184967
183087
181400
179746
178174
176647
175163
173733
172315
170945
169571
168247
166899
165576
164254
162989
161723
160516
159320
158172
157061
155964
154897
153843
152822
151818
150829
149854
148899
147975
147051
146168
145284
144439
143597
142790
141990
141220
140463
139729
139014
138313
137634
136968
136316
135682
135060
134451
133845
133257
132681
132118
131562
131021
130483
129963
129446
128945
128455
127972
127506
127043
126604
126161
125745
125324
124929
124529
124155
123780
123414
123045
122692
122341
121994
121653
121314
120983
120658
120344
120034
119732
119435
119150
118868
118599
118337
118074
117831
117583
117333
117095
116856
116622
116392
116163
115940
115717
115499
115282
115071
114859
114655
114450
114253
114055
113866
113675
113495
113313
113142
112968
112805
112639
112484
112243
737156
272768
255628
242370
222758
208014
198414
193786
192415
193390
197055
201874
207810
214697
222419
231119
240856
251912
264703
279538
296796
317137
340430
367469
397247
431087
467986
505650
544777
584141
618523
653231
673851
695636
697032
694841
685973
672356
654792
634553
609520
586456
560591
539785
516839
498962
479877
465567
450628
438240
427277
416475
409093
401287
395937
390334
386487
382322
379356
376395
373711
371486
369087
366721
364185
361314
358554
355664
352696
349536
346233
342760
339102
335311
331386
327381
323300
319289
315263
311184
307123
303351
299549
295660
291779
288075
284420
280710
276913
273202
269770
266406
262952
259400
255948
252719
249572
246373
243175
240070
237015
233922
230976
228167
225432
222674
219946
217314
214704
212147
209612
207128
204629
202197
199768
197461
195259
193087
190976
188885
186885
184889
182921
180949
179060
177172
175426
173719
172101
170515
168973
167476
165996
164554
163112
161709
160292
158890
157497
156151
154814
153521
152251
151022
149831
148655
147510
146378
145277
144195
143130
142077
141045
140042
139045
138081
137124
136198
135282
134393
133520
132669
131839
131023
130232
129451
128695
127947
127221
126506
125810
125122
124442
123777
123127
122488
121860
121246
120639
120047
119464
118892
118337
117787
117257
116728
116224
115718
115238
114755
114297
113836
113399
112964
112539
112114
111700
111292
110887
110492
110099
109716
109340
108975
108614
108265
107919
107586
107258
106942
106634
106326
106036
105744
105451
105169
104889
104614
104344
104077
103817
103557
103305
103052
102808
102563
102327
102090
101862
101632
101413
101191
100981
100769
100569
100366
100174
99979.8
99795.5
99517.2
745873
261283
238748
222311
204434
191612
183911
180352
179462
180997
184837
189879
196134
203460
211785
221300
232143
244663
259445
276927
297207
321471
349172
380939
415331
452796
492608
531118
566725
601223
626124
650821
652128
649387
638419
621110
598782
571531
540343
511175
478508
454045
427511
408235
387654
372560
356749
345359
333735
324852
316444
309442
304245
298929
295260
291522
289112
286588
285183
283751
283029
282878
282811
283073
283438
283875
284513
285102
285869
286440
287043
287504
287485
287285
286750
285891
284655
283160
281437
279496
277392
275251
273041
270691
268231
265736
263212
260609
257902
255151
252522
249989
247400
244719
241999
239387
236902
234377
231810
229301
226780
224215
221685
219238
216876
214490
212087
209726
207395
205100
202799
200538
198256
196008
193750
191571
189490
187425
185436
183448
181545
179636
177763
175868
174042
172203
170489
168791
167200
165619
164099
162598
161139
159692
158267
156852
155449
154034
152629
151255
149900
148572
147275
146012
144784
143574
142390
141223
140082
138957
137856
136763
135691
134643
133607
132594
131595
130618
129658
128715
127794
126888
126007
125135
124291
123454
122644
121840
121059
120289
119537
118795
118061
117339
116633
115939
115257
114586
113927
113279
112645
112019
111413
110810
110229
109649
109093
108536
108004
107471
106961
106452
105963
105481
105004
104534
104069
103615
103162
102720
102282
101855
101434
101027
100623
100232
99845.2
99472.5
99103.9
98749.1
98400
98053.6
97724.5
97392.8
97062.6
96742.2
96426.3
96114.9
95810.3
95508.8
95214.5
94921.9
94637.1
94353.6
94078.7
93803.9
93538.7
93272.2
93015.9
92757.8
92511
92262.2
92025.1
91786.1
91558.7
91329.4
91110.9
90891.5
90680
90366.9
755744
251072
224236
206392
190049
178675
172027
168997
168309
170014
173780
178857
185253
192896
201792
212183
224289
238547
255779
276435
300383
328840
360900
396366
433919
473273
512560
547922
574926
602545
611586
611373
602041
584823
561060
529120
493640
455529
420122
391573
363304
343642
323759
310571
297009
287565
277814
270692
263411
257788
252014
247439
243324
239175
235512
231726
228508
225198
222598
220092
218051
216613
215140
214431
213709
213643
213920
214421
215295
216396
217816
219413
221161
223044
224823
226674
228240
229854
231076
232313
233056
233735
234161
234455
234356
234079
233583
232847
231859
230665
229371
228025
226618
225077
223419
221710
220036
218311
216522
214693
212837
210927
208990
207064
205204
203313
201402
199473
197573
195693
193814
191966
190092
188194
186261
184351
182514
180681
178908
177141
175422
173715
172019
170299
168608
166897
165287
163664
162162
160652
159223
157790
156420
155039
153699
152356
151027
149677
148329
146989
145668
144362
143085
141835
140620
139420
138247
137083
135949
134825
133730
132634
131560
130503
129461
128433
127422
126424
125446
124479
123535
122602
121695
120795
119924
119057
118219
117385
116574
115772
114990
114215
113450
112694
111954
111224
110509
109801
109108
108423
107754
107091
106448
105809
105189
104573
103978
103384
102812
102242
101693
101146
100618
100099
99583.1
99077
98574.2
98083.8
97594.4
97117.2
96642.5
96180.3
95724
95282.2
94843.7
94419.6
93998.7
93592.7
93190.9
92803.3
92421
92042.4
91679.9
91315.5
90954.3
90602
90255.3
89913.3
89578.4
89247.2
88923.4
88602.1
88288.8
87977.8
87675.6
87374.5
87083.1
86791.3
86509.5
86227
85955.5
85682.8
85421.4
85158.7
84907.3
84654.8
84412.1
84170.2
83934.2
83589.3
766017
241870
211416
193328
178338
168021
161881
159037
158370
159956
163481
168432
174845
182749
192269
203739
217511
234075
254323
278659
306730
339057
374748
413334
453027
492684
526987
555428
572011
581704
575596
562549
540855
510427
471772
427487
388959
351911
323642
300617
283457
270500
260569
253557
247224
243075
238451
234830
230985
227490
223665
219833
215888
211839
207661
203268
199217
195116
191412
187962
184699
181856
179090
176676
174385
172299
170754
169170
168168
167193
166680
166419
166536
166887
167466
168312
169368
170655
172107
173744
175464
177293
179192
181231
183175
185107
186929
188679
190334
191604
192742
193632
194532
195140
195536
195616
195564
195370
195008
194446
193741
192891
191919
190866
189777
188623
187419
186149
184849
183535
182207
180864
179488
178069
176592
175090
173601
172102
170628
169164
167728
166313
164898
163463
162006
160524
159089
157637
156275
154903
153605
152296
151052
149794
148584
147368
146166
144946
143716
142485
141257
140035
138836
137649
136501
135357
134247
133133
132053
130975
129927
128871
127833
126807
125795
124789
123800
122816
121852
120894
119958
119029
118125
117227
116356
115488
114649
113812
112997
112188
111398
110615
109842
109074
108322
107578
106849
106125
105416
104712
104024
103341
102677
102016
101373
100733
100114
99495.9
98899
98305.4
97730.5
97160.6
96606.3
96063.9
95522.6
94993
94466
93951.3
93437.5
92935.9
92436.1
91948.9
91466.8
90999.3
90534.8
90084.8
89637.9
89205.8
88777.8
88364.3
87956.3
87552.8
87163.8
86774.4
86388.7
86011.5
85640.1
85273.6
84913.9
84558.4
84210
83864.9
83527.7
83193.6
82868.2
82545
82231.1
81918
81614.3
81311.2
81018.2
80725.2
80442.6
80159.7
79887.2
79614.7
79351
79089.2
78832.2
78458.3
776249
233964
200263
182372
168504
158913
153036
150129
149345
150624
153798
158529
164919
173134
183473
196470
212533
232063
255881
284357
316650
353263
392694
434233
475611
510273
535165
555131
554832
549302
533506
507406
471180
424428
379547
336027
304688
276379
258421
242615
233761
226132
222227
219640
218170
216927
215718
214384
212384
210006
206876
203242
199161
194762
190326
185649
181415
177115
173206
169361
165748
162503
159409
156594
153916
151334
149092
146830
144870
142934
141192
139624
138147
136936
135749
134821
133975
133351
132899
132609
132618
132780
133136
133742
134556
135590
136813
138244
139838
141539
143329
145195
147193
149230
151337
153272
155231
157053
158923
160490
161985
163170
164224
164945
165631
166054
166428
166533
166491
166348
166082
165684
165168
164539
163784
162927
162001
161030
160038
159029
158006
156968
155910
154821
153690
152518
151338
150143
148987
147820
146699
145564
144483
143390
142344
141292
140270
139233
138180
137119
136049
134980
133918
132854
131824
130791
129789
128778
127792
126804
125840
124869
123908
122954
122010
121068
120139
119212
118300
117391
116500
115613
114748
113885
113046
112209
111395
110582
109788
109000
108228
107462
106704
105950
105210
104476
103756
103039
102335
101634
100947
100264
99597
98932.1
98284.3
97638.4
97011.2
96385.9
95780
95177.5
94593
94014.5
93449.6
92898.5
92347
91807.5
91269.4
90742.8
90216.3
89700.7
89186
88683.1
88184.4
87699.7
87217.3
86749.6
86284.4
85834.4
85388.1
84957
84531.5
84111.5
83704.1
83298.5
82895
82499.9
82110.2
81725.4
81346.5
80972.2
80604.8
80241.3
79885.3
79533.5
79189.5
78848.8
78516.7
78186.7
77865.1
77545.4
77234.7
76925.2
76624.9
76325.4
76035.1
75745.7
75464.3
75185.5
74910.6
74511.7
785924
227153
190575
173100
160090
151012
145227
142126
141100
141977
144753
149252
155692
164429
175999
191136
210278
233436
261608
295127
332591
374334
417746
461353
499178
522999
537462
539152
531223
513355
483570
439555
389785
340431
301758
269608
247058
228364
215418
204307
197754
192182
190225
190256
191576
193350
195703
195584
194307
192562
189510
185719
181559
177322
173273
169061
165144
161141
157515
153837
150530
147441
144540
141879
139433
137024
134899
132760
130811
128883
127057
125333
123644
122104
120542
119119
117676
116384
115074
113933
112776
111803
110821
110059
109315
108788
108291
108010
107817
107842
107974
108246
108710
109361
110215
111233
112429
113800
115371
117081
118917
120827
122793
124755
126744
128723
130761
132700
134600
136398
138052
139555
140838
141919
142774
143350
143764
143999
144157
144138
144038
143835
143526
143102
142574
141940
141230
140465
139669
138849
138023
137179
136359
135529
134720
133902
133098
132278
131439
130586
129719
128843
127961
127071
126197
125316
124455
123586
122729
121874
121036
120191
119346
118504
117666
116827
115995
115162
114338
113516
112705
111896
111102
110310
109534
108758
107999
107240
106496
105755
105028
104308
103592
102881
102179
101485
100799
100116
99442.6
98770.8
98109.9
97450.5
96805
96159.9
95529.8
94900.6
94287.9
93675.5
93081
92487.9
91911.8
91341.6
90782.8
90238.9
89693.6
89159.6
88625.8
88102.1
87577.3
87061.5
86545.2
86039.3
85535.9
85045.4
84556.2
84081.2
83607.7
83149.5
82694.5
82255.7
81821.7
81395
80977.9
80566.2
80153.4
79749.3
79349.5
78954.4
78564.1
78178.5
77798.5
77422.9
77053.6
76689.3
76331.5
75978.3
75632.2
75289.7
74954.3
74622.2
74297.7
73975.5
73661.3
73348.8
73044.2
72741.1
72445.6
72152.5
71863
71443.2
794778
221726
182115
165167
152838
144107
138310
134966
133606
134069
136478
140837
147534
157228
170663
188724
211798
239978
273868
313858
357696
404740
451404
489916
518127
528805
528862
520528
500209
465568
416099
360893
314666
276263
248348
226396
209707
196021
185426
175752
168433
161669
156512
151116
146830
142641
140207
139844
140670
142468
145539
149451
154173
154561
152920
150264
147663
144875
142156
139372
136811
134260
131805
129498
127343
125275
123411
121512
119763
118025
116369
114781
113224
111779
110312
108934
107537
106227
104901
103667
102420
101261
100094
99013
97950.1
96959.9
96004.1
95083.8
94242.6
93407.6
92674.7
91924.6
91326
90722
90308.3
89887.8
89647.3
89412.9
89423.3
89518.7
89737.6
90084.2
90570.6
91196.2
91975.5
92923.9
94065.3
95382.5
96893.6
98578.3
100417
102372
104397
106446
108509
110433
112306
114085
115847
117487
119060
120444
121724
122763
123665
124287
124764
125020
125195
125192
125149
125043
124897
124701
124462
124166
123823
123421
122962
122457
121910
121329
120719
120085
119436
118774
118105
117425
116738
116045
115357
114662
113961
113258
112553
111844
111135
110423
109712
109001
108295
107588
106895
106199
105513
104824
104148
103469
102800
102134
101477
100827
100177
99533.7
98893.4
98261.8
97633.1
97008.6
96387.7
95769
95156.4
94545.6
93944.5
93343.5
92754.3
92165.1
91589.9
91013.8
90452.5
89890.5
89342.4
88799.5
88265.1
87745.3
87223.8
86713.4
86202.2
85700.1
85195.6
84698.1
84198.5
83707.1
83216.2
82736.2
82255.7
81788.1
81320.4
80867.3
80416.6
79982.1
79551.3
79129.3
78712.9
78305.9
77895.3
77493.2
77093.8
76699
76308
75921.3
75538.3
75159.6
74785.1
74415.9
74051.5
73692.4
73338.9
72990
72646.9
72307.9
71975.4
71645.8
71323.1
71002.4
70688.6
70376.3
70071.1
69767.9
69468
69033
802427
217024
174764
158307
146564
138094
132231
128619
126937
127029
129190
133642
140994
152248
168474
190607
219370
254322
295761
343402
393663
444384
487226
514061
527726
526254
516338
492036
452484
396796
341606
295721
261032
234399
214156
198157
185028
173425
163121
153472
144817
136468
128734
121492
114761
108311
102698
98051.1
95256.7
94790.9
96071.7
99239
104484
110673
117943
123822
130545
129843
128350
126614
124643
122583
120494
118560
116668
114888
113235
111522
109960
108392
106903
105477
104084
102791
101479
100250
99003.8
97826.2
96634.2
95515.3
94385.3
93321.4
92248.7
91233.3
90222.5
89259
88313
87385.3
86492.3
85603.5
84756.1
83892.9
83089.2
82278
81548.5
80819.3
80138.9
79470.8
78855
78281.5
77750.4
77270.3
76815.5
76436.7
76078.3
75830.2
75625
75581.7
75648.8
75823.1
76125.1
76559.7
77128
77823.3
78638.4
79561.1
80607.3
81797.7
83140.3
84627
86242.7
87955.8
89733.6
91531.5
93363.8
95031.2
96695.6
98164.3
99603.8
100861
102132
103283
104466
105499
106544
107434
108244
108925
109444
109839
110091
110251
110274
110229
110124
109958
109738
109466
109144
108777
108375
107944
107487
107009
106511
105995
105464
104921
104366
103801
103229
102650
102070
101486
100907
100322
99744.3
99163
98585.3
98008.3
97436.2
96869
96301.5
95738
95176.6
94625.2
94070.9
93521.4
92970.3
92422.5
91875.6
91331.2
90792.2
90252.8
89721.9
89189.5
88668.4
88145.1
87633.8
87119.9
86616.7
86118.1
85625.7
85146.3
84665.5
84195.3
83723.8
83259.7
82792.2
82329.9
81864.2
81404.4
80943.4
80490.9
80036.6
79592.9
79148.3
78716.3
78285.7
77870.1
77456.7
77052.4
76650.6
76259.3
75864
75476.2
75089.6
74707.4
74327.9
73952.2
73578.7
73208.8
72841.1
72478.1
72118.2
71762.9
71412.4
71065.9
70724.7
70387.1
70055.3
69725.9
69402.7
69080.8
68765.3
68450.6
68142.4
67835.8
67531.4
67089.9
808939
214200
168485
152371
141158
132910
126973
123102
121136
121058
123164
128052
136690
150560
171032
199269
235935
279617
329621
384571
440241
486195
518064
528694
528316
516102
488434
442117
384187
328156
284995
251908
226991
207631
192190
179294
167953
157581
147938
138894
130398
122319
114589
107147
100014
93173.1
86685.7
80463.6
75073.5
71165.6
68193.8
65799.3
65885.8
68227.2
73619.5
81355.2
90231.1
100456
106872
113369
112740
111592
110028
108351
106609
104967
103473
101936
100605
99262.3
97984.6
96759.3
95559.5
94437.2
93300.7
92236.8
91159
90138
89104.2
88130.6
87147.4
86220.3
85284.4
84396.9
83503.5
82650.3
81805
80980.5
80172.6
79372.3
78600
77814.6
77063.6
76305.9
75597.6
74889.4
74216
73538
72887.7
72246.8
71631.6
71028.3
70434.2
69857.9
69282.9
68734.9
68203.5
67714.8
67261
66857.3
66483.5
66167.7
65875.5
65650.1
65438.4
65299.5
65178
65192.8
65280.1
65461.3
65746.4
66140.1
66641.2
67242.7
67938.3
68713.2
69566
70489.9
71488.6
72560
73724.3
74983.4
76356
77819
79393.4
81030.8
82726.7
84441.2
86130.1
87719.5
89215.7
90572.9
91820.9
92923.7
93925.6
94798.3
95573.7
96232.6
96788.9
97235.1
97577.6
97836.6
97991
98078
98065.4
98007.6
97896.6
97733.7
97522.8
97269.1
96977.1
96651.3
96295.8
95917.2
95521.7
95110.3
94687.2
94253.1
93809.9
93359.2
92903.6
92443.5
91978.8
91510.4
91038.2
90570.9
90100.3
89632.4
89160.9
88691
88218.8
87747.4
87278.6
86807.8
86343
85874.7
85418
84957.7
84505.6
84049.8
83602.2
83158.1
82719.2
82290.8
81862
81441.7
81020.3
80604.1
80185.2
79769.5
79350.6
78934.8
78517.1
78105.6
77691.9
77286.3
76879.7
76483
76086.6
75703
75320.8
74946.6
74573.3
74209.7
73842.6
73481.1
73120.2
72762.9
72407.1
72054.1
71702.4
71353.2
71005.3
70660.3
70317.9
69978.1
69642.9
69310.2
68982.4
68656.6
68336.1
68016.7
67702.6
67389
67080.9
66773
66470.5
66169.4
65868.8
65432.7
814024
211362
163151
147286
136527
128508
122525
118441
116273
116305
118701
124633
135595
153802
180890
217799
264565
317678
375743
437424
490818
522569
536353
532459
518341
487040
435899
374972
320655
278793
247478
223831
205550
190689
178055
166830
156615
147151
138312
130004
122073
114482
107136
100052
93207.2
86633.8
80341.6
74318
68566.7
63155.1
58150.9
53488.3
49420.3
47692.8
47609.7
48808.9
53040.5
60715.9
70371.7
81228.5
89002.3
97160.9
97728.2
97244.8
96362.2
95310.7
94200.2
93038.3
91976.4
90894