/*--------------------------------*- C++ -*----------------------------------*\
| =========                 |                                                 |
| \\      /  F ield         | OpenFOAM: The Open Source CFD Toolbox           |
|  \\    /   O peration     | Version:  2312                                  |
|   \\  /    A nd           | Website:  www.openfoam.com                      |
|    \\/     M anipulation  |                                                 |
\*---------------------------------------------------------------------------*/
FoamFile
{
    version     2.0;
    format      ascii;
    arch        "LSB;label=32;scalar=64";
    class       volScalarField;
    location    "0.005";
    object      p;
}
// * * * * * * * * * * * * * * * * * * * * * * * * * * * * * * * * * * * * * //

dimensions      [1 -1 -2 0 0 0 0];

internalField   nonuniform List<scalar> 
48128
(
2370.65
2365.94
2364.08
2350.43
2338.1
2314.46
2274.62
2225.59
2173.5
2125.23
2087.68
2060.87
2040.1
2030.07
2028.5
2032.82
2043.44
2060.71
2084.88
2117.14
2161.79
2216.49
2280.86
2357.67
2448.7
2554.27
2674.85
2809.9
2963.58
3133.31
3323.47
3531.54
3760.9
4008.58
4277.61
4561.28
4869.08
5177.59
5506.41
5831.87
6152.75
6476.18
6794.72
7106.04
7413.88
7718.81
8017.39
8305.46
8580.97
8848.99
9103.86
9352.86
9584.02
9812.51
10020.7
10224.3
10409.7
10583.1
10742.7
10881.3
11014.8
11128.7
11238.9
11346.5
11438.5
11530.8
11603.5
11674.4
11729.8
11784.7
11835.1
11879.7
11925.6
11966.5
12008.1
12046.3
12085.2
12129.6
12161.9
12198.4
12269.9
12316.3
12338.9
12362.6
12425.8
12460.8
12479.2
12491.3
12502.8
12592.4
12630.3
12643.9
12652.4
12659.5
12738.3
12771.3
12781
12790.1
12822.8
12841.6
12850.9
12858.1
12911.1
12936
12946.4
12956.9
12980.7
12994.7
13004.4
13010.5
13008.5
12999.1
12986.3
12980
12974.6
12993.7
13010
13025.5
13041.8
13056
13061.2
13055.3
13045.2
13040.6
13041.2
13044.2
13078.9
13103.8
13137.7
13170.5
13203.5
13233.8
13259
13280.1
13294
13301.1
13297.6
13291
13285.7
13282.8
13281.4
13284.8
13287.8
13296.2
13302.2
13308.4
13313.3
13318.7
13324.1
13325.5
13328.3
13327.5
13328.1
13327
13325.2
13324.2
13323.3
13323.7
13324.3
13326.6
13329
13333.4
13338.4
13344.8
13351.5
13359.2
13366.3
13373.4
13379.8
13386.5
13388.9
13392.8
13392.8
13393.2
13392.7
13391.4
13389.4
13387.2
13384.5
13382.5
13380.2
13379
13378.4
13378.9
13380.1
13382.6
13385.8
13390.1
13395.5
13402.4
13409.9
13417.7
13424.1
13429.7
13429.7
13429.2
13426.5
13422.1
13416.7
13411.5
13406.7
13403.1
13401.3
13401.6
13403.5
13406.9
13411.8
13417.8
13425.4
13432.4
13438.6
13443.8
13449.8
13448.5
13449.7
13450.2
13448.7
13447.7
13445.8
13443.9
13442
13440.2
13438.7
13437.7
13436.9
13436.6
13436.6
13436.9
13437.3
13437.8
13438.4
13439.1
13439.8
13440.7
13441.5
13442.7
13443.8
13445.4
13446.7
13440.4
2371.95
2366.16
2364.35
2351.52
2338.87
2312.52
2271.85
2222.42
2169.79
2124.77
2093.32
2066.11
2044.47
2034
2031.86
2035.9
2046.24
2063.31
2088.04
2120.57
2160.51
2212.68
2275.7
2351.55
2441.18
2544.93
2662.97
2796.73
2948.66
3115.48
3302.11
3506.65
3732.36
3976.25
4240.65
4519.91
4823.42
5128.84
5453.9
5776.65
6095.8
6414.75
6730.6
7041.89
7351.21
7655.68
7953.99
8242.87
8519.87
8788.68
9045.05
9294.51
9527.11
9755.86
9965.63
10171.1
10358.7
10533.8
10694.3
10836.2
10970.2
11086.1
11200.4
11309.9
11405.7
11499.4
11573.9
11646
11703
11760.4
11812.1
11858.4
11906
11948.7
11991.6
12030.5
12070.8
12117.3
12149.2
12184.9
12260
12307.8
12329.8
12352.3
12417.6
12453.7
12473.1
12484.3
12492.6
12586.9
12626.1
12640.2
12647.7
12652
12733.9
12768.3
12777.8
12785.8
12818.9
12838.6
12847.7
12853.7
12908.2
12933.9
12944.4
12954.2
12978.1
12992.6
13002.5
13008.5
13006.5
12997
12984.4
12977.8
12972.5
12992.9
13009
13024.7
13040.8
13055
13060.4
13054.2
13044
13039.6
13040.3
13043.4
13078.6
13103.3
13137.6
13170.1
13202.9
13233.5
13258.6
13279.4
13293.3
13300.7
13296.9
13290.3
13285.2
13282.3
13280.9
13284.3
13287.5
13295.7
13301.9
13308.1
13313
13318.4
13323.9
13325.2
13328
13327.3
13327.9
13326.8
13325
13324
13323.1
13323.5
13324.2
13326.4
13328.8
13333.3
13338.3
13344.7
13351.4
13359.1
13366.2
13373.3
13379.7
13386.4
13388.9
13392.7
13392.8
13393.2
13392.6
13391.3
13389.4
13387.1
13384.5
13382.4
13380.1
13379
13378.3
13378.9
13380.1
13382.6
13385.8
13390.2
13395.5
13402.4
13409.9
13417.7
13424.1
13429.7
13429.9
13429.2
13426.5
13422.1
13416.7
13411.5
13406.7
13403.1
13401.3
13401.6
13403.5
13407
13411.8
13417.9
13425.4
13432.4
13438.6
13443.9
13449.8
13448.6
13449.7
13450.2
13448.8
13447.7
13445.8
13444
13442
13440.2
13438.8
13437.7
13437
13436.7
13436.7
13436.9
13437.3
13437.9
13438.5
13439.2
13439.9
13440.7
13441.6
13442.8
13443.8
13445.4
13446.8
13440.5
2373.69
2366.94
2362.13
2350.13
2331.36
2301.89
2260.15
2211.93
2163.53
2119.79
2082.31
2056.44
2037.28
2028.31
2027.29
2032.05
2042.84
2060.21
2084.5
2117.13
2159.03
2211
2273.49
2348.92
2437.69
2540.46
2657.17
2789.03
2938.47
3102.91
3286.66
3488.32
3710.55
3951.61
4212.11
4487.87
4788.23
5091.15
5412.3
5732.35
6050.33
6369.5
6684.79
6998.16
7307.29
7612.21
7911.13
8200.6
8479.53
8750.62
9008.47
9259.53
9493.5
9725.63
9938.27
10146.5
10335.7
10512.2
10672.7
10817.4
10950.7
11066.3
11184.4
11294.6
11393
11487.5
11561.9
11634.8
11691.7
11750.8
11802.4
11849.6
11898.1
11941.4
11984.8
12023.8
12064.9
12112.1
12144.6
12179.3
12254.5
12303.2
12326.5
12348.6
12412.3
12449.9
12470.9
12482.6
12488.9
12580.7
12622.3
12638.7
12647.2
12650.4
12728.2
12764.9
12776.4
12784.9
12815.9
12837
12846.7
12852.2
12905
12931.8
12943.7
12953.5
12976.1
12991.3
13001.4
13007.1
13005.1
12995.4
12983.2
12976.5
12971.2
12992.2
13008.4
13024.3
13040.1
13053.9
13059.3
13053.3
13042.9
13038.8
13039.9
13042.7
13078.3
13103
13137.4
13170
13202.4
13233.2
13258.1
13278.6
13292.5
13300
13296.5
13289.6
13284.6
13282
13280.6
13283.9
13287.1
13295.5
13301.7
13307.9
13312.7
13318.1
13323.6
13325
13327.8
13327
13327.7
13326.6
13324.8
13323.8
13323
13323.4
13324.1
13326.3
13328.8
13333.2
13338.2
13344.6
13351.3
13359.1
13366.2
13373.3
13379.7
13386.4
13388.9
13392.6
13392.7
13393.1
13392.6
13391.3
13389.3
13387.1
13384.4
13382.4
13380.1
13378.9
13378.3
13378.8
13380.1
13382.6
13385.8
13390.2
13395.5
13402.5
13409.9
13417.7
13424.1
13429.6
13429.9
13429.1
13426.4
13422.1
13416.7
13411.5
13406.7
13403.1
13401.3
13401.7
13403.6
13407
13411.8
13418
13425.5
13432.5
13438.7
13443.9
13449.8
13448.7
13449.7
13450.2
13448.8
13447.7
13445.8
13444
13442
13440.3
13438.8
13437.7
13437
13436.7
13436.7
13437
13437.4
13437.9
13438.5
13439.2
13439.9
13440.8
13441.6
13442.8
13443.8
13445.4
13446.8
13440.6
2379.2
2367.13
2361.29
2344.48
2320.76
2286.87
2243.97
2197.05
2149.82
2110.12
2077.7
2052.69
2034.93
2026.84
2026.26
2031.61
2042.62
2059.83
2083.6
2115.09
2155.15
2205.61
2266.8
2340.71
2427.62
2528.6
2643.19
2773.09
2920
3081.69
3262.12
3461.31
3680.81
3918.34
4177.04
4449.19
4747.03
5047.8
5368.23
5685.4
6002.62
6323.18
6637.53
6952.32
7260.95
7566.78
7865.44
8155.24
8435.13
8709.29
8967.19
9218.75
9451.6
9686.62
9902.72
10113.8
10304.7
10483
10642.5
10791.3
10923.1
11037.7
11161.4
11271.9
11374.6
11470
11544.1
11618.1
11675.2
11737.1
11788.4
11837.1
11886.9
11931
11975.2
12014.7
12056.9
12104.7
12138.9
12173
12246.5
12296
12322.3
12344.9
12405
12443.9
12467.9
12481.3
12488.2
12570.6
12614.5
12636.5
12647.3
12651.4
12720
12758.5
12774.4
12784.5
12812.2
12834.3
12845.8
12850.9
12900.4
12928
12942.4
12952.8
12973.3
12989.3
12999.5
13005
13002.8
12993.3
12981.6
12975.2
12970
12991
13007.6
13024
13039.2
13052.2
13057.5
13051.7
13041.7
13037.7
13039.6
13043
13077.3
13102.8
13137.1
13170.1
13202
13232.6
13257.2
13277.5
13291
13298.9
13295.9
13288.7
13283.9
13281.6
13280.3
13283.4
13286.8
13295.2
13301.3
13307.5
13312.4
13317.6
13323.2
13324.8
13327.4
13326.6
13327.3
13326.2
13324.5
13323.6
13322.8
13323.2
13323.9
13326.1
13328.6
13333.1
13338
13344.6
13351.2
13359
13366
13373.1
13379.5
13386.2
13388.8
13392.5
13392.5
13393
13392.4
13391.2
13389.2
13387
13384.3
13382.3
13380
13378.9
13378.3
13378.8
13380.1
13382.6
13385.8
13390.2
13395.5
13402.6
13409.9
13417.7
13424.1
13429.5
13430
13429
13426.3
13422
13416.6
13411.5
13406.7
13403
13401.3
13401.7
13403.6
13407.1
13411.9
13418
13425.5
13432.5
13438.7
13443.9
13449.8
13448.8
13449.6
13450.2
13448.8
13447.7
13445.8
13444
13442
13440.3
13438.8
13437.8
13437
13436.7
13436.8
13437
13437.4
13437.9
13438.5
13439.3
13439.9
13440.8
13441.7
13442.8
13443.9
13445.5
13446.8
13440.7
2381.46
2367.37
2355.59
2334.81
2305.59
2268.55
2226.08
2181.5
2137.49
2098.92
2068.3
2045.57
2030.24
2023.65
2023.76
2029.69
2040.59
2057.55
2080.76
2111.32
2150.46
2199.61
2259.45
2331.94
2417.21
2516.69
2629.15
2756.86
2901.48
3061.39
3239.82
3434.92
3654.12
3887.1
4144.98
4416.19
4715.13
5012.46
5332.77
5645.04
5960.15
6288.28
6597.08
6912.98
7218.07
7528.8
7824.51
8116.43
8395.05
8671.98
8930.19
9181.44
9412.96
9651.58
9873.26
10087
10279.6
10458.9
10617
10770.2
10898.6
11012.7
11143.7
11252.6
11360.6
11455.1
11528.2
11603.8
11660.4
11725.7
11776.1
11826.9
11877.8
11922.7
11967.5
12007.8
12051
12099
12136
12169
12239.1
12288.8
12319.4
12343.1
12398.4
12438.2
12465.7
12481.8
12491.4
12560.4
12605.9
12635.1
12649.2
12655.4
12712.1
12751.2
12773.1
12785
12809.4
12832.5
12845.8
12852.3
12895.5
12923.7
12941.7
12952.9
12971.1
12987.7
12998.1
13002.8
13000.5
12991.4
12980.7
12974.8
12969.8
12990.1
13007.6
13024.2
13038.5
13050.2
13055.2
13049.9
13041
13037.3
13040
13044.5
13076.3
13103
13137.5
13170.4
13201.7
13231.9
13256.1
13276.1
13289.3
13297.4
13295
13287.9
13283.4
13281.4
13280.3
13283.2
13286.5
13294.8
13301
13307.2
13312.1
13317.2
13322.7
13324.6
13327.1
13326.3
13326.9
13326
13324.3
13323.4
13322.6
13323
13323.8
13325.9
13328.6
13333.1
13338
13344.5
13351.1
13358.9
13365.9
13373
13379.3
13386
13388.8
13392.4
13392.4
13392.8
13392.3
13391
13389.1
13386.9
13384.2
13382.2
13380
13378.8
13378.3
13378.8
13380.1
13382.6
13385.8
13390.2
13395.6
13402.7
13409.9
13417.7
13424
13429.4
13429.9
13428.9
13426.2
13422
13416.6
13411.5
13406.7
13403.1
13401.4
13401.8
13403.7
13407.1
13412
13418.1
13425.6
13432.4
13438.7
13443.8
13449.7
13448.9
13449.6
13450.2
13448.8
13447.6
13445.8
13444
13442.1
13440.3
13438.9
13437.8
13437.1
13436.8
13436.8
13437.1
13437.4
13438
13438.6
13439.3
13440
13440.9
13441.7
13442.9
13443.9
13445.5
13446.8
13441
2381.82
2364.24
2347.56
2321.42
2287.97
2249.99
2208.16
2163.76
2122.47
2087.22
2059.39
2038.9
2025.79
2020.45
2020.96
2027.25
2037.83
2054.34
2076.82
2106.34
2144.36
2192.2
2250.73
2321.77
2405.26
2503.48
2613.9
2739.79
2882.91
3039.89
3218.94
3408.75
3626.32
3857.39
4114.22
4381.84
4680.74
4970.65
5292.63
5597.83
5903.44
6243.83
6541.1
6858.91
7154.9
7472.79
7767.6
8062.55
8345.58
8617.78
8879.23
9127.48
9360.33
9603.95
9833.2
10053.6
10245.9
10427.9
10583.8
10743.8
10868.9
10980.3
11126
11229.3
11346.8
11440.8
11508.7
11589.9
11642.2
11715.6
11761.9
11817.4
11868.9
11913.7
11959.7
12001
12046.1
12093
12134.1
12168.5
12230.8
12279.3
12316.9
12343.3
12391.9
12430.7
12463.4
12483.4
12496.3
12550.2
12596.3
12633
12651.4
12661
12704.3
12743.5
12771.2
12785.5
12807.5
12830.8
12846.3
12855.7
12889.9
12918.9
12940.5
12953.1
12969.4
12985.9
12996.4
13000.3
12997.4
12989.2
12980.2
12975.1
12971.2
12989.4
13008
13024.9
13037.9
13047.9
13052.2
13047.6
13040.5
13037.7
13041
13046.9
13075.5
13104.2
13138.5
13170.8
13201.4
13231.3
13254.8
13274.3
13287.1
13295.2
13293.7
13287.1
13283.1
13281.3
13280.5
13283.3
13286.6
13294.6
13300.8
13306.9
13311.9
13316.7
13322.2
13324.3
13326.8
13326
13326.5
13325.7
13324
13323.2
13322.5
13322.9
13323.8
13325.9
13328.6
13333.2
13338
13344.5
13351.1
13358.8
13365.8
13373
13379.1
13385.7
13388.6
13392.3
13392.2
13392.6
13392.1
13390.9
13389
13386.8
13384.2
13382.2
13379.9
13378.8
13378.3
13378.8
13380.1
13382.6
13385.8
13390.3
13395.7
13402.8
13410
13417.6
13423.9
13429.4
13429.8
13428.7
13426
13421.9
13416.5
13411.5
13406.7
13403.1
13401.4
13402
13403.9
13407.3
13412.1
13418.3
13425.6
13432.4
13438.8
13443.8
13449.6
13449
13449.6
13450.1
13448.8
13447.6
13445.8
13444
13442.1
13440.3
13438.9
13437.9
13437.1
13436.8
13436.8
13437.1
13437.5
13438
13438.6
13439.3
13440
13440.9
13441.7
13442.9
13444
13445.6
13446.8
13441.2
2378.16
2357.02
2336.32
2306.15
2270.63
2232.52
2188.9
2146.14
2107.79
2075.61
2050.45
2032.25
2021.07
2016.78
2017.63
2023.86
2034.37
2050.27
2071.95
2100.34
2137.18
2183.81
2240.83
2310.55
2392.14
2489.44
2598.38
2721.88
2864.63
3016.55
3194.2
3382.36
3595.72
3821.6
4072.96
4328.25
4628.71
4900.48
5231.48
5526.36
5815.01
6160.86
6447.73
6766.33
7060.57
7381.51
7675.92
7975.3
8269.1
8532.28
8794.91
9037.57
9268.51
9523.03
9758.4
9994.18
10182.9
10377.3
10526.4
10698.3
10825.4
10933.3
11098.1
11193.4
11325.9
11423.6
11479.7
11574.2
11619.4
11702.4
11744.7
11807.1
11859.7
11903.6
11951.6
11994.4
12042.3
12087.8
12133.3
12170.5
12221.6
12269.1
12314.9
12345
12384.7
12422.5
12461
12484.5
12501.3
12542.1
12586.7
12630.7
12652.3
12666.3
12698.7
12736.3
12768.4
12785.7
12806.4
12829.6
12846.5
12859.1
12884.9
12914.8
12938.9
12953.4
12968.5
12984
12994.4
12996.9
12993.5
12987.1
12980.2
12976.2
12974
12989.6
13009.1
13025.9
13037.4
13044.8
13048.2
13045.1
13040.3
13039.1
13042.4
13050
13076.6
13106.3
13139.7
13171.2
13201
13230.5
13253
13272.4
13284.5
13292.5
13292.2
13286.3
13283
13281.6
13281.1
13283.6
13287
13294.4
13300.6
13306.8
13311.7
13316.5
13321.6
13323.9
13326.6
13325.7
13326.1
13325.4
13323.8
13323.1
13322.5
13323
13323.9
13325.9
13328.8
13333.3
13338.2
13344.6
13351.2
13358.8
13365.7
13372.9
13379
13385.2
13388.5
13392.2
13392.1
13392.4
13391.9
13390.7
13388.9
13386.7
13384.1
13382.2
13380
13378.8
13378.4
13379
13380.2
13382.7
13385.9
13390.5
13395.8
13403
13410
13417.6
13423.7
13429.2
13429.6
13428.5
13425.7
13421.8
13416.5
13411.5
13406.7
13403.1
13401.6
13402.2
13404.1
13407.5
13412.3
13418.4
13425.7
13432.4
13438.8
13443.7
13449.4
13449
13449.6
13450.1
13448.8
13447.6
13445.8
13444
13442.1
13440.4
13439
13437.9
13437.2
13436.9
13436.9
13437.2
13437.5
13438.1
13438.7
13439.4
13440.1
13440.9
13441.8
13443
13444
13445.6
13446.9
13441.3
2371.31
2345.76
2322.69
2290.38
2253.86
2213.77
2170
2129.59
2094.16
2064.88
2042.1
2025.93
2016.37
2012.77
2013.87
2020.05
2030.4
2045.5
2066.28
2093.49
2129.1
2174.63
2229.99
2298.56
2378.66
2474.2
2582.31
2702.06
2843.2
2991.95
3164.87
3346.85
3551.25
3764.83
4021.43
4242.8
4534.96
4780.65
5099.76
5400.17
5676.43
6013.82
6295.89
6617.14
6918.4
7236.5
7539.81
7838.99
8144.15
8402.67
8674.88
8930.95
9142.59
9434.18
9645.9
9904.63
10081.2
10303
10440.2
10629.3
10756
10876.8
11052.8
11142.8
11289.1
11390.8
11440.6
11543.7
11590.6
11678.6
11722.9
11792.6
11846.1
11891
11942.4
11987.6
12037.6
12083.1
12132.4
12170.2
12213.9
12259.2
12311.3
12343.9
12378.7
12415.5
12457.4
12485.4
12505.5
12538
12578.5
12625.4
12653
12670.7
12695.7
12729.5
12764
12785.7
12806.1
12828.5
12846.8
12861.8
12882.2
12910.5
12936.2
12953.4
12967.7
12981.9
12991.3
12992.3
12989.1
12985
12980.7
12977.4
12977.5
12992.2
13011.2
13026.7
13036.6
13041
13043.4
13042.2
13040.5
13040.8
13044.6
13054.1
13080.2
13109.1
13140.8
13171.7
13200.7
13229.3
13250.8
13270
13281.4
13288.8
13290.7
13285.5
13283.2
13281.9
13282
13284.3
13287.8
13294.4
13300.5
13306.7
13311.5
13316.4
13320.9
13323.6
13326.3
13325.6
13325.7
13325.2
13323.7
13323.1
13322.6
13323.1
13324.1
13326.2
13329.1
13333.6
13338.5
13344.8
13351.4
13358.9
13365.7
13372.9
13378.8
13384.8
13388.3
13392.1
13392
13392.2
13391.7
13390.6
13388.7
13386.7
13384.1
13382.2
13380
13378.9
13378.5
13379.1
13380.4
13382.9
13386.1
13390.7
13396.1
13403.3
13410.1
13417.6
13423.6
13428.9
13429.3
13428.2
13425.4
13421.6
13416.4
13411.5
13406.8
13403.3
13401.8
13402.4
13404.4
13407.8
13412.5
13418.6
13425.7
13432.3
13438.9
13443.6
13449.2
13449
13449.6
13450
13448.8
13447.5
13445.8
13444
13442.2
13440.5
13439
13438
13437.3
13437
13437
13437.2
13437.6
13438.1
13438.7
13439.4
13440.1
13441
13441.9
13443
13444.1
13445.6
13447
13441.5
2360.82
2331.46
2307.61
2274.1
2237.39
2195.1
2152.8
2114.85
2082.03
2055.19
2034.57
2020.18
2011.82
2008.66
2009.93
2016
2025.88
2040.25
2060.08
2086.02
2120.26
2164.76
2218.8
2285.55
2364.94
2458.32
2563.54
2680.9
2817.14
2959.32
3121.07
3293.63
3497.86
3669.34
3918.84
4110.88
4388.45
4614.15
4905.28
5212.32
5491.14
5802.36
6099.49
6408.94
6735.5
7035.11
7366.6
7643.58
7982.01
8218.73
8510.37
8771.92
8989.28
9328.01
9513.06
9791.88
9947.59
10192.6
10326.6
10529.9
10659.7
10809.7
10988
11077.4
11238.3
11339.8
11393
11502.2
11555.8
11648.5
11696
11774.5
11827.3
11875.6
11930.9
11978.3
12031
12076.7
12127.9
12167.6
12206.4
12248.3
12302.9
12340.3
12372.6
12408.5
12452
12486.1
12508.6
12535.6
12572
12618.3
12652.4
12673.9
12694.6
12723.6
12758.1
12784.7
12806
12827.4
12847.5
12863.7
12881.2
12906.4
12932.9
12952.6
12966.7
12979.3
12987.1
12986.6
12984.7
12983
12981.7
12980.2
12982.4
12995.7
13013.7
13026.6
13034.7
13036.9
13038.1
13039.6
13040.6
13043.2
13047.9
13059.8
13085.2
13112.3
13142.1
13172.3
13200.3
13227.7
13248.2
13266.8
13277.5
13285
13288.3
13284.8
13283.4
13282.6
13283.2
13285.5
13288.5
13294.6
13300.5
13306.6
13311.5
13316.2
13320.3
13323.1
13325.9
13325.4
13325.4
13324.9
13323.6
13323.1
13322.9
13323.4
13324.5
13326.6
13329.5
13334
13338.9
13345.2
13351.7
13359
13365.7
13372.9
13378.6
13384.5
13388
13391.9
13391.9
13392
13391.5
13390.5
13388.7
13386.7
13384.2
13382.3
13380.2
13379.1
13378.8
13379.4
13380.6
13383.1
13386.4
13391
13396.4
13403.6
13410.3
13417.6
13423.3
13428.6
13428.9
13427.9
13425.2
13421.5
13416.3
13411.5
13407
13403.5
13402.1
13402.8
13404.7
13408.1
13412.9
13418.9
13425.8
13432.3
13438.9
13443.4
13448.9
13449
13449.6
13449.9
13448.8
13447.5
13445.8
13444
13442.2
13440.6
13439.1
13438.1
13437.4
13437.1
13437.1
13437.3
13437.7
13438.2
13438.8
13439.5
13440.2
13441.1
13441.9
13443.1
13444.2
13445.7
13447
13441.7
2346.4
2314.88
2291.47
2257.77
2220.84
2177.98
2137.94
2102.09
2071.54
2046.82
2028.08
2015.12
2007.6
2004.76
2006.1
2011.86
2021.06
2034.53
2053.56
2078.11
2111.06
2154.16
2207.61
2273.16
2349.44
2441.96
2541.36
2653.58
2779.51
2913.14
3066.22
3200.1
3405.02
3541.84
3770.43
3933.52
4181.35
4390.99
4652.41
4942.63
5255.65
5526.07
5880.27
6143.26
6543.46
6802.15
7195.96
7431.32
7811.65
8014.35
8332.53
8568.27
8835.59
9185.84
9349.5
9650.14
9798.35
10054.2
10179.6
10405.6
10539.6
10724.1
10911
10997.2
11171
11268.1
11335.3
11453.2
11514.1
11611.5
11662.8
11750
11802.3
11857.5
11917.9
11966.2
12023
12068.9
12120.9
12162.4
12200.5
12237.4
12291.6
12331.9
12367.1
12401.8
12445.2
12482.6
12510.8
12535.7
12566.9
12609.7
12647.2
12674.5
12694.8
12718.7
12750.6
12781.4
12805.4
12826.1
12848
12865.7
12880.8
12903
12928.5
12950.6
12965.2
12976
12980.2
12980.4
12980.1
12981.1
12983.1
12985
12989.1
13000.1
13015.9
13026
13031.1
13031.7
13033.1
13036.7
13041.2
13046.6
13053.2
13067.1
13090.7
13116.2
13143.7
13172.9
13199.5
13225.6
13244.8
13262.6
13273.1
13280.6
13285.3
13284.3
13283.7
13283.7
13284.7
13286.9
13289.6
13294.8
13300.6
13306.5
13311.3
13316.1
13319.7
13322.5
13325.5
13325.2
13325.1
13324.7
13323.6
13323.3
13323.2
13323.8
13325
13327.2
13330.2
13334.5
13339.5
13345.7
13352.1
13359.2
13365.8
13372.9
13378.4
13384.1
13387.7
13391.7
13391.6
13391.8
13391.3
13390.3
13388.6
13386.7
13384.3
13382.4
13380.4
13379.4
13379.1
13379.7
13381
13383.5
13386.8
13391.4
13396.8
13403.9
13410.5
13417.6
13423
13428.2
13428.4
13427.6
13424.8
13421.3
13416.3
13411.6
13407.2
13403.8
13402.6
13403.2
13405.2
13408.5
13413.3
13419.2
13425.9
13432.4
13438.9
13443.2
13448.6
13448.9
13449.6
13449.8
13448.7
13447.5
13445.8
13444.1
13442.3
13440.7
13439.3
13438.2
13437.5
13437.2
13437.2
13437.4
13437.8
13438.3
13438.9
13439.6
13440.3
13441.1
13442
13443.2
13444.3
13445.8
13447
13441.8
2329.51
2297.2
2274.72
2242.24
2204.56
2163.07
2125.27
2091.4
2062.87
2040.01
2022.8
2010.91
2003.95
2001.3
2002.65
2007.88
2016.24
2028.44
2046.66
2069.74
2101.88
2144.87
2195.75
2261.35
2332.83
2421
2511.45
2616.39
2730.75
2835.06
2987.94
3082.24
3266.08
3365.1
3564.51
3684.61
3900.39
4055.8
4313.03
4525.55
4858.43
5071.52
5438.13
5659.19
6116.9
6345.7
6802.82
7049.81
7497.71
7733.59
8145.11
8363.29
8694.65
9030.64
9191.51
9494.27
9637.3
9910.21
10020.2
10261.7
10391.3
10614.4
10804.7
10900.3
11086.3
11178.7
11269.2
11397.8
11463.8
11568.6
11623
11716.9
11771.1
11837
11902.1
11952
12011.7
12058.5
12111.4
12151.9
12193.7
12228.6
12278
12317.7
12361.2
12396.8
12437.5
12476
12510.6
12538.2
12564.3
12600.6
12639
12672.3
12695.4
12714.8
12742.7
12776.3
12802.8
12825
12847.5
12867.3
12881.4
12899.9
12923.4
12947.1
12961.1
12970.7
12971.9
12973.3
12975.1
12979.2
12985
12991
12997.5
13005.7
13018.1
13023.8
13025.8
13026.3
13028.4
13034
13042.1
13051.4
13060.8
13075.1
13097.2
13120.6
13145.3
13173.5
13198.4
13222.6
13240.9
13257.8
13267.3
13275.3
13282
13284.1
13284.2
13285
13286.4
13288.5
13290.9
13295.4
13300.8
13306.4
13311.1
13315.9
13319
13322
13325.1
13325.1
13324.8
13324.5
13323.8
13323.6
13323.6
13324.3
13325.6
13327.9
13330.9
13335.2
13340.1
13346.2
13352.5
13359.4
13365.9
13373
13378.2
13383.7
13387.3
13391.4
13391.4
13391.6
13391.1
13390.1
13388.5
13386.7
13384.4
13382.6
13380.6
13379.7
13379.4
13380.1
13381.4
13383.9
13387.3
13391.9
13397.3
13404.3
13410.8
13417.6
13422.7
13427.7
13427.8
13427.1
13424.5
13421
13416.2
13411.7
13407.5
13404.2
13403.1
13403.7
13405.7
13409.1
13413.8
13419.5
13426
13432.4
13439
13443
13448.2
13448.8
13449.7
13449.7
13448.7
13447.5
13445.8
13444.1
13442.4
13440.8
13439.4
13438.4
13437.6
13437.3
13437.3
13437.5
13437.9
13438.4
13439
13439.7
13440.4
13441.2
13442.1
13443.3
13444.4
13445.9
13447.1
13441.9
2311.25
2279.63
2258.61
2227.62
2189.77
2150.76
2114.84
2082.91
2056.19
2034.89
2018.87
2007.73
2001.16
1998.57
1999.71
2004.17
2011.24
2021.98
2039.72
2062.78
2093.03
2136.69
2184.18
2246.94
2312.96
2393.22
2467.79
2560.41
2665.53
2734.07
2875.31
2931.29
3074.23
3150.35
3282.52
3385.47
3517.06
3656.99
3813.75
4016.74
4294.95
4480.6
4895.54
5109.87
5557.16
5817.93
6324.4
6548.44
7054.31
7240.42
7708.77
7925.7
8368.45
8718.11
8932.48
9292.38
9474.48
9764.29
9887.41
10130.5
10249.2
10493.3
10669.8
10782.9
10982
11073.8
11199.8
11333
11403.5
11520.3
11577.5
11677.1
11735.4
11814.5
11881.7
11934.7
11997.1
12044.9
12098.4
12139.6
12184.8
12218
12264.3
12301.6
12352.6
12388.2
12429.6
12466.7
12507.6
12537.4
12562.9
12592.3
12628.2
12666.6
12693.1
12713.3
12737
12769
12798
12824
12846.5
12867.5
12882.5
12898.3
12918.6
12940.6
12953.8
12964.4
12962.4
12965.3
12969.9
12977.8
12986.5
12996.7
13007.3
13012.1
13019.9
13020.6
13020.1
13020.5
13023.8
13032.1
13043.5
13056.2
13070.1
13084.6
13104.5
13125.5
13147.7
13173.9
13196.8
13219
13235.6
13251.9
13260
13270
13278.6
13283.6
13284.7
13286.3
13288.2
13290.1
13292.4
13296.3
13301
13306.1
13310.9
13315.7
13318.5
13321.5
13324.7
13325
13324.5
13324.4
13323.9
13323.9
13324.1
13325
13326.4
13328.7
13331.7
13335.9
13340.9
13346.8
13353
13359.7
13366
13373
13377.9
13383.3
13386.8
13391
13391.1
13391.5
13390.9
13390
13388.4
13386.7
13384.6
13382.8
13380.9
13380.1
13379.9
13380.6
13381.9
13384.5
13387.9
13392.5
13397.9
13404.8
13411
13417.6
13422.2
13427.1
13427.1
13426.6
13424.1
13420.7
13416.1
13411.8
13407.8
13404.7
13403.6
13404.4
13406.3
13409.7
13414.3
13419.9
13426.2
13432.4
13438.9
13442.7
13447.8
13448.7
13449.7
13449.6
13448.6
13447.4
13445.8
13444.2
13442.5
13440.9
13439.6
13438.5
13437.8
13437.5
13437.5
13437.7
13438
13438.5
13439.1
13439.8
13440.5
13441.3
13442.3
13443.4
13444.6
13446
13447.1
13441.9
2292.62
2263.27
2243.94
2214.09
2177.19
2141.05
2106.86
2076.75
2051.61
2031.61
2016.47
2005.87
1999.49
1996.74
1997.25
2000.1
2006.19
2016.59
2033.97
2056.7
2085.46
2127.6
2170.96
2227.98
2286.64
2355.38
2410.45
2478.66
2581.3
2614.33
2726.91
2753.22
2857.52
2886.12
2986.27
3024.9
3119.17
3205
3331.8
3446.14
3612.8
3755.3
4014.05
4216.61
4623.84
4893.9
5457.93
5737.98
6318.83
6585.7
7197.99
7476.01
8024.73
8364.47
8606.88
9003.06
9172.21
9512.95
9694.83
9979.3
10121.5
10377.8
10537.5
10660
10865.8
10956.5
11122.3
11259.8
11332.2
11464.8
11526.3
11633.8
11695.5
11788.1
11858.5
11914.6
11980.3
12028.3
12084
12124.3
12172.8
12206.2
12251.3
12287.1
12339.2
12377.8
12421.3
12457.5
12502.1
12532.2
12560.6
12587.6
12616
12657.6
12684.6
12711.1
12733.8
12761.2
12790.9
12821
12844.4
12866.5
12882.3
12897
12913.9
12932.3
12945.3
12956.2
12953.5
12959.5
12965.9
12976.7
12988.4
13002.1
13015.6
13018.2
13021.7
13017.2
13013.8
13015.1
13020.2
13030.4
13044.9
13061.1
13079
13095.5
13112.9
13130.9
13150.7
13174.2
13194.9
13214.9
13229
13244.5
13252.6
13264.6
13274.6
13282.7
13285
13287.7
13290
13291.7
13293.8
13297.1
13301.2
13305.9
13310.6
13315.4
13317.8
13320.8
13324
13324.7
13324.2
13324.2
13324.1
13324.3
13324.7
13325.7
13327.2
13329.6
13332.6
13336.8
13341.7
13347.5
13353.6
13360
13366.2
13373
13377.6
13382.8
13386.2
13390.6
13390.7
13391.3
13390.6
13389.7
13388.4
13386.7
13384.7
13383.1
13381.3
13380.6
13380.5
13381.2
13382.6
13385.1
13388.6
13393.2
13398.5
13405.3
13411.3
13417.5
13421.6
13426.4
13426.4
13426
13423.6
13420.4
13416.1
13412
13408.2
13405.2
13404.3
13405.1
13407
13410.4
13415
13420.4
13426.4
13432.4
13438.8
13442.4
13447.3
13448.6
13449.7
13449.5
13448.6
13447.4
13445.9
13444.3
13442.7
13441.1
13439.7
13438.7
13438
13437.7
13437.6
13437.8
13438.2
13438.6
13439.2
13439.9
13440.6
13441.4
13442.4
13443.5
13444.7
13446.2
13447.1
13441.9
2275.42
2248.81
2231.26
2201.55
2167.52
2133.8
2101.44
2073.03
2049.33
2030.26
2015.68
2005.35
1998.91
1995.58
1994.69
1996.67
2002.5
2012.13
2029.6
2051.22
2077.08
2116.54
2153.89
2201.45
2249.73
2308.81
2345.71
2393.16
2478.44
2482.88
2558.57
2566.23
2610.32
2637.76
2657.83
2694.45
2724.43
2751.97
2776.79
2804.22
2845.19
2876.03
2938.16
3019.8
3174.96
3354.04
3683.58
4056.31
4706
5119.16
5956.92
6435.25
7210.53
7660.7
8074.95
8551.9
8851.97
9233.79
9432.35
9759.66
9924.05
10209.6
10380.1
10528.7
10733.9
10834.3
11041.2
11180.8
11254.6
11403.4
11468.5
11586.6
11652.9
11757.3
11831.2
11891
11961
12008.5
12067
12106.5
12158.4
12192.8
12238.9
12274.2
12325.6
12365.2
12412.5
12447.8
12493.3
12524.3
12557.1
12584
12607.7
12645.6
12674.6
12707.7
12729.8
12755.5
12782.1
12815.5
12839.4
12863.9
12880.6
12895.6
12909.1
12922.9
12934.5
12947.4
12943.9
12952.8
12961.6
12975.9
12990.7
13007.6
13022.8
13023.2
13021.8
13013.9
13009
13010.8
13017.4
13029.5
13046.9
13066.5
13088.4
13105.8
13122.1
13137.1
13154.6
13174.1
13192.2
13209.7
13221.3
13236.2
13245.3
13259.2
13269.9
13281.2
13285.3
13288.8
13291.8
13293.4
13295.5
13298.2
13301.7
13305.8
13310.3
13315
13317.1
13320
13323.1
13324.2
13323.7
13323.9
13324.2
13324.6
13325.3
13326.4
13328.1
13330.5
13333.7
13337.8
13342.6
13348.2
13354.1
13360.2
13366.3
13372.9
13377.1
13382.3
13385.5
13389.9
13390.2
13391
13390.2
13389.4
13388.2
13386.7
13384.9
13383.4
13381.7
13381
13381.1
13381.8
13383.2
13385.8
13389.3
13393.9
13399.3
13405.9
13411.5
13417.4
13421
13425.5
13425.5
13425.3
13423
13420
13416
13412.2
13408.6
13405.9
13405.1
13405.9
13407.8
13411.2
13415.7
13420.9
13426.6
13432.4
13438.7
13442
13446.8
13448.3
13449.6
13449.3
13448.5
13447.4
13445.9
13444.3
13442.8
13441.3
13439.9
13438.9
13438.2
13437.8
13437.8
13438
13438.3
13438.8
13439.3
13440
13440.7
13441.6
13442.5
13443.6
13444.9
13446.4
13447.1
13441.9
2260.54
2236.76
2221.4
2191.61
2161.01
2129.05
2098.67
2071.76
2049.25
2030.81
2016.49
2006.13
1999.32
1994.86
1992.97
1994.48
2000.04
2008.85
2025.86
2044.51
2066.7
2102.47
2132.76
2171.74
2201.42
2262.09
2276.02
2309.33
2355
2352.9
2383.82
2378.01
2379.56
2374.28
2380.76
2371.52
2354.86
2326.17
2293.11
2257.96
2227.92
2199.06
2180.69
2163.25
2158.7
2162.77
2180.48
2232.58
2550.41
2913.46
3464.78
4042.56
5068.46
5925.77
6837.16
7667.76
8208.79
8736.15
9070
9471.2
9725.91
10009.8
10158.7
10385.5
10571.3
10689.6
10937
11083.2
11168.6
11337.6
11405.8
11537.1
11609.8
11722.2
11798.8
11864.4
11939
11985.8
12047.9
12087.2
12141.9
12177.7
12226.1
12262.6
12312.7
12351.8
12401.8
12437.1
12483
12514
12552.4
12579.4
12600.9
12635.4
12663.2
12701
12724.4
12751
12775.3
12807.8
12833.4
12860.2
12877.2
12893.5
12904.7
12914.7
12922.1
12934.3
12932.8
12945.8
12957.6
12974.9
12992.9
13012.8
13028.5
13027.3
13021.1
13008.7
13003.7
13006
13014.6
13029.3
13049.6
13072.2
13097.2
13115.7
13130.8
13144.3
13159.2
13173.9
13188.6
13203.6
13213.5
13228.2
13237.9
13253.8
13264.7
13279.4
13285.2
13290.1
13293.6
13295.1
13297.2
13299.2
13302.1
13305.6
13309.8
13314.2
13316.3
13319.1
13321.9
13323.5
13323.2
13323.6
13324.2
13324.9
13325.9
13327.2
13329.1
13331.6
13334.8
13338.9
13343.6
13349
13354.6
13360.5
13366.3
13372.7
13376.6
13381.6
13384.7
13389.1
13389.6
13390.5
13389.8
13389.1
13388
13386.7
13385.1
13383.6
13382.2
13381.6
13381.7
13382.4
13384
13386.6
13390.1
13394.7
13400.1
13406.5
13411.6
13417.2
13420.2
13424.5
13424.5
13424.4
13422.3
13419.6
13415.9
13412.4
13409.1
13406.6
13406
13406.8
13408.7
13412.1
13416.4
13421.4
13426.8
13432.3
13438.5
13441.7
13446.3
13448
13449.5
13449.1
13448.3
13447.3
13445.9
13444.4
13442.9
13441.5
13440.2
13439.1
13438.5
13438.1
13438
13438.2
13438.5
13438.9
13439.5
13440.1
13440.9
13441.7
13442.7
13443.7
13445.1
13446.6
13447.1
13441.8
2248.06
2228.61
2214.17
2184.92
2157.7
2127.05
2098.51
2072.96
2051.16
2033.19
2019.07
2008.45
2000.74
1995.12
1992.33
1993.76
1998.76
2006.07
2021.64
2036.68
2055.65
2088.62
2109.61
2145.09
2152.6
2213.37
2199.75
2224.23
2234.2
2227.22
2220.46
2207.48
2189.3
2159.64
2126.27
2097.5
2075.98
2053.43
2029.64
2005.58
1981.75
1965.66
1951.97
1940.06
1931.31
1923.47
1919.72
1921.78
1936.34
1963.3
2010.28
2066.12
2486.14
3124.35
3965.92
5049.7
6244.4
7467.7
8224.28
8906.07
9351.59
9702.49
9933.9
10177.5
10383.9
10550.8
10795.6
10952.7
11061.4
11255.9
11330.8
11480.8
11561.7
11680.8
11761.2
11834.7
11911.9
11960.2
12026.8
12066.2
12123.9
12161.1
12212.8
12251.1
12300.6
12339.1
12389.7
12425.6
12471.6
12502.4
12545.1
12572.8
12594.6
12627.1
12653.2
12691.5
12717.7
12746.7
12769.9
12800.9
12825.9
12854.4
12872.2
12890.5
12899.3
12907.2
12908.7
12919
12922.3
12938.9
12955.1
12975.2
12996.5
13017.4
13031.9
13029.9
13020
13003.9
12999.1
13002.9
13012.6
13029.8
13053.5
13079.1
13105.7
13124