/*--------------------------------*- C++ -*----------------------------------*\
| =========                 |                                                 |
| \\      /  F ield         | OpenFOAM: The Open Source CFD Toolbox           |
|  \\    /   O peration     | Version:  2312                                  |
|   \\  /    A nd           | Website:  www.openfoam.com                      |
|    \\/     M anipulation  |                                                 |
\*---------------------------------------------------------------------------*/
FoamFile
{
    version     2.0;
    format      ascii;
    arch        "LSB;label=32;scalar=64";
    class       surfaceScalarField;
    location    "0.005";
    object      phi;
}
// * * * * * * * * * * * * * * * * * * * * * * * * * * * * * * * * * * * * * //

dimensions      [1 0 -1 0 0 0 0];

oriented        oriented;

internalField   nonuniform List<scalar> 
95760
(
3.63588e-09
-3.6362e-09
1.81415e-09
1.82137e-09
-5.79615e-09
7.61001e-09
-1.86516e-08
1.28551e-08
-3.76377e-08
1.89857e-08
-6.01098e-08
2.24717e-08
-8.00474e-08
1.99371e-08
-9.70829e-08
1.70349e-08
-1.11118e-07
1.40341e-08
-1.22594e-07
1.14762e-08
-1.32209e-07
9.61393e-09
-1.4039e-07
8.18041e-09
-1.47652e-07
7.26167e-09
-1.54244e-07
6.59193e-09
-1.60394e-07
6.15052e-09
-1.66287e-07
5.89282e-09
-1.71993e-07
5.70612e-09
-1.77549e-07
5.55699e-09
-1.82913e-07
5.3646e-09
-1.88351e-07
5.43826e-09
-1.93393e-07
5.04255e-09
-1.98684e-07
5.29056e-09
-2.03405e-07
4.72136e-09
-2.07628e-07
4.2232e-09
-2.11218e-07
3.59067e-09
-2.14126e-07
2.90735e-09
-2.16127e-07
2.00064e-09
-2.16406e-07
2.78667e-10
-2.15297e-07
-1.10978e-09
-2.12536e-07
-2.76049e-09
-2.07783e-07
-4.75349e-09
-2.00607e-07
-7.17528e-09
-1.90594e-07
-1.00142e-08
-1.78001e-07
-1.2593e-08
-1.61958e-07
-1.60443e-08
-1.4298e-07
-1.89786e-08
-1.1906e-07
-2.39186e-08
-9.28278e-08
-2.62297e-08
-6.33931e-08
-2.94306e-08
-3.20943e-08
-3.12937e-08
-1.0738e-09
-3.10149e-08
3.04894e-08
-3.15577e-08
6.27133e-08
-3.22171e-08
9.97955e-08
-3.70759e-08
1.41035e-07
-4.12371e-08
1.84185e-07
-4.31514e-08
2.28314e-07
-4.413e-08
2.73017e-07
-4.47063e-08
3.17513e-07
-4.45002e-08
3.6297e-07
-4.54611e-08
4.0821e-07
-4.52465e-08
4.54048e-07
-4.5841e-08
4.98432e-07
-4.4377e-08
5.42349e-07
-4.38975e-08
5.84754e-07
-4.23808e-08
6.27267e-07
-4.24887e-08
6.68753e-07
-4.14764e-08
7.10331e-07
-4.15875e-08
7.50477e-07
-4.01707e-08
7.8906e-07
-3.86029e-08
8.27595e-07
-3.85466e-08
8.62297e-07
-3.46826e-08
8.95647e-07
-3.33178e-08
9.27222e-07
-3.15241e-08
9.57002e-07
-2.97254e-08
9.86744e-07
-2.96802e-08
1.01447e-06
-2.76695e-08
1.0415e-06
-2.69718e-08
1.06608e-06
-2.45217e-08
1.08957e-06
-2.3439e-08
1.11155e-06
-2.19416e-08
1.13176e-06
-2.01957e-08
1.1508e-06
-1.90637e-08
1.1685e-06
-1.77513e-08
1.18545e-06
-1.702e-08
1.20114e-06
-1.57583e-08
1.2156e-06
-1.45425e-08
1.22979e-06
-1.4266e-08
1.24362e-06
-1.38889e-08
1.25556e-06
-1.19867e-08
1.26676e-06
-1.12338e-08
1.27834e-06
-1.16114e-08
1.28931e-06
-1.10052e-08
1.29975e-06
-1.0468e-08
1.30901e-06
-9.29435e-09
1.31802e-06
-9.04424e-09
1.32697e-06
-8.98483e-09
1.33708e-06
-1.01404e-08
1.34459e-06
-7.53735e-09
1.351e-06
-6.42116e-09
1.35744e-06
-6.44421e-09
1.36386e-06
-6.42419e-09
1.37175e-06
-7.87427e-09
1.37782e-06
-6.05133e-09
1.38296e-06
-5.12252e-09
1.38826e-06
-5.28736e-09
1.39314e-06
-4.87229e-09
1.39892e-06
-5.76178e-09
1.40336e-06
-4.42679e-09
1.40785e-06
-4.47342e-09
1.41244e-06
-4.58709e-09
1.41697e-06
-4.51171e-09
1.42026e-06
-3.28303e-09
1.42341e-06
-3.13018e-09
1.42658e-06
-3.1694e-09
1.43039e-06
-3.79624e-09
1.43343e-06
-3.0362e-09
1.43607e-06
-2.63555e-09
1.43911e-06
-3.02776e-09
1.44183e-06
-2.71942e-09
1.44462e-06
-2.7756e-09
1.44672e-06
-2.10193e-09
1.44842e-06
-1.69915e-09
1.44981e-06
-1.39451e-09
1.44975e-06
5.93371e-11
1.45047e-06
-7.2742e-10
1.45097e-06
-5.05865e-10
1.4519e-06
-9.40203e-10
1.4532e-06
-1.31007e-09
1.45426e-06
-1.06951e-09
1.45549e-06
-1.24308e-09
1.4564e-06
-9.13101e-10
1.4569e-06
-5.03395e-10
1.45678e-06
1.18733e-10
1.45669e-06
8.94236e-11
1.45632e-06
3.63761e-10
1.45625e-06
8.24583e-11
1.45613e-06
1.19732e-10
1.4563e-06
-1.56285e-10
1.45711e-06
-7.99979e-10
1.45772e-06
-5.89749e-10
1.45885e-06
-1.1183e-09
1.46019e-06
-1.33853e-09
1.46122e-06
-1.02121e-09
1.46188e-06
-6.52225e-10
1.46251e-06
-6.24598e-10
1.46316e-06
-6.54543e-10
1.4634e-06
-2.40937e-10
1.46334e-06
6.14657e-11
1.46312e-06
2.15264e-10
1.4629e-06
2.20867e-10
1.46245e-06
4.50783e-10
1.46195e-06
5.06015e-10
1.46129e-06
6.58712e-10
1.46076e-06
5.40869e-10
1.46017e-06
5.88158e-10
1.45958e-06
5.99659e-10
1.45897e-06
6.13886e-10
1.45831e-06
6.55485e-10
1.45762e-06
6.96353e-10
1.45698e-06
6.40164e-10
1.45623e-06
7.5182e-10
1.45549e-06
7.35918e-10
1.4547e-06
7.99311e-10
1.45389e-06
8.14629e-10
1.45299e-06
8.98187e-10
1.45209e-06
9.0644e-10
1.45111e-06
9.83285e-10
1.45011e-06
9.99995e-10
1.44909e-06
1.02326e-09
1.44799e-06
1.09901e-09
1.44699e-06
9.95935e-10
1.44587e-06
1.12411e-09
1.44487e-06
9.97673e-10
1.44382e-06
1.05401e-09
1.44284e-06
9.78323e-10
1.44187e-06
9.6131e-10
1.44093e-06
9.38638e-10
1.44002e-06
8.98428e-10
1.43908e-06
9.41839e-10
1.43832e-06
7.56298e-10
1.43752e-06
7.93689e-10
1.43676e-06
7.66289e-10
1.43598e-06
7.82517e-10
1.43519e-06
7.88547e-10
1.43438e-06
8.11019e-10
1.43356e-06
8.24199e-10
1.43273e-06
8.36624e-10
1.43187e-06
8.6334e-10
1.43097e-06
8.98207e-10
1.43006e-06
9.1602e-10
1.42908e-06
9.73978e-10
1.4281e-06
9.8308e-10
1.42712e-06
9.77489e-10
1.42612e-06
9.96892e-10
1.42514e-06
9.78918e-10
1.42415e-06
9.862e-10
1.42318e-06
9.66588e-10
1.42221e-06
9.66172e-10
1.42129e-06
9.14965e-10
1.42043e-06
8.52679e-10
1.4196e-06
8.18656e-10
1.41886e-06
7.31733e-10
1.41806e-06
7.9502e-10
1.41756e-06
4.9042e-10
1.41696e-06
6.02591e-10
1.41631e-06
6.55442e-10
1.41565e-06
6.55972e-10
1.41498e-06
6.76611e-10
1.41423e-06
7.63628e-10
1.41346e-06
7.705e-10
1.41255e-06
9.20052e-10
1.41163e-06
9.33829e-10
1.41071e-06
9.25157e-10
1.40976e-06
9.44982e-10
1.40883e-06
9.36011e-10
1.40792e-06
9.13606e-10
1.40701e-06
9.0863e-10
1.4062e-06
8.00846e-10
1.40541e-06
7.87978e-10
1.40468e-06
7.21306e-10
1.40404e-06
6.33439e-10
1.4033e-06
7.31527e-10
1.40284e-06
4.67626e-10
1.4023e-06
5.33736e-10
1.40174e-06
5.61875e-10
1.40119e-06
5.58066e-10
1.4006e-06
5.96163e-10
1.39999e-06
6.13928e-10
1.39933e-06
6.57707e-10
1.39865e-06
6.81793e-10
1.39795e-06
7.0488e-10
1.39722e-06
7.2983e-10
1.39648e-06
7.4311e-10
1.39571e-06
7.64936e-10
1.39493e-06
7.71465e-10
1.39415e-06
7.76586e-10
1.39337e-06
7.74687e-10
1.39258e-06
7.82928e-10
1.39181e-06
7.64486e-10
1.39103e-06
7.72715e-10
1.39028e-06
7.44938e-10
1.38953e-06
7.54438e-10
1.3888e-06
7.23615e-10
1.38806e-06
7.42994e-10
1.38737e-06
7.04466e-10
1.38664e-06
7.35164e-10
1.38594e-06
7.01827e-10
1.38525e-06
7.00431e-10
4.60728e-10
6.49668e-10
-4.28618e-09
-7.60321e-09
1.00739e-08
-2.11477e-08
2.11542e-08
-4.01545e-08
3.18615e-08
-6.22892e-08
4.112e-08
-8.2503e-08
4.2685e-08
-1.00749e-07
3.81827e-08
-1.16493e-07
3.27785e-08
-1.2955e-07
2.709e-08
-1.40277e-07
2.22024e-08
-1.48708e-07
1.80444e-08
-1.55819e-07
1.52916e-08
-1.61819e-07
1.32616e-08
-1.67008e-07
1.17807e-08
-1.71493e-07
1.06355e-08
-1.75543e-07
9.94285e-09
-1.79237e-07
9.40016e-09
-1.82643e-07
8.96372e-09
-1.85884e-07
8.6063e-09
-1.88737e-07
8.29153e-09
-1.91426e-07
7.73177e-09
-1.9307e-07
6.93493e-09
-1.94037e-07
5.68866e-09
-1.94068e-07
4.25448e-09
-1.93238e-07
2.76137e-09
-1.91174e-07
8.42904e-10
-1.87891e-07
-1.28228e-09
-1.83508e-07
-4.10505e-09
-1.77713e-07
-6.90512e-09
-1.70259e-07
-1.02139e-08
-1.60552e-07
-1.44605e-08
-1.48427e-07
-1.93008e-08
-1.33162e-07
-2.528e-08
-1.15033e-07
-3.07221e-08
-9.29291e-08
-3.8149e-08
-6.76819e-08
-4.42269e-08
-3.81404e-08
-5.34596e-08
-5.61573e-09
-5.87516e-08
3.09852e-08
-6.60281e-08
7.07118e-08
-7.10155e-08
1.12822e-07
-7.31202e-08
1.5864e-07
-7.73694e-08
2.0785e-07
-8.14212e-08
2.58074e-07
-8.72929e-08
3.08028e-07
-9.1189e-08
3.58758e-07
-9.38821e-08
4.10585e-07
-9.59598e-08
4.6249e-07
-9.66162e-08
5.1449e-07
-9.65061e-08
5.67313e-07
-9.82885e-08
6.19689e-07
-9.76302e-08
6.72363e-07
-9.85197e-08
7.23359e-07
-9.5369e-08
7.73465e-07
-9.39904e-08
8.2197e-07
-9.08662e-08
8.70068e-07
-9.05681e-08
9.16812e-07
-8.8216e-08
9.62996e-07
-8.77854e-08
1.00738e-06
-8.45845e-08
1.05023e-06
-8.14729e-08
1.09215e-06
-8.04798e-08
1.13077e-06
-7.32764e-08
1.16791e-06
-7.04327e-08
1.20314e-06
-6.66992e-08
1.2366e-06
-6.31355e-08
1.26938e-06
-6.23918e-08
1.3001e-06
-5.83314e-08
1.32978e-06
-5.65854e-08
1.35738e-06
-5.20601e-08
1.38366e-06
-4.96696e-08
1.40847e-06
-4.67112e-08
1.43174e-06
-4.34543e-08
1.45387e-06
-4.12042e-08
1.47473e-06
-3.86512e-08
1.49458e-06
-3.6935e-08
1.51336e-06
-3.45993e-08
1.53135e-06
-3.26057e-08
1.54832e-06
-3.1303e-08
1.56449e-06
-3.01058e-08
1.58157e-06
-2.91074e-08
1.59664e-06
-2.63265e-08
1.6104e-06
-2.53995e-08
1.62362e-06
-2.42486e-08
1.63827e-06
-2.5143e-08
1.65092e-06
-2.197e-08
1.66251e-06
-2.06587e-08
1.67384e-06
-2.03454e-08
1.68498e-06
-2.13076e-08
1.69861e-06
-2.11826e-08
1.70897e-06
-1.67867e-08
1.71788e-06
-1.53662e-08
1.72646e-06
-1.50097e-08
1.73535e-06
-1.67622e-08
1.74692e-06
-1.76046e-08
1.7555e-06
-1.37097e-08
1.76283e-06
-1.26175e-08
1.76964e-06
-1.16781e-08
1.77809e-06
-1.42042e-08
1.78532e-06
-1.16602e-08
1.79219e-06
-1.13413e-08
1.79879e-06
-1.1177e-08
1.80714e-06
-1.285e-08
1.81343e-06
-9.56971e-09
1.81899e-06
-8.6804e-09
1.82417e-06
-8.33634e-09
1.8303e-06
-9.91843e-09
1.83568e-06
-8.41402e-09
1.84077e-06
-7.71866e-09
1.84571e-06
-7.95156e-09
1.85018e-06
-7.1839e-09
1.85447e-06
-7.05465e-09
1.85816e-06
-5.79203e-09
1.86181e-06
-5.34815e-09
1.86514e-06
-4.71412e-09
1.86895e-06
-3.75133e-09
1.87202e-06
-3.80335e-09
1.87515e-06
-3.63756e-09
1.8783e-06
-4.09834e-09
1.88153e-06
-4.54619e-09
1.88454e-06
-4.08751e-09
1.88683e-06
-3.53559e-09
1.88891e-06
-3.00663e-09
1.89087e-06
-2.46579e-09
1.89248e-06
-1.49342e-09
1.89416e-06
-1.59915e-09
1.8963e-06
-1.77515e-09
1.89834e-06
-1.95804e-09
1.90066e-06
-2.19126e-09
1.90297e-06
-2.46224e-09
1.90541e-06
-3.22431e-09
1.90818e-06
-3.34507e-09
1.91073e-06
-3.65555e-09
1.91315e-06
-3.75105e-09
1.91545e-06
-3.31422e-09
1.91744e-06
-2.63567e-09
1.9187e-06
-1.88937e-09
1.92013e-06
-2.08661e-09
1.92125e-06
-1.36465e-09
1.92217e-06
-8.574e-10
1.9228e-06
-4.24543e-10
1.92375e-06
-7.27967e-10
1.92443e-06
-2.31018e-10
1.9251e-06
-1.54011e-10
1.92593e-06
-1.63033e-10
1.92667e-06
-1.95443e-10
1.92734e-06
-6.80383e-11
1.928e-06
-5.75947e-11
1.92861e-06
1.54347e-11
1.92899e-06
2.82003e-10
1.92948e-06
2.1567e-10
1.92987e-06
2.60601e-10
1.93019e-06
4.35371e-10
1.93041e-06
5.22346e-10
1.93052e-06
6.94137e-10
1.93058e-06
7.59375e-10
1.93054e-06
9.40009e-10
1.93052e-06
9.33991e-10
1.9304e-06
1.10141e-09
1.9303e-06
1.08784e-09
1.93015e-06
1.17731e-09
1.92997e-06
1.27241e-09
1.92984e-06
1.12207e-09
1.92968e-06
1.28294e-09
1.92961e-06
1.07394e-09
1.92947e-06
1.18369e-09
1.92942e-06
1.02904e-09
1.92934e-06
1.03847e-09
1.92923e-06
1.03969e-09
1.92915e-06
9.7522e-10
1.929e-06
1.08877e-09
1.92883e-06
9.24563e-10
1.92866e-06
9.63594e-10
1.92835e-06
1.07823e-09
1.92805e-06
1.09271e-09
1.92767e-06
1.16266e-09
1.92725e-06
1.24319e-09
1.92677e-06
1.29947e-09
1.92625e-06
1.36665e-09
1.9257e-06
1.40925e-09
1.9251e-06
1.50543e-09
1.9245e-06
1.50952e-09
1.92384e-06
1.63188e-09
1.92321e-06
1.61517e-09
1.92257e-06
1.61861e-09
1.92196e-06
1.60932e-09
1.92133e-06
1.60728e-09
1.92072e-06
1.58848e-09
1.92015e-06
1.53235e-09
1.91959e-06
1.52438e-09
1.91913e-06
1.3666e-09
1.91872e-06
1.25669e-09
1.91831e-06
1.222e-09
1.91792e-06
1.10422e-09
1.91743e-06
1.27842e-09
1.91698e-06
9.3568e-10
1.91644e-06
1.14758e-09
1.91576e-06
1.33625e-09
1.915e-06
1.412e-09
1.91422e-06
1.45904e-09
1.91336e-06
1.63572e-09
1.91249e-06
1.64619e-09
1.91157e-06
1.84098e-09
1.91065e-06
1.86113e-09
1.90978e-06
1.80191e-09
1.90896e-06
1.76759e-09
1.9082e-06
1.69831e-09
1.90748e-06
1.62818e-09
1.90679e-06
1.59479e-09
1.90626e-06
1.32447e-09
1.90563e-06
1.40467e-09
1.90502e-06
1.32494e-09
1.90449e-06
1.15819e-09
1.90375e-06
1.46995e-09
1.90322e-06
9.96101e-10
1.9026e-06
1.16378e-09
1.90189e-06
1.27672e-09
1.90118e-06
1.27045e-09
1.9004e-06
1.38081e-09
1.89961e-06
1.41358e-09
1.89875e-06
1.51785e-09
1.89788e-06
1.55618e-09
1.897e-06
1.58729e-09
1.89612e-06
1.62126e-09
1.89523e-06
1.63094e-09
1.89433e-06
1.66519e-09
1.89344e-06
1.66388e-09
1.89254e-06
1.6715e-09
1.89165e-06
1.66237e-09
1.89074e-06
1.68224e-09
1.88986e-06
1.64455e-09
1.88896e-06
1.6675e-09
1.88808e-06
1.61643e-09
1.88719e-06
1.64743e-09
1.88633e-06
1.58393e-09
1.88544e-06
1.63349e-09
1.8846e-06
1.54854e-09
1.8837e-06
1.63097e-09
1.88288e-06
1.52989e-09
1.88192e-06
1.6561e-09
1.07201e-09
-5.47993e-09
1.19346e-09
-1.69271e-08
2.15208e-08
-3.391e-08
3.81368e-08
-5.50624e-08
5.30135e-08
-7.47456e-08
6.08029e-08
-9.22989e-08
6.02378e-08
-1.07655e-07
5.35387e-08
-1.20266e-07
4.53886e-08
-1.3033e-07
3.71529e-08
-1.38445e-07
3.03175e-08
-1.45567e-07
2.51653e-08
-1.51166e-07
2.08901e-08
-1.55662e-07
1.77575e-08
-1.59378e-07
1.54962e-08
-1.62403e-07
1.36608e-08
-1.64933e-07
1.24726e-08
-1.67086e-07
1.15532e-08
-1.68929e-07
1.08073e-08
-1.70284e-07
9.96183e-09
-1.71065e-07
9.07349e-09
-1.71155e-07
7.82141e-09
-1.70537e-07
6.31753e-09
-1.69111e-07
4.26343e-09
-1.66781e-07
1.92436e-09
-1.63328e-07
-6.91205e-10
-1.58615e-07
-3.86938e-09
-1.52629e-07
-7.26851e-09
-1.45126e-07
-1.16085e-08
-1.35483e-07
-1.65484e-08
-1.23713e-07
-2.19844e-08
-1.09137e-07
-2.90368e-08
-9.18566e-08
-3.65809e-08
-7.06066e-08
-4.65308e-08
-4.64718e-08
-5.48574e-08
-1.75987e-08
-6.70231e-08
1.47209e-08
-7.65479e-08
5.2052e-08
-9.07913e-08
9.23332e-08
-9.90309e-08
1.36603e-07
-1.10295e-07
1.84512e-07
-1.18919e-07
2.34542e-07
-1.23146e-07
2.89137e-07
-1.31958e-07
3.45865e-07
-1.38143e-07
4.03349e-07
-1.4477e-07
4.60619e-07
-1.48456e-07
5.18273e-07
-1.51536e-07
5.76578e-07
-1.54269e-07
6.34816e-07
-1.54858e-07
6.93325e-07
-1.55021e-07
7.52066e-07
-1.57036e-07
8.09966e-07
-1.55539e-07
8.67413e-07
-1.55973e-07
9.2253e-07
-1.50484e-07
9.75921e-07
-1.47369e-07
1.02735e-06
-1.42281e-07
1.07783e-06
-1.41026e-07
1.12641e-06
-1.36799e-07
1.17381e-06
-1.352e-07
1.21874e-06
-1.29541e-07
1.26191e-06
-1.24666e-07
1.30337e-06
-1.21948e-07
1.34151e-06
-1.11394e-07
1.37826e-06
-1.07145e-07
1.41286e-06
-1.01248e-07
1.4458e-06
-9.60102e-08
1.47772e-06
-9.42433e-08
1.50741e-06
-8.79664e-08
1.53581e-06
-8.49155e-08
1.56206e-06
-7.82562e-08
1.58718e-06
-7.47378e-08
1.61071e-06
-7.02039e-08
1.63287e-06
-6.55947e-08
1.65403e-06
-6.23822e-08
1.67403e-06
-5.86791e-08
1.69308e-06
-5.60496e-08
1.71108e-06
-5.26531e-08
1.72867e-06
-5.02597e-08
1.74525e-06
-4.79366e-08
1.76101e-06
-4.5914e-08
1.77781e-06
-4.59398e-08
1.79327e-06
-4.18165e-08
1.80729e-06
-3.94345e-08
1.82042e-06
-3.73951e-08
1.83459e-06
-3.93263e-08
1.84771e-06
-3.51158e-08
1.85965e-06
-3.26125e-08
1.871e-06
-3.17148e-08
1.88221e-06
-3.25301e-08
1.8953e-06
-3.42867e-08
1.90684e-06
-2.83335e-08
1.91621e-06
-2.47397e-08
1.92538e-06
-2.41781e-08
1.9345e-06
-2.58877e-08
1.94561e-06
-2.87083e-08
1.95541e-06
-2.35241e-08
1.96334e-06
-2.05546e-08
1.97083e-06
-1.91747e-08
1.97903e-06
-2.24081e-08
1.98698e-06
-1.96126e-08
1.99426e-06
-1.86289e-08
2.00147e-06
-1.8378e-08
2.00984e-06
-2.12155e-08
2.01723e-06
-1.69537e-08
2.02357e-06
-1.50055e-08
2.02942e-06
-1.41783e-08
2.03579e-06
-1.62825e-08
2.0418e-06
-1.44157e-08
2.04751e-06
-1.34154e-08
2.05286e-06
-1.32936e-08
2.05789e-06
-1.22028e-08
2.06215e-06
-1.13033e-08
2.066e-06
-9.63559e-09
2.06975e-06
-9.08958e-09
2.07337e-06
-8.33305e-09
2.07799e-06
-8.36758e-09
2.08189e-06
-7.70408e-09
2.08586e-06
-7.60447e-09
2.09001e-06
-8.25229e-09
2.09416e-06
-8.70376e-09
2.09794e-06
-7.87152e-09
2.10088e-06
-6.48905e-09
2.10316e-06
-5.28708e-09
2.10531e-06
-4.62439e-09
2.10771e-06
-3.89647e-09
2.11e-06
-3.89652e-09
2.11364e-06
-5.41956e-09
2.11657e-06
-4.88509e-09
2.11983e-06
-5.44921e-09
2.12332e-06
-5.94307e-09
2.12693e-06
-6.82472e-09
2.13073e-06
-7.1332e-09
2.13428e-06
-7.19688e-09
2.1375e-06
-6.96276e-09
2.14043e-06
-6.23749e-09
2.14293e-06
-5.13984e-09
2.14469e-06
-3.6481e-09
2.14618e-06
-3.5829e-09
2.14741e-06
-2.59654e-09
2.14867e-06
-2.12198e-09
2.14984e-06
-1.59376e-09
2.15116e-06
-2.04957e-09
2.15256e-06
-1.62922e-09
2.15404e-06
-1.62514e-09
2.15548e-06
-1.59576e-09
2.15676e-06
-1.47171e-09
2.15804e-06
-1.33877e-09
2.15924e-06
-1.24175e-09
2.1604e-06
-1.13811e-09
2.16118e-06
-4.89208e-10
2.16214e-06
-7.3165e-10
2.16286e-06
-4.45823e-10
2.16358e-06
-2.7263e-10
2.16412e-06
2.98095e-12
2.16454e-06
2.74116e-10
2.16492e-06
3.90507e-10
2.16522e-06
6.43335e-10
2.16552e-06
6.33427e-10
2.16578e-06
8.39575e-10
2.16605e-06
8.06537e-10
2.16632e-06
9.0388e-10
2.1666e-06
9.94336e-10
2.16691e-06
7.99684e-10
2.16726e-06
9.33857e-10
2.16765e-06
6.76949e-10
2.16808e-06
7.56852e-10
2.16848e-06
6.20038e-10
2.16884e-06
6.70782e-10
2.16918e-06
6.96064e-10
2.16953e-06
6.28666e-10
2.16963e-06
9.88104e-10
2.16976e-06
7.86699e-10
2.16988e-06
8.48789e-10
2.16991e-06
1.05375e-09
2.16985e-06
1.15584e-09
2.16969e-06
1.33081e-09
2.16945e-06
1.4856e-09
2.16915e-06
1.59916e-09
2.16879e-06
1.73122e-09
2.16841e-06
1.78762e-09
2.16798e-06
1.93733e-09
2.16756e-06
1.92649e-09
2.16711e-06
2.08602e-09
2.16669e-06
2.03728e-09
2.16626e-06
2.04194e-09
2.16589e-06
1.98339e-09
2.1655e-06
1.99179e-09
2.16514e-06
1.94558e-09
2.16482e-06
1.84394e-09
2.16452e-06
1.81521e-09
2.16441e-06
1.47835e-09
2.16427e-06
1.38575e-09
2.16415e-06
1.33146e-09
2.16393e-06
1.32276e-09
2.16362e-06
1.57715e-09
2.16317e-06
1.38097e-09
2.16265e-06
1.66817e-09
2.16196e-06
2.02495e-09
2.16116e-06
2.21165e-09
2.16032e-06
2.30025e-09
2.15944e-06
2.52566e-09
2.15855e-06
2.54667e-09
2.15767e-06
2.72324e-09
2.15682e-06
2.71469e-09
2.15602e-06
2.6023e-09
2.15532e-06
2.46846e-09
2.1547e-06
2.31286e-09
2.15415e-06
2.18194e-09
2.15367e-06
2.05655e-09
2.15328e-06
1.70969e-09
2.15283e-06
1.85522e-09
2.15229e-06
1.85234e-09
2.15184e-06
1.60119e-09
2.15115e-06
2.15777e-09
2.15052e-06
1.63008e-09
2.14985e-06
1.83338e-09
2.14908e-06
2.05595e-09
2.14829e-06
2.06101e-09
2.14744e-06
2.24013e-09
2.14656e-06
2.30487e-09
2.14563e-06
2.4551e-09
2.14468e-06
2.51256e-09
2.14373e-06
2.54388e-09
2.14278e-06
2.57496e-09
2.14183e-06
2.578e-09
2.14089e-06
2.61377e-09
2.13995e-06
2.60048e-09
2.13901e-06
2.61024e-09
2.13808e-06
2.59055e-09
2.13713e-06
2.6235e-09
2.1362e-06
2.56879e-09
2.13526e-06
2.61037e-09
2.13433e-06
2.53797e-09
2.13338e-06
2.59721e-09
2.13247e-06
2.49967e-09
2.13152e-06
2.58506e-09
2.13062e-06
2.4504e-09
2.12966e-06
2.5916e-09
2.12878e-06
2.40877e-09
2.12773e-06
2.6997e-09
1.84637e-09
-9.94295e-09
1.11361e-08
-2.53166e-08
3.68941e-08
-4.45186e-08
5.73385e-08
-6.34094e-08
7.19039e-08
-8.03006e-08
7.76937e-08
-9.4702e-08
7.46387e-08
-1.06579e-07
6.54157e-08
-1.16289e-07
5.5098e-08
-1.24544e-07
4.54068e-08
-1.31256e-07
3.70288e-08
-1.36399e-07
3.03083e-08
-1.40382e-07
2.48721e-08
-1.43415e-07
2.07901e-08
-1.45762e-07
1.78435e-08
-1.47572e-07
1.54706e-08
-1.4896e-07
1.38609e-08
-1.49924e-07
1.25176e-08
-1.5038e-07
1.12629e-08
-1.50422e-07
1.00042e-08
-1.49867e-07
8.51944e-09
-1.48593e-07
6.54784e-09
-1.46444e-07
4.16955e-09
-1.43384e-07
1.20334e-09
-1.3918e-07
-2.27922e-09
-1.33595e-07
-6.27597e-09
-1.26336e-07
-1.11284e-08
-1.17371e-07
-1.62328e-08
-1.06396e-07
-2.25841e-08
-9.26892e-08
-3.02555e-08
-7.63713e-08
-3.83027e-08
-5.62391e-08
-4.91687e-08
-3.34524e-08
-5.93674e-08
-5.96383e-09
-7.40203e-08
2.56061e-08
-8.64279e-08
6.25228e-08
-1.0394e-07
1.03227e-07
-1.17254e-07
1.49664e-07
-1.37229e-07
1.98569e-07
-1.47936e-07
2.52566e-07
-1.64287e-07
3.09871e-07
-1.7622e-07
3.69253e-07
-1.82523e-07
4.3281e-07
-1.95511e-07
4.9794e-07
-2.03266e-07
5.63278e-07
-2.10101e-07
6.28159e-07
-2.13332e-07
6.93429e-07
-2.16805e-07
7.59091e-07
-2.19933e-07
8.24233e-07
-2.20004e-07
8.90009e-07
-2.20804e-07
9.54604e-07
-2.21634e-07
1.01795e-06
-2.18889e-07
1.07965e-06
-2.17683e-07
1.13827e-06
-2.09093e-07
1.19455e-06
-2.03636e-07
1.24818e-06
-1.95895e-07
1.30057e-06
-1.93402e-07
1.35006e-06
-1.86288e-07
1.39764e-06
-1.82796e-07
1.44206e-06
-1.73986e-07
1.4843e-06
-1.6693e-07
1.52393e-06
-1.61593e-07
1.56015e-06
-1.47587e-07
1.5951e-06
-1.42055e-07
1.6276e-06
-1.33688e-07
1.65852e-06
-1.26874e-07
1.68816e-06
-1.23812e-07
1.71524e-06
-1.14993e-07
1.74096e-06
-1.10574e-07
1.76441e-06
-1.01654e-07
1.78686e-06
-9.71403e-08
1.8076e-06
-9.09176e-08
1.82724e-06
-8.52243e-08
1.84604e-06
-8.11997e-08
1.86373e-06
-7.63985e-08
1.88057e-06
-7.29365e-08
1.89642e-06
-6.85575e-08
1.91213e-06
-6.60183e-08
1.92693e-06
-6.27769e-08
1.94125e-06
-6.02779e-08
1.95635e-06
-6.10602e-08
1.97075e-06
-5.62364e-08
1.98362e-06
-5.23218e-08
1.99575e-06
-4.9533e-08
2.00829e-06
-5.18724e-08
2.02053e-06
-4.7373e-08
2.03161e-06
-4.37024e-08
2.042e-06
-4.21086e-08
2.05221e-06
-4.27437e-08
2.06359e-06
-4.56788e-08
2.07474e-06
-3.948e-08
2.08398e-06
-3.39719e-08
2.09266e-06
-3.28585e-08
2.10117e-06
-3.44026e-08
2.11081e-06
-3.83504e-08
2.12036e-06
-3.30932e-08
2.12827e-06
-2.84807e-08
2.13578e-06
-2.66948e-08
2.14289e-06
-2.95303e-08
2.1503e-06
-2.70324e-08
2.15745e-06
-2.57867e-08
2.16443e-06
-2.53601e-08
2.17185e-06
-2.86282e-08
2.17916e-06
-2.42614e-08
2.18545e-06
-2.12906e-08
2.19142e-06
-2.0129e-08
2.19716e-06
-2.20172e-08
2.20306e-06
-2.03054e-08
2.20856e-06
-1.89067e-08
2.21373e-06
-1.84484e-08
2.21842e-06
-1.68746e-08
2.22229e-06
-1.51639e-08
2.22551e-06
-1.28481e-08
2.22881e-06
-1.23808e-08
2.23207e-06
-1.15891e-08
2.23643e-06
-1.27183e-08
2.24038e-06
-1.16545e-08
2.24452e-06
-1.17473e-08
2.24892e-06
-1.26514e-08
2.2532e-06
-1.29915e-08
2.25704e-06
-1.17173e-08
2.25998e-06
-9.42849e-09
2.26212e-06
-7.4379e-09
2.26401e-06
-6.51528e-09
2.26655e-06
-6.44445e-09
2.26909e-06
-6.43382e-09
2.27288e-06
-9.21747e-09
2.27626e-06
-8.25738e-09
2.2801e-06
-9.28895e-09
2.28429e-06
-1.0131e-08
2.28868e-06
-1.1207e-08
2.293e-06
-1.1443e-08
2.29707e-06
-1.12565e-08
2.3007e-06
-1.05936e-08
2.30393e-06
-9.4617e-09
2.30664e-06
-7.85229e-09
2.3086e-06
-5.6078e-09
2.30994e-06
-4.93422e-09
2.31109e-06
-3.74455e-09
2.31232e-06
-3.35526e-09
2.31353e-06
-2.80703e-09
2.31487e-06
-3.39807e-09
2.31642e-06
-3.1762e-09
2.3182e-06
-3.39443e-09
2.31977e-06
-3.15633e-09
2.32127e-06
-2.96167e-09
2.32279e-06
-2.85195e-09
2.32418e-06
-2.61889e-09
2.32556e-06
-2.50687e-09
2.32669e-06
-1.61074e-09
2.32771e-06
-1.73817e-09
2.32861e-06
-1.32567e-09
2.3295e-06
-1.1555e-09
2.33016e-06
-6.36247e-10
2.33071e-06
-2.71833e-10
2.33119e-06
-7.96621e-11
2.3316e-06
2.41575e-10
2.33203e-06
2.04042e-10
2.33243e-06
4.31401e-10
2.33288e-06
3.55621e-10
2.33333e-06
4.48227e-10
2.33382e-06
4.94354e-10
2.33437e-06
2.41748e-10
2.33505e-06
2.46286e-10
2.33567e-06
5.72309e-11
2.33636e-06
6.15829e-11
2.33701e-06
-4.34482e-11
2.33763e-06
4.91006e-11
2.33823e-06
9.24608e-11
2.33879e-06
6.1352e-11
2.33915e-06
6.28242e-10
2.33938e-06
5.571e-10
2.33954e-06
6.95428e-10
2.33974e-06
8.56225e-10
2.3398e-06
1.10711e-09
2.33973e-06
1.39817e-09
2.33958e-06
1.63914e-09
2.33937e-06
1.82231e-09
2.33908e-06
2.01972e-09
2.33877e-06
2.09527e-09
2.33843e-06
2.28043e-09
2.33809e-06
2.26478e-09
2.33775e-06
2.42734e-09
2.33743e-06
2.35367e-09
2.33714e-06
2.33754e-09
2.33689e-06
2.22938e-09
2.33666e-06
2.2195e-09
2.33645e-06
2.1517e-09
2.3363e-06
1.9905e-09
2.33624e-06
1.86636e-09
2.33626e-06
1.44853e-09
2.33626e-06
1.38021e-09
2.33632e-06
1.26132e-09
2.33621e-06
1.4331e-09
2.33605e-06
1.72786e-09
2.33564e-06
1.78339e-09
2.33512e-06
2.18785e-09
2.33442e-06
2.72351e-09
2.3336e-06
3.04054e-09
2.33271e-06
3.19086e-09
2.3318e-06
3.44218e-09
2.33088e-06
3.4676e-09
2.33002e-06
3.59423e-09
2.3292e-06
3.533e-09
2.32846e-06
3.34611e-09
2.32784e-06
3.09013e-09
2.32731e-06
2.8307e-09
2.32686e-06
2.62775e-09
2.32656e-06
2.34415e-09
2.32626e-06
2.00775e-09
2.32589e-06
2.21967e-09
2.32546e-06
2.26561e-09
2.32506e-06
1.9973e-09
2.32442e-06
2.79524e-09
2.32369e-06
2.36004e-09
2.32301e-06
2.52722e-09
2.32219e-06
2.87776e-09
2.32135e-06
2.90405e-09
2.32045e-06
3.14878e-09
2.3195e-06
3.26493e-09
2.31851e-06
3.44484e-09
2.31751e-06
3.52612e-09
2.3165e-06
3.55398e-09
2.31551e-06
3.57788e-09
2.31452e-06
3.57097e-09
2.31353e-06
3.60127e-09
2.31256e-06
3.5731e-09
2.31159e-06
3.58448e-09
2.31062e-06
3.55211e-09
2.30965e-06
3.59715e-09
2.30869e-06
3.52819e-09
2.3077e-06
3.58954e-09
2.30674e-06
3.49762e-09
2.30575e-06
3.58748e-09
2.3048e-06
3.45734e-09
2.3038e-06
3.57888e-09
2.30286e-06
3.39489e-09
2.30186e-06
3.59619e-09
2.30094e-06
3.32456e-09
2.29983e-06
3.80306e-09
2.73598e-09
-1.39887e-08
2.51246e-08
-3.23033e-08
5.52084e-08
-5.01012e-08
7.51361e-08
-6.66729e-08
8.84753e-08
-8.08056e-08
9.18261e-08
-9.20445e-08
8.58772e-08
-1.01353e-07
7.47233e-08
-1.09028e-07
6.27724e-08
-1.15273e-07
5.16521e-08
-1.20228e-07
4.19829e-08
-1.23939e-07
3.40183e-08
-1.26688e-07
2.76204e-08
-1.2871e-07
2.28121e-08
-1.30133e-07
1.92668e-08
-1.31082e-07
1.64191e-08
-1.31483e-07
1.4262e-08
-1.31495e-07
1.253e-08
-1.31094e-07
1.08623e-08
-1.30124e-07
9.03419e-09
-1.28432e-07
6.82841e-09
-1.25891e-07
4.00678e-09
-1.22289e-07
5.68691e-10
-1.17501e-07
-3.58456e-09
-1.11219e-07
-8.56114e-09
-1.03205e-07
-1.42892e-08
-9.30243e-08
-2.13086e-08
-8.0649e-08
-2.86076e-08
-6.57448e-08
-3.74884e-08
-4.72273e-08
-4.87735e-08
-2.59113e-08
-5.96193e-08
-5.13561e-11
-7.50284e-08
3.03856e-08
-8.98037e-08
6.64499e-08
-1.10086e-07
1.06913e-07
-1.26892e-07
1.54671e-07
-1.517e-07
2.06483e-07
-1.69066e-07
2.64774e-07
-1.95525e-07
3.25287e-07
-2.08446e-07
3.91336e-07
-2.30336e-07
4.60424e-07
-2.45296e-07
5.32739e-07
-2.54842e-07
6.06576e-07
-2.69336e-07
6.82447e-07
-2.79134e-07
7.56905e-07
-2.84551e-07
8.32162e-07
-2.88581e-07
9.05737e-07
-2.90375e-07
9.80729e-07
-2.94925e-07
1.05329e-06
-2.92564e-07
1.12822e-06
-2.9574e-07
1.1993e-06
-2.92717e-07
1.26834e-06
-2.87939e-07
1.33385e-06
-2.8319e-07
1.39516e-06
-2.70392e-07
1.45367e-06
-2.62134e-07
1.50811e-06
-2.50319e-07
1.56123e-06
-2.46496e-07
1.6099e-06
-2.34966e-07
1.65608e-06
-2.2901e-07
1.69818e-06
-2.16123e-07
1.73778e-06
-2.0656e-07
1.77388e-06
-1.97699e-07
1.80637e-06
-1.80047e-07
1.83758e-06
-1.73231e-07
1.86633e-06
-1.62371e-07
1.8936e-06
-1.54085e-07
1.91963e-06
-1.49767e-07
1.94278e-06
-1.3809e-07
1.96446e-06
-1.32201e-07
1.98382e-06
-1.20969e-07
2.00239e-06
-1.15685e-07
2.01919e-06
-1.07694e-07
2.03532e-06
-1.01355e-07
2.05068e-06
-9.65668e-08
2.06494e-06
-9.06864e-08
2.07849e-06
-8.65198e-08
2.09125e-06
-8.13604e-08
2.10413e-06
-7.89344e-08
2.11629e-06
-7.49677e-08
2.12844e-06
-7.24514e-08
2.14081e-06
-7.34514e-08
2.15325e-06
-6.86895e-08
2.16411e-06
-6.31874e-08
2.17475e-06
-6.01778e-08
2.18475e-06
-6.18722e-08
2.19531e-06
-5.7926e-08
2.20466e-06
-5.30527e-08
2.21346e-06
-5.09064e-08
2.22196e-06
-5.12306e-08
2.23087e-06
-5.45893e-08
2.24056e-06
-4.91565e-08
2.24924e-06
-4.26466e-08
2.2569e-06
-4.05164e-08
2.26409e-06
-4.15993e-08
2.27157e-06
-4.58386e-08
2.27967e-06
-4.1212e-08
2.28736e-06
-3.61896e-08
2.29406e-06
-3.34211e-08
2.2998e-06
-3.52814e-08
2.30615e-06
-3.33998e-08
2.31238e-06
-3.20343e-08
2.31853e-06
-3.15167e-08
2.3245e-06
-3.45994e-08
2.33094e-06
-3.06983e-08
2.33689e-06
-2.72286e-08
2.34221e-06
-2.54405e-08
2.34699e-06
-2.67916e-08
2.35212e-06
-2.54224e-08
2.35701e-06
-2.37748e-08
2.3614e-06
-2.2832e-08
2.36518e-06
-2.06366e-08
2.36807e-06
-1.80428e-08
2.37035e-06
-1.51126e-08
2.37271e-06
-1.47363e-08
2.37528e-06
-1.41512e-08
2.37882e-06
-1.62441e-08
2.38242e-06
-1.52518e-08
2.38638e-06
-1.5708e-08
2.3905e-06
-1.67752e-08
2.3944e-06
-1.68992e-08
2.39778e-06
-1.50965e-08
2.40023e-06
-1.18871e-08
2.40192e-06
-9.12391e-09
2.40335e-06
-7.94964e-09
2.40549e-06
-8.58482e-09
2.40787e-06
-8.81525e-09
2.41112e-06
-1.24688e-08
2.41456e-06
-1.16998e-08
2.41888e-06
-1.36081e-08
2.42346e-06
-1.47012e-08
2.4281e-06
-1.58478e-08
2.43258e-06
-1.5916e-08
2.43681e-06
-1.54781e-08
2.44054e-06
-1.43224e-08
2.44378e-06
-1.27057e-08
2.44642e-06
-1.04937e-08
2.44828e-06
-7.46594e-09
2.44933e-06
-5.99102e-09
2.45019e-06
-4.60916e-09
2.45118e-06
-4.3529e-09
2.45222e-06
-3.85585e-09
2.45343e-06
-4.60596e-09
2.45479e-06
-4.53754e-09
2.45645e-06
-5.04947e-09
2.458e-06
-4.69317e-09
2.45947e-06
-4.4185e-09
2.46096e-06
-4.32964e-09
2.46231e-06
-3.96229e-09
2.46367e-06
-3.84789e-09
2.46488e-06
-2.81301e-09
2.46581e-06
-2.65498e-09
2.46663e-06
-2.13048e-09
2.46745e-06
-1.95407e-09
2.46811e-06
-1.28503e-09
2.46864e-06
-7.94715e-10
2.46912e-06
-5.47189e-10
2.46949e-06
-1.19935e-10
2.46991e-06
-2.14088e-10
2.47029e-06
4.417e-11
2.47077e-06
-1.24358e-10
2.47124e-06
-3.25319e-11
2.47186e-06
-1.3298e-10
2.47252e-06
-4.28717e-10
2.47329e-06
-5.35731e-10
2.47402e-06
-6.77014e-10
2.47483e-06
-7.60631e-10
2.47561e-06
-8.33636e-10
2.47633e-06
-6.7995e-10
2.47704e-06
-6.22268e-10
2.47767e-06
-5.70962e-10
2.47811e-06
1.95115e-10
2.47834e-06
3.27131e-10
2.47849e-06
5.51784e-10
2.4787e-06
6.53475e-10
2.47875e-06
1.05705e-09
2.47869e-06
1.46181e-09
2.47855e-06
1.79272e-09
2.47831e-06
2.05857e-09
2.47802e-06
2.31558e-09
2.4777e-06
2.4197e-09
2.47736e-06
2.61986e-09
2.47701e-06
2.60916e-09
2.47669e-06
2.74702e-09
2.47639e-06
2.65373e-09
2.47614e-06
2.59196e-09
2.47592e-06
2.43988e-09
2.47576e-06
2.38444e-09
2.47562e-06
2.28668e-09
2.47559e-06
2.00823e-09
2.47559e-06
1.86168e-09
2.47572e-06
1.31553e-09
2.47581e-06
1.27681e-09
2.47594e-06
1.1313e-09
2.47591e-06
1.45598e-09
2.47581e-06
1.81301e-09
2.47541e-06
2.18543e-09
2.47485e-06
2.74396e-09
2.47411e-06
3.46586e-09
2.47323e-06
3.92187e-09
2.47227e-06
4.15489e-09
2.47129e-06
4.42826e-09
2.47033e-06
4.43854e-09
2.46941e-06
4.51342e-09
2.46859e-06
4.36209e-09
2.46787e-06
4.06852e-09
2.46727e-06
3.68047e-09
2.46679e-06
3.30803e-09
2.46643e-06
2.98063e-09
2.46617e-06
2.5947e-09
2.46593e-06
2.23778e-09
2.4656e-06
2.54043e-09
2.46526e-06
2.59197e-09
2.46487e-06
2.37698e-09
2.46426e-06
3.40662e-09
2.46344e-06
3.18389e-09
2.46269e-06
3.28075e-09
2.46184e-06
3.73159e-09
2.46093e-06
3.81663e-09
2.45997e-06
4.11894e-09
2.45895e-06
4.29738e-09
2.4579e-06
4.50244e-09
2.45682e-06
4.60654e-09
2.45576e-06
4.62905e-09
2.4547e-06
4.64322e-09
2.45365e-06
4.62309e-09
2.45261e-06
4.64361e-09
2.45159e-06
4.59708e-09
2.45057e-06
4.60911e-09
2.44955e-06
4.56181e-09
2.44853e-06
4.61747e-09
2.44752e-06
4.53562e-09
2.4465e-06
4.6162e-09