/*--------------------------------*- C++ -*----------------------------------*\
| =========                 |                                                 |
| \\      /  F ield         | OpenFOAM: The Open Source CFD Toolbox           |
|  \\    /   O peration     | Version:  2312                                  |
|   \\  /    A nd           | Website:  www.openfoam.com                      |
|    \\/     M anipulation  |                                                 |
\*---------------------------------------------------------------------------*/
FoamFile
{
    version     2.0;
    format      ascii;
    arch        "LSB;label=32;scalar=64";
    class       volScalarField;
    location    "0.005";
    object      rho;
}
// * * * * * * * * * * * * * * * * * * * * * * * * * * * * * * * * * * * * * //

dimensions      [1 -3 0 0 0 0 0];

internalField   nonuniform List<scalar> 
48128
(
0.0366616
0.0365773
0.0365147
0.0362759
0.0360815
0.0357145
0.0350963
0.0343651
0.0336326
0.0330093
0.0325718
0.032292
0.0321041
0.0320645
0.0321279
0.0322718
0.032504
0.0328271
0.033244
0.0337722
0.0344658
0.0352838
0.0362145
0.0373061
0.0385761
0.0400226
0.0416494
0.0434479
0.0454835
0.0476921
0.0501324
0.0527561
0.0556098
0.0586511
0.0619355
0.0653639
0.0690863
0.0727721
0.0766745
0.0806539
0.0846167
0.0877102
0.0916766
0.0955952
0.0994663
0.103324
0.107132
0.110833
0.114376
0.117851
0.121168
0.124441
0.127463
0.130483
0.133239
0.135975
0.138486
0.140869
0.143087
0.14501
0.146901
0.148474
0.149976
0.151438
0.152679
0.153961
0.154964
0.155957
0.156712
0.157448
0.158109
0.158666
0.159224
0.159708
0.160175
0.160586
0.160981
0.161448
0.161769
0.162075
0.162732
0.163211
0.163401
0.16357
0.16411
0.164421
0.164553
0.164635
0.164618
0.165337
0.165647
0.165694
0.165716
0.165651
0.166248
0.166499
0.166479
0.166464
0.166637
0.166715
0.166694
0.166632
0.166964
0.167089
0.167053
0.167031
0.167114
0.167112
0.16708
0.16701
0.166859
0.166628
0.166332
0.166093
0.165815
0.165778
0.165745
0.165723
0.165725
0.165717
0.165627
0.165425
0.165157
0.164923
0.164747
0.164592
0.164702
0.164767
0.164912
0.165086
0.165265
0.165442
0.165577
0.165671
0.165687
0.165643
0.165494
0.165298
0.165101
0.164928
0.164767
0.164653
0.164539
0.164473
0.164387
0.164307
0.164212
0.164123
0.164043
0.163922
0.163815
0.163677
0.16355
0.163412
0.163266
0.163129
0.162992
0.162869
0.162749
0.162641
0.162541
0.162457
0.162376
0.162309
0.162251
0.162201
0.162149
0.162099
0.162044
0.162002
0.161912
0.161842
0.161736
0.161635
0.161528
0.161417
0.1613
0.161181
0.161058
0.160942
0.160824
0.160718
0.160616
0.160526
0.160443
0.16037
0.160307
0.160254
0.160211
0.160182
0.160161
0.160147
0.160121
0.160101
0.160017
0.159935
0.159838
0.159726
0.159605
0.159485
0.159366
0.15926
0.15917
0.1591
0.159043
0.158999
0.158969
0.158952
0.158948
0.158945
0.158935
0.158916
0.158919
0.158842
0.158791
0.158737
0.158668
0.158601
0.158529
0.158457
0.158384
0.158313
0.158244
0.158179
0.158117
0.158059
0.158005
0.157953
0.157902
0.157854
0.157806
0.157761
0.157716
0.157672
0.15763
0.157591
0.157552
0.157518
0.157488
0.15738
0.0366973
0.0365928
0.036554
0.0363579
0.0361781
0.0357945
0.0352249
0.0345783
0.0339498
0.0334866
0.0332276
0.0330154
0.0328783
0.0328818
0.0329728
0.0331364
0.0333784
0.0337038
0.0341249
0.0346382
0.0352408
0.0360024
0.0368989
0.0379519
0.039169
0.0405487
0.0420882
0.0438021
0.0457127
0.0477727
0.0500667
0.0525547
0.0552921
0.0582216
0.0614094
0.064734
0.0683902
0.072179
0.0758481
0.0798638
0.0838378
0.0877126
0.0916895
0.0956852
0.0996848
0.103666
0.107611
0.111472
0.11523
0.118939
0.122506
0.126033
0.129326
0.132589
0.135599
0.138579
0.14134
0.143957
0.146395
0.148585
0.150694
0.152518
0.154294
0.155999
0.157503
0.159005
0.160239
0.161448
0.162435
0.163409
0.164293
0.165082
0.165868
0.166571
0.167264
0.167887
0.168502
0.16918
0.169681
0.170204
0.171093
0.17176
0.17211
0.172461
0.173206
0.173701
0.174002
0.17421
0.174385
0.175346
0.175842
0.176043
0.176172
0.176273
0.177077
0.177496
0.177616
0.177721
0.178053
0.178284
0.178393
0.17847
0.178979
0.179259
0.179353
0.179441
0.179656
0.179792
0.179876
0.179921
0.179874
0.17976
0.179592
0.179482
0.179378
0.179492
0.179592
0.179683
0.17978
0.179871
0.179861
0.179738
0.179559
0.179426
0.17935
0.179284
0.179509
0.179669
0.179912
0.180149
0.180402
0.180637
0.180818
0.180966
0.181047
0.181057
0.180955
0.180819
0.180686
0.180567
0.180466
0.180399
0.180335
0.180315
0.180287
0.180259
0.180216
0.180178
0.18015
0.180073
0.180014
0.179916
0.179833
0.179734
0.179626
0.179524
0.179422
0.179332
0.179245
0.179171
0.1791
0.179048
0.179001
0.178969
0.178941
0.178924
0.178904
0.178885
0.17886
0.178845
0.178787
0.178745
0.178665
0.178588
0.178503
0.178411
0.178314
0.178213
0.178107
0.178007
0.177903
0.177811
0.177723
0.177647
0.177577
0.177519
0.177468
0.177428
0.177398
0.177382
0.177374
0.177373
0.177361
0.177351
0.177286
0.177211
0.177121
0.177015
0.176897
0.176779
0.176663
0.176554
0.176464
0.176396
0.17634
0.176298
0.17627
0.176255
0.176255
0.176255
0.17625
0.176235
0.176237
0.176166
0.176115
0.176061
0.17599
0.17592
0.175844
0.175768
0.175689
0.175613
0.175538
0.175468
0.1754
0.175337
0.175277
0.17522
0.175163
0.175109
0.175056
0.175004
0.174953
0.174903
0.174854
0.174808
0.174761
0.174719
0.174681
0.174568
0.0367393
0.0366376
0.0365712
0.0364037
0.0361372
0.0357303
0.0351815
0.0345912
0.0340452
0.033591
0.0332362
0.0330356
0.0329191
0.0329272
0.0330151
0.0331712
0.0333993
0.0337074
0.0340992
0.0345979
0.0352134
0.0359513
0.0368142
0.0378337
0.0390084
0.0403441
0.04184
0.043513
0.0453926
0.0474318
0.0497024
0.0521628
0.0548887
0.0577799
0.0610052
0.0643311
0.0679721
0.0718033
0.0757886
0.0798521
0.0839175
0.088039
0.0921801
0.0963557
0.100511
0.104662
0.108787
0.11283
0.116786
0.120694
0.124442
0.128139
0.131582
0.135003
0.138158
0.141278
0.144152
0.146874
0.149383
0.151684
0.153847
0.155717
0.157595
0.159351
0.160937
0.1625
0.163772
0.165031
0.166049
0.167079
0.167994
0.168829
0.169664
0.170413
0.171154
0.17182
0.17249
0.173228
0.173786
0.174353
0.175309
0.17605
0.176471
0.176865
0.177659
0.178231
0.178607
0.178877
0.179066
0.180073
0.180669
0.180957
0.181155
0.181279
0.18211
0.182624
0.182827
0.182979
0.183345
0.18365
0.183823
0.183935
0.184493
0.184848
0.185018
0.185155
0.185413
0.185613
0.185753
0.185846
0.185846
0.185771
0.185647
0.18558
0.185523
0.185706
0.18587
0.186028
0.186185
0.18633
0.186375
0.186297
0.186157
0.186077
0.186055
0.186049
0.186336
0.186554
0.186857
0.187155
0.187459
0.18775
0.187976
0.188161
0.188276
0.188325
0.188252
0.188138
0.188037
0.187961
0.187896
0.187874
0.187856
0.187882
0.18789
0.1879
0.187894
0.187891
0.18789
0.187844
0.187812
0.187739
0.187678
0.187602
0.187516
0.187437
0.187359
0.187292
0.187229
0.187178
0.187132
0.187104
0.187082
0.187075
0.187072
0.187082
0.187087
0.187093
0.187091
0.187102
0.187063
0.187041
0.186977
0.186918
0.186849
0.186774
0.186692
0.186605
0.186513
0.186428
0.186338
0.186259
0.186186
0.186123
0.186068
0.186024
0.185987
0.185962
0.185946
0.185945
0.185952
0.185965
0.185967
0.185968
0.185912
0.185845
0.185761
0.185661
0.185548
0.185434
0.185322
0.185219
0.185134
0.185072
0.185023
0.184989
0.184969
0.184961
0.18497
0.184978
0.184979
0.184969
0.184977
0.184909
0.18486
0.184808
0.184738
0.184669
0.184594
0.184517
0.184439
0.184362
0.184287
0.184217
0.184149
0.184086
0.184026
0.183969
0.183913
0.183858
0.183805
0.183753
0.1837
0.18365
0.183599
0.183552
0.183504
0.18346
0.183419
0.183304
0.0368697
0.0366834
0.0366119
0.0363719
0.0360397
0.0355886
0.0350444
0.0344729
0.03393
0.0335243
0.0332315
0.0330319
0.0329209
0.0329273
0.0330073
0.0331593
0.0333751
0.0336648
0.0340347
0.0345007
0.0350712
0.0357702
0.0365981
0.0375831
0.0387261
0.0400419
0.0415173
0.0431763
0.045041
0.0470639
0.0493285
0.0517569
0.0545656
0.057396
0.0607102
0.0641751
0.0679851
0.0718724
0.0760333
0.0802149
0.0844384
0.0887796
0.0931078
0.0974922
0.101841
0.106203
0.110524
0.11477
0.118947
0.123086
0.127015
0.130877
0.13444
0.13801
0.141304
0.144561
0.147529
0.15034
0.152867
0.155247
0.157402
0.159249
0.16118
0.162921
0.164545
0.166114
0.167362
0.168618
0.169608
0.170647
0.171531
0.172358
0.17319
0.17393
0.174664
0.175319
0.17599
0.176731
0.17731
0.177871
0.178818
0.179578
0.180049
0.18045
0.181219
0.181818
0.18224
0.182542
0.182739
0.183664
0.184304
0.184674
0.184916
0.185055
0.185811
0.186367
0.186644
0.186827
0.187178
0.187513
0.18773
0.187849
0.188393
0.188784
0.189009
0.189172
0.189431
0.189663
0.189828
0.189936
0.189951
0.18989
0.189783
0.189735
0.18969
0.189898
0.190094
0.190288
0.190472
0.190636
0.190706
0.190653
0.190537
0.19048
0.190492
0.190516
0.190827
0.191087
0.19143
0.191775
0.192111
0.192437
0.192695
0.192908
0.193047
0.193122
0.193072
0.192973
0.19289
0.192837
0.192792
0.192791
0.192798
0.192851
0.192884
0.192919
0.192937
0.192957
0.192984
0.192962
0.192952
0.192902
0.192864
0.192806
0.192737
0.192675
0.192613
0.192565
0.192519
0.192487
0.19246
0.192451
0.192449
0.192463
0.192481
0.192512
0.192535
0.192561
0.192577
0.192604
0.192581
0.192574
0.192523
0.192476
0.19242
0.192357
0.192287
0.192213
0.192132
0.192059
0.19198
0.191913
0.191851
0.191801
0.191757
0.191725
0.191701
0.191688
0.191684
0.191696
0.191715
0.191741
0.191753
0.191763
0.191716
0.191655
0.191577
0.191482
0.191375
0.191266
0.191159
0.191061
0.190982
0.190928
0.190885
0.190858
0.190846
0.190846
0.190863
0.190877
0.190885
0.19088
0.190894
0.190829
0.190781
0.190733
0.190665
0.190598
0.190524
0.190449
0.190372
0.190296
0.190223
0.190154
0.190088
0.190026
0.189968
0.189912
0.189857
0.189804
0.189751
0.1897
0.189648
0.189599
0.189548
0.189501
0.189453
0.18941
0.189367
0.189251
0.0369436
0.0367341
0.036572
0.0362698
0.0358694
0.0353892
0.0348483
0.0343004
0.0338036
0.0334071
0.0331258
0.0329417
0.0328481
0.0328607
0.0329377
0.0330843
0.0332852
0.0335616
0.033914
0.0343585
0.0349104
0.0355887
0.0364006
0.0373752
0.0385091
0.0398202
0.0412846
0.0429338
0.0448017
0.0468183
0.0491792
0.0515265
0.054456
0.0574725
0.0608925
0.0644963
0.0684918
0.0725065
0.0768596
0.081194
0.0856304
0.0902808
0.0947968
0.099427
0.103986
0.108638
0.113162
0.117657
0.122068
0.126455
0.130573
0.134592
0.138274
0.141995
0.145441
0.148831
0.151862
0.154742
0.157254
0.159696
0.161793
0.163598
0.16557
0.167252
0.168892
0.170424
0.171606
0.172824
0.173746
0.174762
0.175572
0.17636
0.177154
0.17785
0.178544
0.179165
0.17981
0.180516
0.18111
0.18163
0.182523
0.183265
0.183777
0.184168
0.184872
0.185463
0.185913
0.186232
0.18644
0.18722
0.187856
0.188314
0.188584
0.188736
0.189367
0.189919
0.190274
0.190469
0.190785
0.191129
0.191368
0.191496
0.191978
0.192379
0.192655
0.192825
0.193067
0.193308
0.193481
0.193581
0.193593
0.193533
0.193435
0.193394
0.19335
0.193558
0.193775
0.193987
0.194176
0.194338
0.194411
0.194371
0.194274
0.194229
0.194263
0.194305
0.19461
0.19491
0.195282
0.195654
0.196007
0.196354
0.196631
0.196862
0.197014
0.197106
0.197074
0.196985
0.196914
0.196874
0.196842
0.196851
0.196869
0.196936
0.196984
0.197034
0.197066
0.1971
0.197142
0.197137
0.19714
0.197103
0.197079
0.197038
0.196985
0.196938
0.19689
0.196854
0.196823
0.196804
0.196792
0.1968
0.196815
0.196846
0.19688
0.196927
0.196964
0.197004
0.197033
0.197067
0.197055
0.197058
0.197016
0.196979
0.196933
0.196879
0.196818
0.196753
0.196681
0.196616
0.196546
0.196488
0.196436
0.196395
0.19636
0.196337
0.196322
0.196318
0.196324
0.196347
0.196375
0.19641
0.19643
0.196449
0.196408
0.196351
0.196278
0.196188
0.196085
0.19598
0.195877
0.195783
0.195709
0.19566
0.195624
0.195602
0.195595
0.195602
0.195625
0.195643
0.195658
0.195656
0.195675
0.195615
0.195568
0.195521
0.195456
0.19539
0.195318
0.195244
0.195168
0.195094
0.195022
0.194954
0.194889
0.194829
0.194772
0.194717
0.194663
0.194611
0.194559
0.194509
0.194457
0.194408
0.194358
0.194311
0.194263
0.19422
0.194177
0.194061
0.0369988
0.0367323
0.036489
0.0361143
0.0356631
0.0351719
0.0346301
0.0340919
0.0336278
0.0332635
0.0330033
0.0328344
0.0327574
0.0327727
0.0328459
0.0329907
0.0331817
0.0334484
0.0337891
0.0342197
0.0347607
0.0354308
0.0362393
0.0372114
0.0383397
0.0396544
0.0411192
0.0427645
0.0447107
0.0467043
0.0491816
0.0517152
0.0547123
0.0578926
0.0614765
0.0652587
0.0694834
0.073672
0.0783057
0.0828254
0.0874476
0.0924997
0.0971656
0.102056
0.106818
0.111816
0.116582
0.12135
0.126018
0.130543
0.134854
0.138964
0.142811
0.146669
0.150337
0.15388
0.156986
0.159919
0.162427
0.164942
0.166966
0.168699
0.170783
0.172378
0.17403
0.175528
0.176561
0.177749
0.178551
0.179559
0.180253
0.180986
0.181724
0.182345
0.182981
0.183552
0.184165
0.184801
0.185405
0.185904
0.18668
0.187344
0.187911
0.188294
0.188894
0.189421
0.189906
0.190231
0.190446
0.191052
0.191641
0.192181
0.192475
0.192639
0.193123
0.193633
0.194046
0.194248
0.194527
0.194851
0.195096
0.195241
0.195623
0.196008
0.196319
0.196492
0.196704
0.196931
0.197098
0.197171
0.197163
0.197095
0.196999
0.196958
0.196913
0.197096
0.197327
0.197547
0.197725
0.197862
0.197919
0.197884
0.197805
0.197767
0.197809
0.197865
0.198145
0.198486
0.198873
0.199255
0.199615
0.199975
0.200255
0.200495
0.200649
0.200748
0.200727
0.200646
0.200583
0.200548
0.200523
0.200535
0.200558
0.200628
0.200684
0.200743
0.200782
0.200821
0.200868
0.200873
0.200884
0.200854
0.200836
0.200804
0.20076
0.200724
0.200687
0.200662
0.200642
0.200634
0.200634
0.200651
0.200676
0.200716
0.20076
0.200816
0.200862
0.200913
0.20095
0.200991
0.200989
0.201
0.200965
0.200934
0.200893
0.200846
0.200791
0.200732
0.200666
0.200607
0.200543
0.20049
0.200444
0.200409
0.20038
0.200363
0.200354
0.200358
0.20037
0.2004
0.200434
0.200475
0.2005
0.200526
0.200487
0.200434
0.200364
0.200277
0.200176
0.200074
0.199973
0.199881
0.199811
0.199765
0.199732
0.199714
0.199711
0.199722
0.199748
0.19977
0.199789
0.19979
0.199811
0.199754
0.199707
0.199662
0.199598
0.199532
0.19946
0.199386
0.199311
0.199237
0.199165
0.199098
0.199033
0.198973
0.198916
0.198862
0.198808
0.198756
0.198704
0.198654
0.198603
0.198553
0.198503
0.198456
0.198408
0.198364
0.19832
0.198204
0.0369992
0.0366669
0.0363617
0.035934
0.0354591
0.0349578
0.0343919
0.0338722
0.0334403
0.0331044
0.0328656
0.0327165
0.0326558
0.0326754
0.0327494
0.0328914
0.0330823
0.0333428
0.0336778
0.0341016
0.034642
0.0353132
0.0361199
0.0370941
0.0382208
0.0395439
0.0410678
0.0427126
0.0447656
0.046894
0.049455
0.0521682
0.0553254
0.0587232
0.0625279
0.0665205
0.0710785
0.0754199
0.0804853
0.0851609
0.0898118
0.0951606
0.0999281
0.105035
0.109941
0.115168
0.120153
0.125164
0.130098
0.134628
0.139139
0.14336
0.147433
0.151514
0.155485
0.159279
0.162483
0.165565
0.16807
0.170685
0.172675
0.174443
0.176625
0.178134
0.179795
0.181246
0.182126
0.183276
0.183948
0.184934
0.185521
0.186225
0.18691
0.187471
0.188058
0.188599
0.189183
0.189753
0.190349
0.190826
0.191433
0.192032
0.192619
0.192991
0.193446
0.193905
0.194394
0.194703
0.194925
0.19535
0.195892
0.196467
0.196752
0.19694
0.197279
0.197731
0.198146
0.198354
0.198592
0.198879
0.199095
0.199257
0.199532
0.199891
0.200199
0.200373
0.200553
0.200748
0.200889
0.200913
0.200875
0.200794
0.200696
0.200644
0.200606
0.200749
0.200981
0.201192
0.201341
0.201435
0.201464
0.201434
0.201362
0.201332
0.201361
0.201439
0.201701
0.202059
0.202448
0.20283
0.203187
0.203551
0.203825
0.204064
0.204205
0.204303
0.204283
0.204208
0.204148
0.204113
0.204089
0.204098
0.204121
0.204186
0.204243
0.204303
0.204342
0.204381
0.204424
0.204434
0.204447
0.204417
0.2044
0.204371
0.204331
0.2043
0.204269
0.20425
0.204236
0.204234
0.20424
0.204263
0.204294
0.204338
0.204386
0.204446
0.204496
0.204551
0.20459
0.204636
0.20464
0.204656
0.204626
0.204596
0.20456
0.204516
0.204464
0.204407
0.204344
0.204287
0.204225
0.204175
0.204132
0.204099
0.204074
0.204059
0.204053
0.20406
0.204075
0.204111
0.204146
0.204189
0.204215
0.204244
0.204207
0.204154
0.204084
0.203998
0.203897
0.203796
0.203695
0.203603
0.203533
0.203489
0.203457
0.20344
0.203438
0.203452
0.203479
0.203501
0.203523
0.203524
0.203545
0.203489
0.203442
0.203395
0.203331
0.203264
0.203192
0.203117
0.203041
0.202966
0.202893
0.202824
0.202758
0.202697
0.20264
0.202584
0.202529
0.202476
0.202424
0.202372
0.20232
0.202269
0.202218
0.20217
0.20212
0.202075
0.20203
0.201911
0.0369481
0.036546
0.0362034
0.0357489
0.0352602
0.0347245
0.0341514
0.0336595
0.0332567
0.0329487
0.0327324
0.0326026
0.0325564
0.0325805
0.0326581
0.0328019
0.0329967
0.0332544
0.0335904
0.0340172
0.0345595
0.0352367
0.0360416
0.0370214
0.0381892
0.0395212
0.0411337
0.0428945
0.045029
0.0473093
0.0500361
0.0529689
0.0563327
0.0599887
0.064152
0.0680587
0.0727413
0.0770385
0.0821351
0.0871838
0.0920212
0.0976023
0.10266
0.108153
0.113366
0.118906
0.124194
0.129469
0.134711
0.139342
0.143965
0.148311
0.152255
0.156763
0.160792
0.164815
0.168171
0.171474
0.174049
0.176722
0.178722
0.180673
0.182948
0.184424
0.186156
0.187597
0.188359
0.189494
0.190104
0.19107
0.191589
0.19231
0.192911
0.193392
0.193932
0.194416
0.194952
0.195441
0.195997
0.196392
0.196857
0.197362
0.197948
0.198279
0.198633
0.19902
0.199483
0.199788
0.199989
0.200304
0.200741
0.201286
0.201592
0.201763
0.202004
0.20234
0.202732
0.202941
0.203132
0.203358
0.20354
0.203682
0.203881
0.204168
0.204457
0.204631
0.204766
0.204912
0.204996
0.204964
0.204881
0.204776
0.204674
0.204585
0.204568
0.204676
0.204881
0.205062
0.20517
0.205203
0.205203
0.205163
0.205093
0.205075
0.205082
0.205192
0.205447
0.205792
0.206164
0.206539
0.206886
0.207237
0.207493
0.207722
0.207847
0.207926
0.207909
0.207827
0.207769
0.207724
0.207704
0.207701
0.20772
0.20777
0.207819
0.207875
0.207907
0.207942
0.207974
0.207979
0.207991
0.207958
0.207934
0.207905
0.207866
0.207836
0.207808
0.207789
0.207777
0.207774
0.207782
0.207803
0.207833
0.207876
0.207924
0.207981
0.20803
0.208085
0.20812
0.208163
0.208171
0.208191
0.20816
0.208129
0.208091
0.208047
0.207994
0.207937
0.207872
0.207814
0.207751
0.2077
0.207656
0.207622
0.207595
0.20758
0.207574
0.207581
0.207596
0.207632
0.207665
0.207707
0.207732
0.207759
0.20772
0.207666
0.207592
0.207505
0.207401
0.207297
0.207194
0.207099
0.207029
0.206983
0.20695
0.206932
0.206929
0.206942
0.206967
0.206988
0.20701
0.207008
0.207027
0.206971
0.206921
0.206872
0.206805
0.206735
0.20666
0.206583
0.206504
0.206426
0.206351
0.20628
0.206211
0.206147
0.206087
0.206029
0.205972
0.205917
0.205861
0.205808
0.205753
0.2057
0.205646
0.205595
0.205543
0.205495
0.205448
0.205327
0.0368395
0.0363839
0.0360288
0.03556
0.0350603
0.0344823
0.0339294
0.0334645
0.0330881
0.0328048
0.0326107
0.0324998
0.0324661
0.0324954
0.0325793
0.0327289
0.0329288
0.033193
0.0335384
0.0339669
0.0345105
0.0351974
0.0360255
0.0370184
0.0382525
0.0396923
0.0413536
0.0432545
0.0455352
0.0480019
0.0509021
0.0541252
0.057746
0.0611262
0.0653928
0.0691422
0.0739151
0.0783082
0.0834496
0.0890095
0.0943561
0.100121
0.105754
0.111615
0.117497
0.123284
0.12904
0.134399
0.13998
0.144652
0.149343
0.153673
0.157712
0.162565
0.16615
0.170333
0.173624
0.177158
0.179876
0.182625
0.184793
0.187015
0.189467
0.191015
0.192887
0.194324
0.195147
0.1963
0.196992
0.197974
0.1985
0.199268
0.199773
0.200215
0.20072
0.201139
0.201624
0.202022
0.202513
0.202839
0.203157
0.203537
0.204077
0.204387
0.204628
0.204926
0.205328
0.205635
0.205778
0.205975
0.206295
0.206761
0.207077
0.207218
0.207353
0.207567
0.207891
0.208104
0.208247
0.208401
0.208552
0.208655
0.208776
0.208974
0.209224
0.209389
0.209473
0.209547
0.209556
0.209444
0.209315
0.209183
0.209067
0.208957
0.20893
0.209003
0.20917
0.20929
0.209343
0.209309
0.209261
0.209214
0.209151
0.20913
0.209128
0.209262
0.209502
0.209816
0.210155
0.210513
0.210836
0.211162
0.211387
0.211592
0.211684
0.211736
0.211718
0.211632
0.211567
0.211513
0.211482
0.211468
0.211467
0.211498
0.211533
0.211574
0.211594
0.211616
0.211631
0.211627
0.211631
0.211592
0.21156
0.211529
0.211488
0.211456
0.211426
0.211402
0.211384
0.211375
0.211374
0.211389
0.211411
0.211447
0.211486
0.211535
0.211576
0.211625
0.211652
0.211687
0.211693
0.21171
0.211674
0.211639
0.211596
0.211547
0.211489
0.211426
0.211357
0.211293
0.211225
0.211168
0.21112
0.211082
0.21105
0.21103
0.21102
0.211023
0.211034
0.211067
0.211095
0.211132
0.21115
0.211172
0.211127
0.211067
0.210989
0.210896
0.210788
0.210679
0.210571
0.210471
0.210398
0.210347
0.21031
0.210289
0.210283
0.210291
0.210311
0.210328
0.210349
0.210341
0.210354
0.210296
0.210243
0.210188
0.210117
0.210042
0.209963
0.209881
0.209798
0.209716
0.209636
0.20956
0.209487
0.209419
0.209355
0.209293
0.209231
0.209172
0.209113
0.209055
0.208997
0.20894
0.208882
0.208827
0.208771
0.20872
0.208668
0.208544
0.0366718
0.0361889
0.0358416
0.0353695
0.0348545
0.0342595
0.0337365
0.0332931
0.0329406
0.0326798
0.0325062
0.0324119
0.0323892
0.0324265
0.0325196
0.0326774
0.0328864
0.0331622
0.0335172
0.033949
0.0345036
0.0352159
0.0360938
0.0371688
0.038434
0.0400048
0.0417582
0.0438201
0.0462506
0.0489717
0.0520235
0.0549739
0.0587548
0.0618849
0.0661315
0.069944
0.0746222
0.0794134
0.0844999
0.09048
0.0965795
0.102504
0.109149
0.115141
0.122035
0.128054
0.134401
0.139735
0.145561
0.150042
0.1546
0.158758
0.163057
0.168142
0.171454
0.175549
0.178586
0.182145
0.184859
0.187831
0.190301
0.192702
0.19552
0.197147
0.19917
0.20059
0.201698
0.202982
0.20387
0.204926
0.205582
0.206474
0.206988
0.207513
0.208081
0.208509
0.209017
0.209381
0.209829
0.210126
0.210376
0.210627
0.211079
0.211355
0.21156
0.211762
0.212077
0.212335
0.212463
0.212556
0.212726
0.213055
0.213338
0.21348
0.213523
0.213601
0.213812
0.214015
0.214116
0.21418
0.214278
0.214332
0.214354
0.214449
0.214622
0.214759
0.214781
0.214765
0.214651
0.214473
0.214295
0.21414
0.214015
0.213905
0.213851
0.213877
0.213983
0.214027
0.213997
0.213893
0.2138
0.21373
0.213683
0.21366
0.213657
0.213786
0.213992
0.214264
0.214555
0.214879
0.215163
0.215449
0.215628
0.215793
0.215844
0.215853
0.21583
0.215748
0.215675
0.215609
0.215555
0.215517
0.215488
0.215486
0.215496
0.215512
0.215511
0.215514
0.215504
0.215484
0.215479
0.215433
0.215391
0.215348
0.215296
0.215251
0.215208
0.215172
0.215142
0.215122
0.215109
0.215107
0.215113
0.215133
0.215157
0.21519
0.215217
0.215253
0.215267
0.215291
0.215288
0.215297
0.21525
0.215204
0.215151
0.215091
0.215023
0.214951
0.214872
0.214799
0.214721
0.214656
0.214599
0.214551
0.214511
0.214483
0.214465
0.21446
0.214463
0.214488
0.214507
0.214534
0.214541
0.214555
0.214499
0.214431
0.214344
0.214244
0.214128
0.214011
0.213896
0.213789
0.213709
0.213652
0.213609
0.21358
0.213569
0.21357
0.213582
0.213592
0.213608
0.213591
0.213596
0.213533
0.213475
0.213412
0.213335
0.213253
0.213167
0.213079
0.21299
0.212901
0.212815
0.212733
0.212654
0.21258
0.21251
0.212441
0.212374
0.212309
0.212245
0.212181
0.212117
0.212055
0.211992
0.211932
0.211871
0.211815
0.211757
0.211627
0.0364641
0.0359767
0.0356466
0.0351839
0.0346447
0.034067
0.0335712
0.0331488
0.0328184
0.0325783
0.0324226
0.0323422
0.0323301
0.032378
0.0324844
0.032654
0.0328757
0.0331542
0.0335235
0.03398
0.0345725
0.0353466
0.0362545
0.0374304
0.0387643
0.0404617
0.0423246
0.0445862
0.0471508
0.049757
0.0529093
0.0554674
0.0592126
0.0621155
0.0664421
0.0699298
0.0747804
0.0789301
0.0847762
0.0897665
0.0966383
0.102452
0.109219
0.115464
0.123025
0.128827
0.135886
0.141773
0.1483
0.153575
0.15915
0.163539
0.167896
0.173239
0.176518
0.180337
0.183056
0.186446
0.188886
0.192012
0.194553
0.197262
0.200329
0.202216
0.20442
0.205823
0.207299
0.20884
0.209931
0.21112
0.211949
0.212984
0.213667
0.214348
0.215098
0.215636
0.216242
0.216697
0.21719
0.21754
0.217865
0.218105
0.218472
0.218784
0.219086
0.219275
0.219515
0.219756
0.219925
0.219993
0.220035
0.22019
0.220427
0.220588
0.220589
0.220531
0.220613
0.220767
0.220824
0.220826
0.220848
0.220847
0.220769
0.220739
0.220806
0.220891
0.220823
0.220711
0.220474
0.220245
0.220058
0.219928
0.21981
0.219684
0.21958
0.219513
0.219508
0.219426
0.219286
0.219118
0.21898
0.218907
0.218882
0.218846
0.218828
0.218905
0.219055
0.219261
0.219484
0.219758
0.219984
0.220208
0.220336
0.22044
0.220434
0.220397
0.220386
0.220321
0.220229
0.220146
0.220064
0.219983
0.219908
0.219861
0.219831
0.21981
0.219779
0.219756
0.219719
0.219684
0.219663
0.219598
0.219529
0.219459
0.219383
0.219314
0.219248
0.219188
0.219136
0.219093
0.219059
0.219039
0.219025
0.219021
0.219022
0.219029
0.219035
0.219053
0.219049
0.219054
0.219029
0.219021
0.218955
0.218892
0.218821
0.218745
0.218661
0.218573
0.218479
0.218392
0.218299
0.218219
0.218149
0.218087
0.218033
0.217992
0.217961
0.217944
0.217935
0.217947
0.217952
0.217967
0.217957
0.217957
0.217886
0.217808
0.21771
0.217599
0.217472
0.217345
0.217221
0.217104
0.217016
0.216949
0.216896
0.216858
0.216837
0.216829
0.21683
0.216829
0.216837
0.216808
0.216801
0.216733
0.216668
0.216594
0.216508
0.216418
0.216323
0.216227
0.216129
0.216033
0.215938
0.215848
0.215761
0.215679
0.215601
0.215525
0.21545
0.215377
0.215305
0.215234
0.215164
0.215094
0.215025
0.214957
0.21489
0.214828
0.214762
0.214625
0.0362315
0.0357612
0.0354564
0.0350044
0.034452
0.0339097
0.0334351
0.0330344
0.0327246
0.0325033
0.032363
0.0322946
0.0322938
0.0323555
0.0324771
0.0326601
0.0328865
0.0331883
0.0335969
0.0340897
0.0347117
0.0355616
0.0365229
0.0378037
0.039243
0.0410602
0.0429745
0.0453633
0.0479539
0.0501826
0.0533354
0.0556107
0.0590805
0.0620586
0.0656035
0.069401
0.0732144
0.0777467
0.0817612
0.0871696
0.0928726
0.09865
0.105866
0.111782
0.118999
0.125887
0.13341
0.139398
0.146569
0.151768
0.158219
0.163457
0.169035
0.174834
0.17898
0.183399
0.186702
0.190133
0.192534
0.195564
0.197867
0.200782
0.203686
0.205901
0.208329
0.209928
0.211598
0.213473
0.214739
0.216106
0.217075
0.218222
0.219102
0.219993
0.220881
0.221577
0.222306
0.222898
0.223491
0.22397
0.224437
0.22477
0.225181
0.225583
0.22607
0.226375
0.226703
0.227013
0.227346
0.227502
0.227575
0.227649
0.227901
0.228136
0.228184
0.228125
0.22811
0.22819
0.228254
0.228263
0.228221
0.22817
0.228021
0.227885
0.227829
0.227799
0.227649
0.227473
0.227163
0.226963
0.226805
0.226674
0.226557
0.226447
0.22631
0.226076
0.2259
0.225642
0.225383
0.225178
0.225049
0.224964
0.224917
0.224883
0.224823
0.224801
0.224841
0.224938
0.225063
0.225249
0.225391
0.225527
0.22558
0.225609
0.225537
0.225476
0.225455
0.225394
0.225274
0.225163
0.225056
0.22495
0.224843
0.224745
0.224667
0.224599
0.22454
0.224486
0.224408
0.224333
0.224269
0.224167
0.224055
0.223948
0.223837
0.223732
0.22363
0.223536
0.223449
0.223374
0.223308
0.223256
0.223215
0.223184
0.223159
0.223139
0.223116
0.223106
0.223068
0.223042
0.222988
0.222954
0.222862
0.222775
0.222678
0.222577
0.22247
0.22236
0.222244
0.222135
0.22202
0.22192
0.221829
0.221747
0.221673
0.221613
0.221563
0.221528
0.221502
0.221496
0.221483
0.221479
0.221446
0.221428
0.22134
0.221247
0.221133
0.221007
0.220867
0.220727
0.22059
0.22046
0.22036
0.22028
0.220214
0.220164
0.22013
0.220108
0.220094
0.22008
0.220076
0.220033
0.220011
0.219934
0.21986
0.219773
0.219676
0.219575
0.219469
0.219362
0.219255
0.219148
0.219043
0.218942
0.218845
0.218753
0.218665
0.218579
0.218495
0.218413
0.218332
0.218252
0.218172
0.218094
0.218016
0.21794
0.217865
0.217795
0.217719
0.217573
0.0359867
0.0355577
0.0352771
0.0348319
0.0342889
0.0337867
0.0333314
0.0329521
0.0326616
0.0324572
0.0323307
0.0322737
0.0322832
0.0323637
0.0325046
0.0327074
0.0329565
0.0332726
0.0337186
0.0342643
0.0349263
0.0358633
0.0369075
0.0382815
0.0398381
0.0417392
0.0436329
0.0458439
0.0484962
0.0503694
0.053369
0.0554686
0.0587325
0.0610489
0.0648346
0.0673904
0.0708526
0.0739808
0.077952
0.0817318
0.0855719
0.0899347
0.0945899
0.100174
0.106987
0.113897
0.122571
0.129886
0.138184
0.145138
0.153755
0.160544
0.167476
0.17305
0.17795
0.182934
0.186691
0.190972
0.194517
0.197941
0.20051
0.203623
0.206182
0.208477
0.211091
0.212884
0.214754
0.216896
0.218282
0.219862
0.220963
0.222236
0.223237
0.224346
0.225336
0.226156
0.226981
0.227668
0.228348
0.228914
0.229488
0.229922
0.230416
0.230884
0.231475
0.231947
0.232425
0.232844
0.233344
0.233639
0.233882
0.23407
0.234353
0.23472
0.234935
0.235098
0.235195
0.235299
0.235499
0.235655
0.2357
0.23572
0.235624
0.235496
0.235396
0.235303
0.235158
0.235003
0.234717
0.234481
0.234264
0.234078
0.233916
0.233778
0.233692
0.233399
0.233085
0.232696
0.232376
0.232124
0.231908
0.231749
0.231644
0.231576
0.231544
0.231424
0.231341
0.231294
0.23129
0.231351
0.231379
0.231402
0.231349
0.231293
0.23119
0.231132
0.231073
0.231002
0.230847
0.2307
0.230555
0.230403
0.230257
0.230123
0.230001
0.229888
0.229779
0.22968
0.229548
0.229422
0.229307
0.229161
0.228999
0.228845
0.228691
0.228543
0.228399
0.228262
0.228135
0.228018
0.227913
0.227823
0.227743
0.227676
0.227614
0.227558
0.227499
0.227455
0.227379
0.227316
0.227228
0.227161
0.227036
0.226918
0.226788
0.226656
0.226519
0.226379
0.226235
0.226096
0.225953
0.225825
0.225706
0.225597
0.225496
0.22541
0.225335
0.225276
0.225227
0.225198
0.22516
0.225131
0.225071
0.225029
0.224919
0.224806
0.224673
0.224528
0.224369
0.224211
0.224057
0.22391
0.223792
0.223694
0.22361
0.223543
0.223493
0.223453
0.22342
0.223389
0.223369
0.223308
0.223269
0.22318
0.223094
0.22299
0.222879
0.222763
0.222644
0.222523
0.222403
0.222283
0.222165
0.222051
0.221942
0.221837
0.221737
0.221639
0.221544
0.22145
0.221357
0.221266
0.221176
0.221087
0.220999
0.220912
0.220827
0.220748
0.220659
0.220502
0.0357541
0.0353737
0.035115
0.0346646
0.0341638
0.033694
0.0332614
0.0329034
0.0326325
0.0324418
0.0323281
0.0322861
0.0323109
0.0324317
0.032578
0.0327797
0.0330531
0.0334058
0.0339054
0.0345013
0.0352274
0.0362607
0.0373881
0.0388262
0.0404949
0.0424618
0.0443181
0.0462584
0.0488432
0.050501
0.0532449
0.055243
0.057805
0.0604249
0.0625224
0.0650537
0.067382
0.069632
0.0716941
0.073458
0.075282
0.0766903
0.0784499
0.0802411
0.0828597
0.0865456
0.0915544
0.0997659
0.110019
0.120348
0.133447
0.145292
0.155773
0.163924
0.171666
0.179052
0.184679
0.18996
0.193855
0.197831
0.20097
0.204703
0.20747
0.210056
0.212834
0.214833
0.21719
0.2194
0.220831
0.222614
0.22381
0.225227
0.226326
0.227626
0.228699
0.229616
0.230529
0.231263
0.232007
0.232615
0.233261
0.233768
0.234325
0.234829
0.235454