/*--------------------------------*- C++ -*----------------------------------*\
| =========                 |                                                 |
| \\      /  F ield         | OpenFOAM: The Open Source CFD Toolbox           |
|  \\    /   O peration     | Version:  2312                                  |
|   \\  /    A nd           | Website:  www.openfoam.com                      |
|    \\/     M anipulation  |                                                 |
\*---------------------------------------------------------------------------*/
FoamFile
{
    version     2.0;
    format      ascii;
    arch        "LSB;label=32;scalar=64";
    class       volScalarField;
    location    "0.005";
    object      T;
}
// * * * * * * * * * * * * * * * * * * * * * * * * * * * * * * * * * * * * * //

dimensions      [0 0 0 1 0 0 0];

internalField   nonuniform List<scalar> 
48128
(
225.307
225.378
225.586
225.76
225.786
225.8
225.822
225.656
225.174
224.33
223.326
222.368
221.416
220.6
219.993
219.479
219.051
218.727
218.518
218.429
218.546
218.881
219.449
220.202
221.175
222.372
223.774
225.341
227.029
228.916
230.989
233.243
235.645
238.14
240.647
243.146
245.569
247.902
250.228
251.942
253.356
257.269
258.245
259.006
259.71
260.296
260.756
261.105
261.409
261.624
261.792
261.877
261.989
262.025
262.051
261.994
261.909
261.767
261.597
261.457
261.257
261.164
261.107
261.062
261.042
260.955
260.903
260.824
260.799
260.795
260.815
260.878
260.968
261.072
261.215
261.374
261.574
261.778
261.953
262.244
262.715
262.934
263.113
263.345
263.819
264.062
264.239
264.365
264.636
265.373
265.672
265.884
266.028
266.282
266.976
267.265
267.5
267.714
268.12
268.387
268.616
268.866
269.437
269.757
270.031
270.285
270.647
270.943
271.198
271.437
271.641
271.822
272.037
272.296
272.639
273.101
273.497
273.861
274.2
274.511
274.77
274.982
275.215
275.508
275.817
276.138
276.687
277.106
277.577
277.977
278.373
278.713
279.016
279.302
279.566
279.79
279.968
280.161
280.386
280.617
280.861
281.128
281.386
281.676
281.952
282.222
282.487
282.756
283.007
283.246
283.49
283.714
283.946
284.162
284.378
284.595
284.816
285.039
285.264
285.499
285.728
285.971
286.219
286.474
286.721
286.975
287.22
287.46
287.697
287.915
288.128
288.335
288.525
288.714
288.893
289.065
289.232
289.397
289.56
289.723
289.887
290.053
290.223
290.397
290.575
290.76
290.945
291.136
291.329
291.532
291.734
291.928
292.115
292.273
292.429
292.568
292.685
292.793
292.899
293.006
293.119
293.234
293.362
293.498
293.645
293.8
293.961
294.126
294.3
294.46
294.613
294.763
294.888
295.002
295.124
295.234
295.332
295.432
295.525
295.619
295.712
295.807
295.903
296.002
296.102
296.203
296.305
296.409
296.511
296.615
296.716
296.819
296.918
297.019
297.117
297.218
297.313
297.413
297.501
297.564
225.211
225.302
225.369
225.355
225.257
225.106
224.723
223.944
222.689
221.085
219.51
218.05
216.665
215.532
214.712
214.077
213.604
213.306
213.199
213.312
213.614
214.144
214.891
215.893
217.158
218.684
220.458
222.471
224.753
227.229
229.806
232.487
235.201
237.962
240.611
243.285
245.742
247.586
250.542
252.025
253.343
254.821
255.772
256.426
256.95
257.316
257.542
257.65
257.623
257.465
257.26
256.956
256.682
256.376
256.075
255.733
255.364
254.96
254.534
254.11
253.652
253.266
252.93
252.614
252.319
251.989
251.669
251.341
251.036
250.764
250.51
250.291
250.105
249.942
249.801
249.68
249.603
249.561
249.479
249.442
249.675
249.676
249.613
249.56
249.801
249.814
249.768
249.696
249.61
250.116
250.187
250.179
250.145
250.086
250.563
250.648
250.663
250.672
250.854
250.913
250.937
250.947
251.293
251.4
251.473
251.541
251.703
251.793
251.868
251.922
251.946
251.923
251.913
251.941
251.984
252.22
252.391
252.569
252.744
252.891
253.011
253.064
253.117
253.22
253.34
253.494
253.86
254.113
254.434
254.728
255.004
255.262
255.49
255.681
255.835
255.962
256.035
256.1
256.19
256.303
256.419
256.58
256.731
256.92
257.081
257.24
257.395
257.554
257.7
257.837
257.974
258.1
258.232
258.353
258.474
258.601
258.731
258.868
259.007
259.158
259.308
259.47
259.634
259.806
259.977
260.152
260.32
260.485
260.647
260.799
260.932
261.067
261.186
261.307
261.42
261.529
261.634
261.738
261.842
261.948
262.056
262.17
262.287
262.41
262.538
262.672
262.81
262.955
263.105
263.265
263.423
263.577
263.72
263.846
263.946
264.044
264.126
264.197
264.267
264.341
264.42
264.512
264.612
264.721
264.842
264.973
265.11
265.254
265.402
265.54
265.671
265.797
265.911
265.995
266.093
266.185
266.265
266.348
266.426
266.506
266.585
266.667
266.751
266.837
266.925
267.016
267.107
267.2
267.293
267.387
267.48
267.573
267.665
267.759
267.851
267.945
268.038
268.134
268.22
268.267
225.118
225.101
225.052
224.939
224.788
224.474
223.842
222.804
221.424
219.881
218.299
216.896
215.635
214.634
213.954
213.448
213.116
212.963
212.998
213.214
213.634
214.285
215.177
216.325
217.741
219.407
221.282
223.333
225.556
227.939
230.407
233.009
235.545
238.295
240.575
243.074
245.45
247.053
248.826
250.129
251.215
252.086
252.679
253.06
253.315
253.419
253.384
253.243
252.988
252.622
252.234
251.783
251.39
251.011
250.641
250.241
249.825
249.382
248.939
248.485
248.011
247.619
247.28
246.963
246.661
246.315
245.984
245.647
245.335
245.056
244.789
244.555
244.347
244.156
243.984
243.829
243.713
243.623
243.492
243.396
243.562
243.501
243.379
243.273
243.436
243.388
243.287
243.146
243.013
243.43
243.429
243.358
243.256
243.15
243.529
243.545
243.494
243.453
243.556
243.552
243.506
243.461
243.723
243.759
243.76
243.765
243.849
243.872
243.877
243.863
243.826
243.741
243.676
243.637
243.615
243.767
243.856
243.947
244.036
244.104
244.147
244.136
244.126
244.154
244.203
244.265
244.553
244.73
244.973
245.189
245.395
245.585
245.752
245.89
245.996
246.072
246.103
246.124
246.163
246.215
246.274
246.364
246.448
246.569
246.673
246.774
246.873
246.976
247.079
247.166
247.259
247.341
247.434
247.514
247.594
247.68
247.769
247.864
247.961
248.069
248.177
248.297
248.418
248.547
248.675
248.807
248.933
249.057
249.178
249.289
249.388
249.487
249.573
249.66
249.741
249.818
249.892
249.966
250.039
250.115
250.193
250.278
250.365
250.458
250.557
250.663
250.772
250.889
251.01
251.142
251.272
251.399
251.517
251.619
251.7
251.777
251.84
251.894
251.946
252.003
252.065
252.137
252.22
252.311
252.414
252.525
252.644
252.769
252.898
253.02
253.135
253.246
253.347
253.419
253.505
253.587
253.656
253.73
253.798
253.869
253.94
254.012
254.087
254.164
254.244
254.326
254.408
254.493
254.578
254.663
254.749
254.835
254.92
255.007
255.093
255.181
255.268
255.359
255.442
255.485
224.842
224.839
224.722
224.594
224.372
223.897
223.109
222.065
220.767
219.314
217.847
216.525
215.375
214.477
213.896
213.478
213.247
213.193
213.309
213.609
214.114
214.846
215.81
217.006
218.421
220.031
221.829
223.788
225.888
228.149
230.42
233.019
235.041
237.869
239.731
241.564
243.292
244.714
246.006
246.959
247.696
248.165
248.393
248.472
248.421
248.252
247.962
247.586
247.091
246.542
245.992
245.43
244.959
244.557
244.185
243.77
243.377
242.956
242.577
242.196
241.799
241.503
241.283
241.067
240.863
240.588
240.337
240.077
239.847
239.651
239.459
239.295
239.146
239.012
238.89
238.782
238.707
238.65
238.541
238.456
238.626
238.577
238.462
238.367
238.512
238.473
238.379
238.239
238.116
238.479
238.481
238.418
238.31
238.207
238.526
238.533
238.475
238.431
238.499
238.484
238.421
238.365
238.593
238.607
238.589
238.576
238.625
238.628
238.608
238.572
238.514
238.415
238.336
238.278
238.239
238.363
238.423
238.479
238.527
238.558
238.568
238.529
238.492
238.49
238.51
238.542
238.78
238.918
239.116
239.284
239.446
239.592
239.717
239.818
239.892
239.939
239.946
239.941
239.957
239.982
240.014
240.071
240.124
240.21
240.28
240.347
240.414
240.483
240.549
240.607
240.666
240.715
240.774
240.827
240.882
240.942
241.005
241.073
241.143
241.223
241.304
241.396
241.488
241.588
241.685
241.787
241.886
241.983
242.076
242.165
242.241
242.316
242.381
242.448
242.508
242.565
242.618
242.672
242.725
242.781
242.839
242.903
242.971
243.044
243.122
243.208
243.298
243.394
243.497
243.608
243.718
243.827
243.927
244.013
244.081
244.142
244.193
244.235
244.274
244.319
244.368
244.427
244.497
244.574
244.663
244.76
244.864
244.976
245.091
245.2
245.304
245.404
245.495
245.56
245.636
245.709
245.771
245.837
245.898
245.962
246.026
246.091
246.159
246.229
246.301
246.376
246.451
246.529
246.607
246.686
246.766
246.846
246.926
247.007
247.088
247.171
247.253
247.339
247.419
247.459
224.607
224.551
224.424
224.297
223.962
223.356
222.576
221.603
220.323
218.914
217.553
216.365
215.355
214.574
214.084
213.759
213.61
213.613
213.776
214.111
214.632
215.353
216.278
217.397
218.711
220.213
221.894
223.735
225.654
227.835
229.539
232.276
233.806
235.659
237.179
238.578
239.869
240.875
241.754
242.249
242.52
242.691
242.48
242.258
241.86
241.47
240.92
240.363
239.63
238.946
238.3
237.689
237.195
236.835
236.533
236.15
235.854
235.502
235.243
234.99
234.707
234.55
234.511
234.423
234.375
234.199
234.071
233.945
233.84
233.781
233.703
233.662
233.616
233.581
233.548
233.522
233.522
233.535
233.481
233.445
233.641
233.64
233.57
233.522
233.674
233.678
233.627
233.529
233.447
233.759
233.812
233.783
233.708
233.636
233.901
233.938
233.903
233.881
233.939
233.939
233.89
233.851
234.048
234.071
234.061
234.056
234.093
234.099
234.077
234.042
233.984
233.894
233.821
233.763
233.727
233.84
233.892
233.936
233.964
233.98
233.981
233.935
233.891
233.879
233.886
233.916
234.119
234.237
234.405
234.546
234.681
234.801
234.901
234.977
235.03
235.063
235.059
235.039
235.044
235.057
235.076
235.117
235.154
235.221
235.273
235.322
235.371
235.42
235.468
235.507
235.548
235.578
235.617
235.649
235.683
235.724
235.767
235.818
235.869
235.929
235.99
236.06
236.129
236.208
236.284
236.365
236.445
236.523
236.598
236.677
236.74
236.8
236.85
236.902
236.948
236.991
237.031
237.07
237.11
237.152
237.196
237.246
237.3
237.359
237.423
237.496
237.571
237.654
237.742
237.84
237.935
238.03
238.118
238.192
238.25
238.3
238.341
238.375
238.405
238.441
238.482
238.532
238.592
238.66
238.738
238.825
238.92
239.021
239.126
239.225
239.321
239.413
239.495
239.554
239.624
239.691
239.747
239.807
239.863
239.921
239.98
240.04
240.103
240.167
240.234
240.304
240.374
240.447
240.52
240.594
240.669
240.744
240.82
240.897
240.974
241.053
241.132
241.214
241.29
241.33
224.306
224.265
224.168
223.971
223.536
222.896
222.175
221.145
219.918
218.635
217.42
216.364
215.479
214.81
214.386
214.108
213.987
214
214.16
214.472
214.945
215.585
216.402
217.401
218.591
219.974
221.494
223.23
224.667
226.787
228.049
229.665
230.94
232.161
233.183
233.957
234.721
235.087
235.503
235.491
235.221
235.196
234.561
234.173
233.386
232.86
232.154
231.5
230.751
230.017
229.419
228.859
228.375
228.154
227.902
227.644
227.408
227.204
227.04
226.958
226.817
226.788
226.994
226.981
227.178
227.105
227.117
227.19
227.192
227.339
227.36
227.506
227.569
227.652
227.736
227.811
227.907
228.007
228.035
228.069
228.284
228.376
228.384
228.41
228.58
228.657
228.673
228.65
228.627
228.884
229.019
229.043
229.024
229.002
229.211
229.312
229.322
229.34
229.406
229.439
229.429
229.426
229.587
229.652
229.673
229.694
229.734
229.761
229.751
229.735
229.694
229.629
229.581
229.539
229.523
229.63
229.69
229.732
229.755
229.77
229.781
229.741
229.708
229.702
229.711
229.752
229.928
230.037
230.191
230.315
230.434
230.539
230.625
230.689
230.734
230.762
230.76
230.737
230.74
230.75
230.765
230.798
230.83
230.887
230.931
230.971
231.011
231.05
231.091
231.122
231.153
231.173
231.203
231.225
231.247
231.275
231.305
231.341
231.379
231.425
231.472
231.531
231.587
231.653
231.717
231.787
231.854
231.92
231.984
232.05
232.104
232.154
232.194
232.237
232.274
232.307
232.338
232.369
232.4
232.434
232.469
232.51
232.555
232.606
232.661
232.723
232.79
232.864
232.943
233.032
233.117
233.203
233.282
233.348
233.4
233.443
233.478
233.507
233.532
233.562
233.598
233.642
233.696
233.758
233.831
233.911
233.998
234.093
234.191
234.283
234.372
234.459
234.535
234.592
234.657
234.72
234.772
234.829
234.882
234.936
234.992
235.049
235.108
235.17
235.233
235.299
235.367
235.436
235.506
235.577
235.649
235.721
235.794
235.868
235.943
236.019
236.096
236.175
236.25
236.289
223.958
223.979
223.875
223.614
223.119
222.521
221.762
220.766
219.622
218.463
217.383
216.436
215.644
215.058
214.663
214.396
214.266
214.253
214.365
214.602
214.959
215.475
216.163
217.034
218.074
219.352
220.455
222.04
222.968
224.136
225.045
225.908
226.454
226.753
226.963
226.712
226.903
226.397
226.478
226.109
225.598
225.581
224.821
224.459
223.769
223.321
222.595
222.016
221.465
220.826
220.242
219.655
219.046
218.998
218.679
218.628
218.364
218.391
218.227
218.393
218.44
218.38
218.934
218.944
219.489
219.609
219.622
220.04
220.092
220.485
220.58
220.913
221.085
221.239
221.439
221.593
221.791
221.962
222.099
222.222
222.449
222.617
222.766
222.88
223.071
223.224
223.352
223.417
223.462
223.705
223.878
224.004
224.062
224.097
224.282
224.433
224.527
224.595
224.69
224.772
224.824
224.862
225.003
225.119
225.192
225.249
225.309
225.36
225.381
225.397
225.382
225.362
225.351
225.342
225.346
225.456
225.534
225.587
225.621
225.642
225.669
225.647
225.646
225.659
225.684
225.728
225.893
226.005
226.146
226.263
226.376
226.475
226.556
226.621
226.672
226.698
226.717
226.698
226.709
226.724
226.743
226.775
226.808
226.861
226.904
226.943
226.984
227.021
227.061
227.09
227.12
227.139
227.165
227.185
227.202
227.225
227.249
227.277
227.309
227.346
227.388
227.439
227.489
227.549
227.608
227.671
227.733
227.794
227.854
227.909
227.96
228.005
228.038
228.075
228.107
228.137
228.163
228.19
228.216
228.246
228.278
228.315
228.355
228.401
228.452
228.51
228.573
228.642
228.717
228.8
228.88
228.96
229.035
229.097
229.144
229.185
229.217
229.246
229.268
229.297
229.33
229.372
229.424
229.484
229.553
229.63
229.714
229.804
229.898
229.987
230.073
230.156
230.229
230.285
230.349
230.41
230.461
230.516
230.568
230.622
230.676
230.732
230.79
230.85
230.912
230.977
231.043
231.111
231.18
231.249
231.32
231.391
231.463
231.536
231.609
231.685
231.76
231.839
231.913
231.953
223.622
223.646
223.543
223.235
222.72
222.134
221.396
220.449
219.407
218.36
217.379
216.516
215.801
215.255
214.861
214.576
214.402
214.322
214.334
214.432
214.658
215.034
215.584
216.332
217.025
218.134
218.74
219.488
220.005
220.357
220.39
220.157
219.654
218.673
218.418
217.214
217.226
216.221
216.341
215.819
214.934
214.688
213.685
213.181
212.638
212.053
211.532
210.966
210.65
210.114
209.954
209.818
209.226
209.69
209.024
209.392
208.872
209.355
209.005
209.573
209.696
209.76
210.505
210.521
211.299
211.566
211.631
212.261
212.438
212.969
213.198
213.661
213.961
214.239
214.565
214.842
215.145
215.418
215.683
215.92
216.184
216.431
216.705
216.918
217.141
217.362
217.591
217.747
217.878
218.101
218.328
218.55
218.695
218.814
218.985
219.203
219.373
219.519
219.662
219.803
219.919
220.022
220.157
220.329
220.457
220.561
220.659
220.745
220.813
220.864
220.9
220.944
220.981
221.02
221.04
221.174
221.275
221.344
221.395
221.434
221.476
221.499
221.544
221.569
221.626
221.668
221.837
221.953
222.088
222.207
222.323
222.426
222.515
222.59
222.648
222.688
222.737
222.737
222.761
222.788
222.812
222.853
222.891
222.948
222.997
223.043
223.088
223.133
223.173
223.212
223.245
223.269
223.297
223.319
223.337
223.358
223.381
223.409
223.439
223.477
223.518
223.569
223.62
223.68
223.739
223.802
223.864
223.925
223.986
224.04
224.089
224.132
224.165
224.201
224.232
224.262
224.288
224.316
224.343
224.373
224.405
224.442
224.482
224.529
224.579
224.637
224.699
224.768
224.842
224.924
225.003
225.082
225.155
225.216
225.264
225.306
225.339
225.37
225.394
225.425
225.459
225.502
225.554
225.615
225.683
225.76
225.843
225.932
226.025
226.113
226.198
226.28
226.354
226.412
226.476
226.537
226.59
226.645
226.699
226.753
226.808
226.865
226.924
226.985
227.048
227.113
227.179
227.248
227.317
227.387
227.458
227.53
227.602
227.675
227.749
227.825
227.902
227.981
228.056
228.097
223.289
223.274
223.167
222.826
222.354
221.807
221.078
220.198
219.247
218.289
217.386
216.584
215.913
215.378
214.96
214.624
214.367
214.168
214.022
213.983
214.07
214.297
214.598
215.125
215.416
215.8
215.996
215.957
215.566
214.809
213.641
212.028
211.056
209.16
208.807
207.162
206.869
205.306
204.813
204.039
202.773
201.929
200.962
200.07
199.739
198.83
198.913
198.161
198.684
197.969
198.556
198.891
198.6
199.931
199.498
200.302
199.63
200.467
200.033
200.9
200.992
201.398
202.07
202.063
203.008
203.329
203.42
204.164
204.394
205.013
205.303
205.884
206.285
206.67
207.11
207.5
207.911
208.289
208.665
209.013
209.351
209.677
210.055
210.373
210.675
210.979
211.304
211.568
211.802
212.055
212.341
212.644
212.892
213.108
213.318
213.585
213.831
214.056
214.265
214.466
214.647
214.81
214.977
215.194
215.378
215.537
215.685
215.817
215.939
216.046
216.148
216.256
216.353
216.443
216.508
216.653
216.779
216.87
216.95
217.022
217.092
217.166
217.248
217.313
217.393
217.454
217.626
217.749
217.893
218.023
218.15
218.266
218.372
218.467
218.548
218.618
218.69
218.722
218.766
218.809
218.851
218.903
218.953
219.021
219.082
219.141
219.2
219.256
219.307
219.357
219.4
219.432
219.465
219.489
219.51
219.535
219.562
219.595
219.632
219.677
219.726
219.784
219.842
219.909
219.974
220.044
220.112
220.18
220.246
220.305
220.357
220.404
220.44
220.479
220.515
220.55
220.581
220.614
220.645
220.68
220.716
220.758
220.803
220.853
220.907
220.969
221.034
221.107
221.184
221.268
221.35
221.431
221.507
221.571
221.622
221.67
221.706
221.742
221.772
221.807
221.845
221.893
221.948
222.012
222.083
222.162
222.247
222.338
222.431
222.522
222.609
222.692
222.768
222.832
222.898
222.962
223.018
223.076
223.133
223.19
223.249
223.308
223.37
223.433
223.499
223.566
223.635
223.705
223.777
223.849
223.922
223.996
224.071
224.146
224.222
224.3
224.379
224.459
224.537
224.582
222.94
222.88
222.764
222.417
222.012
221.509
220.808
219.996
219.119
218.232
217.389
216.628
215.971
215.418
214.944
214.52
214.132
213.767
213.48
213.284
213.184
213.137
213.112
213.094
212.994
212.688
212.052
210.998
209.396
207.269
205.363
202.826
201.927
199.417
198.655
195.951
195.239
192.658
191.84
190.337
189.609
187.842
187.713
185.904
186.828
185.086
186.554
185.302
186.988
186.112
187.796
188.051
188.805
190.353
190.002
191.537
191.172
192.331
191.87
193.026
192.976
193.908
194.442
194.361
195.428
195.732
195.817
196.602
196.786
197.428
197.668
198.286
198.673
199.097
199.564
199.963
200.424
200.84
201.273
201.677
202.068
202.438
202.9
203.298
203.681
204.059
204.468
204.835
205.174
205.492
205.838
206.22
206.559
206.868
207.156
207.471
207.787
208.091
208.383
208.657
208.918
209.153
209.376
209.645
209.89
210.115
210.331
210.521
210.702
210.88
211.05
211.218
211.374
211.513
211.634
211.789
211.941
212.06
212.173
212.286
212.402
212.53
212.649
212.762
212.871
212.97
213.15
213.292
213.45
213.603
213.751
213.89
214.022
214.147
214.265
214.376
214.476
214.541
214.605
214.671
214.739
214.813
214.885
214.972
215.055
215.135
215.214
215.288
215.357
215.421
215.475
215.517
215.556
215.593
215.628
215.667
215.708
215.754
215.803
215.859
215.921
215.993
216.068
216.148
216.227
216.309
216.389
216.469
216.544
216.611
216.672
216.728
216.775
216.824
216.869
216.913
216.954
216.996
217.037
217.08
217.125
217.176
217.228
217.287
217.348
217.417
217.491
217.57
217.654
217.745
217.832
217.919
218.001
218.071
218.13
218.186
218.23
218.274
218.312
218.354
218.4
218.454
218.515
218.585
218.661
218.745
218.834
218.929
219.027
219.122
219.213
219.3
219.382
219.452
219.524
219.592
219.654
219.717
219.779
219.841
219.904
219.969
220.035
220.102
220.172
220.244
220.317
220.391
220.467
220.543
220.62
220.697
220.775
220.854
220.934
221.016
221.098
221.181
221.262
221.312
222.596
222.482
222.345
222.053
221.719
221.236
220.58
219.83
219.015
218.183
217.382
216.641
215.972
215.367
214.806
214.25
213.691
213.178
212.723
212.231
211.833
211.432
211.028
210.505
209.686
208.482
206.752
204.465
201.795
198.53
196.77
193.618
192.19
188.763
186.928
183.589
181.735
179.041
177.267
175.661
175.172
172.479
173.488
170.775
173.243
171.628
174.434
173.261
176.16
175.46
178.323
178.186
180.439
181.631
181.433
183.44
183.438
185.203
184.84
186.213
186.101
187.486
187.927
187.819
188.964
189.241
189.415
190.163
190.271
190.927
191.075
191.682
191.954
192.416
192.8
193.124
193.546
193.891
194.3
194.636
195.015
195.357
195.817
196.171
196.592
196.988
197.417
197.812
198.208
198.584
198.96
199.394
199.786
200.167
200.531
200.89
201.256
201.647
202.013
202.36
202.695
203.008
203.303
203.622
203.931
204.227
204.511
204.765
205.005
205.24
205.443
205.63
205.831
206.045
206.245
206.44
206.64
206.808
206.972
207.139
207.303
207.461
207.614
207.795
207.963
208.118
208.326
208.502
208.682
208.869
209.049
209.219
209.388
209.555
209.711
209.874
209.99
210.085
210.174
210.265
210.367
210.478
210.587
210.704
210.817
210.927
211.031
211.129
211.215
211.295
211.364
211.427
211.49
211.552
211.613
211.676
211.74
211.809
211.881
211.958
212.038
212.127
212.219
212.32
212.42
212.522
212.618
212.715
212.801
212.885
212.965
213.039
213.103
213.168
213.228
213.288
213.344
213.4
213.455
213.512
213.571
213.634
213.7
213.77
213.844
213.925
214.01
214.1
214.195
214.296
214.393
214.488
214.579
214.659
214.729
214.796
214.851
214.905
214.953
215.006
215.062
215.125
215.194
215.272
215.356
215.447
215.543
215.645
215.748
215.851
215.948
216.041
216.132
216.211
216.289
216.365
216.433
216.504
216.572
216.641
216.711
216.782
216.855
216.929
217.004
217.082
217.161
217.241
217.321
217.403
217.485
217.568
217.651
217.735
217.82
217.906
217.994
218.081
218.167
218.222
222.268
222.111
221.955
221.736
221.463
220.996
220.391
219.696
218.93
218.138
217.359
216.618
215.914
215.224
214.54
213.813
213.091
212.28
211.539
210.838
210.096
209.353
208.373
207.098
205.364
203.085
200.086
196.663
193.677
189.834
187.84
183.662
181.305
176.878
174.34
169.97
167.379
163.893
162.526
160.556
161.135
158.255
161.125
159.277
162.715
161.029
165.176
163.682
167.698
166.227
169.763
168.947
172.499
173.745
173.894
176.542
176.817
178.937
178.934
180.494
180.483
182.098
182.521
182.471
183.675
183.799
184.424
184.978
185.031
185.745
185.833
186.446
186.624
187.122
187.43
187.674
188.036
188.285
188.619
188.858
189.166
189.4
189.771
190.008
190.385
190.677
191.037
191.346
191.693
192.017
192.346
192.733
193.07
193.457
193.821
194.18
194.554
194.975
195.363
195.752
196.131
196.497
196.853
197.213
197.572
197.935
198.267
198.582
198.823
199.042
199.251
199.488
199.725
199.979
200.263
200.544
200.821
201.061
201.285
201.474
201.641
201.845
202.064
202.292
202.561
202.805
203.078
203.315
203.547
203.783
204.01
204.229
204.438
204.664
204.854
205.064
205.215
205.349
205.475
205.602
205.728
205.854
205.987
206.138
206.283
206.425
206.553
206.677
206.792
206.908
207.016
207.116
207.212
207.309
207.405
207.502
207.6
207.7
207.803
207.909
208.017
208.132
208.247
208.369
208.49
208.612
208.732
208.851
208.962
209.072
209.176
209.275
209.362
209.45
209.532
209.613
209.69
209.767
209.842
209.918
209.996
210.078
210.162
210.25
210.341
210.438
210.54
210.645
210.755
210.869
210.979
211.087
211.191
211.285
211.369
211.45
211.519
211.586
211.648
211.714
211.782
211.857
211.938
212.026
212.121
212.223
212.328
212.439
212.551
212.663
212.769
212.871
212.973
213.062
213.149
213.233
213.311
213.39
213.468
213.546
213.624
213.703
213.784
213.866
213.949
214.034
214.12
214.207
214.295
214.383
214.472
214.562
214.651
214.742
214.833
214.926
215.019
215.112
215.204
215.266
221.977
221.779
221.634
221.481
221.238
220.8
220.242
219.593
218.865
218.096
217.318
216.557
215.805
214.972
214.095
213.07
212.104
211.178
210.181
209.145
208.049
206.708
204.954
202.787
199.994
196.624
192.487
188.388
185.459
180.847
178.033
172.947
169.523
164.723
160.487
156.398
153.392
150.948
148.926
146.913
147.106
145.491
147.862
146.665
150.587
149.714
155.153
153.927
159.33
158.102
163.117
162.254
166.953
168.416
168.526
171.48
171.186
173.565
173.66
175.664
175.885
177.582
178.077
178.163
179.354
179.328
180.456
180.882
180.89
181.692
181.755
182.4
182.544
183.081
183.365
183.565
183.906
184.086
184.387
184.544
184.819
184.977
185.262
185.427
185.738
185.941
186.21
186.416
186.682
186.896
187.125
187.377
187.573
187.897
188.126
188.387
188.646
188.968
189.247
189.567
189.877
190.187
190.498
190.819
191.151
191.499
191.81
192.098
192.292
192.574
192.848
193.163
193.469
193.788
194.061
194.344
194.657
194.916
195.133
195.365
195.622
195.91
196.216
196.518
196.815
197.165
197.499
197.81
198.112
198.414
198.702
198.983
199.24
199.522
199.734
199.964
200.166
200.35
200.519
200.687
200.849
201.007
201.167
201.333
201.503
201.673
201.84
201.999
202.152
202.308
202.458
202.598
202.733
202.87
203.004
203.139
203.274
203.41
203.548
203.688
203.828
203.973
204.119
204.268
204.417
204.565
204.713
204.858
204.996
205.133
205.265
205.392
205.507
205.622
205.73
205.837
205.94
206.042
206.143
206.244
206.347
206.453
206.56
206.671
206.785
206.903
207.025
207.151
207.279
207.41
207.538
207.661
207.78
207.892
207.993
208.092
208.179
208.264
208.343
208.426
208.511
208.602
208.698
208.801
208.91
209.025
209.143
209.266
209.389
209.512
209.631
209.744
209.858
209.961
210.059
210.154
210.245
210.336
210.424
210.513
210.602
210.692
210.782
210.874
210.967
211.061
211.156
211.252
211.348
211.445
211.543
211.64
211.738
211.837
211.936
212.036
212.137
212.237
212.336
212.406
221.745
221.508
221.399
221.29
221.062
220.657
220.138
219.525
218.817
218.054
217.25
216.417
215.557
214.397
213.338
212.236
211.095
209.871
208.573
207.155
205.443
203.38
200.728
197.561
193.575
189.456
184.422
180.26
176.804
171.306
167.431
161.859
157.343
152.103
148.119
144.317
140.88
137.706
134.951
133.012
131.686
130.669
130.497
131.129
133.51
135.034
140.188
141.667
149.039
148.211
155.536
154.327
161.284
162.834
163.898
166.419
167.009
169.369
169.536
171.893
172.058
173.781
174.328
174.646
175.726
175.719
177.131
177.564
177.578
178.484
178.543
179.247
179.398
179.972
180.253
180.44
180.784
180.926
181.225
181.343
181.615
181.734
181.988
182.121
182.398
182.542
182.78
182.93
183.153
183.311
183.474
183.636
183.758
183.997
184.136
184.328
184.478
184.684
184.834
185.061
185.235
185.422
185.597
185.78
185.961
186.163
186.3
186.499
186.627
186.899
187.149
187.454
187.752
188.056
188.305
188.513
188.727
188.915
189.146
189.417
189.73
190.074
190.446
190.807
191.151
191.494
191.878
192.235
192.588
192.938
193.27
193.604
193.903
194.229
194.449
194.717
194.962
195.201
195.418
195.63
195.832
196.029
196.226
196.423
196.623
196.825
197.028
197.223
197.412
197.605
197.792
197.97
198.142
198.316
198.488
198.66
198.831
199.002
199.174
199.347
199.521
199.697
199.874
200.053
200.231
200.408
200.584
200.755
200.919
201.084
201.242
201.397
201.539
201.681
201.816
201.95
202.082
202.212
202.34
202.469
202.599
202.731
202.864
203
203.138
203.28
203.425
203.573
203.724
203.875
204.021
204.163
204.3
204.432
204.554
204.674
204.781
204.887
204.989
205.093
205.198
205.309
205.424
205.546
205.671
205.804
205.939
206.075
206.213
206.35
206.484
206.61
206.739
206.857
206.971
207.08
207.185
207.29
207.393
207.496
207.599
207.701
207.804
207.908
208.013
208.119
208.225
208.333
208.44
208.548
208.656
208.764
208.872
208.981
209.09
209.199
209.31
209.419
209.527
209.606
221.582
221.318
221.242
221.156
220.954
220.58
220.085
219.476
218.754
217.972
217.087
216.086
215.05
213.846
212.651
211.31
209.868
208.335
206.68
204.647
202.21
199.34
195.678
191.458
186.131
182.049
176.416
172.065
167.36
161.567
156.577
150.9
145.808
141.195
137.092
133.175
129.716
126.452
123.619
120.932
118.44
116.117
114.037
112.182
110.605
109.375
108.54
108.82
117.668
124.217
135.752
139.637
151.252
154.945
158.207
161.27
163.122
165.277
166.188
168.499
169.3
170.669
170.977
172.188
172.863
172.876
174.445
174.879
174.908
175.924
175.978
176.761
176.939
177.527
177.819
178.018
178.362
178.478
178.791
178.89
179.17
179.271
179.52
179.644
179.894
180.017
180.249
180.368
180.58
180.687
180.87
180.988
181.074
181.268
181.357
181.545
181.65
181.801
181.908
182.08
182.191
182.326
182.419
182.521
182.606
182.691
182.735
182.862
182.896
183.122
183.286
183.497
183.715
183.906
184.069
184.171
184.271
184.34
184.484
184.678
184.923
185.207
185.523
185.838
186.133
186.39
186.67
186.966
187.289
187.621
187.93
188.266
188.538
188.844
189.1
189.428
189.719
190.031
190.305
190.569
190.82
191.06
191.299
191.531
191.766
192.001
192.239
192.469
192.693
192.919
193.14
193.352
193.559
193.768
193.975
194.181
194.386
194.59
194.795
195
195.204
195.41
195.617
195.822
196.026
196.228
196.428
196.622
196.809
196.998
197.179
197.359
197.527
197.694
197.853
198.014
198.172
198.328
198.482
198.636
198.79
198.946
199.102
199.26
199.421
199.584
199.751
199.92
200.093
200.262
200.428
200.588
200.743
200.896
201.038
201.18
201.308
201.437
201.561
201.687
201.815
201.947
202.083
202.225
202.37
202.522
202.675
202.828
202.982
203.135
203.285
203.427
203.572
203.708
203.839
203.963
204.086
204.208
204.328
204.447
204.566
204.684
204.803
204.922
205.042
205.163
205.283
205.404
205.526
205.647
205.767
205.888
206.009
206.13
206.251
206.372
206.495
206.616
206.734
206.825
221.506
221.198
221.157
221.084
220.909
220.542
220.045
219.419
218.644
217.797
216.845
215.772
214.61
213.275
211.797
210.168
208.425
206.534
204.319
201.567
198.307
194.55
189.7
184.694
178.509
174.75
168.529
163.404
157.757
151.897
146.391
141.342
136.67
132.188
128.177
124.765
121.672
118.772
116.017
113.448
111.139
109.095
107.256
105.603
104.144
102.846
101.718
100.774
100.136
99.8795
100.172
100.36
112.425
127.564
139.979
149.913
155.998
159.749
162.73
165.132
166.507
167.672
168.655
169.57
170.424
170.859
172.139
172.701
172.78
173.872
173.89
174.767
174.949
175.558
175.864
176.097
176.414
176.518
176.853
176.936
177.231
177.325
177.581
177.704
177.933
178.048
178.274
178.381
178.585
178.673
178.867
178.97
179.045
179.211
179.29
179.47