/*--------------------------------*- C++ -*----------------------------------*\
| =========                 |                                                 |
| \\      /  F ield         | OpenFOAM: The Open Source CFD Toolbox           |
|  \\    /   O peration     | Version:  2312                                  |
|   \\  /    A nd           | Website:  www.openfoam.com                      |
|    \\/     M anipulation  |                                                 |
\*---------------------------------------------------------------------------*/
FoamFile
{
    version     2.0;
    format      ascii;
    arch        "LSB;label=32;scalar=64";
    class       volVectorField;
    location    "0.005";
    object      U;
}
// * * * * * * * * * * * * * * * * * * * * * * * * * * * * * * * * * * * * * //

dimensions      [0 1 -1 0 0 0 0];

internalField   nonuniform List<vector> 
48128
(
(3.23147 -1.49398 0)
(3.32454 0.232933 0)
(-2.35401 2.40152 0)
(-11.7692 2.83028 0)
(-28.0049 4.82682 0)
(-49.1675 6.59666 0)
(-71.1694 5.57104 0)
(-91.5445 4.40839 0)
(-109.944 3.09786 0)
(-125.977 1.69569 0)
(-139.194 0.60936 0)
(-150.142 0.925657 0)
(-159.692 0.900955 0)
(-167.559 1.038 0)
(-174.004 1.17634 0)
(-179.752 1.29786 0)
(-184.793 1.4496 0)
(-189.067 1.60545 0)
(-192.555 1.79631 0)
(-195.17 2.10543 0)
(-196.716 2.47993 0)
(-197.266 2.41319 0)
(-197.143 1.94246 0)
(-195.567 1.59176 0)
(-192.703 1.13455 0)
(-188.597 0.685481 0)
(-183.304 0.116393 0)
(-176.849 -0.631153 0)
(-168.758 -1.10818 0)
(-159.339 -1.6935 0)
(-149.035 -2.32403 0)
(-137.521 -3.00817 0)
(-124.97 -3.69539 0)
(-111.608 -4.24462 0)
(-97.546 -4.93307 0)
(-82.8484 -5.42366 0)
(-67.4132 -6.23977 0)
(-51.6905 -6.33758 0)
(-36.219 -6.68666 0)
(-20.9408 -6.64285 0)
(-7.02838 -6.23029 0)
(6.0741 -5.61289 0)
(17.963 -4.83591 0)
(30.2571 -4.71794 0)
(43.1956 -5.03189 0)
(56.1077 -5.02571 0)
(68.5826 -4.86662 0)
(80.5493 -4.71248 0)
(91.8465 -4.44738 0)
(102.775 -4.29317 0)
(113.171 -4.06078 0)
(123.405 -3.91103 0)
(132.858 -3.65201 0)
(142.032 -3.53722 0)
(150.444 -3.32346 0)
(158.646 -3.1735 0)
(166.492 -2.95828 0)
(174.141 -2.82005 0)
(181.728 -2.66439 0)
(188.777 -2.42442 0)
(195.895 -2.33954 0)
(202.497 -2.0953 0)
(208.419 -1.88858 0)
(214.203 -1.72991 0)
(219.409 -1.53056 0)
(224.674 -1.44911 0)
(229.604 -1.31248 0)
(234.525 -1.23133 0)
(239.175 -1.10105 0)
(243.458 -0.998109 0)
(247.586 -0.910389 0)
(251.393 -0.806933 0)
(254.944 -0.725652 0)
(258.209 -0.642788 0)
(261.327 -0.58684 0)
(264.258 -0.52908 0)
(266.937 -0.455371 0)
(269.334 -0.414556 0)
(271.797 -0.421868 0)
(274.394 -0.298528 0)
(275.58 -0.258215 0)
(277.31 -0.289196 0)
(279.33 -0.296848 0)
(281.705 -0.211764 0)
(282.629 -0.187028 0)
(284.059 -0.206699 0)
(285.761 -0.175388 0)
(287.642 -0.242734 0)
(290.064 -0.0791586 0)
(289.873 -0.0928145 0)
(290.712 -0.12717 0)
(291.988 -0.121009 0)
(293.502 -0.172582 0)
(295.531 -0.0337611 0)
(295.264 -0.041932 0)
(295.962 -0.0724587 0)
(297.016 -0.0907875 0)
(298.423 -0.0555611 0)
(298.97 -0.0498854 0)
(299.797 -0.0493846 0)
(300.793 -0.0626446 0)
(302.224 -0.00817411 0)
(302.127 -0.0125014 0)
(302.597 -0.0269112 0)
(303.305 -0.0391503 0)
(304.219 -0.019314 0)
(304.68 -0.0191474 0)
(305.279 -0.0162854 0)
(305.972 -0.018019 0)
(306.727 -0.0287964 0)
(307.557 -0.0274015 0)
(308.487 -0.0355171 0)
(309.453 -0.0174101 0)
(310.188 -0.0221176 0)
(311.064 0.0277592 0)
(311.078 0.0143668 0)
(311.223 0.0184877 0)
(311.428 0.0165023 0)
(311.664 0.00990627 0)
(311.971 0.00565012 0)
(312.387 -0.00835785 0)
(312.955 -0.0142015 0)
(313.596 -0.00739278 0)
(314.068 -0.00553344 0)
(314.399 0.00587973 0)
(314.798 0.0222522 0)
(314.359 0.0166089 0)
(314.239 0.0277802 0)
(313.949 0.0254147 0)
(313.758 0.0124892 0)
(313.552 0.0277765 0)
(313.422 0.00945623 0)
(313.438 0.00151607 0)
(313.51 -0.000573708 0)
(313.666 0.000697915 0)
(313.926 -0.00819715 0)
(314.315 -0.00573529 0)
(314.755 -0.00658993 0)
(315.139 -0.00255434 0)
(315.417 -0.00201587 0)
(315.721 0.00932311 0)
(315.828 0.0156243 0)
(315.996 0.0215864 0)
(315.983 0.030828 0)
(316.01 0.0303413 0)
(316.049 0.0300377 0)
(316.103 0.032503 0)
(316.125 0.0314879 0)
(316.173 0.0304956 0)
(316.25 0.0336874 0)
(316.319 0.0314882 0)
(316.424 0.0341969 0)
(316.501 0.0325214 0)
(316.6 0.0333493 0)
(316.71 0.0329704 0)
(316.786 0.0350612 0)
(316.863 0.0371218 0)
(316.892 0.0388987 0)
(316.922 0.0418948 0)
(316.901 0.0414112 0)
(316.877 0.0445664 0)
(316.81 0.0420297 0)
(316.734 0.0463541 0)
(316.629 0.0442598 0)
(316.518 0.043649 0)
(316.392 0.0431608 0)
(316.27 0.0405782 0)
(316.165 0.0407677 0)
(316.058 0.0363402 0)
(315.971 0.0395144 0)
(315.953 0.0326066 0)
(315.927 0.0307427 0)
(315.945 0.0292412 0)
(315.964 0.0280044 0)
(315.995 0.0271834 0)
(316.039 0.0266755 0)
(316.089 0.0265431 0)
(316.141 0.0259774 0)
(316.196 0.0265086 0)
(316.228 0.0268333 0)
(316.262 0.0283007 0)
(316.26 0.0292931 0)
(316.247 0.0304569 0)
(316.214 0.0306869 0)
(316.162 0.031957 0)
(316.084 0.0314395 0)
(315.992 0.0318035 0)
(315.88 0.03141 0)
(315.75 0.0318311 0)
(315.594 0.0310695 0)
(315.425 0.0300346 0)
(315.278 0.0274952 0)
(315.128 0.0258528 0)
(315.045 0.024522 0)
(315.047 0.0180199 0)
(315.062 0.0175518 0)
(315.116 0.017411 0)
(315.196 0.0160694 0)
(315.292 0.0153893 0)
(315.365 0.0173633 0)
(315.434 0.0168298 0)
(315.449 0.0215985 0)
(315.425 0.0227502 0)
(315.373 0.0233945 0)
(315.283 0.0245194 0)
(315.161 0.0251447 0)
(315.013 0.0254372 0)
(314.843 0.0253671 0)
(314.649 0.0250415 0)
(314.473 0.0220008 0)
(314.331 0.0210241 0)
(314.206 0.0183653 0)
(314.079 0.017063 0)
(314.089 0.0130085 0)
(314.062 0.0127118 0)
(314.032 0.0119181 0)
(314.051 0.0118218 0)
(314.049 0.0118629 0)
(314.061 0.0123067 0)
(314.061 0.0127679 0)
(314.057 0.0134852 0)
(314.044 0.0141488 0)
(314.019 0.0148387 0)
(313.983 0.0153897 0)
(313.936 0.0159411 0)
(313.879 0.0163284 0)
(313.813 0.0165472 0)
(313.741 0.0164662 0)
(313.664 0.0166324 0)
(313.584 0.0161737 0)
(313.504 0.0162854 0)
(313.421 0.0155233 0)
(313.343 0.0155899 0)
(313.26 0.0147664 0)
(313.181 0.0151011 0)
(313.096 0.014245 0)
(313.014 0.0145832 0)
(312.921 0.0143064 0)
(312.813 0.0126516 0)
(312.857 0.00983646 0)
(1.36941 -3.3112 0)
(-3.02053 3.55274 0)
(-14.1699 7.79447 0)
(-29.838 11.5848 0)
(-50.6452 15.5619 0)
(-72.0742 17.1755 0)
(-92.5272 15.3017 0)
(-111.488 13.1609 0)
(-128.738 10.9311 0)
(-143.323 9.29702 0)
(-154.596 8.66975 0)
(-163.951 7.3539 0)
(-171.89 6.49563 0)
(-177.91 5.81237 0)
(-182.356 5.28789 0)
(-185.927 4.94534 0)
(-188.693 4.63971 0)
(-190.624 4.35978 0)
(-191.73 4.10601 0)
(-192.074 3.97078 0)
(-191.471 4.04138 0)
(-189.616 3.67607 0)
(-186.294 3.11005 0)
(-181.721 2.51964 0)
(-175.763 1.99816 0)
(-168.488 1.3912 0)
(-160.011 0.758498 0)
(-150.552 -0.118428 0)
(-140.431 -0.825261 0)
(-129.312 -1.61566 0)
(-117.354 -2.55419 0)
(-104.341 -3.57102 0)
(-90.4273 -4.67722 0)
(-75.6311 -5.58003 0)
(-60.1174 -6.67066 0)
(-44.0263 -7.41616 0)
(-27.5358 -8.69078 0)
(-10.6132 -9.05599 0)
(6.00798 -9.52343 0)
(22.7895 -9.59765 0)
(38.8004 -9.18023 0)
(55.0194 -9.12274 0)
(71.1539 -8.83992 0)
(86.7166 -9.23323 0)
(100.981 -9.41052 0)
(114.403 -9.33356 0)
(127.197 -9.14786 0)
(139.348 -8.83503 0)
(150.819 -8.46693 0)
(161.895 -8.34675 0)
(172.314 -8.01333 0)
(182.549 -7.85471 0)
(191.896 -7.35877 0)
(200.938 -7.05527 0)
(209.218 -6.60924 0)
(217.25 -6.43751 0)
(224.875 -6.11459 0)
(232.252 -5.96981 0)
(239.495 -5.60652 0)
(246.232 -5.28856 0)
(252.939 -5.14004 0)
(259.275 -4.52252 0)
(264.905 -4.2795 0)
(270.415 -3.96786 0)
(275.397 -3.69578 0)
(280.371 -3.61896 0)
(285.122 -3.31567 0)
(289.715 -3.17982 0)
(294.194 -2.85001 0)
(298.283 -2.68213 0)
(302.233 -2.47227 0)
(305.938 -2.25062 0)
(309.377 -2.09781 0)
(312.614 -1.93102 0)
(315.674 -1.82136 0)
(318.564 -1.67247 0)
(321.311 -1.53453 0)
(323.72 -1.46182 0)
(326.166 -1.41057 0)
(328.917 -1.28301 0)
(330.247 -1.12267 0)
(332.045 -1.09467 0)
(334.076 -1.05254 0)
(336.551 -1.06292 0)
(337.635 -0.877098 0)
(339.163 -0.820165 0)
(340.92 -0.821788 0)
(342.776 -0.901033 0)
(345.455 -0.807342 0)
(345.534 -0.556874 0)
(346.481 -0.522168 0)
(347.841 -0.537557 0)
(349.362 -0.656494 0)
(351.646 -0.629837 0)
(351.655 -0.434325 0)
(352.433 -0.410189 0)
(353.57 -0.389072 0)
(355.04 -0.503114 0)
(355.787 -0.362991 0)
(356.763 -0.36044 0)
(357.86 -0.36963 0)
(359.446 -0.410921 0)
(359.633 -0.262876 0)
(360.273 -0.233124 0)
(361.116 -0.240404 0)
(362.141 -0.308232 0)
(362.777 -0.234904 0)
(363.536 -0.205375 0)
(364.358 -0.226831 0)
(365.228 -0.19419 0)
(366.157 -0.199833 0)
(367.18 -0.147907 0)
(368.253 -0.131469 0)
(369.141 -0.11106 0)
(370.229 -0.0413687 0)
(370.529 -0.0635338 0)
(370.937 -0.0580901 0)
(371.366 -0.0810278 0)
(371.798 -0.0995326 0)
(372.272 -0.0785748 0)
(372.815 -0.0783282 0)
(373.484 -0.0599484 0)
(374.213 -0.0404018 0)
(374.846 0.00341398 0)
(375.349 -0.0108869 0)
(376.014 0.0120386 0)
(375.824 -0.00414638 0)
(375.931 -0.0124224 0)
(375.853 -0.0235031 0)
(375.823 -0.0587588 0)
(375.823 -0.0563909 0)
(375.86 -0.0699236 0)
(375.958 -0.0779361 0)
(376.129 -0.0619016 0)
(376.384 -0.0417732 0)
(376.722 -0.0324468 0)
(377.172 -0.0403433 0)
(377.667 -0.0159174 0)
(378.16 0.000841608 0)
(378.55 0.0133619 0)
(378.979 0.00441794 0)
(379.233 0.0239523 0)
(379.548 0.0254785 0)
(379.709 0.0296634 0)
(379.905 0.0244058 0)
(380.112 0.0277306 0)
(380.334 0.02649 0)
(380.526 0.0292217 0)
(380.735 0.0325462 0)
(380.966 0.0328205 0)
(381.186 0.0299482 0)
(381.436 0.0366422 0)
(381.657 0.036966 0)
(381.893 0.0408481 0)
(382.141 0.041965 0)
(382.352 0.0465394 0)
(382.568 0.0456741 0)
(382.737 0.0502978 0)
(382.92 0.049562 0)
(383.038 0.0518386 0)
(383.175 0.0550558 0)
(383.246 0.0489889 0)
(383.327 0.054794 0)
(383.364 0.047413 0)
(383.407 0.0512441 0)
(383.424 0.0456749 0)
(383.446 0.045434 0)
(383.472 0.0434511 0)
(383.501 0.0422837 0)
(383.543 0.0431807 0)
(383.614 0.0346166 0)
(383.69 0.0369967 0)
(383.79 0.0360482 0)
(383.892 0.037147 0)
(384.002 0.0377225 0)
(384.118 0.0391541 0)
(384.24 0.0398239 0)
(384.358 0.0406109 0)
(384.481 0.0416424 0)
(384.581 0.0433965 0)
(384.686 0.043356 0)
(384.755 0.0462589 0)
(384.826 0.045707 0)
(384.863 0.0450579 0)
(384.899 0.0450967 0)
(384.895 0.04427 0)
(384.884 0.0440121 0)
(384.855 0.0426206 0)
(384.808 0.0419778 0)
(384.738 0.0390415 0)
(384.658 0.0356119 0)
(384.585 0.0347304 0)
(384.507 0.0295521 0)
(384.488 0.0335621 0)
(384.517 0.0203316 0)
(384.559 0.0254369 0)
(384.629 0.0285422 0)
(384.719 0.0293686 0)
(384.823 0.0302818 0)
(384.913 0.0340286 0)
(384.991 0.0341329 0)
(385.049 0.0396774 0)
(385.057 0.039851 0)
(385.043 0.0387877 0)
(385.001 0.0388357 0)
(384.934 0.0377421 0)
(384.844 0.0360521 0)
(384.734 0.0355768 0)
(384.604 0.0297204 0)
(384.484 0.0306734 0)
(384.377 0.0270993 0)
(384.291 0.0237539 0)
(384.185 0.0291784 0)
(384.199 0.0179052 0)
(384.18 0.0207842 0)
(384.154 0.0224881 0)
(384.169 0.0220019 0)
(384.166 0.0238198 0)
(384.176 0.0241076 0)
(384.176 0.0259088 0)
(384.174 0.0263943 0)
(384.166 0.0269422 0)
(384.15 0.0275625 0)
(384.125 0.0276834 0)
(384.091 0.0282069 0)
(384.049 0.0280825 0)
(384 0.0280069 0)
(383.945 0.0277115 0)
(383.886 0.0277826 0)
(383.822 0.0269229 0)
(383.757 0.0270247 0)
(383.69 0.0259331 0)
(383.624 0.0261055 0)
(383.555 0.0249138 0)
(383.485 0.025383 0)
(383.411 0.0239167 0)
(383.336 0.0248344 0)
(383.255 0.0234314 0)
(383.143 0.0240716 0)
(383.182 0.0150654 0)
(-3.542 -1.11267 0)
(-10.4116 8.73784 0)
(-24.6985 16.5951 0)
(-43.4881 23.6206 0)
(-63.6895 28.8527 0)
(-83.2484 29.0458 0)
(-101 26.03 0)
(-116.938 22.5468 0)
(-130.801 19.1876 0)
(-142.278 16.2574 0)
(-152.016 14.2481 0)
(-159.669 11.8355 0)
(-165.817 10.0564 0)
(-170.19 8.72695 0)
(-173.044 7.64209 0)
(-175.161 6.91627 0)
(-176.452 6.36799 0)
(-176.956 5.97243 0)
(-176.67 5.45746 0)
(-175.282 4.94354 0)
(-172.762 4.02403 0)
(-168.97 3.2237 0)
(-163.927 2.24402 0)
(-157.765 1.20998 0)
(-150.358 0.179179 0)
(-141.753 -0.973645 0)
(-132.117 -2.10062 0)
(-121.498 -3.39165 0)
(-109.797 -4.66104 0)
(-96.9387 -6.00111 0)
(-83.1454 -7.59819 0)
(-68.2831 -9.20257 0)
(-52.5269 -11.0458 0)
(-35.8748 -12.4274 0)
(-18.4737 -14.2605 0)
(-0.53959 -15.3833 0)
(17.5734 -17.1914 0)
(35.9072 -17.7268 0)
(53.7484 -18.5915 0)
(71.6059 -18.8558 0)
(88.7462 -18.3992 0)
(105.899 -18.6703 0)
(122.594 -18.5487 0)
(138.335 -18.6386 0)
(152.848 -18.3111 0)
(166.321 -17.8716 0)
(179.074 -17.4179 0)
(191.017 -16.7716 0)
(202.267 -16.0944 0)
(213.14 -15.7227 0)
(223.189 -15.0434 0)
(233.074 -14.6221 0)
(241.862 -13.7163 0)
(250.289 -13.0714 0)
(257.805 -12.2671 0)
(265.13 -11.8362 0)
(271.947 -11.2086 0)
(278.569 -10.8319 0)
(284.937 -10.1923 0)
(290.812 -9.59314 0)
(296.643 -9.25058 0)
(302.133 -8.3216 0)
(306.888 -7.83346 0)
(311.582 -7.29496 0)
(315.793 -6.78594 0)
(320.038 -6.56988 0)
(324.092 -6.0671 0)
(327.96 -5.78602 0)
(331.774 -5.2778 0)
(335.177 -4.96051 0)
(338.511 -4.61102 0)
(341.613 -4.24602 0)
(344.499 -3.97826 0)
(347.232 -3.6925 0)
(349.815 -3.48251 0)
(352.269 -3.23057 0)
(354.58 -3.02583 0)
(356.627 -2.86192 0)
(358.709 -2.69833 0)
(361.101 -2.63387 0)
(362.208 -2.37124 0)
(363.739 -2.23761 0)
(365.481 -2.09351 0)
(367.626 -2.16014 0)
(368.56 -1.89948 0)
(369.875 -1.76095 0)
(371.396 -1.69707 0)
(373.029 -1.72367 0)
(375.414 -1.79564 0)
(375.444 -1.44585 0)
(376.264 -1.2831 0)
(377.453 -1.21453 0)
(378.806 -1.29847 0)
(380.844 -1.40819 0)
(380.868 -1.12374 0)
(381.564 -1.00042 0)
(382.579 -0.902179 0)
(383.866 -1.06519 0)
(384.566 -0.898066 0)
(385.451 -0.855607 0)
(386.452 -0.821903 0)
(387.89 -0.946741 0)
(388.08 -0.73105 0)
(388.667 -0.655592 0)
(389.439 -0.608572 0)
(390.367 -0.699352 0)
(390.976 -0.60524 0)
(391.684 -0.556813 0)
(392.453 -0.555419 0)
(393.266 -0.504607 0)
(394.13 -0.482787 0)
(395.079 -0.404527 0)
(396.062 -0.37311 0)
(396.893 -0.329545 0)
(397.905 -0.294586 0)
(398.217 -0.280463 0)
(398.631 -0.266935 0)
(399.072 -0.286632 0)
(399.523 -0.307402 0)
(400.01 -0.282564 0)
(400.552 -0.23679 0)
(401.2 -0.200829 0)
(401.895 -0.169494 0)
(402.519 -0.121718 0)
(403.015 -0.119794 0)
(403.705 -0.158084 0)
(403.582 -0.151341 0)
(403.731 -0.161415 0)
(403.704 -0.174236 0)
(403.733 -0.204473 0)
(403.784 -0.212437 0)
(403.872 -0.223136 0)
(404.011 -0.222113 0)
(404.207 -0.199005 0)
(404.471 -0.163724 0)
(404.803 -0.115444 0)
(405.231 -0.120259 0)
(405.704 -0.0853851 0)
(406.168 -0.0612489 0)
(406.556 -0.0390936 0)
(406.975 -0.0534081 0)
(407.256 -0.0326754 0)
(407.589 -0.0284755 0)
(407.789 -0.0318892 0)
(408.014 -0.0303781 0)
(408.249 -0.024048 0)
(408.495 -0.0224339 0)
(408.716 -0.0196483 0)
(408.947 -0.00326718 0)
(409.199 -0.00834473 0)
(409.439 -0.00310741 0)
(409.707 0.0038302 0)
(409.946 0.00916898 0)
(410.2 0.0177071 0)
(410.464 0.0209012 0)
(410.696 0.0293203 0)
(410.933 0.0291156 0)
(411.129 0.0363352 0)
(411.338 0.0354477 0)
(411.489 0.0390372 0)
(411.658 0.0422722 0)
(411.765 0.036463 0)
(411.883 0.0420831 0)
(411.957 0.0334691 0)
(412.038 0.036984 0)
(412.092 0.0310012 0)
(412.15 0.0312855 0)
(412.209 0.0321952 0)
(412.27 0.0288793 0)
(412.34 0.0346694 0)
(412.432 0.0299452 0)
(412.528 0.0304205 0)
(412.643 0.0367804 0)
(412.758 0.0372105 0)
(412.88 0.0403003 0)
(413.008 0.0435286 0)
(413.14 0.0457647 0)
(413.269 0.0486069 0)
(413.403 0.0497852 0)
(413.516 0.0533778 0)
(413.634 0.053067 0)
(413.72 0.0571702 0)
(413.81 0.0560391 0)
(413.866 0.0560624 0)
(413.924 0.0549272 0)
(413.945 0.054815 0)
(413.958 0.0533741 0)
(413.95 0.0510113 0)
(413.928 0.0506125 0)
(413.885 0.0435352 0)
(413.834 0.0397529 0)
(413.784 0.0382376 0)
(413.726 0.0357456 0)
(413.726 0.040591 0)
(413.753 0.0331546 0)
(413.796 0.0388448 0)
(413.863 0.0455822 0)
(413.948 0.0485761 0)
(414.045 0.0497818 0)
(414.134 0.0552085 0)
(414.21 0.0552376 0)
(414.272 0.0601264 0)
(414.296 0.0605153 0)
(414.291 0.0577968 0)
(414.265 0.0555542 0)
(414.216 0.0524633 0)
(414.146 0.0497262 0)
(414.058 0.0480162 0)
(413.952 0.0392516 0)
(413.85 0.0420437 0)
(413.756 0.0404447 0)
(413.678 0.0349627 0)
(413.581 0.044135 0)
(413.585 0.0316098 0)
(413.565 0.0358336 0)
(413.535 0.039548 0)
(413.543 0.0392048 0)
(413.536 0.0422564 0)
(413.541 0.0430421 0)
(413.539 0.0457817 0)
(413.534 0.0466147 0)
(413.524 0.0470089 0)
(413.507 0.0474719 0)
(413.483 0.047328 0)
(413.452 0.0478683 0)
(413.413 0.0474146 0)
(413.368 0.0472999 0)
(413.317 0.0466926 0)
(413.261 0.0469673 0)
(413.202 0.045624 0)
(413.141 0.0459902 0)
(413.077 0.0443287 0)
(413.013 0.0449476 0)
(412.947 0.0429196 0)
(412.879 0.0440388 0)
(412.808 0.0414369 0)
(412.736 0.043466 0)
(412.657 0.0402613 0)
(412.545 0.0442408 0)
(412.57 0.029189 0)
(-5.45603 3.47802 0)
(-16.4805 16.6271 0)
(-33.9562 26.6507 0)
(-52.3107 35.4054 0)
(-70.799 39.2922 0)
(-87.5716 38.6912 0)
(-102.211 34.8275 0)
(-114.92 30.2622 0)
(-126.239 25.3674 0)
(-135.654 20.6153 0)
(-143.23 16.6322 0)
(-149.008 13.7273 0)
(-153.389 11.5019 0)
(-156.249 9.86337 0)
(-157.733 8.51817 0)
(-158.717 7.6138 0)
(-158.989 6.85251 0)
(-158.484 6.13685 0)
(-157.116 5.47874 0)
(-154.722 4.77643 0)
(-151.228 3.93757 0)
(-146.567 2.88232 0)
(-140.678 1.5943 0)
(-133.57 0.199244 0)
(-125.105 -1.28479 0)
(-115.289 -2.96144 0)
(-104.198 -4.6042 0)
(-91.964 -6.53738 0)
(-78.4594 -8.59494 0)
(-63.6249 -10.6414 0)
(-47.7209 -13.1129 0)
(-30.5964 -15.2596 0)
(-12.6588 -18.1439 0)
(6.3894 -19.9555 0)
(26.0815 -22.7101 0)
(46.2846 -24.3027 0)
(66.3351 -26.8973 0)
(86.393 -27.3723 0)
(105.67 -28.6909 0)
(124.788 -29.0014 0)
(143.037 -28.2668 0)
(160.793 -28.7877 0)
(177.849 -28.351 0)
(193.561 -27.9634 0)
(208.131 -27.023 0)
(221.313 -26.2766 0)
(233.889 -25.4204 0)
(245.348 -24.3982 0)
(256.288 -23.3694 0)
(266.69 -22.6155 0)
(276.103 -21.5275 0)
(285.366 -20.7162 0)
(293.313 -19.2812 0)
(300.873 -18.213 0)
(307.341 -17.0684 0)
(313.757 -16.3846 0)
(319.494 -15.4276 0)
(325.149 -14.8035 0)
(330.418 -13.8085 0)
(335.226 -12.9916 0)
(339.995 -12.3693 0)
(344.462 -11.0958 0)
(348.141 -10.5083 0)
(351.819 -9.71773 0)
(355.075 -9.08013 0)
(358.409 -8.7218 0)
(361.556 -7.99856 0)
(364.552 -7.60104 0)
(367.509 -6.90639 0)
(370.063 -6.52073 0)
(372.622 -6.03704 0)
(374.954 -5.58872 0)
(377.146 -5.26001 0)
(379.22 -4.89787 0)
(381.174 -4.62519 0)
(383.037 -4.30703 0)
(384.763 -4.08537 0)
(386.287 -3.84174 0)
(387.859 -3.65699 0)
(389.749 -3.64579 0)
(390.493 -3.2813 0)
(391.618 -3.02592 0)
(392.949 -2.84593 0)
(394.633 -2.97937 0)
(395.306 -2.65028 0)
(396.294 -2.41758 0)
(397.465 -2.32121 0)
(398.754 -2.35525 0)
(400.665 -2.45565 0)
(400.621 -2.0656 0)
(401.231 -1.7582 0)
(402.141 -1.6992 0)
(403.214 -1.76893 0)
(404.859 -1.95098 0)
(404.847 -1.64301 0)
(405.381 -1.40041 0)
(406.181 -1.29959 0)
(407.196 -1.46888 0)
(407.772 -1.31116 0)
(408.483 -1.23244 0)
(409.301 -1.20422 0)
(410.51 -1.37696 0)
(410.605 -1.10781 0)
(411.065 -0.962717 0)
(411.691 -0.903593 0)
(412.442 -1.01303 0)
(412.959 -0.908498 0)
(413.548 -0.83363 0)
(414.195 -0.812492 0)
(414.882 -0.737712 0)
(415.618 -0.664604 0)
(416.429 -0.564122 0)
(417.264 -0.539556 0)
(417.976 -0.498261 0)
(418.855 -0.529204 0)
(419.096 -0.471422 0)
(419.437 -0.46697 0)
(419.812 -0.497227 0)
(420.212 -0.512229 0)
(420.644 -0.45691 0)
(421.123 -0.370757 0)
(421.696 -0.292385 0)
(422.307 -0.257884 0)
(422.865 -0.238176 0)
(423.298 -0.231179 0)
(423.903 -0.316891 0)
(423.794 -0.284002 0)
(423.92 -0.314053 0)
(423.897 -0.340824 0)
(423.93 -0.376054 0)
(423.984 -0.390222 0)
(424.068 -0.383572 0)
(424.196 -0.362157 0)
(424.375 -0.321245 0)
(424.611 -0.264164 0)
(424.905 -0.186924 0)
(425.281 -0.173331 0)
(425.706 -0.127922 0)
(426.111 -0.110495 0)
(426.454 -0.0869609 0)
(426.822 -0.108806 0)
(427.075 -0.0956324 0)
(427.373 -0.0963462 0)
(427.552 -0.0893009 0)
(427.755 -0.0823931 0)
(427.968 -0.0773886 0)
(428.189 -0.070338 0)
(428.396 -0.0659729 0)
(428.606 -0.0343248 0)
(428.834 -0.0435731 0)
(429.058 -0.0309889 0)
(429.308 -0.023977 0)
(429.53 -0.00931278 0)
(429.764 0.00193219 0)
(430.008 0.00756081 0)
(430.224 0.0167357 0)
(430.445 0.0161368 0)
(430.631 0.0231624 0)
(430.827 0.0218689 0)
(430.973 0.0249866 0)
(431.135 0.0282213 0)
(431.24 0.0198741 0)
(431.359 0.0225676 0)
(431.432 0.0148103 0)
(431.516 0.0165983 0)
(431.573 0.0124693 0)
(431.633 0.0144125 0)
(431.694 0.0152276 0)
(431.757 0.0133435 0)
(431.826 0.0292166 0)
(431.913 0.0225992 0)
(432.005 0.0251592 0)
(432.116 0.0313365 0)
(432.224 0.0363535 0)
(432.339 0.0434435 0)
(432.46 0.0493053 0)
(432.585 0.0534579 0)
(432.706 0.0579314 0)
(432.833 0.0594378 0)
(432.94 0.0641675 0)
(433.053 0.0631204 0)
(433.136 0.0678953 0)
(433.223 0.0653631 0)
(433.28 0.064809 0)
(433.338 0.0618504 0)
(433.362 0.061654 0)
(433.381 0.0598759 0)
(433.376 0.0560979 0)
(433.359 0.0539353 0)
(433.323 0.0423108 0)
(433.281 0.0395473 0)
(433.237 0.0370951 0)
(433.187 0.0381614 0)
(433.186 0.0459157 0)
(433.209 0.0428857 0)
(433.248 0.0512576 0)
(433.307 0.062719 0)
(433.382 0.0690058 0)
(433.469 0.0717195 0)
(433.55 0.0775106 0)
(433.618 0.0776282 0)
(433.674 0.081098 0)
(433.697 0.080071 0)
(433.692 0.0760534 0)
(433.669 0.0709061 0)
(433.625 0.065285 0)
(433.561 0.0607085 0)
(433.48 0.05558 0)
(433.383 0.0464449 0)
(433.287 0.0498048 0)
(433.198 0.0505674 0)
(433.121 0.043025 0)
(433.028 0.0596215 0)
(433.023 0.0464812 0)
(433 0.0507176 0)
(432.963 0.0568833 0)
(432.964 0.0569678 0)
(432.952 0.0612377 0)
(432.949 0.0630426 0)
(432.941 0.0662846 0)
(432.931 0.0673778 0)
(432.915 0.0676404 0)
(432.893 0.0678265 0)
(432.865 0.0673369 0)
(432.83 0.0676292 0)
(432.789 0.0667255 0)
(432.742 0.0664809 0)
(432.689 0.0654594 0)
(432.633 0.065823 0)
(432.572 0.0640363 0)
(432.51 0.0646618 0)
(432.445 0.0624965 0)
(432.379 0.0635834 0)
(432.311 0.0607974 0)
(432.242 0.0624622 0)
(432.17 0.0588112 0)
(432.096 0.061808 0)
(432.016 0.056942 0)
(431.904 0.0639399 0)
(431.916 0.0445944 0)
(-6.38949 10.6503 0)
(-21.4097 26.2774 0)
(-39.7465 37.784 0)
(-56.8767 45.795 0)
(-73.0455 48.8073 0)
(-87.1733 46.878 0)
(-98.8367 41.6486 0)
(-108.924 35.1333 0)
(-118.013 29.0897 0)
(-125.483 23.9632 0)
(-131.186 19.5711 0)
(-135.349 15.8917 0)
(-138.394 13.108 0)
(-140.185 11.0752 0)
(-140.719 9.42168 0)
(-140.964 8.22913 0)
(-140.375 7.21399 0)
(-139.091 6.29291 0)
(-136.908 5.33642 0)
(-133.729 4.23516 0)
(-129.44 2.88177 0)
(-123.897 1.34492 0)
(-116.991 -0.436948 0)
(-108.686 -2.42994 0)
(-98.8533 -4.5723 0)
(-87.4906 -6.98547 0)
(-74.612 -9.28776 0)
(-60.387 -11.9241 0)
(-44.7735 -14.8879 0)
(-27.5459 -17.5892 0)
(-9.16499 -21.1114 0)
(10.9842 -23.8696 0)
(31.815 -27.8014 0)
(53.9885 -30.3475 0)
(76.8098 -34.0828 0)
(100.111 -35.8333 0)
(122.67 -39.0418 0)
(145.061 -39.2276 0)
(166.046 -40.6812 0)
(186.63 -40.9164 0)
(206.537 -39.9323 0)
(224.487 -40.071 0)
(242.201 -39.3452 0)
(257.409 -38.2618 0)
(272.085 -36.808 0)
(284.451 -35.3832 0)
(296.802 -34.2154 0)
(307.408 -32.5765 0)
(318.07 -31.3928 0)
(327.519 -30.0516 0)
(336.025 -28.4989 0)
(344.223 -27.1897 0)
(350.955 -25.1794 0)
(357.196 -23.6512 0)
(362.059 -21.9648 0)
(367.139 -21.0063 0)
(371.289 -19.6046 0)
(375.582 -18.6847 0)
(379.33 -17.3159 0)
(382.708 -16.2039 0)
(386.106 -15.3122 0)
(389.22 -13.7151 0)
(391.487 -12.9294 0)
(393.812 -11.9462 0)
(395.85 -11.1428 0)
(398.074 -10.6987 0)
(400.134 -9.76951 0)
(402.109 -9.25214 0)
(404.041 -8.38208 0)
(405.642 -7.92531 0)
(407.278 -7.30226 0)
(408.723 -6.7847 0)
(410.127 -6.38284 0)
(411.422 -5.93247 0)
(412.623 -5.60035 0)
(413.77 -5.20211 0)
(414.815 -4.98646 0)
(415.713 -4.67495 0)
(416.69 -4.44952 0)
(417.962 -4.52261 0)
(418.27 -4.10107 0)
(418.916 -3.76397 0)
(419.759 -3.52534 0)
(420.893 -3.65388 0)
(421.237 -3.31645 0)
(421.825 -3.02621 0)
(422.57 -2.87651 0)
(423.431 -2.86917 0)
(424.739 -3.04496 0)
(424.606 -2.66734 0)
(424.941 -2.27924 0)
(425.505 -2.16015 0)
(426.219 -2.21707 0)
(427.359 -2.44158 0)
(427.282 -2.1357 0)
(427.598 -1.83008 0)
(428.12 -1.69149 0)
(428.801 -1.80884 0)
(429.186 -1.67844 0)
(429.661 -1.58336 0)
(430.231 -1.54154 0)
(431.111 -1.68059 0)
(431.11 -1.47455 0)
(431.393 -1.28483 0)
(431.816 -1.19741 0)
(432.336 -1.2682 0)
(432.706 -1.1803 0)
(433.121 -1.0902 0)
(433.595 -1.04878 0)
(434.107 -0.950805 0)
(434.666 -0.841328 0)
(435.287 -0.702765 0)
(435.925 -0.677073 0)
(436.475 -0.633862 0)
(437.172 -0.700926 0)
(437.301 -0.644416 0)
(437.522 -0.647511 0)
(437.787 -0.688885 0)
(438.09 -0.70013 0)
(438.426 -0.627559 0)
(438.794 -0.498693 0)
(439.245 -0.386605 0)
(439.729 -0.33524 0)
(440.175 -0.344454 0)
(440.512 -0.336813 0)
(440.96 -0.47982 0)
(440.832 -0.439029 0)
(440.895 -0.486856 0)
(440.842 -0.523331 0)
(440.847 -0.572267 0)
(440.863 -0.573369 0)
(440.904 -0.557585 0)
(440.985 -0.516438 0)
(441.116 -0.456889 0)
(441.296 -0.377587 0)
(441.524 -0.269364 0)
(441.824 -0.224828 0)
(442.177 -0.170309 0)
(442.502 -0.156885 0)
(442.777 -0.135182 0)
(443.072 -0.156311 0)
(443.273 -0.151633 0)
(443.511 -0.165594 0)
(443.644 -0.150462 0)
(443.8 -0.140878 0)
(443.967 -0.135589 0)
(444.139 -0.123872 0)
(444.308 -0.11777 0)
(444.474 -0.0817767 0)
(444.656 -0.0817163 0)
(444.839 -0.0635179 0)
(445.047 -0.0579745 0)
(445.23 -0.0351757 0)
(445.424 -0.0198659 0)
(445.629 -0.0120788 0)
(445.81 0.00143035 0)
(445.995 -0.0013299 0)
(446.149 0.00784927 0)
(446.313 0.00309136 0)
(446.434 0.00630093 0)
(446.568 0.0060435 0)
(446.652 -0.00265303 0)
(446.75 -0.00479358 0)
(446.805 -0.0101028 0)
(446.872 -0.0118401 0)
(446.913 -0.0137835 0)
(446.958 -0.00946663 0)
(447.003 -0.00764787 0)
(447.052 -0.00814664 0)
(447.101 0.0123832 0)
(447.169 0.0131983 0)
(447.243 0.0191849 0)
(447.336 0.0228243 0)
(447.426 0.0326136 0)
(447.522 0.0429815 0)
(447.623 0.0513378 0)
(447.728 0.0575808 0)
(447.831 0.0642142 0)
(447.938 0.0662082 0)
(448.028 0.071648 0)
(448.123 0.0707048 0)
(448.192 0.0745401 0)
(448.263 0.0720298 0)
(448.308 0.0707448 0)
(448.354 0.066682 0)
(448.369 0.0653281 0)
(448.377 0.0623234 0)
(448.368 0.0567248 0)
(448.346 0.0518169 0)
(448.305 0.0387716 0)
(448.26 0.0369785 0)
(448.213 0.0325605 0)
(448.162 0.0389773 0)
(448.147 0.047544 0)
(448.161 0.0515889 0)
(448.191 0.0638617 0)
(448.237 0.0796961 0)
(448.297 0.0891701 0)
(448.369 0.0933798 0)
(448.434 0.0994842 0)
(448.49 0.0994527 0)
(448.533 0.101639 0)
(448.542 0.098392 0)
(448.533 0.0921762 0)
(448.505 0.0836844 0)
(448.457 0.0753635 0)
(448.392 0.068884 0)
(448.31 0.0597846 0)
(448.213 0.0510361 0)
(448.117 0.0567737 0)
(448.026 0.0576797 0)
(447.945 0.0512067 0)
(447.852 0.0715321 0)
(447.835 0.0633229 0)
(447.803 0.0659056 0)
(447.759 0.0747359 0)
(447.749 0.0753958 0)
(447.729 0.0809753 0)
(447.715 0.0835863 0)
(447.698 0.0873012 0)
(447.678 0.0887703 0)
(447.653 0.0887404 0)
(447.623 0.0885621 0)
(447.588 0.0876789 0)
(447.546 0.0876523 0)
(447.498 0.0862736 0)
(447.445 0.0859267 0)
(447.386 0.0845085 0)
(447.324 0.0849722 0)
(447.259 0.0828147 0)
(447.191 0.0836927 0)
(447.121 0.0810365 0)
(447.051 0.0825964 0)
(446.978 0.0790844 0)
(446.905 0.0813214 0)
(446.828 0.0766155 0)
(446.75 0.0806502 0)
(446.667 0.0738575 0)
(446.552 0.0841923 0)
(446.55 0.0617678 0)
(-9.1402 19.382 0)
(-24.1204 36.8479 0)
(-42.531 47.7641 0)
(-57.8026 55.1305 0)
(-71.7162 56.8112 0)
(-83.3608 53.2346 0)
(-92.6339 46.4219 0)
(-100.847 39.3804 0)
(-107.879 32.5505 0)
(-113.447 26.4418 0)
(-117.609 21.3126 0)
(-120.622 17.1774 0)
(-122.698 14.0251 0)
(-123.657 11.6515 0)
(-123.432 9.73328 0)
(-122.908 8.19541 0)
(-121.52 7.00763 0)
(-119.452 5.81887 0)
(-116.428 4.53113 0)
(-112.354 3.03641 0)
(-107.081 1.21912 0)
(-100.389 -0.894315 0)
(-92.1795 -3.29454 0)
(-82.3829 -6.01042 0)
(-70.8465 -8.92183 0)
(-57.5754 -12.2457 0)
(-42.5191 -15.3598 0)
(-25.7755 -18.8591 0)
(-7.46693 -23.0813 0)
(13.2168 -26.6093 0)
(35.0313 -31.444 0)
(58.9815 -35.07 0)
(83.8955 -40.2471 0)
(110.382 -43.469 0)
(137.255 -48.4325 0)
(164.668 -50.1793 0)
(190.172 -53.8093 0)
(215.566 -53.4627 0)
(238.365 -55.0263 0)
(260.207 -54.7395 0)
(282.581 -53.7094 0)
(299.832 -52.7286 0)
(318.266 -51.6628 0)
(332.41 -49.4222 0)
(347.317 -47.6726 0)
(358.44 -45.2358 0)
(370.221 -43.7608 0)
(379.42 -41.2061 0)
(388.905 -39.9027 0)
(396.549 -37.6803 0)
(403.74 -35.5245 0)
(409.993 -33.503 0)
(415.273 -30.7616 0)
(419.481 -28.7777 0)
(422.543 -26.4959 0)
(425.756 -25.2485 0)
(428.243 -23.3047 0)
(430.794 -22.067 0)
(432.94 -20.2625 0)
(434.645 -18.8911 0)
(436.382 -17.6147 0)
(438.017 -15.7775 0)
(438.476 -14.8069 0)
(439.386 -13.6636 0)
(439.767 -12.7128 0)
(440.606 -12.1172 0)
(441.374 -11.0319 0)
(441.904 -10.3409 0)
(442.639 -9.37532 0)
(442.918 -8.79407 0)
(443.491 -8.11003 0)
(443.763 -7.53714 0)
(444.157 -7.10726 0)
(444.526 -6.60809 0)
(444.852 -6.23053 0)
(445.185 -5.81045 0)
(445.478 -5.59792 0)
(445.688 -5.2715 0)
(446.01 -5.06707 0)
(446.558 -5.01774 0)
(446.468 -4.72396 0)
(446.579 -4.29002 0)
(446.873 -4.04637 0)
(447.387 -4.04594 0)
(447.381 -3.81872 0)
(447.508 -3.46783 0)
(447.771 -3.27386 0)
(448.136 -3.24453 0)
(448.764 -3.41416 0)
(448.549 -3.13295 0)
(448.531 -2.69127 0)
(448.707 -2.5129 0)
(449.015 -2.50881 0)
(449.583 -2.72848 0)
(449.443 -2.51049 0)
(449.483 -2.19673 0)
(449.686 -1.99159 0)
(449.991 -2.0348 0)
(450.146 -1.94212 0)
(450.344 -1.85609 0)
(450.624 -1.79678 0)
(451.083 -1.94053 0)
(451.007 -1.74695 0)
(451.087 -1.54662 0)
(451.267 -1.41724 0)
(451.504 -1.4535 0)
(451.69 -1.39448 0)
(451.888 -1.28821 0)
(452.154 -1.21882 0)
(452.451 -1.08661 0)
(452.797 -0.931066 0)
(453.194 -0.767448 0)
(453.596 -0.749253 0)
(453.951 -0.716379 0)
(454.416 -0.825034 0)
(454.419 -0.80184 0)
(454.494 -0.814516 0)
(454.623 -0.859176 0)
(454.803 -0.853941 0)
(455.01 -0.75386 0)
(455.232 -0.584808 0)
(455.531 -0.439706 0)
(455.853 -0.376427 0)
(456.148 -0.411785 0)
(456.36 -0.429346 0)
(456.609 -0.59665 0)
(456.447 -0.584622 0)
(456.426 -0.668554 0)
(456.316 -0.715514 0)
(456.253 -0.758466 0)
(456.194 -0.752422 0)
(456.162 -0.719797 0)
(456.178 -0.658764 0)
(456.235 -0.577701 0)
(456.334 -0.47232 0)
(456.471 -0.333606 0)
(456.669 -0.254856 0)
(456.926 -0.192886 0)
(457.149 -0.185895 0)
(457.336 -0.164536 0)
(457.538 -0.194988 0)
(457.666 -0.194054 0)
(457.825 -0.216561 0)
(457.894 -0.204103 0)
(457.985 -0.189015 0)
(458.087 -0.186265 0)
(458.193 -0.167905 0)
(458.304 -0.165134 0)
(458.405 -0.122105 0)
(458.524 -0.109964 0)
(458.647 -0.0889664 0)