/*--------------------------------*- C++ -*----------------------------------*\
| =========                 |                                                 |
| \\      /  F ield         | OpenFOAM: The Open Source CFD Toolbox           |
|  \\    /   O peration     | Version:  2312                                  |
|   \\  /    A nd           | Website:  www.openfoam.com                      |
|    \\/     M anipulation  |                                                 |
\*---------------------------------------------------------------------------*/
FoamFile
{
    version     2.0;
    format      ascii;
    arch        "LSB;label=32;scalar=64";
    class       volScalarField;
    location    "0.25";
    object      cSound;
}
// * * * * * * * * * * * * * * * * * * * * * * * * * * * * * * * * * * * * * //

dimensions      [0 1 -1 0 0 0 0];

internalField   nonuniform List<scalar> 
800
(
1.18322
1.18322
1.18322
1.18322
1.18322
1.18322
1.18322
1.18322
1.18322
1.18322
1.18322
1.18322
1.18322
1.18322
1.18322
1.18322
1.18322
1.18322
1.18322
1.18322
1.18322
1.18322
1.18322
1.18322
1.18322
1.18322
1.18322
1.18322
1.18322
1.18322
1.18322
1.18322
1.18322
1.18322
1.18322
1.18322
1.18322
1.18322
1.18322
1.18322
1.18322
1.18322
1.18322
1.18322
1.18322
1.18322
1.18322
1.18322
1.18322
1.18322
1.18322
1.18322
1.18322
1.18322
1.18322
1.18322
1.18322
1.18322
1.18322
1.18322
1.18322
1.18322
1.18322
1.18322
1.18322
1.18322
1.18322
1.18322
1.18322
1.18322
1.18322
1.18322
1.18322
1.18322
1.18322
1.18322
1.18322
1.18322
1.18322
1.18322
1.18322
1.18322
1.18322
1.18322
1.18322
1.18322
1.18322
1.18322
1.18322
1.18322
1.18322
1.18322
1.18322
1.18322
1.18322
1.18322
1.18322
1.18322
1.18322
1.18322
1.18322
1.18322
1.18322
1.18322
1.18322
1.18322
1.18322
1.18322
1.18322
1.18322
1.18322
1.18322
1.18322
1.18322
1.18322
1.18322
1.18322
1.18322
1.18322
1.18322
1.18322
1.18322
1.18322
1.18322
1.18322
1.18322
1.18322
1.18322
1.18322
1.18322
1.18322
1.18322
1.18322
1.18322
1.18322
1.18322
1.18322
1.18322
1.18322
1.18322
1.18322
1.18322
1.18322
1.18321
1.1832
1.18318
1.18314
1.1831
1.18303
1.18294
1.18282
1.18266
1.18247
1.18224
1.18197
1.18166
1.18131
1.18092
1.18049
1.18004
1.17955
1.17903
1.17849
1.17792
1.17733
1.17673
1.17611
1.17547
1.17482
1.17416
1.17349
1.17281
1.17212
1.17143
1.17073
1.17002
1.16931
1.1686
1.16788
1.16716
1.16643
1.16571
1.16498
1.16425
1.16352
1.16279
1.16206
1.16134
1.16061
1.15988
1.15916
1.15843
1.1577
1.15696
1.15621
1.15546
1.15471
1.15395
1.15319
1.15242
1.15165
1.15088
1.15011
1.14933
1.14855
1.14776
1.14698
1.14619
1.1454
1.14461
1.14381
1.14302
1.14222
1.14142
1.14062
1.13982
1.13902
1.13822
1.13741
1.13661
1.1358
1.13499
1.13418
1.13338
1.13256
1.13175
1.13094
1.13013
1.12932
1.1285
1.12769
1.12687
1.12606
1.12524
1.12442
1.1236
1.12279
1.12197
1.12115
1.12033
1.11951
1.11869
1.11787
1.11705
1.11622
1.1154
1.11458
1.11376
1.11293
1.11211
1.11128
1.11046
1.10964
1.10881
1.10799
1.10716
1.10634
1.10551
1.10468
1.10386
1.10303
1.1022
1.10138
1.10055
1.09972
1.09889
1.09807
1.09724
1.09641
1.09558
1.09475
1.09393
1.0931
1.09227
1.09144
1.09061
1.08978
1.08895
1.08812
1.08729
1.08646
1.08563
1.0848
1.08397
1.08314
1.08231
1.08148
1.08065
1.07982
1.07899
1.07816
1.07733
1.0765
1.07567
1.07484
1.07401
1.07318
1.07235
1.07152
1.07069
1.06986
1.06903
1.0682
1.06737
1.06654
1.06571
1.06488
1.06405
1.06322
1.06239
1.06155
1.06073
1.0599
1.05907
1.05824
1.05741
1.05658
1.05575
1.05492
1.05409
1.05326
1.05243
1.0516
1.05077
1.04994
1.04912
1.04829
1.04746
1.04663
1.04581
1.04498
1.04415
1.04333
1.0425
1.04168
1.04085
1.04003
1.0392
1.03838
1.03756
1.03673
1.03591
1.03509
1.03427
1.03345
1.03263
1.03182
1.031
1.03018
1.02937
1.02856
1.02775
1.02694
1.02613
1.02532
1.02452
1.02371
1.02291
1.02211
1.02131
1.02052
1.01973
1.01894
1.01815
1.01737
1.01659
1.01581
1.01504
1.01428
1.01351
1.01276
1.01201
1.01127
1.01054
1.00981
1.00909
1.00839
1.00769
1.00701
1.00634
1.00569
1.00505
1.00443
1.00383
1.00325
1.0027
1.00217
1.00168
1.00121
1.00077
1.00037
1.00001
0.999678
0.999386
0.999131
0.998909
0.998721
0.998564
0.998437
0.998334
0.998254
0.998193
0.998146
0.998111
0.998087
0.99807
0.998058
0.99805
0.998046
0.998044
0.998044
0.998044
0.998046
0.998047
0.998049
0.998051
0.998053
0.998055
0.998057
0.998059
0.998063
0.998065
0.998067
0.99807
0.998073
0.998076
0.998077
0.99808
0.998082
0.998086
0.998088
0.99809
0.998093
0.998096
0.998098
0.9981
0.998104
0.998106
0.998109
0.998111
0.998114
0.998117
0.99812
0.998123
0.998126
0.998128
0.998131
0.998134
0.998137
0.99814
0.998142
0.998145
0.998148
0.998151
0.998155
0.998157
0.99816
0.998163
0.998166
0.99817
0.998173
0.998176
0.998179
0.998183
0.998187
0.998189
0.998193
0.998197
0.9982
0.998204
0.998207
0.998211
0.998215
0.998218
0.998222
0.998226
0.99823
0.998233
0.998238
0.998242
0.998245
0.99825
0.998255
0.998258
0.998263
0.998267
0.998272
0.998277
0.998282
0.998287
0.998293
0.998297
0.998302
0.998308
0.998314
0.99832
0.998325
0.998331
0.998337
0.998343
0.99835
0.998357
0.998362
0.998369
0.998376
0.998384
0.998391
0.998398
0.998406
0.998414
0.998422
0.99843
0.998439
0.998448
0.998457
0.998467
0.998476
0.998487
0.998497
0.998508
0.998519
0.998531
0.998544
0.998557
0.99857
0.998584
0.9986
0.998616
0.998634
0.998653
0.998675
0.998699
0.998726
0.998756
0.998791
0.99883
0.998875
0.998927
0.998989
0.999062
0.999147
0.999247
0.999365
0.999505
0.99967
0.999864
1.00009
1.00036
1.00067
1.00104
1.00147
1.00196
1.00253
1.00319
1.00395
1.00481
1.00578
1.00689
1.00814
1.00954
1.01111
1.01285
1.01479
1.01692
1.01926
1.02183
1.02462
1.02765
1.03093
1.03445
1.03822
1.04225
1.04653
1.05106
1.05583
1.06084
1.06608
1.07154
1.0772
1.08305
1.08907
1.09524
1.10153
1.10794
1.11443
1.12098
1.12756
1.13415
1.14073
1.14726
1.15373
1.1601
1.16637
1.17249
1.17847
1.18427
1.18988
1.19528
1.20047
1.20544
1.21017
1.21466
1.21891
1.22291
1.22667
1.23018
1.23346
1.2365
1.23931
1.24191
1.24429
1.24648
1.24847
1.25028
1.25192
1.25341
1.25474
1.25594
1.257
1.25796
1.2588
1.25955
1.26021
1.26079
1.2613
1.26174
1.26213
1.26246
1.26275
1.263
1.26321
1.2634
1.26355
1.26369
1.2638
1.26389
1.26397
1.26404
1.2641
1.26414
1.26418
1.26421
1.26424
1.26426
1.26428
1.26429
1.2643
1.26431
1.26432
1.26432
1.26433
1.26433
1.26433
1.26434
1.26434
1.26434
1.26434
1.26434
1.26434
1.26434
1.26434
1.26434
1.26434
1.26434
1.26434
1.26433
1.26433
1.26433
1.26433
1.26433
1.26433
1.26433
1.26433
1.26433
1.26433
1.26433
1.26433
1.26433
1.26433
1.26433
1.26433
1.26433
1.26433
1.26433
1.26433
1.26433
1.26433
1.26433
1.26433
1.26433
1.26433
1.26433
1.26433
1.26433
1.26433
1.26433
1.26433
1.26433
1.26433
1.26433
1.26433
1.26433
1.26433
1.26433
1.26433
1.26433
1.26433
1.26433
1.26433
1.26433
1.26433
1.26433
1.26433
1.26433
1.26433
1.26433
1.26433
1.26433
1.26433
1.26433
1.26433
1.26433
1.26433
1.26433
1.26433
1.26433
1.26433
1.26433
1.26433
1.26433
1.26433
1.26433
1.26433
1.26433
1.26433
1.26433
1.26433
1.26433
1.26433
1.26433
1.26432
1.26431
1.26429
1.26423
1.2641
1.26378
1.26301
1.26119
1.25683
1.24652
1.22295
1.17552
1.1125
1.06803
1.05883
1.05832
1.0583
1.0583
1.0583
1.0583
1.0583
1.0583
1.0583
1.0583
1.0583
1.0583
1.0583
1.0583
1.0583
1.0583
1.0583
1.0583
1.0583
1.0583
1.0583
1.0583
1.0583
1.0583
1.0583
1.0583
1.0583
1.0583
1.0583
1.0583
1.0583
1.0583
1.0583
1.0583
1.0583
1.0583
1.0583
1.0583
1.0583
1.0583
1.0583
1.0583
1.0583
1.0583
1.0583
1.0583
)
;

boundaryField
{
    sides
    {
        type            calculated;
        value           nonuniform List<scalar> 2(1.0583 1.18322);
    }
    empty1
    {
        type            empty;
    }
    empty2
    {
        type            empty;
    }
}


// ************************************************************************* //
