/*--------------------------------*- C++ -*----------------------------------*\
| =========                 |                                                 |
| \\      /  F ield         | OpenFOAM: The Open Source CFD Toolbox           |
|  \\    /   O peration     | Version:  2312                                  |
|   \\  /    A nd           | Website:  www.openfoam.com                      |
|    \\/     M anipulation  |                                                 |
\*---------------------------------------------------------------------------*/
FoamFile
{
    version     2.0;
    format      ascii;
    arch        "LSB;label=32;scalar=64";
    class       volScalarField;
    location    "0.25";
    object      p;
}
// * * * * * * * * * * * * * * * * * * * * * * * * * * * * * * * * * * * * * //

dimensions      [1 -1 -2 0 0 0 0];

internalField   nonuniform List<scalar> 
800
(
1
1
1
1
1
1
1
1
1
1
1
1
1
1
1
1
1
1
1
1
1
1
1
1
1
1
1
1
1
1
1
1
1
1
1
1
1
1
1
1
1
1
1
1
1
1
1
1
1
1
1
1
1
1
1
1
1
1
1
1
1
1
1
1
1
1
1
1
1
1
1
1
1
1
1
1
1
1
1
1
1
1
1
1
1
1
1
1
1
1
1
1
1
1
1
1
1
1
1
1
1
1
1
1
1
1
1
1
1
1
1
1
1
1
1
1
1
1
1
1
1
1
1
1
1
1
1
1
1
1
1
1
1
1
1
1
1
1
1
1
1
0.999998
0.999988
0.999952
0.999878
0.999757
0.999568
0.999288
0.99889
0.998348
0.997633
0.996725
0.995604
0.994258
0.992681
0.990874
0.988843
0.986599
0.984155
0.981526
0.978729
0.975778
0.972691
0.969482
0.966166
0.962755
0.959263
0.955699
0.952075
0.948397
0.944675
0.940915
0.937122
0.933304
0.929465
0.925608
0.921739
0.917861
0.913977
0.91009
0.906202
0.902318
0.898439
0.894567
0.890705
0.886855
0.883019
0.8792
0.875398
0.871611
0.867833
0.864051
0.860247
0.856422
0.852582
0.848729
0.844867
0.840996
0.837119
0.833239
0.829355
0.825471
0.821587
0.817705
0.813825
0.809948
0.806076
0.802209
0.798348
0.794493
0.790646
0.786806
0.782975
0.779152
0.775338
0.771534
0.767739
0.763955
0.760181
0.756418
0.752666
0.748926
0.745197
0.741479
0.737773
0.73408
0.730399
0.726731
0.723076
0.719432
0.715801
0.712182
0.708577
0.704985
0.701406
0.69784
0.694287
0.690748
0.687222
0.683709
0.68021
0.676724
0.673252
0.669793
0.666349
0.662917
0.6595
0.656096
0.652705
0.649328
0.645965
0.642616
0.63928
0.635958
0.63265
0.629355
0.626075
0.622807
0.619554
0.616314
0.613088
0.609875
0.606676
0.603491
0.600319
0.597161
0.594016
0.590885
0.587767
0.584663
0.581572
0.578495
0.575431
0.572381
0.569344
0.56632
0.56331
0.560312
0.557329
0.554358
0.551401
0.548456
0.545525
0.542607
0.539703
0.536811
0.533932
0.531066
0.528213
0.525373
0.522547
0.519732
0.516931
0.514143
0.511367
0.508604
0.505854
0.503116
0.500391
0.497679
0.494979
0.492292
0.489617
0.486955
0.484305
0.481668
0.479043
0.476431
0.473831
0.471243
0.468667
0.466105
0.463554
0.461017
0.45849
0.455975
0.453473
0.450983
0.448504
0.446038
0.443584
0.441142
0.438712
0.436295
0.433889
0.431495
0.429113
0.426743
0.424385
0.422039
0.419705
0.417383
0.415073
0.412775
0.410489
0.408215
0.405953
0.403703
0.401466
0.39924
0.397026
0.394825
0.392636
0.39046
0.388295
0.386144
0.384004
0.381878
0.379764
0.377662
0.375574
0.373499
0.371437
0.369389
0.367354
0.365335
0.363328
0.361334
0.359355
0.357391
0.355442
0.353508
0.35159
0.349688
0.347803
0.345934
0.344084
0.342252
0.340439
0.338646
0.336874
0.335124
0.333397
0.331694
0.330018
0.328369
0.326749
0.325161
0.323604
0.322082
0.320598
0.319156
0.317758
0.316408
0.31511
0.313868
0.312686
0.311568
0.310516
0.309534
0.308626
0.307795
0.307045
0.306376
0.305785
0.305271
0.304829
0.304458
0.304152
0.303904
0.303707
0.303552
0.303433
0.303344
0.303277
0.303229
0.303195
0.303171
0.303155
0.303144
0.303138
0.303135
0.303133
0.303132
0.303132
0.303133
0.303133
0.303134
0.303135
0.303136
0.303138
0.303139
0.30314
0.303142
0.303143
0.303144
0.303145
0.303146
0.303147
0.303148
0.303149
0.30315
0.303151
0.303152
0.303153
0.303153
0.303155
0.303155
0.303156
0.303156
0.303157
0.303158
0.303158
0.303159
0.303159
0.303159
0.30316
0.30316
0.303161
0.303161
0.303161
0.303161
0.303162
0.303162
0.303163
0.303163
0.303163
0.303163
0.303163
0.303164
0.303164
0.303164
0.303164
0.303164
0.303165
0.303164
0.303165
0.303165
0.303165
0.303165
0.303165
0.303165
0.303165
0.303165
0.303165
0.303165
0.303165
0.303165
0.303165
0.303165
0.303164
0.303165
0.303165
0.303164
0.303165
0.303165
0.303165
0.303165
0.303165
0.303165
0.303166
0.303165
0.303166
0.303166
0.303167
0.303167
0.303167
0.303167
0.303167
0.303167
0.303168
0.303168
0.303168
0.303168
0.303168
0.303169
0.303169
0.303169
0.303169
0.303169
0.303169
0.303169
0.303169
0.303168
0.303168
0.303168
0.303168
0.303168
0.303168
0.303168
0.303168
0.303167
0.303167
0.303167
0.303167
0.303166
0.303166
0.303166
0.303166
0.303166
0.303166
0.303166
0.303165
0.303165
0.303165
0.303165
0.303164
0.303164
0.303164
0.303163
0.303163
0.303162
0.303161
0.303161
0.30316
0.303159
0.303157
0.303156
0.303155
0.303153
0.303151
0.30315
0.303148
0.303146
0.303143
0.303141
0.303139
0.303136
0.303134
0.303131
0.303129
0.303126
0.303124
0.303122
0.30312
0.303118
0.303116
0.303115
0.303114
0.303113
0.303113
0.303113
0.303113
0.303114
0.303115
0.303117
0.303119
0.303122
0.303125
0.303128
0.303132
0.303136
0.30314
0.303145
0.303149
0.303154
0.30316
0.303164
0.303167
0.303172
0.303177
0.303181
0.303185
0.303189
0.303192
0.303195
0.303198
0.3032
0.303202
0.303204
0.303205
0.303206
0.303206
0.303206
0.303205
0.303205
0.303204
0.303203
0.303202
0.3032
0.303199
0.303197
0.303195
0.303193
0.303192
0.30319
0.303188
0.303186
0.303184
0.303182
0.303181
0.303179
0.303178
0.303176
0.303175
0.303174
0.303173
0.303172
0.303171
0.30317
0.30317
0.303169
0.303168
0.303168
0.303168
0.303167
0.303167
0.303167
0.303166
0.303166
0.303166
0.303166
0.303166
0.303166
0.303166
0.303166
0.303165
0.303166
0.303166
0.303166
0.303166
0.303166
0.303165
0.303166
0.303166
0.303166
0.303166
0.303166
0.303166
0.303166
0.303166
0.303166
0.303166
0.303166
0.303166
0.303166
0.303166
0.303166
0.303166
0.303166
0.303166
0.303166
0.303166
0.303166
0.303166
0.303167
0.303167
0.303166
0.303166
0.303166
0.303166
0.303166
0.303166
0.303166
0.303166
0.303166
0.303165
0.303165
0.303165
0.303165
0.303165
0.303165
0.303165
0.303164
0.303164
0.303163
0.303163
0.303163
0.303163
0.303163
0.303163
0.303162
0.303162
0.303161
0.303161
0.303161
0.303161
0.303161
0.303161
0.303161
0.303161
0.303161
0.30316
0.303159
0.303159
0.303159
0.303159
0.30316
0.30316
0.30316
0.30316
0.303159
0.303158
0.303158
0.303158
0.303159
0.303159
0.303159
0.303159
0.303159
0.303158
0.303158
0.303157
0.303158
0.303158
0.303158
0.303158
0.303157
0.303154
0.30315
0.30314
0.303118
0.303065
0.302939
0.302635
0.301906
0.300171
0.296067
0.286567
0.265618
0.224961
0.167516
0.122191
0.103799
0.100315
0.100018
0.100001
0.1
0.1
0.1
0.1
0.1
0.1
0.1
0.1
0.1
0.1
0.1
0.1
0.1
0.1
0.1
0.1
0.1
0.1
0.1
0.1
0.1
0.1
0.1
0.1
0.1
0.1
0.1
0.1
0.1
0.1
0.1
0.1
0.1
0.1
0.1
0.1
0.1
0.1
0.1
0.1
0.1
0.1
0.1
)
;

boundaryField
{
    sides
    {
        type            zeroGradient;
    }
    empty1
    {
        type            empty;
    }
    empty2
    {
        type            empty;
    }
}


// ************************************************************************* //
