/*--------------------------------*- C++ -*----------------------------------*\
| =========                 |                                                 |
| \\      /  F ield         | OpenFOAM: The Open Source CFD Toolbox           |
|  \\    /   O peration     | Version:  2312                                  |
|   \\  /    A nd           | Website:  www.openfoam.com                      |
|    \\/     M anipulation  |                                                 |
\*---------------------------------------------------------------------------*/
FoamFile
{
    version     2.0;
    format      ascii;
    arch        "LSB;label=32;scalar=64";
    class       surfaceScalarField;
    location    "0.25";
    object      phi;
}
// * * * * * * * * * * * * * * * * * * * * * * * * * * * * * * * * * * * * * //

dimensions      [1 0 -1 0 0 0 0];

oriented        oriented;

internalField   nonuniform List<scalar> 
799
(
1.89735e-19
3.79471e-19
2.98156e-19
3.52366e-19
4.60786e-19
4.33681e-19
3.25261e-19
1.6263e-19
4.06576e-19
2.1684e-19
1.6263e-19
3.52366e-19
4.33681e-19
3.52366e-19
1.35525e-19
3.79471e-19
4.87891e-19
2.71051e-19
3.52366e-19
4.06576e-19
3.79471e-19
4.60786e-19
5.42101e-19
3.79471e-19
3.79471e-19
5.69206e-19
7.04731e-19
7.58942e-19
9.21572e-19
5.96311e-19
3.79471e-19
2.71051e-19
3.79471e-19
4.60786e-19
6.23416e-19
4.33681e-19
3.79471e-19
4.06576e-19
2.98156e-19
2.1684e-19
1.6263e-19
2.71051e-20
1.35525e-19
1.0842e-19
0
-5.42101e-20
1.0842e-19
-5.42101e-20
-3.25261e-19
-1.35525e-19
-2.71051e-20
5.42101e-20
1.89735e-19
0
1.0842e-19
0
-2.43945e-19
0
2.71051e-19
2.98156e-19
5.14996e-19
4.33681e-19
3.52366e-19
2.1684e-19
1.35525e-19
4.06576e-19
-1.89735e-19
-2.98156e-19
-1.6263e-19
5.42101e-20
2.1684e-19
4.60786e-19
7.58942e-19
8.67362e-19
8.67362e-19
8.67362e-19
8.40257e-19
6.23416e-19
2.71051e-19
-1.0842e-19
-5.42101e-20
1.0842e-19
-1.6263e-19
0
0
-1.0842e-19
-1.89735e-19
-2.43945e-19
-1.0842e-19
-5.42101e-20
-2.71051e-19
-7.31836e-19
-5.69206e-19
-5.14996e-19
-6.50521e-19
-2.98156e-19
-5.42101e-19
-7.31836e-19
-6.50521e-19
-5.42101e-19
-4.87891e-19
-2.98156e-19
-2.43945e-19
-1.35525e-19
-1.6263e-19
-2.1684e-19
-1.89735e-19
-4.33681e-19
-3.52366e-19
-3.79471e-19
-3.79471e-19
-2.98156e-19
-3.52366e-19
-3.79471e-19
-2.1684e-19
-3.52366e-19
-3.25261e-19
-4.87891e-19
-7.04731e-19
-1.0842e-18
-1.49078e-18
-1.5992e-18
-1.65341e-18
-1.70762e-18
-1.68051e-18
-1.49078e-18
-1.51788e-18
-1.5992e-18
-1.6263e-18
-1.65341e-18
-1.95156e-18
-1.87025e-18
-1.65341e-18
8.67362e-19
3.72966e-17
4.95507e-16
6.42921e-15
8.29869e-14
1.06764e-12
1.3457e-11
1.60286e-10
1.63737e-09
8.52343e-09
2.63699e-08
5.76743e-08
1.0851e-07
1.8592e-07
2.97705e-07
4.54745e-07
6.64687e-07
9.36738e-07
1.27728e-06
1.69173e-06
2.18308e-06
2.75152e-06
3.39595e-06
4.11299e-06
4.89818e-06
5.74645e-06
6.65231e-06
7.61008e-06
8.61414e-06
9.65912e-06
1.07398e-05
1.18517e-05
1.29901e-05
1.41511e-05
1.53312e-05
1.65272e-05
1.77364e-05
1.89562e-05
2.01844e-05
2.1419e-05
2.26583e-05
2.39006e-05
2.51445e-05
2.63889e-05
2.76324e-05
2.88741e-05
3.0113e-05
3.13483e-05
3.2579e-05
3.38045e-05
3.50239e-05
3.62366e-05
3.74418e-05
3.86389e-05
3.98273e-05
4.10068e-05
4.21789e-05
4.33478e-05
4.45191e-05
4.56938e-05
4.68705e-05
4.8048e-05
4.92253e-05
5.04017e-05
5.15765e-05
5.27491e-05
5.39189e-05
5.50854e-05
5.62482e-05
5.74068e-05
5.8561e-05
5.97103e-05
6.08546e-05
6.19935e-05
6.31267e-05
6.42542e-05
6.53756e-05
6.64909e-05
6.75998e-05
6.87022e-05
6.97979e-05
7.0887e-05
7.19691e-05
7.30444e-05
7.41125e-05
7.51736e-05
7.62274e-05
7.7274e-05
7.83133e-05
7.93452e-05
8.03697e-05
8.13867e-05
8.23963e-05
8.33982e-05
8.43925e-05
8.53793e-05
8.63586e-05
8.73303e-05
8.82944e-05
8.92508e-05
9.01996e-05
9.11408e-05
9.20743e-05
9.30002e-05
9.39184e-05
9.4829e-05
9.57319e-05
9.66272e-05
9.75148e-05
9.83949e-05
9.92673e-05
0.000100132
0.000100989
0.000101839
0.000102681
0.000103516
0.000104343
0.000105162
0.000105974
0.000106778
0.000107575
0.000108365
0.000109147
0.000109922
0.000110689
0.000111449
0.000112202
0.000112947
0.000113685
0.000114416
0.00011514
0.000115856
0.000116565
0.000117267
0.000117962
0.00011865
0.000119331
0.000120004
0.000120671
0.00012133
0.000121983
0.000122629
0.000123267
0.000123899
0.000124524
0.000125142
0.000125754
0.000126358
0.000126956
0.000127547
0.000128132
0.00012871
0.000129281
0.000129845
0.000130403
0.000130955
0.0001315
0.000132038
0.00013257
0.000133096
0.000133615
0.000134128
0.000134634
0.000135134
0.000135628
0.000136116
0.000136597
0.000137072
0.000137541
0.000138004
0.000138461
0.000138912
0.000139356
0.000139795
0.000140228
0.000140654
0.000141075
0.00014149
0.000141899
0.000142302
0.000142699
0.000143091
0.000143477
0.000143857
0.000144231
0.0001446
0.000144963
0.00014532
0.000145672
0.000146019
0.000146359
0.000146695
0.000147025
0.000147349
0.000147668
0.000147982
0.00014829
0.000148593
0.00014889
0.000149183
0.00014947
0.000149752
0.000150028
0.0001503
0.000150566
0.000150827
0.000151083
0.000151334
0.00015158
0.000151821
0.000152057
0.000152288
0.000152514
0.000152735
0.000152952
0.000153163
0.00015337
0.000153571
0.000153768
0.000153961
0.000154148
0.00015433
0.000154508
0.000154682
0.00015485
0.000155014
0.000155174
0.000155329
0.000155479
0.000155625
0.000155766
0.000155903
0.000156035
0.000156163
0.000156287
0.000156406
0.000156521
0.000156631
0.000156737
0.000156838
0.000156936
0.000157028
0.000157117
0.000157201
0.000157281
0.000157357
0.000157429
0.000157496
0.000157559
0.000157618
0.000157672
0.000157723
0.000157769
0.000157812
0.00015785
0.000157884
0.000157915
0.000157942
0.000157965
0.000157986
0.000158003
0.000158017
0.000158029
0.000158038
0.000158045
0.000158051
0.000158055
0.000158058
0.000158061
0.000158062
0.000158063
0.000158063
0.000158064
0.000158063
0.000158063
0.000158063
0.000158062
0.000158062
0.000158061
0.000158061
0.00015806
0.00015806
0.000158059
0.000158059
0.000158058
0.000158057
0.000158057
0.000158056
0.000158056
0.000158055
0.000158054
0.000158054
0.000158053
0.000158052
0.000158052
0.000158051
0.00015805
0.00015805
0.000158049
0.000158048
0.000158048
0.000158047
0.000158046
0.000158045
0.000158045
0.000158044
0.000158043
0.000158042
0.000158042
0.000158041
0.00015804
0.000158039
0.000158038
0.000158038
0.000158037
0.000158036
0.000158035
0.000158034
0.000158033
0.000158032
0.000158032
0.000158031
0.00015803
0.000158029
0.000158028
0.000158027
0.000158026
0.000158025
0.000158024
0.000158023
0.000158022
0.000158021
0.00015802
0.000158019
0.000158018
0.000158017
0.000158016
0.000158014
0.000158013
0.000158012
0.000158011
0.00015801
0.000158009
0.000158007
0.000158006
0.000158005
0.000158004
0.000158002
0.000158001
0.000158
0.000157998
0.000157997
0.000157995
0.000157994
0.000157992
0.000157991
0.000157989
0.000157988
0.000157986
0.000157984
0.000157983
0.000157981
0.000157979
0.000157978
0.000157976
0.000157974
0.000157972
0.00015797
0.000157968
0.000157966
0.000157964
0.000157962
0.000157959
0.000157957
0.000157955
0.000157952
0.00015795
0.000157947
0.000157945
0.000157942
0.000157939
0.000157936
0.000157933
0.00015793
0.000157927
0.000157924
0.00015792
0.000157917
0.000157913
0.000157909
0.000157905
0.000157901
0.000157896
0.000157891
0.000157886
0.00015788
0.000157874
0.000157867
0.00015786
0.000157851
0.000157842
0.000157831
0.000157818
0.000157804
0.000157787
0.000157768
0.000157745
0.000157718
0.000157687
0.000157649
0.000157605
0.000157553
0.000157492
0.00015742
0.000157335
0.000157237
0.000157121
0.000156988
0.000156833
0.000156654
0.000156449
0.000156215
0.000155948
0.000155645
0.000155303
0.00015492
0.000154491
0.000154014
0.000153486
0.000152904
0.000152266
0.000151569
0.000150813
0.000149996
0.000149117
0.000148176
0.000147174
0.000146112
0.000144991
0.000143815
0.000142585
0.000141306
0.000139983
0.000138618
0.000137219
0.000135789
0.000134335
0.000132864
0.00013138
0.000129891
0.000128401
0.000126918
0.000125447
0.000123993
0.00012256
0.000121156
0.000119785
0.000118449
0.000117153
0.0001159
0.000114692
0.000113532
0.000112422
0.000111362
0.000110355
0.000109399
0.000108496
0.000107645
0.000106846
0.000106098
0.000105399
0.000104749
0.000104145
0.000103587
0.000103072
0.000102598
0.000102164
0.000101767
0.000101405
0.000101076
0.000100778
0.000100509
0.000100267
0.00010005
9.98552e-05
9.96817e-05
9.95274e-05
9.93906e-05
9.92696e-05
9.9163e-05
9.90694e-05
9.89875e-05
9.8916e-05
9.88538e-05
9.87998e-05
9.87531e-05
9.8713e-05
9.86785e-05
9.86489e-05
9.86236e-05
9.86023e-05
9.85842e-05
9.85688e-05
9.85559e-05
9.85451e-05
9.85361e-05
9.85286e-05
9.85224e-05
9.85172e-05
9.85131e-05
9.85097e-05
9.85069e-05
9.85046e-05
9.85028e-05
9.85014e-05
9.85003e-05
9.84993e-05
9.84987e-05
9.84982e-05
9.84977e-05
9.84974e-05
9.84973e-05
9.84974e-05
9.84974e-05
9.84975e-05
9.84975e-05
9.84976e-05
9.84976e-05
9.84977e-05
9.84977e-05
9.84978e-05
9.84979e-05
9.8498e-05
9.8498e-05
9.84981e-05
9.84982e-05
9.84983e-05
9.84983e-05
9.84983e-05
9.84984e-05
9.84984e-05
9.84984e-05
9.84984e-05
9.84984e-05
9.84984e-05
9.84985e-05
9.84984e-05
9.84984e-05
9.84983e-05
9.84982e-05
9.84982e-05
9.84981e-05
9.84981e-05
9.84981e-05
9.8498e-05
9.84979e-05
9.84978e-05
9.84976e-05
9.84974e-05
9.84973e-05
9.84973e-05
9.84971e-05
9.8497e-05
9.84968e-05
9.84967e-05
9.84965e-05
9.84964e-05
9.84962e-05
9.84961e-05
9.8496e-05
9.84959e-05
9.84958e-05
9.84956e-05
9.84955e-05
9.84953e-05
9.84952e-05
9.84951e-05
9.8495e-05
9.84949e-05
9.84949e-05
9.84948e-05
9.84948e-05
9.84947e-05
9.84946e-05
9.84945e-05
9.84944e-05
9.84944e-05
9.84944e-05
9.84944e-05
9.84944e-05
9.84943e-05
9.84942e-05
9.84941e-05
9.84941e-05
9.8494e-05
9.8494e-05
9.8494e-05
9.8494e-05
9.84939e-05
9.84938e-05
9.84937e-05
9.84936e-05
9.84933e-05
9.8493e-05
9.84923e-05
9.84909e-05
9.84876e-05
9.84797e-05
9.84611e-05
9.84173e-05
9.83125e-05
9.80619e-05
9.74622e-05
9.60367e-05
9.26909e-05
8.50769e-05
6.90435e-05
4.19125e-05
1.48024e-05
2.87246e-06
3.75722e-07
2.41943e-08
1.27005e-09
4.47342e-11
1.52853e-12
5.17021e-14
1.74249e-15
5.86791e-17
2.05321e-18
1.11808e-19
5.75982e-20
3.38813e-20
5.75982e-20
8.80914e-20
6.09864e-20
5.0822e-20
4.40457e-20
4.40457e-20
3.72694e-20
5.42101e-20
3.72694e-20
3.04932e-20
2.03288e-20
6.77626e-21
1.01644e-20
1.35525e-20
3.38813e-21
-2.37169e-20
2.03288e-20
0
6.77626e-21
0
-2.03288e-20
-2.03288e-20
0
1.01644e-20
3.38813e-21
-6.77626e-21
-1.35525e-20
0
6.77626e-21
-2.03288e-20
-1.01644e-20
-2.03288e-20
-2.03288e-20
0
)
;

boundaryField
{
    sides
    {
        type            calculated;
        value           uniform 0;
    }
    empty1
    {
        type            empty;
        value           nonuniform List<scalar> 0();
    }
    empty2
    {
        type            empty;
        value           nonuniform List<scalar> 0();
    }
}


// ************************************************************************* //
