/*--------------------------------*- C++ -*----------------------------------*\
| =========                 |                                                 |
| \\      /  F ield         | OpenFOAM: The Open Source CFD Toolbox           |
|  \\    /   O peration     | Version:  2312                                  |
|   \\  /    A nd           | Website:  www.openfoam.com                      |
|    \\/     M anipulation  |                                                 |
\*---------------------------------------------------------------------------*/
FoamFile
{
    version     2.0;
    format      ascii;
    arch        "LSB;label=32;scalar=64";
    class       volScalarField;
    location    "0.25";
    object      rho;
}
// * * * * * * * * * * * * * * * * * * * * * * * * * * * * * * * * * * * * * //

dimensions      [1 -3 0 0 0 0 0];

internalField   nonuniform List<scalar> 
800
(
1
1
1
1
1
1
1
1
1
1
1
1
1
1
1
1
1
1
1
1
1
1
1
1
1
1
1
1
1
1
1
1
1
1
1
1
1
1
1
1
1
1
1
1
1
1
1
1
1
1
1
1
1
1
1
1
1
1
1
1
1
1
1
1
1
1
1
1
1
1
1
1
1
1
1
1
1
1
1
1
1
1
1
1
1
1
1
1
1
1
1
1
1
1
1
1
1
1
1
1
1
1
1
1
1
1
1
1
1
1
1
1
1
1
1
1
1
1
1
1
1
1
1
1
1
1
1
1
1
1
1
1
1
1
1
1
1
1
1
1
1
0.999998
0.999989
0.999963
0.999911
0.999824
0.999689
0.999489
0.999205
0.998818
0.998309
0.997661
0.996862
0.995902
0.994778
0.99349
0.992043
0.990443
0.9887
0.986825
0.984828
0.98272
0.980513
0.978217
0.975842
0.973398
0.970892
0.968332
0.965726
0.963078
0.960395
0.957681
0.954941
0.952179
0.949397
0.9466
0.94379
0.940969
0.93814
0.935306
0.932467
0.929627
0.926786
0.923947
0.921112
0.918281
0.915456
0.91264
0.909833
0.907033
0.904234
0.901421
0.898589
0.895737
0.892869
0.889988
0.887095
0.884192
0.88128
0.878361
0.875437
0.872507
0.869573
0.866637
0.863698
0.860757
0.857816
0.854875
0.851934
0.848994
0.846055
0.843118
0.840183
0.837251
0.834321
0.831395
0.828472
0.825553
0.822637
0.819726
0.816819
0.813917
0.811019
0.808127
0.805239
0.802357
0.79948
0.796609
0.793743
0.790883
0.788029
0.785181
0.782339
0.779503
0.776673
0.77385
0.771033
0.768222
0.765418
0.76262
0.759829
0.757045
0.754268
0.751497
0.748733
0.745976
0.743226
0.740483
0.737747
0.735018
0.732296
0.729581
0.726873
0.724172
0.721478
0.718791
0.716112
0.713439
0.710774
0.708116
0.705465
0.702822
0.700186
0.697557
0.694935
0.69232
0.689713
0.687113
0.684521
0.681935
0.679357
0.676787
0.674223
0.671667
0.669119
0.666577
0.664043
0.661517
0.658997
0.656485
0.65398
0.651483
0.648993
0.64651
0.644035
0.641567
0.639106
0.636653
0.634207
0.631768
0.629337
0.626913
0.624497
0.622087
0.619685
0.617291
0.614903
0.612523
0.61015
0.607785
0.605427
0.603076
0.600733
0.598396
0.596068
0.593746
0.591432
0.589125
0.586825
0.584533
0.582248
0.57997
0.5777
0.575438
0.573182
0.570933
0.568692
0.566458
0.564232
0.562013
0.559801
0.557597
0.5554
0.55321
0.551028
0.548854
0.546686
0.544527
0.542374
0.54023
0.538093
0.535963
0.533841
0.531727
0.52962
0.527522
0.525431
0.523347
0.521272
0.519205
0.517145
0.515094
0.513051
0.511016
0.50899
0.506972
0.504962
0.502961
0.500969
0.498986
0.497012
0.495047
0.493091
0.491145
0.489209
0.487284
0.485368
0.483462
0.481567
0.479683
0.47781
0.475949
0.474101
0.472265
0.470442
0.468632
0.466837
0.465057
0.463293
0.461545
0.459815
0.458103
0.456411
0.45474
0.453092
0.451468
0.449871
0.448301
0.44676
0.445251
0.443777
0.442341
0.440947
0.439598
0.438299
0.437052
0.435863
0.434735
0.433672
0.432677
0.431754
0.430907
0.43014
0.429453
0.428845
0.428313
0.427855
0.427467
0.427147
0.426887
0.426678
0.426514
0.426386
0.42629
0.426217
0.426164
0.426126
0.426099
0.42608
0.426067
0.426058
0.426053
0.42605
0.426048
0.426046
0.426045
0.426044
0.426043
0.426042
0.426042
0.426042
0.426042
0.426041
0.426041
0.426041
0.42604
0.42604
0.426039
0.426038
0.426037
0.426037
0.426036
0.426035
0.426034
0.426033
0.426032
0.426031
0.426029
0.426028
0.426027
0.426025
0.426024
0.426022
0.42602
0.426019
0.426017
0.426015
0.426013
0.426011
0.426009
0.426007
0.426005
0.426003
0.426001
0.425999
0.425996
0.425994
0.425992
0.425989
0.425987
0.425984
0.425982
0.425979
0.425977
0.425974
0.425971
0.425968
0.425965
0.425963
0.42596
0.425957
0.425954
0.42595
0.425947
0.425944
0.425941
0.425937
0.425934
0.425931
0.425927
0.425924
0.42592
0.425916
0.425913
0.425909
0.425905
0.425901
0.425897
0.425893
0.425889
0.425885
0.425881
0.425877
0.425872
0.425868
0.425863
0.425859
0.425854
0.425849
0.425844
0.425839
0.425834
0.425829
0.425823
0.425817
0.425811
0.425805
0.425799
0.425792
0.425786
0.425779
0.425771
0.425764
0.425756
0.425748
0.42574
0.425732
0.425723
0.425714
0.425704
0.425694
0.425684
0.425673
0.425662
0.42565
0.425637
0.425624
0.42561
0.425594
0.425577
0.425559
0.425538
0.425515
0.425489
0.425459
0.425425
0.425386
0.425341
0.425288
0.425226
0.425153
0.425067
0.424966
0.424846
0.424704
0.424538
0.424342
0.424113
0.423845
0.423532
0.423169
0.422749
0.422264
0.421708
0.421071
0.420348
0.419527
0.418601
0.417561
0.416398
0.415105
0.413674
0.412096
0.410366
0.408479
0.406429
0.404213
0.401831
0.399282
0.396566
0.393687
0.390651
0.387464
0.384133
0.380669
0.377083
0.373387
0.369597
0.365726
0.361791
0.357808
0.353794
0.349765
0.345738
0.341728
0.337753
0.333826
0.329962
0.326172
0.322473
0.318873
0.315382
0.312008
0.308759
0.305641
0.302657
0.299813
0.297109
0.294547
0.292127
0.289849
0.287711
0.285709
0.283842
0.282106
0.280496
0.279007
0.277635
0.276374
0.275218
0.274163
0.273202
0.272329
0.271539
0.270826
0.270184
0.269608
0.269093
0.268634
0.268226
0.267865
0.267545
0.267264
0.267017
0.266801
0.266612
0.266448
0.266306
0.266183
0.266078
0.265987
0.265909
0.265843
0.265787
0.265739
0.265699
0.265665
0.265637
0.265613
0.265594
0.265577
0.265564
0.265553
0.265544
0.265537
0.265531
0.265526
0.265522
0.265519
0.265517
0.265515
0.265514
0.265512
0.265512
0.265511
0.265511
0.265511
0.265511
0.265511
0.265511
0.265512
0.265512
0.265512
0.265512
0.265512
0.265512
0.265513
0.265513
0.265513
0.265513
0.265513
0.265513
0.265513
0.265513
0.265513
0.265514
0.265513
0.265513
0.265513
0.265513
0.265513
0.265513
0.265514
0.265514
0.265514
0.265513
0.265513
0.265513
0.265513
0.265513
0.265513
0.265513
0.265513
0.265512
0.265512
0.265512
0.265512
0.265511
0.265511
0.265511
0.265511
0.265511
0.265511
0.265511
0.26551
0.26551
0.26551
0.26551
0.26551
0.26551
0.26551
0.26551
0.265509
0.265509
0.265508
0.265508
0.265509
0.265509
0.265509
0.265509
0.265509
0.265508
0.265508
0.265508
0.265508
0.265508
0.265509
0.265509
0.265509
0.265508
0.265508
0.265507
0.265507
0.265507
0.265508
0.265508
0.265508
0.265507
0.265505
0.265502
0.265495
0.265479
0.265442
0.265355
0.265145
0.264641
0.263439
0.26059
0.25398
0.239326
0.210581
0.169717
0.138219
0.127396
0.125268
0.125016
0.125001
0.125
0.125
0.125
0.125
0.125
0.125
0.125
0.125
0.125
0.125
0.125
0.125
0.125
0.125
0.125
0.125
0.125
0.125
0.125
0.125
0.125
0.125
0.125
0.125
0.125
0.125
0.125
0.125
0.125
0.125
0.125
0.125
0.125
0.125
0.125
0.125
0.125
0.125
0.125
0.125
0.125
0.125
0.125
)
;

boundaryField
{
    sides
    {
        type            calculated;
        value           nonuniform List<scalar> 2(0.125 1);
    }
    empty1
    {
        type            empty;
    }
    empty2
    {
        type            empty;
    }
}


// ************************************************************************* //
