/*--------------------------------*- C++ -*----------------------------------*\
| =========                 |                                                 |
| \\      /  F ield         | OpenFOAM: The Open Source CFD Toolbox           |
|  \\    /   O peration     | Version:  2312                                  |
|   \\  /    A nd           | Website:  www.openfoam.com                      |
|    \\/     M anipulation  |                                                 |
\*---------------------------------------------------------------------------*/
FoamFile
{
    version     2.0;
    format      ascii;
    arch        "LSB;label=32;scalar=64";
    class       volScalarField;
    location    "0.25";
    object      T;
}
// * * * * * * * * * * * * * * * * * * * * * * * * * * * * * * * * * * * * * //

dimensions      [0 0 0 1 0 0 0];

internalField   nonuniform List<scalar> 
800
(
2.5
2.5
2.5
2.5
2.5
2.5
2.5
2.5
2.5
2.5
2.5
2.5
2.5
2.5
2.5
2.5
2.5
2.5
2.5
2.5
2.5
2.5
2.5
2.5
2.5
2.5
2.5
2.5
2.5
2.5
2.5
2.5
2.5
2.5
2.5
2.5
2.5
2.5
2.5
2.5
2.5
2.5
2.5
2.5
2.5
2.5
2.5
2.5
2.5
2.5
2.5
2.5
2.5
2.5
2.5
2.5
2.5
2.5
2.5
2.5
2.5
2.5
2.5
2.5
2.5
2.5
2.5
2.5
2.5
2.5
2.5
2.5
2.5
2.5
2.5
2.5
2.5
2.5
2.5
2.5
2.5
2.5
2.5
2.5
2.5
2.5
2.5
2.5
2.5
2.5
2.5
2.5
2.5
2.5
2.5
2.5
2.5
2.5
2.5
2.5
2.5
2.5
2.5
2.5
2.5
2.5
2.5
2.5
2.5
2.5
2.5
2.5
2.5
2.5
2.5
2.5
2.5
2.5
2.5
2.5
2.5
2.5
2.5
2.5
2.5
2.5
2.5
2.5
2.5
2.5
2.5
2.5
2.5
2.5
2.5
2.5
2.5
2.5
2.5
2.5
2.5
2.5
2.5
2.49997
2.49992
2.49983
2.4997
2.4995
2.49921
2.49882
2.49831
2.49765
2.49684
2.49587
2.49473
2.49342
2.49194
2.4903
2.48851
2.48658
2.48452
2.48234
2.48006
2.47768
2.47521
2.47267
2.47006
2.46739
2.46466
2.46189
2.45908
2.45623
2.45335
2.45044
2.44751
2.44456
2.44159
2.4386
2.43561
2.4326
2.42958
2.42656
2.42353
2.4205
2.41747
2.41444
2.41142
2.4084
2.40538
2.40237
2.39936
2.39636
2.39333
2.39027
2.3872
2.3841
2.38099
2.37787
2.37473
2.37157
2.3684
2.36523
2.36204
2.35885
2.35564
2.35243
2.34921
2.34598
2.34275
2.33951
2.33627
2.33302
2.32977
2.32652
2.32326
2.32
2.31673
2.31347
2.3102
2.30692
2.30365
2.30038
2.2971
2.29382
2.29054
2.28726
2.28398
2.2807
2.27742
2.27414
2.27086
2.26757
2.26429
2.26101
2.25773
2.25444
2.25116
2.24788
2.2446
2.24131
2.23803
2.23475
2.23148
2.2282
2.22492
2.22164
2.21837
2.21509
2.21182
2.20855
2.20528
2.202
2.19874
2.19547
2.1922
2.18894
2.18567
2.18241
2.17915
2.17589
2.17264
2.16938
2.16613
2.16287
2.15962
2.15637
2.15313
2.14988
2.14664
2.1434
2.14016
2.13692
2.13368
2.13045
2.12721
2.12398
2.12076
2.11753
2.11431
2.11108
2.10786
2.10465
2.10143
2.09822
2.095
2.0918
2.08859
2.08538
2.08218
2.07898
2.07578
2.07259
2.06939
2.0662
2.06301
2.05982
2.05664
2.05346
2.05028
2.0471
2.04393
2.04075
2.03758
2.03442
2.03125
2.02809
2.02493
2.02177
2.01862
2.01547
2.01232
2.00918
2.00603
2.0029
1.99976
1.99662
1.99349
1.99036
1.98723
1.98411
1.98099
1.97787
1.97476
1.97165
1.96854
1.96544
1.96234
1.95924
1.95614
1.95305
1.94997
1.94688
1.9438
1.94073
1.93766
1.93459
1.93153
1.92847
1.92541
1.92236
1.91932
1.91628
1.91324
1.91021
1.90719
1.90417
1.90115
1.89815
1.89514
1.89215
1.88916
1.88618
1.88321
1.88024
1.87729
1.87434
1.8714
1.86847
1.86555
1.86264
1.85974
1.85686
1.85398
1.85112
1.84828
1.84545
1.84263
1.83984
1.83706
1.83431
1.83158
1.82887
1.82619
1.82354
1.82092
1.81834
1.8158
1.8133
1.81084
1.80843
1.80608
1.80379
1.80156
1.79942
1.79735
1.79537
1.79349
1.79171
1.79004
1.78848
1.78705
1.78574
1.78457
1.78352
1.78261
1.78182
1.78115
1.78059
1.78013
1.77977
1.77948
1.77927
1.7791
1.77898
1.77889
1.77883
1.77879
1.77876
1.77874
1.77873
1.77873
1.77874
1.77874
1.77875
1.77875
1.77876
1.77877
1.77877
1.77878
1.77879
1.7788
1.77881
1.77882
1.77883
1.77884
1.77885
1.77885
1.77886
1.77887
1.77888
1.77889
1.7789
1.77891
1.77892
1.77893
1.77894
1.77895
1.77896
1.77897
1.77898
1.77899
1.779
1.77901
1.77902
1.77903
1.77903
1.77905
1.77906
1.77907
1.77908
1.77908
1.77909
1.77911
1.77912
1.77913
1.77914
1.77915
1.77916
1.77917
1.77918
1.7792
1.77921
1.77922
1.77923
1.77924
1.77925
1.77927
1.77928
1.77929
1.7793
1.77932
1.77933
1.77934
1.77936
1.77937
1.77938
1.7794
1.77941
1.77943
1.77944
1.77945
1.77947
1.77949
1.7795
1.77952
1.77953
1.77955
1.77957
1.77958
1.7796
1.77962
1.77964
1.77966
1.77968
1.7797
1.77972
1.77974
1.77976
1.77978
1.7798
1.77983
1.77985
1.77987
1.7799
1.77992
1.77995
1.77997
1.78
1.78003
1.78005
1.78008
1.78011
1.78014
1.78018
1.78021
1.78024
1.78028
1.78031
1.78035
1.78039
1.78043
1.78047
1.78052
1.78056
1.78061
1.78066
1.78072
1.78078
1.78084
1.78091
1.78099
1.78107
1.78117
1.78127
1.7814
1.78154
1.7817
1.78189
1.78211
1.78236
1.78267
1.78303
1.78345
1.78395
1.78453
1.78523
1.78604
1.787
1.78812
1.78943
1.79096
1.79273
1.79477
1.79713
1.79983
1.80292
1.80643
1.81041
1.81491
1.81996
1.82562
1.83192
1.83892
1.84665
1.85518
1.86452
1.87473
1.88584
1.89787
1.91086
1.92483
1.93979
1.95575
1.97272
1.99068
2.00962
2.02952
2.05035
2.07207
2.09463
2.11798
2.14204
2.16674
2.19201
2.21777
2.24391
2.27034
2.29696
2.32367
2.35037
2.37694
2.40328
2.4293
2.4549
2.47997
2.50444
2.52823
2.55126
2.57346
2.59479
2.6152
2.63464
2.6531
2.67055
2.68698
2.7024
2.71681
2.73023
2.74268
2.75418
2.76477
2.77448
2.78336
2.79144
2.79877
2.8054
2.81138
2.81674
2.82153
2.82581
2.82961
2.83297
2.83594
2.83855
2.84084
2.84283
2.84457
2.84608
2.84739
2.84851
2.84948
2.8503
2.85101
2.85161
2.85212
2.85254
2.8529
2.85321
2.85346
2.85367
2.85384
2.85398
2.8541
2.8542
2.85427
2.85434
2.85439
2.85443
2.85446
2.85448
2.85451
2.85452
2.85453
2.85454
2.85455
2.85455
2.85455
2.85455
2.85455
2.85454
2.85454
2.85454
2.85454
2.85454
2.85454
2.85454
2.85454
2.85454
2.85454
2.85454
2.85453
2.85453
2.85453
2.85453
2.85453
2.85453
2.85453
2.85453
2.85453
2.85453
2.85453
2.85453
2.85453
2.85452
2.85452
2.85452
2.85452
2.85452
2.85452
2.85452
2.85452
2.85452
2.85452
2.85452
2.85452
2.85452
2.85452
2.85452
2.85452
2.85452
2.85452
2.85452
2.85451
2.85451
2.85451
2.85451
2.85451
2.85451
2.85451
2.85451
2.85451
2.85451
2.85451
2.85451
2.85451
2.85451
2.85451
2.85452
2.85451
2.85451
2.85451
2.85451
2.85451
2.85451
2.85451
2.85452
2.85452
2.85452
2.85452
2.85451
2.85451
2.85451
2.85451
2.85451
2.85451
2.85451
2.85451
2.85451
2.85451
2.8545
2.85448
2.85444
2.85434
2.85409
2.85349
2.85203
2.84858
2.84035
2.82077
2.77465
2.67072
2.46758
2.21009
2.03694
2.00201
2.00009
2
2
2
2
2
2
2
2
2
2
2
2
2
2
2
2
2
2
2
2
2
2
2
2
2
2
2
2
2
2
2
2
2
2
2
2
2
2
2
2
2
2
2
2
)
;

boundaryField
{
    sides
    {
        type            zeroGradient;
    }
    empty1
    {
        type            empty;
    }
    empty2
    {
        type            empty;
    }
}


// ************************************************************************* //
