/*--------------------------------*- C++ -*----------------------------------*\
| =========                 |                                                 |
| \\      /  F ield         | OpenFOAM: The Open Source CFD Toolbox           |
|  \\    /   O peration     | Version:  2312                                  |
|   \\  /    A nd           | Website:  www.openfoam.com                      |
|    \\/     M anipulation  |                                                 |
\*---------------------------------------------------------------------------*/
FoamFile
{
    version     2.0;
    format      ascii;
    arch        "LSB;label=32;scalar=64";
    class       volVectorField;
    location    "0.25";
    object      U;
}
// * * * * * * * * * * * * * * * * * * * * * * * * * * * * * * * * * * * * * //

dimensions      [0 1 -1 0 0 0 0];

internalField   nonuniform List<vector> 
800
(
(1.17624e-15 0 0)
(-2.86577e-16 0 0)
(1.48817e-15 0 0)
(-4.8419e-17 0 0)
(1.72003e-15 0 0)
(4.88751e-16 0 0)
(1.7113e-15 0 0)
(-5.34939e-16 0 0)
(1.32742e-15 0 0)
(4.75062e-16 0 0)
(4.87333e-16 0 0)
(4.2689e-16 0 0)
(1.64283e-15 0 0)
(4.31662e-16 0 0)
(7.22181e-16 0 0)
(-7.95741e-17 0 0)
(1.78618e-15 0 0)
(6.35134e-16 0 0)
(8.69098e-16 0 0)
(8.62128e-16 0 0)
(1.41745e-15 0 0)
(3.92895e-16 0 0)
(1.4722e-15 0 0)
(7.70103e-16 0 0)
(1.0272e-15 0 0)
(8.42446e-16 0 0)
(2.12369e-15 0 0)
(1.50117e-15 0 0)
(2.80874e-15 0 0)
(9.0432e-16 0 0)
(2.06863e-15 0 0)
(-3.14875e-16 0 0)
(1.3845e-15 0 0)
(9.53406e-16 0 0)
(1.47072e-15 0 0)
(1.56945e-15 0 0)
(6.35882e-16 0 0)
(9.53172e-16 0 0)
(1.19818e-15 0 0)
(2.15856e-16 0 0)
(1.36989e-15 0 0)
(-5.54064e-16 0 0)
(7.64813e-16 0 0)
(-1.57807e-16 0 0)
(6.02636e-16 0 0)
(-3.92818e-17 0 0)
(1.06937e-16 0 0)
(9.69196e-17 0 0)
(-4.47311e-16 0 0)
(-9.10103e-16 0 0)
(5.04002e-16 0 0)
(-9.23658e-16 0 0)
(1.29985e-15 0 0)
(-1.523e-15 0 0)
(1.71085e-15 0 0)
(-9.35644e-16 0 0)
(7.91522e-16 0 0)
(-1.92319e-15 0 0)
(1.16302e-15 0 0)
(3.10564e-16 0 0)
(1.26943e-15 0 0)
(1.15004e-15 0 0)
(9.00511e-16 0 0)
(8.22615e-16 0 0)
(1.59591e-16 0 0)
(7.69069e-16 0 0)
(4.52525e-16 0 0)
(-6.15897e-16 0 0)
(-6.37847e-16 0 0)
(-2.75542e-16 0 0)
(6.19218e-16 0 0)
(4.71872e-16 0 0)
(1.8773e-15 0 0)
(1.67701e-15 0 0)
(2.47508e-15 0 0)
(1.92158e-15 0 0)
(2.21288e-15 0 0)
(1.80502e-15 0 0)
(1.24135e-15 0 0)
(3.44581e-16 0 0)
(-3.68619e-16 0 0)
(4.69396e-16 0 0)
(1.30225e-16 0 0)
(1.47345e-16 0 0)
(-3.8636e-16 0 0)
(2.63369e-16 0 0)
(-6.06073e-16 0 0)
(-2.30844e-16 0 0)
(-1.03694e-15 0 0)
(-3.35148e-17 0 0)
(-2.1191e-16 0 0)
(-1.237e-15 0 0)
(-1.32559e-15 0 0)
(-1.15015e-15 0 0)
(-1.62068e-15 0 0)
(-1.21881e-15 0 0)
(-7.17134e-16 0 0)
(-1.88354e-15 0 0)
(-1.58394e-15 0 0)
(-1.48385e-15 0 0)
(-1.0889e-15 0 0)
(-1.18051e-15 0 0)
(-3.48622e-16 0 0)
(-8.99726e-16 0 0)
(7.31812e-17 0 0)
(-7.8354e-16 0 0)
(-8.66075e-17 0 0)
(-1.32316e-15 0 0)
(-6.33766e-16 0 0)
(-1.27736e-15 0 0)
(-4.69168e-16 0 0)
(-1.05292e-15 0 0)
(-7.01404e-16 0 0)
(-1.1779e-15 0 0)
(-3.53054e-16 0 0)
(-8.27525e-16 0 0)
(-8.08007e-16 0 0)
(-1.1172e-15 0 0)
(-1.23307e-15 0 0)
(-2.09008e-15 0 0)
(-2.94679e-15 0 0)
(-4.28223e-15 0 0)
(-3.50293e-15 0 0)
(-4.51249e-15 0 0)
(-4.17435e-15 0 0)
(-4.02422e-15 0 0)
(-3.56795e-15 0 0)
(-3.95235e-15 0 0)
(-3.97529e-15 0 0)
(-4.16407e-15 0 0)
(-4.09981e-15 0 0)
(-5.51799e-15 0 0)
(-3.79729e-15 0 0)
(-4.33551e-15 0 0)
(2.3287e-14 0 0)
(3.11529e-13 0 0)
(4.16255e-12 0 0)
(5.36014e-11 0 0)
(6.9492e-10 0 0)
(9.01683e-09 0 0)
(1.14896e-07 0 0)
(1.31261e-06 0 0)
(1.00118e-05 0 0)
(4.0899e-05 0 0)
(0.000103244 0 0)
(0.000206008 0 0)
(0.000365301 0 0)
(0.000601523 0 0)
(0.000937545 0 0)
(0.00139642 0 0)
(0.00200035 0 0)
(0.00276903 0 0)
(0.00371763 0 0)
(0.00485825 0 0)
(0.00619561 0 0)
(0.00772983 0 0)
(0.00945709 0 0)
(0.0113687 0 0)
(0.0134543 0 0)
(0.0157022 0 0)
(0.0180998 0 0)
(0.0206344 0 0)
(0.0232933 0 0)
(0.0260646 0 0)
(0.0289368 0 0)
(0.0318994 0 0)
(0.0349424 0 0)
(0.038057 0 0)
(0.0412354 0 0)
(0.0444707 0 0)
(0.0477565 0 0)
(0.0510871 0 0)
(0.0544576 0 0)
(0.0578633 0 0)
(0.0613002 0 0)
(0.0647646 0 0)
(0.068253 0 0)
(0.0717626 0 0)
(0.0752904 0 0)
(0.0788338 0 0)
(0.0823905 0 0)
(0.0859581 0 0)
(0.0895344 0 0)
(0.0931172 0 0)
(0.0967044 0 0)
(0.100294 0 0)
(0.103884 0 0)
(0.107472 0 0)
(0.111057 0 0)
(0.114642 0 0)
(0.118232 0 0)
(0.121844 0 0)
(0.125492 0 0)
(0.129173 0 0)
(0.132884 0 0)
(0.136622 0 0)
(0.140384 0 0)
(0.144169 0 0)
(0.147975 0 0)
(0.1518 0 0)
(0.155643 0 0)
(0.159503 0 0)
(0.163378 0 0)
(0.167267 0 0)
(0.17117 0 0)
(0.175086 0 0)
(0.179013 0 0)
(0.182951 0 0)
(0.1869 0 0)
(0.190858 0 0)
(0.194826 0 0)
(0.198802 0 0)
(0.202786 0 0)
(0.206778 0 0)
(0.210778 0 0)
(0.214784 0 0)
(0.218797 0 0)
(0.222816 0 0)
(0.226841 0 0)
(0.230872 0 0)
(0.234908 0 0)
(0.238949 0 0)
(0.242995 0 0)
(0.247045 0 0)
(0.2511 0 0)
(0.25516 0 0)
(0.259223 0 0)
(0.263289 0 0)
(0.26736 0 0)
(0.271434 0 0)
(0.275512 0 0)
(0.279593 0 0)
(0.283677 0 0)
(0.287765 0 0)
(0.291855 0 0)
(0.295948 0 0)
(0.300044 0 0)
(0.304142 0 0)
(0.308243 0 0)
(0.312346 0 0)
(0.316452 0 0)
(0.320559 0 0)
(0.324669 0 0)
(0.328781 0 0)
(0.332895 0 0)
(0.337011 0 0)
(0.341129 0 0)
(0.345248 0 0)
(0.349369 0 0)
(0.353492 0 0)
(0.357617 0 0)
(0.361743 0 0)
(0.36587 0 0)
(0.369999 0 0)
(0.374129 0 0)
(0.378261 0 0)
(0.382394 0 0)
(0.386528 0 0)
(0.390664 0 0)
(0.3948 0 0)
(0.398938 0 0)
(0.403077 0 0)
(0.407217 0 0)
(0.411358 0 0)
(0.4155 0 0)
(0.419643 0 0)
(0.423787 0 0)
(0.427931 0 0)
(0.432077 0 0)
(0.436223 0 0)
(0.440371 0 0)
(0.444519 0 0)
(0.448667 0 0)
(0.452817 0 0)
(0.456967 0 0)
(0.461118 0 0)
(0.465269 0 0)
(0.469421 0 0)
(0.473574 0 0)
(0.477727 0 0)
(0.481881 0 0)
(0.486035 0 0)
(0.49019 0 0)
(0.494346 0 0)
(0.498501 0 0)
(0.502657 0 0)
(0.506814 0 0)
(0.510971 0 0)
(0.515128 0 0)
(0.519286 0 0)
(0.523444 0 0)
(0.527602 0 0)
(0.531761 0 0)
(0.535919 0 0)
(0.540078 0 0)
(0.544237 0 0)
(0.548397 0 0)
(0.552556 0 0)
(0.556715 0 0)
(0.560875 0 0)
(0.565035 0 0)
(0.569194 0 0)
(0.573354 0 0)
(0.577513 0 0)
(0.581673 0 0)
(0.585832 0 0)
(0.589992 0 0)
(0.594151 0 0)
(0.59831 0 0)
(0.602468 0 0)
(0.606627 0 0)
(0.610784 0 0)
(0.61494 0 0)
(0.619097 0 0)
(0.623255 0 0)
(0.627411 0 0)
(0.631567 0 0)
(0.635723 0 0)
(0.639878 0 0)
(0.644032 0 0)
(0.648185 0 0)
(0.652338 0 0)
(0.65649 0 0)
(0.660641 0 0)
(0.664791 0 0)
(0.66894 0 0)
(0.673088 0 0)
(0.677234 0 0)
(0.68138 0 0)
(0.685524 0 0)
(0.689666 0 0)
(0.693807 0 0)
(0.697946 0 0)
(0.702083 0 0)
(0.706218 0 0)
(0.710351 0 0)
(0.714482 0 0)
(0.718611 0 0)
(0.722736 0 0)
(0.72686 0 0)
(0.73098 0 0)
(0.735097 0 0)
(0.739211 0 0)
(0.743321 0 0)
(0.747427 0 0)
(0.751529 0 0)
(0.755627 0 0)
(0.75972 0 0)
(0.763809 0 0)
(0.767891 0 0)
(0.771968 0 0)
(0.776039 0 0)
(0.780104 0 0)
(0.78416 0 0)
(0.788208 0 0)
(0.792247 0 0)
(0.796279 0 0)
(0.800302 0 0)
(0.804316 0 0)
(0.808318 0 0)
(0.812308 0 0)
(0.816286 0 0)
(0.82025 0 0)
(0.824199 0 0)
(0.828132 0 0)
(0.832047 0 0)
(0.835943 0 0)
(0.839818 0 0)
(0.843671 0 0)
(0.847499 0 0)
(0.851299 0 0)
(0.85507 0 0)
(0.858808 0 0)
(0.86251 0 0)
(0.866172 0 0)
(0.86979 0 0)
(0.873358 0 0)
(0.876874 0 0)
(0.880334 0 0)
(0.883732 0 0)
(0.887059 0 0)
(0.890306 0 0)
(0.893466 0 0)
(0.896531 0 0)
(0.899489 0 0)
(0.902331 0 0)
(0.905047 0 0)
(0.907626 0 0)
(0.91006 0 0)
(0.912342 0 0)
(0.91446 0 0)
(0.916402 0 0)
(0.918163 0 0)
(0.91974 0 0)
(0.921136 0 0)
(0.922355 0 0)
(0.923405 0 0)
(0.92429 0 0)
(0.925021 0 0)
(0.925614 0 0)
(0.926088 0 0)
(0.926461 0 0)
(0.926749 0 0)
(0.926966 0 0)
(0.927127 0 0)
(0.927244 0 0)
(0.927328 0 0)
(0.927386 0 0)
(0.927426 0 0)
(0.927452 0 0)
(0.927468 0 0)
(0.927475 0 0)
(0.927479 0 0)
(0.927482 0 0)
(0.927482 0 0)
(0.927481 0 0)
(0.92748 0 0)
(0.927479 0 0)
(0.927477 0 0)
(0.927474 0 0)
(0.927471 0 0)
(0.927468 0 0)
(0.927465 0 0)
(0.927462 0 0)
(0.927459 0 0)
(0.927456 0 0)
(0.927454 0 0)
(0.927451 0 0)
(0.927449 0 0)
(0.927446 0 0)
(0.927444 0 0)
(0.927442 0 0)
(0.92744 0 0)
(0.927438 0 0)
(0.927436 0 0)
(0.927434 0 0)
(0.927432 0 0)
(0.927431 0 0)
(0.92743 0 0)
(0.927428 0 0)
(0.927426 0 0)
(0.927425 0 0)
(0.927425 0 0)
(0.927423 0 0)
(0.927422 0 0)
(0.927421 0 0)
(0.927421 0 0)
(0.92742 0 0)
(0.927419 0 0)
(0.927418 0 0)
(0.927418 0 0)
(0.927417 0 0)
(0.927417 0 0)
(0.927416 0 0)
(0.927416 0 0)
(0.927415 0 0)
(0.927415 0 0)
(0.927415 0 0)
(0.927415 0 0)
(0.927414 0 0)
(0.927414 0 0)
(0.927414 0 0)
(0.927414 0 0)
(0.927413 0 0)
(0.927413 0 0)
(0.927413 0 0)
(0.927413 0 0)
(0.927413 0 0)
(0.927413 0 0)
(0.927413 0 0)
(0.927413 0 0)
(0.927413 0 0)
(0.927413 0 0)
(0.927413 0 0)
(0.927413 0 0)
(0.927413 0 0)
(0.927414 0 0)
(0.927413 0 0)
(0.927413 0 0)
(0.927414 0 0)
(0.927414 0 0)
(0.927414 0 0)
(0.927414 0 0)
(0.927414 0 0)
(0.927414 0 0)
(0.927414 0 0)
(0.927413 0 0)
(0.927413 0 0)
(0.927413 0 0)
(0.927413 0 0)
(0.927413 0 0)
(0.927412 0 0)
(0.927412 0 0)
(0.927412 0 0)
(0.927411 0 0)
(0.927411 0 0)
(0.927411 0 0)
(0.92741 0 0)
(0.92741 0 0)
(0.927409 0 0)
(0.927409 0 0)
(0.927409 0 0)
(0.927409 0 0)
(0.927408 0 0)
(0.927408 0 0)
(0.927408 0 0)
(0.927408 0 0)
(0.927409 0 0)
(0.927409 0 0)
(0.927409 0 0)
(0.92741 0 0)
(0.92741 0 0)
(0.927411 0 0)
(0.927411 0 0)
(0.927412 0 0)
(0.927412 0 0)
(0.927413 0 0)
(0.927414 0 0)
(0.927414 0 0)
(0.927415 0 0)
(0.927416 0 0)
(0.927417 0 0)
(0.927418 0 0)
(0.92742 0 0)
(0.927421 0 0)
(0.927422 0 0)
(0.927424 0 0)
(0.927425 0 0)
(0.927427 0 0)
(0.927429 0 0)
(0.927431 0 0)
(0.927434 0 0)
(0.927437 0 0)
(0.927441 0 0)
(0.927446 0 0)
(0.927451 0 0)
(0.927458 0 0)
(0.927465 0 0)
(0.927474 0 0)
(0.927486 0 0)
(0.927499 0 0)
(0.927515 0 0)
(0.927533 0 0)
(0.927555 0 0)
(0.927581 0 0)
(0.927611 0 0)
(0.927646 0 0)
(0.927686 0 0)
(0.927733 0 0)
(0.927786 0 0)
(0.927848 0 0)
(0.927916 0 0)
(0.927994 0 0)
(0.928081 0 0)
(0.928178 0 0)
(0.928285 0 0)
(0.928403 0 0)
(0.928533 0 0)
(0.928675 0 0)
(0.928829 0 0)
(0.928995 0 0)
(0.929173 0 0)
(0.929361 0 0)
(0.929562 0 0)
(0.929773 0 0)
(0.929995 0 0)
(0.930225 0 0)
(0.930462 0 0)
(0.930707 0 0)
(0.930956 0 0)
(0.931208 0 0)
(0.931462 0 0)
(0.931714 0 0)
(0.931964 0 0)
(0.932209 0 0)
(0.932447 0 0)
(0.932675 0 0)
(0.932892 0 0)
(0.933095 0 0)
(0.933282 0 0)
(0.933452 0 0)
(0.933601 0 0)
(0.93373 0 0)
(0.933837 0 0)
(0.933919 0 0)
(0.933977 0 0)
(0.93401 0 0)
(0.934013 0 0)
(0.933998 0 0)
(0.933953 0 0)
(0.933883 0 0)
(0.93379 0 0)
(0.933674 0 0)
(0.933537 0 0)
(0.933379 0 0)
(0.933204 0 0)
(0.933012 0 0)
(0.932807 0 0)
(0.932589 0 0)
(0.932362 0 0)
(0.932127 0 0)
(0.931886 0 0)
(0.931642 0 0)
(0.931397 0 0)
(0.931152 0 0)
(0.93091 0 0)
(0.930671 0 0)
(0.930438 0 0)
(0.930212 0 0)
(0.929993 0 0)
(0.929784 0 0)
(0.929583 0 0)
(0.929393 0 0)
(0.929214 0 0)
(0.929045 0 0)
(0.928887 0 0)
(0.92874 0 0)
(0.928604 0 0)
(0.928478 0 0)
(0.928363 0 0)
(0.928257 0 0)
(0.928161 0 0)
(0.928074 0 0)
(0.927995 0 0)
(0.927925 0 0)
(0.927861 0 0)
(0.927805 0 0)
(0.927754 0 0)
(0.92771 0 0)
(0.927671 0 0)
(0.927636 0 0)
(0.927606 0 0)
(0.927579 0 0)
(0.927557 0 0)
(0.927537 0 0)
(0.92752 0 0)
(0.927505 0 0)
(0.927493 0 0)
(0.927482 0 0)
(0.927473 0 0)
(0.927465 0 0)
(0.927459 0 0)
(0.927454 0 0)
(0.92745 0 0)
(0.927446 0 0)
(0.927442 0 0)
(0.92744 0 0)
(0.927438 0 0)
(0.927436 0 0)
(0.927435 0 0)
(0.927433 0 0)
(0.927433 0 0)
(0.927432 0 0)
(0.927431 0 0)
(0.927431 0 0)
(0.927432 0 0)
(0.927432 0 0)
(0.927431 0 0)
(0.927432 0 0)
(0.927433 0 0)
(0.927432 0 0)
(0.927432 0 0)
(0.927433 0 0)
(0.927433 0 0)
(0.927432 0 0)
(0.927433 0 0)
(0.927433 0 0)
(0.927433 0 0)
(0.927434 0 0)
(0.927434 0 0)
(0.927435 0 0)
(0.927434 0 0)
(0.927434 0 0)
(0.927434 0 0)
(0.927433 0 0)
(0.927433 0 0)
(0.927433 0 0)
(0.927434 0 0)
(0.927434 0 0)
(0.927434 0 0)
(0.927434 0 0)
(0.927433 0 0)
(0.927432 0 0)
(0.927431 0 0)
(0.92743 0 0)
(0.927431 0 0)
(0.927432 0 0)
(0.927431 0 0)
(0.927431 0 0)
(0.92743 0 0)
(0.927429 0 0)
(0.927427 0 0)
(0.927426 0 0)
(0.927427 0 0)
(0.927426 0 0)
(0.927426 0 0)
(0.927426 0 0)
(0.927425 0 0)
(0.927424 0 0)
(0.927422 0 0)
(0.927421 0 0)
(0.92742 0 0)
(0.927421 0 0)
(0.92742 0 0)
(0.92742 0 0)
(0.927419 0 0)
(0.927418 0 0)
(0.927417 0 0)
(0.927416 0 0)
(0.927415 0 0)
(0.927413 0 0)
(0.927414 0 0)
(0.927414 0 0)
(0.927416 0 0)
(0.927417 0 0)
(0.927417 0 0)
(0.927414 0 0)
(0.927412 0 0)
(0.927411 0 0)
(0.927411 0 0)
(0.927411 0 0)
(0.927413 0 0)
(0.927415 0 0)
(0.927415 0 0)
(0.927413 0 0)
(0.927411 0 0)
(0.92741 0 0)
(0.927409 0 0)
(0.927409 0 0)
(0.927411 0 0)
(0.927413 0 0)
(0.927412 0 0)
(0.927412 0 0)
(0.927411 0 0)
(0.927409 0 0)
(0.927407 0 0)
(0.927404 0 0)
(0.927402 0 0)
(0.927398 0 0)
(0.927387 0 0)
(0.927357 0 0)
(0.927285 0 0)
(0.927115 0 0)
(0.92671 0 0)
(0.925738 0 0)
(0.923416 0 0)
(0.917858 0 0)
(0.904638 0 0)
(0.873467 0 0)
(0.801817 0 0)
(0.649168 0 0)
(0.390629 0 0)
(0.135187 0 0)
(0.0214771 0 0)
(0.00160737 0 0)
(7.75119e-05 0 0)
(2.88876e-06 0 0)
(9.10155e-08 0 0)
(3.0349e-09 0 0)
(1.0193e-10 0 0)
(3.43058e-12 0 0)
(1.15294e-13 0 0)
(5.87793e-15 0 0)
(1.22596e-15 0 0)
(9.53999e-16 0 0)
(8.34656e-16 0 0)
(1.4727e-15 0 0)
(1.33612e-15 0 0)
(9.63138e-16 0 0)
(1.20482e-15 0 0)
(7.6464e-16 0 0)
(1.05376e-15 0 0)
(6.46817e-16 0 0)
(1.01123e-15 0 0)
(4.72422e-16 0 0)
(1.0112e-15 0 0)
(-2.40948e-17 0 0)
(4.97622e-16 0 0)
(2.46826e-16 0 0)
(1.27169e-16 0 0)
(-2.26671e-16 0 0)
(-1.54944e-16 0 0)
(7.58118e-16 0 0)
(-5.16286e-16 0 0)
(2.53164e-16 0 0)
(-5.90598e-16 0 0)
(-1.06729e-16 0 0)
(-6.52627e-16 0 0)
(5.49571e-16 0 0)
(-2.61062e-16 0 0)
(8.45011e-16 0 0)
(-1.09415e-15 0 0)
(7.0157e-16 0 0)
(-6.31898e-16 0 0)
(6.04695e-16 0 0)
(-1.15363e-15 0 0)
(5.67886e-16 0 0)
(-1.42723e-15 0 0)
(9.29202e-16 0 0)
(-9.651e-16 0 0)
)
;

boundaryField
{
    sides
    {
        type            fixedValue;
        value           uniform (0 0 0);
    }
    empty1
    {
        type            empty;
    }
    empty2
    {
        type            empty;
    }
}


// ************************************************************************* //
