x,T,p,rho,U_0,U_1,U_2
0.000625,293,1e+07,1002.15,-7.54149e-11,0,0
0.001875,293,1e+07,1002.15,-3.6001e-11,0,0
0.003125,293,1e+07,1002.15,3.51088e-11,0,0
0.004375,293,1e+07,1002.15,3.51641e-11,0,0
0.005625,293,1e+07,1002.15,1.19735e-11,0,0
0.006875,293,1e+07,1002.15,4.57291e-12,0,0
0.008125,293,1e+07,1002.15,5.55869e-12,0,0
0.009375,293,1e+07,1002.15,2.82188e-11,0,0
0.010625,293,1e+07,1002.15,2.06316e-11,0,0
0.011875,293,1e+07,1002.15,-2.30384e-11,0,0
0.013125,293,1e+07,1002.15,-1.50072e-11,0,0
0.014375,293,1e+07,1002.15,9.38053e-12,0,0
0.015625,293,1e+07,1002.15,1.83679e-11,0,0
0.016875,293,1e+07,1002.15,7.03453e-12,0,0
0.018125,293,1e+07,1002.15,-2.7458e-11,0,0
0.019375,293,1e+07,1002.15,1.10829e-11,0,0
0.020625,293,1e+07,1002.15,1.0858e-11,0,0
0.021875,293,1e+07,1002.15,-1.14614e-11,0,0
0.023125,293,1e+07,1002.15,-1.45588e-11,0,0
0.024375,293,1e+07,1002.15,2.62521e-12,0,0
0.025625,293,1e+07,1002.15,1.13063e-11,0,0
0.026875,293,1e+07,1002.15,-1.35145e-11,0,0
0.028125,293,1e+07,1002.15,-1.05511e-11,0,0
0.029375,293,1e+07,1002.15,3.0614e-13,0,0
0.030625,293,1e+07,1002.15,-3.04548e-12,0,0
0.031875,293,1e+07,1002.15,6.56888e-12,0,0
0.033125,293,1e+07,1002.15,-2.5955e-11,0,0
0.034375,293,1e+07,1002.15,-2.69287e-11,0,0
0.035625,293,1e+07,1002.15,3.00767e-11,0,0
0.036875,293,1e+07,1002.15,9.22171e-12,0,0
0.038125,293,1e+07,1002.15,-1.41958e-11,0,0
0.039375,293,1e+07,1002.15,1.19535e-11,0,0
0.040625,293,1e+07,1002.15,1.21186e-11,0,0
0.041875,293,1e+07,1002.15,-3.01323e-11,0,0
0.043125,293,1e+07,1002.15,-7.08068e-12,0,0
0.044375,293,1e+07,1002.15,1.81112e-11,0,0
0.045625,293,1e+07,1002.15,-2.9531e-12,0,0
0.046875,293,1e+07,1002.15,-1.3861e-11,0,0
0.048125,293,1e+07,1002.15,-2.26469e-11,0,0
0.049375,293,1e+07,1002.15,-1.03413e-12,0,0
0.050625,293,1e+07,1002.15,1.98007e-11,0,0
0.051875,293,1e+07,1002.15,-5.49224e-12,0,0
0.053125,293,1e+07,1002.15,-2.0406e-11,0,0
0.054375,293,1e+07,1002.15,-3.38157e-12,0,0
0.055625,293,1e+07,1002.15,1.30286e-11,0,0
0.056875,293,1e+07,1002.15,-4.06126e-12,0,0
0.058125,293,1e+07,1002.15,-6.84387e-12,0,0
0.059375,293,1e+07,1002.15,1.45482e-12,0,0
0.060625,293,1e+07,1002.15,4.07724e-12,0,0
0.061875,293,1e+07,1002.15,3.7792e-12,0,0
0.063125,293,1e+07,1002.15,2.18736e-11,0,0
0.064375,293,1e+07,1002.15,2.22472e-11,0,0
0.065625,293,1e+07,1002.15,-2.48295e-12,0,0
0.066875,293,1e+07,1002.15,3.80896e-11,0,0
0.068125,293,1e+07,1002.15,3.86263e-11,0,0
0.069375,293,1e+07,1002.15,1.2961e-11,0,0
0.070625,293,1e+07,1002.15,5.54667e-12,0,0
0.071875,293,1e+07,1002.15,8.38132e-12,0,0
0.073125,293,1e+07,1002.15,3.45087e-11,0,0
0.074375,293,1e+07,1002.15,1.48534e-11,0,0
0.075625,293,1e+07,1002.15,1.73487e-11,0,0
0.076875,293,1e+07,1002.15,1.04142e-11,0,0
0.078125,293,1e+07,1002.15,-7.71853e-12,0,0
0.079375,293,1e+07,1002.15,1.6577e-11,0,0
0.080625,293,1e+07,1002.15,2.85903e-11,0,0
0.081875,293,1e+07,1002.15,1.7187e-11,0,0
0.083125,293,1e+07,1002.15,-6.84532e-12,0,0
0.084375,293,1e+07,1002.15,3.33599e-11,0,0
0.085625,293,1e+07,1002.15,2.94902e-11,0,0
0.086875,293,1e+07,1002.15,2.11694e-13,0,0
0.088125,293,1e+07,1002.15,4.38468e-12,0,0
0.089375,293,1e+07,1002.15,-1.65262e-11,0,0
0.090625,293,1e+07,1002.15,-3.02124e-12,0,0
0.091875,293,1e+07,1002.15,8.38492e-12,0,0
0.093125,293,1e+07,1002.15,-1.2582e-11,0,0
0.094375,293,1e+07,1002.15,-1.57442e-11,0,0
0.095625,293,1e+07,1002.15,1.52211e-11,0,0
0.096875,293,1e+07,1002.15,2.06914e-11,0,0
0.098125,293,1e+07,1002.15,-1.62239e-11,0,0
0.099375,293,1e+07,1002.15,-7.08128e-12,0,0
0.100625,293,1e+07,1002.15,1.07467e-11,0,0
0.101875,293,1e+07,1002.15,9.91844e-12,0,0
0.103125,293,1e+07,1002.15,1.40987e-11,0,0
0.104375,293,1e+07,1002.15,-1.08849e-11,0,0
0.105625,293,1e+07,1002.15,5.60842e-12,0,0
0.106875,293,1e+07,1002.15,3.05173e-11,0,0
0.108125,293,1e+07,1002.15,-1.51161e-11,0,0
0.109375,293,1e+07,1002.15,-3.34037e-12,0,0
0.110625,293,1e+07,1002.15,2.1961e-11,0,0
0.111875,293,1e+07,1002.15,-9.13144e-12,0,0
0.113125,293,1e+07,1002.15,-1.04024e-11,0,0
0.114375,293,1e+07,1002.15,1.05138e-11,0,0
0.115625,293,1e+07,1002.15,3.57302e-11,0,0
0.116875,293,1e+07,1002.15,3.10489e-11,0,0
0.118125,293,1e+07,1002.15,-1.94022e-11,0,0
0.119375,293,1e+07,1002.15,-1.66085e-11,0,0
0.120625,293,1e+07,1002.15,-1.39619e-11,0,0
0.121875,293,1e+07,1002.15,-1.51516e-11,0,0
0.123125,293,1e+07,1002.15,-2.12361e-11,0,0
0.124375,293,1e+07,1002.15,5.85068e-12,0,0
0.125625,293,1e+07,1002.15,2.58551e-11,0,0
0.126875,293,1e+07,1002.15,4.87392e-12,0,0
0.128125,293,1e+07,1002.15,4.1516e-12,0,0
0.129375,293,1e+07,1002.15,1.33874e-12,0,0
0.130625,293,1e+07,1002.15,1.11544e-12,0,0
0.131875,293,1e+07,1002.15,3.85006e-11,0,0
0.133125,293,1e+07,1002.15,3.56759e-11,0,0
0.134375,293,1e+07,1002.15,-1.78992e-11,0,0
0.135625,293,1e+07,1002.15,5.90035e-12,0,0
0.136875,293,1e+07,1002.15,3.119e-11,0,0
0.138125,293,1e+07,1002.15,9.46658e-12,0,0
0.139375,293,1e+07,1002.15,2.01198e-12,0,0
0.140625,293,1e+07,1002.15,2.0016e-11,0,0
0.141875,293,1e+07,1002.15,1.29104e-11,0,0
0.143125,293,1e+07,1002.15,5.03504e-12,0,0
0.144375,293,1e+07,1002.15,-3.06754e-12,0,0
0.145625,293,1e+07,1002.15,-8.15431e-12,0,0
0.146875,293,1e+07,1002.15,2.98435e-11,0,0
0.148125,293,1e+07,1002.15,1.13342e-11,0,0
0.149375,293,1e+07,1002.15,-1.09222e-11,0,0
0.150625,293,1e+07,1002.15,2.60234e-11,0,0
0.151875,293,1e+07,1002.15,3.54261e-11,0,0
0.153125,293,1e+07,1002.15,-4.72229e-12,0,0
0.154375,293,1e+07,1002.15,-7.50749e-12,0,0
0.155625,293,1e+07,1002.15,2.01274e-11,0,0
0.156875,293,1e+07,1002.15,4.41512e-12,0,0
0.158125,293,1e+07,1002.15,1.0333e-11,0,0
0.159375,293,1e+07,1002.15,-1.64587e-11,0,0
0.160625,293,1e+07,1002.15,-5.05947e-12,0,0
0.161875,293,1e+07,1002.15,4.24138e-12,0,0
0.163125,293,1e+07,1002.15,-2.38664e-12,0,0
0.164375,293,1e+07,1002.15,7.67558e-12,0,0
0.165625,293,1e+07,1002.15,-8.26585e-12,0,0
0.166875,293,1e+07,1002.15,7.89444e-12,0,0
0.168125,293,1e+07,1002.15,-4.25754e-12,0,0
0.169375,293,1e+07,1002.15,-1.13096e-11,0,0
0.170625,293,1e+07,1002.15,-7.67483e-12,0,0
0.171875,293,1e+07,1002.15,-1.71405e-11,0,0
0.173125,293,1e+07,1002.15,-8.56323e-12,0,0
0.174375,293,1e+07,1002.15,7.92672e-13,0,0
0.175625,293,1e+07,1002.15,4.89105e-12,0,0
0.176875,293,1e+07,1002.15,4.34084e-12,0,0
0.178125,293,1e+07,1002.15,-8.93604e-12,0,0
0.179375,293,1e+07,1002.15,-2.38293e-11,0,0
0.180625,293,1e+07,1002.15,2.76768e-12,0,0
0.181875,293,1e+07,1002.15,4.06778e-12,0,0
0.183125,293,1e+07,1002.15,-1.99274e-11,0,0
0.184375,293,1e+07,1002.15,-9.54693e-12,0,0
0.185625,293,1e+07,1002.15,-1.17223e-11,0,0
0.186875,293,1e+07,1002.15,-2.67801e-11,0,0
0.188125,293,1e+07,1002.15,-1.64074e-11,0,0
0.189375,293,1e+07,1002.15,1.02792e-11,0,0
0.190625,293,1e+07,1002.15,1.66263e-11,0,0
0.191875,293,1e+07,1002.15,3.86248e-12,0,0
0.193125,293,1e+07,1002.15,-5.96915e-12,0,0
0.194375,293,1e+07,1002.15,8.67138e-12,0,0
0.195625,293,1e+07,1002.15,7.25119e-12,0,0
0.196875,293,1e+07,1002.15,1.04235e-12,0,0
0.198125,293,1e+07,1002.15,1.32337e-11,0,0
0.199375,293,1e+07,1002.15,1.04437e-11,0,0
0.200625,293,1e+07,1002.15,-2.18852e-12,0,0
0.201875,293,1e+07,1002.15,4.31494e-13,0,0
0.203125,293,1e+07,1002.15,7.66972e-12,0,0
0.204375,293,1e+07,1002.15,5.72268e-12,0,0
0.205625,293,1e+07,1002.15,-1.42594e-13,0,0
0.206875,293,1e+07,1002.15,1.31993e-11,0,0
0.208125,293,1e+07,1002.15,2.30467e-11,0,0
0.209375,293,1e+07,1002.15,4.15578e-12,0,0
0.210625,293,1e+07,1002.15,4.8283e-12,0,0
0.211875,293,1e+07,1002.15,2.43324e-11,0,0
0.213125,293,1e+07,1002.15,4.87835e-13,0,0
0.214375,293,1e+07,1002.15,3.93502e-12,0,0
0.215625,293,1e+07,1002.15,3.21149e-11,0,0
0.216875,293,1e+07,1002.15,1.93565e-11,0,0
0.218125,293,1e+07,1002.15,1.36849e-11,0,0
0.219375,293,1e+07,1002.15,1.54231e-11,0,0
0.220625,293,1e+07,1002.15,1.4931e-11,0,0
0.221875,293,1e+07,1002.15,-4.13966e-12,0,0
0.223125,293,1e+07,1002.15,-1.4248e-11,0,0
0.224375,293,1e+07,1002.15,1.67069e-11,0,0
0.225625,293,1e+07,1002.15,2.41123e-11,0,0
0.226875,293,1e+07,1002.15,-1.92607e-11,0,0
0.228125,293,1e+07,1002.15,4.32695e-12,0,0
0.229375,293,1e+07,1002.15,1.96536e-11,0,0
0.230625,293,1e+07,1002.15,-3.33685e-12,0,0
0.231875,293,1e+07,1002.15,1.14558e-11,0,0
0.233125,293,1e+07,1002.15,4.10105e-13,0,0
0.234375,293,1e+07,1002.15,-1.25659e-11,0,0
0.235625,293,1e+07,1002.15,2.11365e-11,0,0
0.236875,293,1e+07,1002.15,9.21782e-13,0,0
0.238125,293,1e+07,1002.15,4.32694e-12,0,0
0.239375,293,1e+07,1002.15,2.77916e-11,0,0
0.240625,293,1e+07,1002.15,-9.13208e-12,0,0
0.241875,293,1e+07,1002.15,6.06621e-12,0,0
0.243125,293,1e+07,1002.15,1.79568e-11,0,0
0.244375,293,1e+07,1002.15,1.88098e-11,0,0
0.245625,293,1e+07,1002.15,-1.13539e-11,0,0
0.246875,293,1e+07,1002.15,3.87905e-12,0,0
0.248125,293,1e+07,1002.15,7.92891e-12,0,0
0.249375,293,1e+07,1002.15,8.04516e-12,0,0
0.250625,293,1e+07,1002.15,1.8988e-11,0,0
0.251875,293,1e+07,1002.15,-1.00836e-12,0,0
0.253125,293,1e+07,1002.15,7.37412e-12,0,0
0.254375,293,1e+07,1002.15,-6.143e-13,0,0
0.255625,293,1e+07,1002.15,-3.27718e-12,0,0
0.256875,293,1e+07,1002.15,5.95484e-12,0,0
0.258125,293,1e+07,1002.15,-2.18658e-12,0,0
0.259375,293,1e+07,1002.15,-2.06349e-11,0,0
0.260625,293,1e+07,1002.15,-1.02559e-11,0,0
0.261875,293,1e+07,1002.15,7.60277e-12,0,0
0.263125,293,1e+07,1002.15,-5.59573e-12,0,0
0.264375,293,1e+07,1002.15,-4.91826e-12,0,0
0.265625,293,1e+07,1002.15,2.6719e-11,0,0
0.266875,293,1e+07,1002.15,-1.41679e-11,0,0
0.268125,293,1e+07,1002.15,-1.68034e-12,0,0
0.269375,293,1e+07,1002.15,1.64617e-11,0,0
0.270625,293,1e+07,1002.15,1.66267e-12,0,0
0.271875,293,1e+07,1002.15,-1.01513e-11,0,0
0.273125,293,1e+07,1002.15,-1.42107e-11,0,0
0.274375,293,1e+07,1002.15,1.86576e-11,0,0
0.275625,293,1e+07,1002.15,1.83599e-11,0,0
0.276875,293,1e+07,1002.15,-6.50752e-12,0,0
0.278125,293,1e+07,1002.15,1.61848e-11,0,0
0.279375,293,1e+07,1002.15,2.18571e-11,0,0
0.280625,293,1e+07,1002.15,8.17762e-12,0,0
0.281875,293,1e+07,1002.15,3.78837e-11,0,0
0.283125,293,1e+07,1002.15,7.57651e-11,0,0
0.284375,293,1e+07,1002.15,5.20581e-11,0,0
0.285625,293,1e+07,1002.15,1.10067e-10,0,0
0.286875,293,1e+07,1002.15,2.94555e-10,0,0
0.288125,293,1e+07,1002.15,4.59578e-10,0,0
0.289375,293,1e+07,1002.15,8.59186e-10,0,0
0.290625,293,1e+07,1002.15,1.72681e-09,0,0
0.291875,293,1e+07,1002.15,3.17547e-09,0,0
0.293125,293,1e+07,1002.15,5.93921e-09,0,0
0.294375,293,1e+07,1002.15,1.10016e-08,0,0
0.295625,293,1e+07,1002.15,2.00156e-08,0,0
0.296875,293,1e+07,1002.15,3.63918e-08,0,0
0.298125,293,1e+07,1002.15,6.54121e-08,0,0
0.299375,293,1e+07,1002.15,1.16549e-07,0,0
0.300625,293,1e+07,1002.15,2.0667e-07,0,0
0.301875,293,1e+07,1002.15,3.62885e-07,0,0
0.303125,293,1e+07,1002.15,6.33949e-07,0,0
0.304375,293,1e+07,1002.15,1.0974e-06,0,0
0.305625,293,1e+07,1002.15,1.88924e-06,0,0
0.306875,293,1e+07,1002.15,3.22273e-06,0,0
0.308125,293,9.99999e+06,1002.15,5.45634e-06,0,0
0.309375,293,9.99999e+06,1002.15,9.17101e-06,0,0
0.310625,293,9.99998e+06,1002.15,1.53053e-05,0,0
0.311875,293,9.99996e+06,1002.15,2.53367e-05,0,0
0.313125,293,9.99994e+06,1002.15,4.15412e-05,0,0
0.314375,293,9.9999e+06,1002.15,6.76956e-05,0,0
0.315625,293,9.99984e+06,1002.15,0.000109374,0,0
0.316875,293,9.99974e+06,1002.15,0.000174935,0,0
0.318125,293,9.99959e+06,1002.15,0.0002779,0,0
0.319375,293,9.99935e+06,1002.15,0.000437484,0,0
0.320625,293,9.99899e+06,1002.15,0.000681795,0,0
0.321875,293,9.99843e+06,1002.15,0.00105466,0,0
0.323125,292.999,9.9976e+06,1002.15,0.00161371,0,0
0.324375,292.999,9.99636e+06,1002.15,0.00244985,0,0
0.325625,292.998,9.99452e+06,1002.15,0.00368385,0,0
0.326875,292.998,9.99185e+06,1002.15,0.00547686,0,0
0.328125,292.997,9.988e+06,1002.15,0.00807686,0,0
0.329375,292.995,9.98247e+06,1002.14,0.0117898,0,0
0.330625,292.994,9.97472e+06,1002.14,0.0170124,0,0
0.331875,292.99,9.96385e+06,1002.14,0.0243255,0,0
0.333125,292.987,9.94895e+06,1002.13,0.0343677,0,0
0.334375,292.981,9.92857e+06,1002.12,0.0480851,0,0
0.335625,292.977,9.90131e+06,1002.11,0.0664586,0,0
0.336875,292.965,9.86503e+06,1002.09,0.0909184,0,0
0.338125,292.947,9.81761e+06,1002.07,0.122799,0,0
0.339375,292.935,9.75671e+06,1002.04,0.16381,0,0
0.340625,292.92,9.6792e+06,1002.01,0.216147,0,0
0.341875,292.886,9.58182e+06,1001.96,0.28175,0,0
0.343125,292.865,9.46262e+06,1001.91,0.362172,0,0
0.344375,292.813,9.31728e+06,1001.84,0.460138,0,0
0.345625,292.78,9.14497e+06,1001.76,0.576269,0,0
0.346875,292.743,8.94301e+06,1001.67,0.712817,0,0
0.348125,292.663,8.71035e+06,1001.56,0.869805,0,0
0.349375,292.618,8.44968e+06,1001.44,1.04591,0,0
0.350625,292.523,8.16061e+06,1001.31,1.24151,0,0
0.351875,292.472,7.85424e+06,1001.17,1.44889,0,0
0.353125,292.374,7.55355e+06,1001.03,1.65127,0,0
0.354375,292.328,7.27037e+06,1000.9,1.84283,0,0
0.355625,292.286,7.00675e+06,1000.78,2.02172,0,0
0.356875,292.207,6.76519e+06,1000.67,2.18456,0,0
0.358125,292.174,6.54953e+06,1000.57,2.33147,0,0
0.359375,292.118,6.35808e+06,1000.48,2.46005,0,0
0.360625,292.097,6.19313e+06,1000.41,2.57215,0,0
0.361875,292.048,6.0526e+06,1000.34,2.66787,0,0
0.363125,292.006,5.93433e+06,1000.29,2.74772,0,0
0.364375,291.988,5.83659e+06,1000.25,2.81352,0,0
0.365625,291.978,5.75752e+06,1000.21,2.86717,0,0
0.366875,291.969,5.69446e+06,1000.18,2.91022,0,0
0.368125,291.953,5.6445e+06,1000.16,2.94392,0,0
0.369375,291.946,5.60591e+06,1000.14,2.97014,0,0
0.370625,291.944,5.57652e+06,1000.13,2.99029,0,0
0.371875,291.94,5.55408e+06,1000.12,3.00524,0,0
0.373125,291.938,5.53739e+06,1000.11,3.0163,0,0
0.374375,291.936,5.52544e+06,1000.1,3.02461,0,0
0.375625,291.932,5.51682e+06,1000.1,3.03062,0,0
0.376875,291.929,5.51057e+06,1000.1,3.03481,0,0
0.378125,291.927,5.50614e+06,1000.09,3.03775,0,0
0.379375,291.924,5.50306e+06,1000.09,3.0398,0,0
0.380625,291.923,5.50093e+06,1000.09,3.04121,0,0
0.381875,291.923,5.49945e+06,1000.09,3.04214,0,0
0.383125,291.925,5.49852e+06,1000.09,3.04283,0,0
0.384375,291.927,5.49793e+06,1000.09,3.04332,0,0
0.385625,291.928,5.49748e+06,1000.09,3.04362,0,0
0.386875,291.931,5.49716e+06,1000.09,3.0438,0,0
0.388125,291.931,5.49695e+06,1000.09,3.04394,0,0
0.389375,291.932,5.49684e+06,1000.09,3.04406,0,0
0.390625,291.932,5.49674e+06,1000.09,3.04413,0,0
0.391875,291.931,5.49666e+06,1000.09,3.04417,0,0
0.393125,291.929,5.49661e+06,1000.09,3.04423,0,0
0.394375,291.927,5.49658e+06,1000.09,3.04428,0,0
0.395625,291.926,5.49655e+06,1000.09,3.04432,0,0
0.396875,291.924,5.49651e+06,1000.09,3.04434,0,0
0.398125,291.922,5.49644e+06,1000.09,3.04435,0,0
0.399375,291.921,5.49638e+06,1000.09,3.04434,0,0
0.400625,291.921,5.49633e+06,1000.09,3.04435,0,0
0.401875,291.92,5.4963e+06,1000.09,3.04437,0,0
0.403125,291.92,5.49628e+06,1000.09,3.04439,0,0
0.404375,291.921,5.49625e+06,1000.09,3.0444,0,0
0.405625,291.921,5.49622e+06,1000.09,3.04441,0,0
0.406875,291.922,5.49619e+06,1000.09,3.04442,0,0
0.408125,291.922,5.49617e+06,1000.09,3.04443,0,0
0.409375,291.923,5.49617e+06,1000.09,3.04445,0,0
0.410625,291.924,5.49615e+06,1000.09,3.04446,0,0
0.411875,291.924,5.49614e+06,1000.09,3.04448,0,0
0.413125,291.925,5.49612e+06,1000.09,3.04449,0,0
0.414375,291.925,5.4961e+06,1000.09,3.04451,0,0
0.415625,291.926,5.49608e+06,1000.09,3.04452,0,0
0.416875,291.926,5.49606e+06,1000.09,3.04454,0,0
0.418125,291.927,5.49604e+06,1000.09,3.04455,0,0
0.419375,291.927,5.49601e+06,1000.09,3.04456,0,0
0.420625,291.927,5.49598e+06,1000.09,3.04457,0,0
0.421875,291.927,5.49594e+06,1000.09,3.04457,0,0
0.423125,291.927,5.4959e+06,1000.09,3.04458,0,0
0.424375,291.927,5.49586e+06,1000.09,3.04459,0,0
0.425625,291.927,5.49584e+06,1000.09,3.0446,0,0
0.426875,291.927,5.49582e+06,1000.09,3.04462,0,0
0.428125,291.927,5.4958e+06,1000.09,3.04465,0,0
0.429375,291.926,5.49579e+06,1000.09,3.04467,0,0
0.430625,291.926,5.49579e+06,1000.09,3.04469,0,0
0.431875,291.926,5.49578e+06,1000.09,3.0447,0,0
0.433125,291.926,5.49577e+06,1000.09,3.04472,0,0
0.434375,291.926,5.49578e+06,1000.09,3.04473,0,0
0.435625,291.926,5.49578e+06,1000.09,3.04474,0,0
0.436875,291.926,5.49578e+06,1000.09,3.04475,0,0
0.438125,291.926,5.49578e+06,1000.09,3.04475,0,0
0.439375,291.926,5.49578e+06,1000.09,3.04475,0,0
0.440625,291.926,5.49577e+06,1000.09,3.04474,0,0
0.441875,291.926,5.49575e+06,1000.09,3.04472,0,0
0.443125,291.926,5.49572e+06,1000.09,3.04471,0,0
0.444375,291.926,5.49569e+06,1000.09,3.04469,0,0
0.445625,291.926,5.49566e+06,1000.09,3.04468,0,0
0.446875,291.926,5.49562e+06,1000.09,3.04467,0,0
0.448125,291.926,5.4956e+06,1000.09,3.04467,0,0
0.449375,291.926,5.49557e+06,1000.09,3.04468,0,0
0.450625,291.926,5.49555e+06,1000.09,3.04469,0,0
0.451875,291.926,5.49553e+06,1000.09,3.0447,0,0
0.453125,291.926,5.49552e+06,1000.09,3.04471,0,0
0.454375,291.926,5.49552e+06,1000.09,3.04473,0,0
0.455625,291.926,5.49552e+06,1000.09,3.04475,0,0
0.456875,291.926,5.49553e+06,1000.09,3.04476,0,0
0.458125,291.926,5.49553e+06,1000.09,3.04477,0,0
0.459375,291.926,5.49553e+06,1000.09,3.04478,0,0
0.460625,291.926,5.49553e+06,1000.09,3.04478,0,0
0.461875,291.926,5.49552e+06,1000.09,3.04479,0,0
0.463125,291.927,5.4955e+06,1000.09,3.04479,0,0
0.464375,291.927,5.49548e+06,1000.09,3.04479,0,0
0.465625,291.928,5.49547e+06,1000.09,3.0448,0,0
0.466875,291.929,5.49545e+06,1000.09,3.04479,0,0
0.468125,291.93,5.49545e+06,1000.09,3.0448,0,0
0.469375,291.932,5.49543e+06,1000.09,3.04481,0,0
0.470625,291.934,5.49542e+06,1000.09,3.0448,0,0
0.471875,291.938,5.49542e+06,1000.09,3.0448,0,0
0.473125,291.941,5.49539e+06,1000.09,3.0448,0,0
0.474375,291.949,5.49539e+06,1000.09,3.04479,0,0
0.475625,291.961,5.4954e+06,1000.09,3.04481,0,0
0.476875,291.969,5.49534e+06,1000.09,3.04485,0,0
0.478125,291.978,5.49532e+06,1000.09,3.04486,0,0
0.479375,291.99,5.49526e+06,1000.09,3.04483,0,0
0.480625,292.019,5.49535e+06,1000.09,3.04485,0,0
0.481875,292.035,5.4953e+06,1000.09,3.04491,0,0
0.483125,292.053,5.49525e+06,1000.09,3.04485,0,0
0.484375,292.094,5.49542e+06,1000.09,3.04488,0,0
0.485625,292.118,5.49531e+06,1000.09,3.04499,0,0
0.486875,292.145,5.49518e+06,1000.09,3.04489,0,0
0.488125,292.203,5.49538e+06,1000.09,3.0449,0,0
0.489375,292.233,5.49515e+06,1000.09,3.0449,0,0
0.490625,292.331,5.49528e+06,1000.08,3.04479,0,0
0.491875,292.444,5.49538e+06,1000.08,3.04499,0,0
0.493125,292.493,5.49527e+06,1000.08,3.04518,0,0
0.494375,292.545,5.49507e+06,1000.08,3.04502,0,0
0.495625,292.66,5.49545e+06,1000.08,3.04503,0,0
0.496875,292.722,5.49502e+06,1000.08,3.04503,0,0
0.498125,292.853,5.49545e+06,1000.08,3.04505,0,0
0.499375,292.921,5.495e+06,1000.08,3.04505,0,0
0.500625,293.061,5.49548e+06,1000.08,3.04509,0,0
0.501875,293.13,5.49523e+06,1000.08,3.04535,0,0
0.503125,293.198,5.49499e+06,1000.08,3.04508,0,0
0.504375,293.331,5.49547e+06,1000.08,3.04506,0,0
0.505625,293.394,5.49521e+06,1000.08,3.04528,0,0
0.506875,293.454,5.49501e+06,1000.07,3.04505,0,0
0.508125,293.565,5.49537e+06,1000.07,3.045,0,0
0.509375,293.617,5.49501e+06,1000.07,3.04498,0,0
0.510625,293.711,5.49532e+06,1000.07,3.04496,0,0
0.511875,293.753,5.49515e+06,1000.07,3.04509,0,0
0.513125,293.791,5.49503e+06,1000.07,3.04493,0,0
0.514375,293.857,5.49524e+06,1000.07,3.04489,0,0
0.515625,293.886,5.49503e+06,1000.07,3.04488,0,0
0.516875,293.936,5.49518e+06,1000.07,3.04485,0,0
0.518125,293.957,5.49502e+06,1000.07,3.04485,0,0
0.519375,293.992,5.49512e+06,1000.07,3.04483,0,0
0.520625,294.007,5.49505e+06,1000.07,3.04486,0,0
0.521875,294.018,5.49503e+06,1000.07,3.04485,0,0
0.523125,294.028,5.49499e+06,1000.07,3.04481,0,0
0.524375,294.043,5.49503e+06,1000.07,3.0448,0,0
0.525625,294.049,5.49498e+06,1000.07,3.0448,0,0
0.526875,294.058,5.495e+06,1000.07,3.0448,0,0
0.528125,294.061,5.49498e+06,1000.07,3.0448,0,0
0.529375,294.066,5.49499e+06,1000.07,3.04479,0,0
0.530625,294.068,5.49498e+06,1000.07,3.04478,0,0
0.531875,294.071,5.49498e+06,1000.07,3.04478,0,0
0.533125,294.072,5.49497e+06,1000.07,3.04478,0,0
0.534375,294.073,5.49496e+06,1000.07,3.04477,0,0
0.535625,294.074,5.49495e+06,1000.07,3.04477,0,0
0.536875,294.074,5.49494e+06,1000.07,3.04476,0,0
0.538125,294.075,5.49493e+06,1000.07,3.04476,0,0
0.539375,294.075,5.49492e+06,1000.07,3.04475,0,0
0.540625,294.075,5.49491e+06,1000.07,3.04475,0,0
0.541875,294.075,5.4949e+06,1000.07,3.04474,0,0
0.543125,294.075,5.49488e+06,1000.07,3.04474,0,0
0.544375,294.075,5.49486e+06,1000.07,3.04473,0,0
0.545625,294.075,5.49484e+06,1000.07,3.04473,0,0
0.546875,294.075,5.49482e+06,1000.07,3.04472,0,0
0.548125,294.075,5.4948e+06,1000.07,3.04471,0,0
0.549375,294.075,5.49478e+06,1000.07,3.0447,0,0
0.550625,294.075,5.49476e+06,1000.07,3.04469,0,0
0.551875,294.075,5.49474e+06,1000.07,3.04468,0,0
0.553125,294.074,5.49473e+06,1000.07,3.04467,0,0
0.554375,294.074,5.49471e+06,1000.07,3.04467,0,0
0.555625,294.074,5.4947e+06,1000.07,3.04466,0,0
0.556875,294.074,5.49469e+06,1000.07,3.04466,0,0
0.558125,294.074,5.49468e+06,1000.07,3.04466,0,0
0.559375,294.074,5.49467e+06,1000.07,3.04466,0,0
0.560625,294.074,5.49467e+06,1000.07,3.04466,0,0
0.561875,294.074,5.49467e+06,1000.07,3.04466,0,0
0.563125,294.074,5.49467e+06,1000.07,3.04465,0,0
0.564375,294.074,5.49467e+06,1000.07,3.04464,0,0
0.565625,294.074,5.49467e+06,1000.07,3.04463,0,0
0.566875,294.074,5.49466e+06,1000.07,3.04463,0,0
0.568125,294.074,5.49465e+06,1000.07,3.04462,0,0
0.569375,294.074,5.49463e+06,1000.07,3.04462,0,0
0.570625,294.074,5.4946e+06,1000.07,3.04462,0,0
0.571875,294.074,5.49457e+06,1000.07,3.04462,0,0
0.573125,294.074,5.49454e+06,1000.07,3.04462,0,0
0.574375,294.075,5.49451e+06,1000.07,3.04462,0,0
0.575625,294.075,5.49448e+06,1000.07,3.04461,0,0
0.576875,294.075,5.49446e+06,1000.07,3.0446,0,0
0.578125,294.075,5.49444e+06,1000.07,3.04459,0,0
0.579375,294.075,5.49444e+06,1000.07,3.04457,0,0
0.580625,294.076,5.49444e+06,1000.07,3.04456,0,0
0.581875,294.076,5.49444e+06,1000.07,3.04454,0,0
0.583125,294.076,5.49443e+06,1000.07,3.04452,0,0
0.584375,294.076,5.49441e+06,1000.07,3.04451,0,0
0.585625,294.076,5.49439e+06,1000.07,3.0445,0,0
0.586875,294.076,5.49436e+06,1000.07,3.04449,0,0
0.588125,294.076,5.49432e+06,1000.07,3.04448,0,0
0.589375,294.076,5.49429e+06,1000.07,3.04447,0,0
0.590625,294.076,5.49425e+06,1000.07,3.04445,0,0
0.591875,294.076,5.49421e+06,1000.07,3.04443,0,0
0.593125,294.076,5.49416e+06,1000.07,3.04441,0,0
0.594375,294.075,5.49412e+06,1000.07,3.04438,0,0
0.595625,294.075,5.49409e+06,1000.07,3.04435,0,0
0.596875,294.075,5.49406e+06,1000.07,3.04431,0,0
0.598125,294.075,5.49403e+06,1000.07,3.04427,0,0
0.599375,294.075,5.494e+06,1000.07,3.04423,0,0
0.600625,294.075,5.49396e+06,1000.07,3.0442,0,0
0.601875,294.075,5.4939e+06,1000.07,3.04419,0,0
0.603125,294.075,5.49383e+06,1000.07,3.04419,0,0
0.604375,294.075,5.49377e+06,1000.07,3.04418,0,0
0.605625,294.075,5.49372e+06,1000.07,3.04416,0,0
0.606875,294.075,5.49368e+06,1000.07,3.04413,0,0
0.608125,294.075,5.49364e+06,1000.07,3.04408,0,0
0.609375,294.074,5.4936e+06,1000.07,3.04403,0,0
0.610625,294.074,5.49353e+06,1000.07,3.04397,0,0
0.611875,294.074,5.49345e+06,1000.07,3.04387,0,0
0.613125,294.073,5.49331e+06,1000.07,3.04376,0,0
0.614375,294.073,5.49304e+06,1000.07,3.04364,0,0
0.615625,294.073,5.49264e+06,1000.07,3.04347,0,0
0.616875,294.073,5.49213e+06,1000.07,3.04314,0,0
0.618125,294.073,5.49145e+06,1000.07,3.0426,0,0
0.619375,294.073,5.49038e+06,1000.07,3.04183,0,0
0.620625,294.072,5.48873e+06,1000.07,3.04076,0,0
0.621875,294.072,5.4863e+06,1000.07,3.03919,0,0
0.623125,294.071,5.48286e+06,1000.06,3.03685,0,0
0.624375,294.07,5.47796e+06,1000.06,3.03348,0,0
0.625625,294.068,5.47096e+06,1000.06,3.02872,0,0
0.626875,294.066,5.46112e+06,1000.05,3.02208,0,0
0.628125,294.064,5.44753e+06,1000.05,3.01288,0,0
0.629375,294.061,5.42898e+06,1000.04,3.00035,0,0
0.630625,294.054,5.40389e+06,1000.03,2.98358,0,0
0.631875,294.05,5.37079e+06,1000.01,2.9612,0,0
0.633125,294.036,5.32756e+06,999.993,2.93188,0,0
0.634375,294.021,5.27188e+06,999.968,2.89403,0,0
0.635625,294.011,5.2009e+06,999.935,2.84624,0,0
0.636875,293.986,5.11193e+06,999.895,2.78661,0,0
0.638125,293.972,5.0033e+06,999.845,2.71255,0,0
0.639375,293.925,4.87111e+06,999.785,2.62322,0,0
0.640625,293.89,4.71346e+06,999.713,2.51686,0,0
0.641875,293.856,4.52888e+06,999.628,2.39214,0,0
0.643125,293.823,4.3167e+06,999.531,2.24838,0,0
0.644375,293.742,4.07631e+06,999.421,2.08612,0,0
0.645625,293.696,3.81036e+06,999.299,1.90565,0,0
0.646875,293.646,3.5211e+06,999.167,1.70985,0,0
0.648125,293.535,3.21174e+06,999.025,1.50099,0,0
0.649375,293.474,2.88993e+06,998.878,1.28283,0,0
0.650625,293.414,2.58304e+06,998.737,1.07422,0,0
0.651875,293.36,2.30622e+06,998.61,0.886503,0,0
0.653125,293.267,2.06183e+06,998.498,0.720749,0,0
0.654375,293.225,1.85109e+06,998.401,0.577682,0,0
0.655625,293.185,1.6728e+06,998.319,0.456703,0,0
0.656875,293.133,1.52468e+06,998.251,0.356181,0,0
0.658125,293.098,1.40386e+06,998.196,0.274149,0,0
0.659375,293.081,1.30694e+06,998.151,0.208341,0,0
0.660625,293.065,1.23042e+06,998.116,0.156392,0,0
0.661875,293.044,1.17086e+06,998.089,0.115967,0,0
0.663125,293.035,1.12523e+06,998.068,0.0849904,0,0
0.664375,293.023,1.09072e+06,998.052,0.0615657,0,0
0.665625,293.018,1.065e+06,998.04,0.0441032,0,0
0.666875,293.012,1.04605e+06,998.031,0.0312438,0,0
0.668125,293.009,1.03228e+06,998.025,0.0218992,0,0
0.669375,293.006,1.02239e+06,998.021,0.0151863,0,0
0.670625,293.004,1.01537e+06,998.017,0.010424,0,0
0.671875,293.003,1.01044e+06,998.015,0.00708225,0,0
0.673125,293.002,1.00703e+06,998.013,0.00476413,0,0
0.674375,293.001,1.00468e+06,998.012,0.00317418,0,0
0.675625,293.001,1.00309e+06,998.012,0.00209434,0,0
0.676875,293.001,1.00202e+06,998.011,0.00136909,0,0
0.678125,293,1.00131e+06,998.011,0.000886639,0,0
0.679375,293,1.00084e+06,998.011,0.000569089,0,0
0.680625,293,1.00053e+06,998.01,0.000361974,0,0
0.681875,293,1.00034e+06,998.01,0.000228261,0,0
0.683125,293,1.00021e+06,998.01,0.000142688,0,0
0.684375,293,1.00013e+06,998.01,8.84382e-05,0,0
0.685625,293,1.00008e+06,998.01,5.43697e-05,0,0
0.686875,293,1.00005e+06,998.01,3.31453e-05,0,0
0.688125,293,1.00003e+06,998.01,2.00472e-05,0,0
0.689375,293,1.00002e+06,998.01,1.20264e-05,0,0
0.690625,293,1.00001e+06,998.01,7.15794e-06,0,0
0.691875,293,1.00001e+06,998.01,4.22889e-06,0,0
0.693125,293,1e+06,998.01,2.47833e-06,0,0
0.694375,293,1e+06,998.01,1.44212e-06,0,0
0.695625,293,1e+06,998.01,8.3199e-07,0,0
0.696875,293,1e+06,998.01,4.77033e-07,0,0
0.698125,293,1e+06,998.01,2.71595e-07,0,0
0.699375,293,1e+06,998.01,1.53058e-07,0,0
0.700625,293,1e+06,998.01,8.62543e-08,0,0
0.701875,293,1e+06,998.01,4.70579e-08,0,0
0.703125,293,1e+06,998.01,2.69003e-08,0,0
0.704375,293,1e+06,998.01,1.45616e-08,0,0
0.705625,293,1e+06,998.01,7.54086e-09,0,0
0.706875,293,1e+06,998.01,4.20993e-09,0,0
0.708125,293,1e+06,998.01,2.18679e-09,0,0
0.709375,293,1e+06,998.01,1.55619e-09,0,0
0.710625,293,1e+06,998.01,6.14567e-10,0,0
0.711875,293,1e+06,998.01,4.12645e-10,0,0
0.713125,293,1e+06,998.01,5.43598e-10,0,0
0.714375,293,1e+06,998.01,1.57676e-10,0,0
0.715625,293,1e+06,998.01,8.5168e-11,0,0
0.716875,293,1e+06,998.01,1.11893e-10,0,0
0.718125,293,1e+06,998.01,1.89691e-10,0,0
0.719375,293,1e+06,998.01,2.5394e-11,0,0
0.720625,293,1e+06,998.01,-1.09796e-10,0,0
0.721875,293,1e+06,998.01,1.23018e-10,0,0
0.723125,293,1e+06,998.01,-1.47434e-10,0,0
0.724375,293,1e+06,998.01,-2.0662e-10,0,0
0.725625,293,1e+06,998.01,8.74635e-11,0,0
0.726875,293,1e+06,998.01,2.66575e-11,0,0
0.728125,293,1e+06,998.01,-4.04859e-10,0,0
0.729375,293,1e+06,998.01,-4.02128e-11,0,0
0.730625,293,1e+06,998.01,1.64078e-10,0,0
0.731875,293,1e+06,998.01,-2.31925e-10,0,0
0.733125,293,1e+06,998.01,-2.3858e-10,0,0
0.734375,293,1e+06,998.01,-6.35986e-11,0,0
0.735625,293,1e+06,998.01,-6.04547e-11,0,0
0.736875,293,1e+06,998.01,-5.11904e-10,0,0
0.738125,293,1e+06,998.01,-4.06917e-11,0,0
0.739375,293,1e+06,998.01,9.44939e-11,0,0
0.740625,293,1e+06,998.01,-2.38541e-10,0,0
0.741875,293,1e+06,998.01,-1.47055e-10,0,0
0.743125,293,1e+06,998.01,-2.52266e-10,0,0
0.744375,293,1e+06,998.01,-7.6674e-11,0,0
0.745625,293,1e+06,998.01,-1.86542e-10,0,0
0.746875,293,1e+06,998.01,-1.35553e-10,0,0
0.748125,293,1e+06,998.01,-1.47399e-11,0,0
0.749375,293,1e+06,998.01,-2.01953e-10,0,0
0.750625,293,1e+06,998.01,-1.05111e-10,0,0
0.751875,293,1e+06,998.01,4.01291e-11,0,0
0.753125,293,1e+06,998.01,-1.19443e-10,0,0
0.754375,293,1e+06,998.01,-2.46436e-10,0,0
0.755625,293,1e+06,998.01,-1.48376e-10,0,0
0.756875,293,1e+06,998.01,-2.35758e-10,0,0
0.758125,293,1e+06,998.01,-4.71776e-11,0,0
0.759375,293,1e+06,998.01,5.63799e-11,0,0
0.760625,293,1e+06,998.01,-1.01822e-10,0,0
0.761875,293,1e+06,998.01,-7.8033e-11,0,0
0.763125,293,1e+06,998.01,-1.19127e-10,0,0
0.764375,293,1e+06,998.01,-5.62829e-11,0,0
0.765625,293,1e+06,998.01,1.447e-11,0,0
0.766875,293,1e+06,998.01,-1.20165e-10,0,0
0.768125,293,1e+06,998.01,3.5894e-11,0,0
0.769375,293,1e+06,998.01,-3.89381e-11,0,0
0.770625,293,1e+06,998.01,-2.72726e-10,0,0
0.771875,293,1e+06,998.01,1.31085e-11,0,0
0.773125,293,1e+06,998.01,-2.6731e-11,0,0
0.774375,293,1e+06,998.01,1.98293e-11,0,0
0.775625,293,1e+06,998.01,2.12865e-10,0,0
0.776875,293,1e+06,998.01,1.20972e-11,0,0
0.778125,293,1e+06,998.01,-4.13031e-11,0,0
0.779375,293,1e+06,998.01,8.94882e-11,0,0
0.780625,293,1e+06,998.01,1.09298e-10,0,0
0.781875,293,1e+06,998.01,3.57127e-10,0,0
0.783125,293,1e+06,998.01,2.35782e-10,0,0
0.784375,293,1e+06,998.01,-4.47589e-11,0,0
0.785625,293,1e+06,998.01,2.05866e-10,0,0
0.786875,293,1e+06,998.01,1.97403e-10,0,0
0.788125,293,1e+06,998.01,-2.77069e-12,0,0
0.789375,293,1e+06,998.01,-7.75127e-11,0,0
0.790625,293,1e+06,998.01,1.40192e-10,0,0
0.791875,293,1e+06,998.01,5.0617e-11,0,0
0.793125,293,1e+06,998.01,5.58132e-11,0,0
0.794375,293,1e+06,998.01,3.21997e-10,0,0
0.795625,293,1e+06,998.01,1.78595e-11,0,0
0.796875,293,1e+06,998.01,-1.8101e-11,0,0
0.798125,293,1e+06,998.01,2.82808e-10,0,0
0.799375,293,1e+06,998.01,1.45877e-10,0,0
0.800625,293,1e+06,998.01,2.67097e-10,0,0
0.801875,293,1e+06,998.01,-2.2938e-11,0,0
0.803125,293,1e+06,998.01,-6.34986e-10,0,0
0.804375,293,1e+06,998.01,4.72054e-10,0,0
0.805625,293,1e+06,998.01,3.46893e-10,0,0
0.806875,293,1e+06,998.01,-1.75612e-10,0,0
0.808125,293,1e+06,998.01,-3.87244e-11,0,0
0.809375,293,1e+06,998.01,-3.0721e-10,0,0
0.810625,293,1e+06,998.01,1.34072e-10,0,0
0.811875,293,1e+06,998.01,2.89181e-10,0,0
0.813125,293,1e+06,998.01,7.92304e-12,0,0
0.814375,293,1e+06,998.01,3.04238e-10,0,0
0.815625,293,1e+06,998.01,1.62992e-10,0,0
0.816875,293,1e+06,998.01,2.98101e-11,0,0