/*--------------------------------*- C++ -*----------------------------------*\
| =========                 |                                                 |
| \\      /  F ield         | OpenFOAM: The Open Source CFD Toolbox           |
|  \\    /   O peration     | Version:  2312                                  |
|   \\  /    A nd           | Website:  www.openfoam.com                      |
|    \\/     M anipulation  |                                                 |
\*---------------------------------------------------------------------------*/
FoamFile
{
    version     2.0;
    format      ascii;
    arch        "LSB;label=32;scalar=64";
    class       volScalarField;
    location    "0.001";
    object      alphat;
}
// * * * * * * * * * * * * * * * * * * * * * * * * * * * * * * * * * * * * * //

dimensions      [1 -1 -1 0 0 0 0];

internalField   nonuniform List<scalar> 
48128
(
6.78051e-09
9.7645e-09
5.29255e-08
4.39759e-07
1.7386e-06
3.94943e-06
6.01416e-06
7.6454e-06
8.86669e-06
9.81563e-06
1.06209e-05
1.13313e-05
1.20234e-05
1.27449e-05
1.35047e-05
1.43278e-05
1.5238e-05
1.62576e-05
1.7411e-05
1.87782e-05
2.04393e-05
2.23408e-05
2.45806e-05
2.72689e-05
3.04415e-05
3.41887e-05
3.84901e-05
4.34859e-05
4.94096e-05
5.60284e-05
6.37214e-05
7.21277e-05
8.13767e-05
9.05871e-05
0.000100403
0.000109414
0.000118975
0.00012751
0.00013512
0.000142065
0.000150452
0.000160324
0.000169622
0.000178429
0.000186405
0.000193689
0.00020042
0.000206406
0.000212071
0.000216627
0.000220845
0.000215984
0.000205692
0.000196212
0.000188044
0.000180295
0.000173308
0.000166532
0.000160504
0.000154447
0.00014932
0.000144443
0.000139416
0.000135272
0.000130822
0.000126907
0.000122897
0.00011944
0.000115975
0.000112946
0.000110047
0.000107337
0.000104866
0.000102236
9.96097e-05
9.91759e-05
9.75688e-05
9.52315e-05
9.30286e-05
9.26933e-05
9.14766e-05
8.98953e-05
8.86173e-05
8.74756e-05
8.6325e-05
8.5982e-05
8.52178e-05
8.40995e-05
8.29952e-05
8.28773e-05
8.22092e-05
8.13554e-05
8.04568e-05
7.96273e-05
7.95154e-05
7.90213e-05
7.82663e-05
7.755e-05
7.7422e-05
7.69977e-05
7.63818e-05
7.57988e-05
7.57046e-05
7.53661e-05
7.49065e-05
7.44756e-05
7.41509e-05
7.37919e-05
7.34306e-05
7.3062e-05
7.26848e-05
7.22976e-05
7.19143e-05
7.16837e-05
7.14389e-05
7.11921e-05
7.1015e-05
7.08133e-05
7.05398e-05
7.02224e-05
6.98985e-05
6.96144e-05
6.93675e-05
6.9299e-05
6.92024e-05
6.92326e-05
6.92136e-05
6.9204e-05
6.91596e-05
6.90682e-05
6.89287e-05
6.87582e-05
6.85636e-05
6.83667e-05
6.81242e-05
6.79252e-05
6.77414e-05
6.75785e-05
6.7429e-05
6.73244e-05
6.72093e-05
6.71141e-05
6.70157e-05
6.693e-05
6.68408e-05
6.67379e-05
6.66313e-05
6.65215e-05
6.64116e-05
6.62728e-05
6.61587e-05
6.6049e-05
6.59251e-05
6.58041e-05
6.56823e-05
6.55657e-05
6.54616e-05
6.53596e-05
6.52678e-05
6.51779e-05
6.51017e-05
6.5028e-05
6.49545e-05
6.48862e-05
6.48238e-05
6.47636e-05
6.47063e-05
6.46477e-05
6.45843e-05
6.45212e-05
6.4462e-05
6.437e-05
6.42815e-05
6.42014e-05
6.41145e-05
6.4031e-05
6.39513e-05
6.38753e-05
6.38016e-05
6.37311e-05
6.36648e-05
6.36037e-05
6.35465e-05
6.3493e-05
6.34419e-05
6.33947e-05
6.33489e-05
6.33074e-05
6.32677e-05
6.31994e-05
6.31453e-05
6.31005e-05
6.30521e-05
6.29687e-05
6.29145e-05
6.28666e-05
6.2819e-05
6.27636e-05
6.27169e-05
6.26721e-05
6.2629e-05
6.25858e-05
6.25447e-05
6.25038e-05
6.2468e-05
6.24331e-05
6.23666e-05
6.23194e-05
6.22801e-05
6.22359e-05
6.21461e-05
6.20938e-05
6.20383e-05
6.19824e-05
6.19187e-05
6.18633e-05
6.18067e-05
6.17486e-05
6.16929e-05
6.16349e-05
6.15739e-05
6.15121e-05
6.14422e-05
6.13739e-05
6.12964e-05
6.12236e-05
6.1145e-05
6.10757e-05
6.10019e-05
6.09332e-05
6.0867e-05
6.08044e-05
6.0748e-05
6.06951e-05
6.06489e-05
6.06024e-05
6.05599e-05
6.0518e-05
6.04712e-05
6.03539e-05
5.82207e-08
1.98048e-07
6.44268e-07
2.11209e-06
5.18809e-06
9.89929e-06
1.58249e-05
2.19813e-05
2.83819e-05
3.4916e-05
4.14404e-05
4.78011e-05
5.42728e-05
6.11066e-05
6.84479e-05
7.65911e-05
8.57863e-05
9.63817e-05
0.000108535
0.000122788
0.000140231
0.000160253
0.000183527
0.000211073
0.000242635
0.00027926
0.00032057
0.000362291
0.000406117
0.000454134
0.000506484
0.000560735
0.000620529
0.000679566
0.00074219
0.000799239
0.000860497
0.000914732
0.000963529
0.00101055
0.00105318
0.00109273
0.00112731
0.001159
0.00118655
0.00121009
0.00123083
0.00124802
0.00126332
0.00127273
0.00128015
0.00128239
0.0012864
0.00128641
0.00128799
0.00128473
0.00128214
0.00127407
0.00126744
0.00125541
0.00124515
0.00123477
0.00121998
0.00120816
0.00119204
0.00117796
0.00116058
0.00114518
0.00112779
0.00111198
0.00109558
0.00107972
0.00106437
0.00104834
0.0010329
0.00102558
0.00101282
0.000995944
0.000980887
0.000974051
0.00096315
0.000950058
0.000938805
0.000929214
0.000919861
0.000914066
0.000906147
0.000896223
0.000886694
0.000881779
0.000874159
0.00086532
0.000856342
0.000848576
0.000843822
0.00083719
0.000829164
0.000821536
0.000816773
0.000810671
0.000803563
0.000796907
0.000792636
0.000787242
0.000781171
0.000775325
0.00077024
0.00076505
0.000759753
0.000754567
0.000749019
0.000743691
0.0007381
0.000733222
0.000728658
0.000724109
0.000720242
0.000716455
0.000712177
0.000707734
0.000703052
0.000698509
0.000694272
0.000690657
0.000687375
0.000685137
0.000682987
0.00067953
0.000675859
0.000672483
0.000669256
0.000666146
0.000662689
0.000659298
0.000655537
0.000651835
0.000648073
0.000644454
0.000640801
0.000637199
0.00063365
0.000630409
0.00062705
0.00062412
0.000621172
0.000618309
0.000615603
0.000612897
0.000610395
0.000607833
0.000605343
0.000603055
0.00060068
0.000598292
0.000595929
0.000593581
0.000591289
0.000588915
0.000586757
0.000584481
0.000582473
0.000580443
0.00057846
0.000576565
0.000574721
0.000573027
0.00057141
0.000569923
0.00056859
0.000567276
0.000566146
0.00056492
0.00056364
0.000562526
0.000561312
0.0005601
0.000558907
0.000557706
0.000556487
0.000555251
0.000553985
0.000552797
0.000551613
0.000550504
0.000549411
0.000548396
0.000547403
0.000546487
0.000545671
0.00054484
0.000543987
0.000543184
0.000542626
0.000541881
0.000541145
0.000540484
0.000539911
0.00053926
0.000538623
0.000537998
0.000537384
0.000536766
0.000536152
0.000535527
0.000534932
0.000534436
0.000533847
0.000533222
0.00053266
0.000532292
0.000531673
0.000531132
0.000530545
0.000529949
0.000529281
0.000528598
0.000527897
0.000527144
0.000526409
0.000525655
0.00052487
0.00052409
0.000523253
0.000522435
0.000521593
0.000520784
0.000519922
0.000519072
0.000518189
0.000517312
0.000516425
0.000515533
0.000514721
0.000513944
0.000513269
0.000512591
0.000512016
0.000511556
0.000511188
0.000510509
1.75702e-07
1.37181e-06
3.32971e-06
8.17474e-06
1.71819e-05
3.27418e-05
5.39234e-05
7.74153e-05
0.000101657
0.0001249
0.000146383
0.000166245
0.000185362
0.00020435
0.000222846
0.000242805
0.00026408
0.000287727
0.000314062
0.000344278
0.000378549
0.000416699
0.000458815
0.000505886
0.000557855
0.000614356
0.000674424
0.00073698
0.000805139
0.000876868
0.000953177
0.00102989
0.00111305
0.00119427
0.00127576
0.00135248
0.00143199
0.00150483
0.00156693
0.00162966
0.00168491
0.00173473
0.00177836
0.00181856
0.00185572
0.00188923
0.00191939
0.00194534
0.0019681
0.00198452
0.00199901
0.00200653
0.00201451
0.00201766
0.00202081
0.00201906
0.00201649
0.00200862
0.00200151
0.00198921
0.0019789
0.00196555
0.0019483
0.0019348
0.00191482
0.0018973
0.00187573
0.0018563
0.00183442
0.00181425
0.00179309
0.00177262
0.00175213
0.00173034
0.00170803
0.00170071
0.00168498
0.0016625
0.00163943
0.00163077
0.00161636
0.00159858
0.00158187
0.00156737
0.00155347
0.00154599
0.00153466
0.0015201
0.00150483
0.00149764
0.00148655
0.00147305
0.00145954
0.00144629
0.00143895
0.00142876
0.00141619
0.00140324
0.00139553
0.0013857
0.0013743
0.00136264
0.00135543
0.00134628
0.00133613
0.00132598
0.00131706
0.00130794
0.00129864
0.0012894
0.00127959
0.00126985
0.00126005
0.00125124
0.00124277
0.00123432
0.0012269
0.00121976
0.00121164
0.00120327
0.00119448
0.00118615
0.00117804
0.00117152
0.00116521
0.0011605
0.001156
0.00115231
0.00114887
0.00114518
0.00114115
0.00113685
0.00113196
0.00112706
0.00112146
0.00111612
0.00111069
0.00110544
0.00110022
0.00109539
0.00109044
0.00108607
0.00108172
0.00107787
0.00107412
0.00107051
0.00106692
0.00106338
0.00105999
0.00105621
0.00105274
0.00104932
0.00104573
0.00104213
0.00103857
0.00103497
0.00103152
0.00102803
0.00102471
0.00102144
0.00101831
0.00101525
0.00101233
0.00100955
0.00100697
0.00100458
0.00100238
0.00100041
0.000998476
0.000996687
0.000994921
0.000993018
0.000991088
0.000989194
0.000987164
0.000985117
0.000983052
0.000980981
0.000978847
0.000976751
0.000974546
0.000972555
0.000970564
0.000968826
0.00096706
0.000965576
0.000964036
0.000962758
0.000961549
0.000960244
0.000959004
0.000958045
0.00095705
0.000955808
0.000954771
0.000953817
0.000952905
0.000951833
0.000950898
0.000949926
0.000949054
0.00094811
0.000947254
0.000946319
0.000945538
0.000944781
0.000943876
0.000943062
0.00094248
0.000941901
0.000940967
0.000940249
0.000939445
0.000938523
0.000937529
0.000936475
0.000935421
0.000934192
0.000933072
0.000931889
0.000930733
0.000929522
0.00092827
0.000927034
0.000925746
0.000924493
0.000923143
0.000921856
0.000920488
0.000919057
0.000917653
0.000916199
0.00091494
0.000913723
0.000912692
0.000911636
0.000910842
0.000910069
0.000909386
0.00090795
4.96848e-07
4.33344e-06
1.01061e-05
2.26148e-05
4.56183e-05
8.32902e-05
0.000128294
0.000174557
0.000216742
0.000253486
0.000285449
0.000314267
0.00034022
0.000365661
0.00039046
0.000416552
0.000444044
0.000474237
0.000507255
0.000543945
0.000584558
0.000629382
0.000678121
0.000731467
0.000788548
0.000849306
0.000914031
0.000981454
0.00105403
0.00112811
0.00120567
0.00128205
0.0013626
0.00144003
0.00151208
0.00156225
0.00162069
0.00166407
0.00170964
0.0017767
0.00181532
0.0018714
0.00189938
0.00195536
0.00198016
0.00202551
0.00204944
0.00208713
0.00211088
0.00214434
0.00217995
0.00222105
0.00225256
0.00228761
0.00229753
0.00230315
0.00230622
0.0023053
0.00230402
0.00229954
0.0022973
0.00228851
0.00227809
0.00227109
0.00225717
0.00224484
0.00222897
0.00221458
0.00219793
0.00218254
0.00216585
0.00214989
0.00213322
0.00211457
0.00209344
0.00209071
0.0020808
0.00206279
0.00204161
0.00203604
0.00202597
0.00201259
0.00199767
0.00198497
0.00197121
0.00196684
0.00195824
0.00194565
0.00193104
0.0019258
0.00191685
0.00190527
0.00189261
0.00187874
0.0018727
0.00186401
0.0018524
0.00183916
0.0018323
0.00182345
0.00181258
0.00180045
0.00179378
0.00178522
0.00177539
0.00176493
0.00175575
0.00174641
0.00173662
0.00172677
0.00171617
0.00170535
0.00169468
0.0016853
0.00167612
0.00166698
0.00165903
0.00165134
0.00164217
0.00163251
0.00162227
0.00161278
0.00160339
0.00159624
0.00158914
0.00158423
0.0015797
0.00157595
0.00157232
0.00156823
0.00156371
0.00155864
0.00155287
0.00154694
0.00153999
0.00153341
0.00152672
0.00152031
0.00151388
0.00150809
0.00150221
0.00149695
0.00149176
0.00148708
0.00148254
0.00147807
0.00147364
0.00146924
0.00146496
0.00146013
0.00145568
0.00145123
0.00144661
0.00144195
0.00143736
0.00143271
0.00142829
0.00142381
0.00141959
0.00141537
0.00141141
0.00140751
0.0014038
0.00140026
0.00139692
0.00139383
0.00139094
0.00138832
0.00138573
0.00138333
0.001381
0.00137844
0.00137576
0.0013732
0.00137043
0.00136766
0.00136487
0.00136209
0.00135924
0.00135648
0.00135357
0.00135098
0.00134833
0.00134609
0.00134377
0.00134189
0.0013399
0.00133831
0.00133682
0.00133517
0.00133358
0.0013324
0.00133114
0.00132953
0.00132817
0.00132694
0.00132582
0.00132449
0.00132338
0.00132223
0.00132126
0.00132019
0.00131927
0.00131823
0.00131744
0.00131667
0.00131566
0.00131478
0.00131421
0.00131366
0.00131258
0.00131181
0.00131095
0.00130998
0.00130891
0.00130778
0.00130667
0.00130532
0.00130413
0.00130284
0.0013016
0.00130027
0.00129889
0.00129749
0.00129601
0.00129456
0.00129299
0.00129146
0.00128989
0.00128819
0.00128659
0.00128484
0.0012834
0.00128195
0.00128088
0.00127958
0.00127869
0.00127784
0.00127697
0.00127531
1.12161e-06
9.73965e-06
2.28266e-05
4.81426e-05
9.3511e-05
0.000154983
0.000219008
0.000277809
0.00032836
0.000371445
0.000409533
0.000441302
0.000471256
0.000499748
0.000527511
0.00055589
0.00058557
0.000617471
0.000652012
0.000689766
0.000731106
0.000776315
0.00082458
0.000876348
0.00093136
0.000989018
0.0010498
0.00111081
0.00117482
0.00123596
0.00126485
0.00129408
0.00131848
0.00134971
0.00137963
0.00140525
0.0014527
0.00148615
0.00149891
0.00156919
0.00158538
0.00162854
0.00163946
0.00168832
0.00170348
0.00174207
0.00176151
0.0017921
0.00181684
0.00184324
0.00188241
0.00191945
0.00195865
0.00199274
0.00202788
0.002057
0.00209091
0.00211874
0.0021554
0.00218104
0.00223015
0.00224298
0.00227081
0.00230069
0.00230307
0.00230157
0.00229689
0.00229287
0.00228654
0.00228075
0.00227342
0.00226617
0.00225793
0.00224674
0.00223255
0.00223502
0.00223334
0.00222471
0.00221086
0.00220907
0.00220611
0.00220053
0.00219185
0.00218362
0.00217387
0.00217343
0.00217015
0.00216334
0.00215324
0.00215099
0.002147
0.00214093
0.00213213
0.00212126
0.00211802
0.00211356
0.00210633
0.00209639
0.00209205
0.00208688
0.00207972
0.0020704
0.00206591
0.00206082
0.00205421
0.00204635
0.00203942
0.00203242
0.00202484
0.002017
0.00200839
0.00199937
0.00199035
0.001983
0.00197589
0.00196866
0.0019625
0.0019565
0.00194876
0.00194033
0.00193126
0.00192298
0.00191474
0.001909
0.00190335
0.00190022
0.00189766
0.00189561
0.00189359
0.00189098
0.00188785
0.00188395
0.00187926
0.00187424
0.00186793
0.00186194
0.00185586
0.00185006
0.0018442
0.00183901
0.00183385
0.0018293
0.00182478
0.00182081
0.00181696
0.00181309
0.00180924
0.00180537
0.00180158
0.00179713
0.00179299
0.0017889
0.00178458
0.00178014
0.00177575
0.0017713
0.00176709
0.00176281
0.00175884
0.00175483
0.00175114
0.00174748
0.00174403
0.00174075
0.00173763
0.00173483
0.00173218
0.00172979
0.00172745
0.00172526
0.0017232
0.00172083
0.00171821
0.00171581
0.00171307
0.00171039
0.00170761
0.00170489
0.00170201
0.00169929
0.00169636
0.00169382
0.00169116
0.00168903
0.00168675
0.00168506
0.00168324
0.0016819
0.00168071
0.0016793
0.00167792
0.00167706
0.00167609
0.00167463
0.00167345
0.0016724
0.00167153
0.00167038
0.00166954
0.00166864
0.001668
0.00166723
0.00166672
0.00166603
0.00166566
0.00166534
0.00166469
0.00166418
0.00166406
0.00166395
0.00166316
0.00166272
0.0016622
0.00166157
0.00166083
0.00166001
0.00165924
0.0016582
0.00165737
0.0016564
0.00165552
0.00165453
0.00165348
0.00165239
0.00165117
0.00164998
0.00164862
0.0016473
0.00164593
0.00164438
0.00164302
0.00164139
0.0016402
0.00163893
0.00163823
0.00163713
0.00163653
0.00163599
0.00163534
0.00163405
2.07285e-06
1.79207e-05
4.22272e-05
8.52326e-05
0.000153839
0.000229099
0.000302895
0.00036746
0.000422225
0.000469734
0.000509076
0.000543047
0.00057481
0.000604325
0.000632866
0.000661043
0.000690078
0.000720668
0.000753381
0.000788598
0.000826746
0.000868
0.000911468
0.000957632
0.00100497
0.00105291
0.00108813
0.00110299
0.00111437
0.00112622
0.00112921
0.00113727
0.00114262
0.00114837
0.00117879
0.00118236
0.00121841
0.00123126
0.00121988
0.00125893
0.00125267
0.00126917
0.00126829
0.00129349
0.00130133
0.00132388
0.00134225
0.00136006
0.00138136
0.0013994
0.00143824
0.0014641
0.00151064
0.00153545
0.00158394
0.00160782
0.00165658
0.00168581
0.00173549
0.00176622
0.00181771
0.00183865
0.00188074
0.00191931
0.0019417
0.00198263
0.00200831
0.00204522
0.00206981
0.00210249
0.00212399
0.00215317
0.00216871
0.00217
0.00216827
0.00217701
0.00218639
0.0021901
0.00218781
0.00219197
0.00219781
0.00220194
0.00220247
0.00220113
0.00219858
0.00220281
0.00220647
0.0022073
0.00220453
0.00220622
0.00220825
0.0022089
0.00220615
0.00220101
0.00220135
0.00220226
0.00220074
0.00219634
0.00219554
0.00219516
0.00219299
0.00218858
0.00218737
0.00218686
0.00218489
0.0021813
0.0021781
0.00217484
0.00217106
0.00216678
0.00216179
0.0021563
0.0021506
0.00214671
0.00214316
0.00213952
0.0021365
0.0021334
0.00212865
0.00212314
0.002117
0.00211151
0.00210602
0.00210287
0.00210037
0.00210016
0.00210054
0.0021012
0.00210181
0.00210187
0.00210124
0.00209974
0.00209748
0.0020947
0.00209052
0.00208657
0.00208248
0.00207871
0.00207486
0.00207164
0.00206853
0.00206596
0.00206339
0.00206129
0.00205931
0.0020572
0.00205512
0.0020529
0.00205081
0.00204795
0.00204525
0.00204266
0.00203982
0.00203676
0.00203376
0.00203063
0.00202779
0.00202481
0.00202219
0.00201948
0.00201708
0.0020147
0.0020125
0.00201046
0.00200853
0.00200692
0.00200541
0.00200414
0.00200291
0.00200178
0.00200084
0.00199953
0.00199784
0.00199645
0.00199463
0.00199292
0.00199101
0.00198921
0.00198715
0.00198529
0.00198312
0.0019814
0.00197947
0.00197815
0.00197663
0.00197579
0.00197482
0.00197437
0.00197412
0.00197363
0.00197309
0.00197315
0.00197309
0.00197244
0.00197203
0.00197171
0.00197165
0.00197121
0.00197117
0.00197103
0.00197124
0.0019713
0.0019717
0.0019719
0.00197248
0.00197312
0.00197335
0.0019737
0.00197453
0.00197535
0.00197533
0.0019757
0.00197597
0.00197615
0.00197617
0.00197613
0.00197615
0.00197587
0.00197586
0.00197568
0.00197563
0.00197547
0.00197524
0.00197495
0.00197451
0.00197406
0.00197342
0.0019728
0.00197211
0.00197121
0.00197054
0.00196951
0.00196902
0.00196842
0.00196853
0.00196814
0.00196831
0.00196854
0.0019686
0.00196835
3.28347e-06
2.86105e-05
6.75474e-05
0.000130305
0.000211816
0.000295676
0.000373689
0.000440707
0.000497977
0.000547037
0.000586934
0.000622293
0.000654586
0.000683889
0.000711591
0.000738053
0.000764458
0.000791619
0.000820173
0.00085043
0.000882351
0.000916925
0.000951914
0.00098857
0.000986405
0.00098727
0.000984198
0.000984339
0.000975869
0.000971135
0.000958975
0.000949692
0.000959854
0.000947539
0.000974443
0.000951048
0.000953792
0.000937556
0.00091589
0.000918954
0.000912859
0.000911971
0.000913795
0.000919551
0.000930458
0.000941435
0.000963509
0.000970855
0.000992733
0.00100447
0.00104391
0.00106082
0.00110516
0.00112496
0.00117469
0.00119654
0.00124168
0.00127087
0.00131481
0.00134484
0.00138508
0.00141068
0.00145433
0.00148472
0.00151502
0.0015521
0.00158563
0.00162035
0.00165449
0.00168842
0.00172011
0.0017535
0.0017834
0.00182032
0.00185089
0.00185118
0.00187278
0.00191871
0.00195435
0.0019614
0.0019797
0.00200998
0.0020389
0.00206398
0.00207248
0.00207497
0.00208786
0.00210481
0.00211142
0.00211927
0.0021282
0.00213679
0.00214167
0.00214417
0.00214936
0.00215616
0.00216129
0.0021639
0.00216795
0.00217308
0.00217674
0.00217865
0.00218179
0.00218637
0.00218979
0.00219172
0.00219337
0.00219478
0.00219576
0.00219602
0.00219567
0.00219475
0.00219376
0.00219402
0.00219485
0.0021957
0.00219666
0.0021971
0.00219629
0.00219473
0.00219269
0.00219088
0.00218939
0.0021896
0.002191
0.00219428
0.00219797
0.00220176
0.00220551
0.00220881
0.0022113
0.00221301
0.00221381
0.00221407
0.00221296
0.0022119
0.00221075
0.00220987
0.00220898
0.00220859
0.00220839
0.0022086
0.00220881
0.00220934
0.00220998
0.00221038
0.00221085
0.00221103
0.00221144
0.00221103
0.00221061
0.0022103
0.0022098
0.00220893
0.00220818
0.0022072
0.00220656
0.00220573
0.00220525
0.00220468
0.00220437
0.00220409
0.0022039
0.00220386
0.00220384
0.00220414
0.00220445
0.00220496
0.00220554
0.00220612
0.00220694
0.00220737
0.00220736
0.00220769
0.00220753
0.00220751
0.00220726
0.00220713
0.00220664
0.00220639
0.00220574
0.00220553
0.00220502
0.00220514
0.00220504
0.00220563
0.00220611
0.00220715
0.00220841
0.00220945
0.00221034
0.00221189
0.00221329
0.00221406
0.002215
0.00221595
0.00221721
0.00221804
0.00221929
0.00222042
0.00222197
0.00222337
0.00222518
0.00222677
0.00222881
0.0022309
0.00223252
0.00223423
0.00223647
0.00223866
0.00223992
0.00224153
0.00224307
0.00224449
0.00224575
0.00224692
0.00224816
0.00224908
0.00225033
0.0022514
0.00225262
0.00225374
0.0022548
0.00225578
0.00225659
0.00225737
0.00225794
0.0022585
0.00225897
0.00225918
0.00225965
0.00225971
0.00226036
0.00226089
0.00226223
0.00226302
0.00226444
0.00226592
0.00226715
0.0022686
4.63315e-06
4.10502e-05
9.6361e-05
0.000173884
0.000263322
0.000351324
0.000430638
0.000498549
0.000557339
0.000606399
0.000647079
0.000683136
0.00071521
0.000743513
0.000769227
0.00079278
0.000815062
0.000837121
0.000859636
0.000882505
0.000906023
0.000931095
0.000905151
0.000897599
0.000882607
0.000874386
0.000859301
0.000849433
0.000824472
0.000807197
0.000803316
0.000787929
0.000807629
0.000764662
0.000763634
0.000723423
0.000708408
0.000685858
0.000681295
0.000658663
0.000661745
0.000650741
0.000665249
0.000658446
0.00068024
0.000681341
0.000709967
0.000707523
0.000731966
0.000744406
0.000777285
0.000794054
0.000830914
0.000852309
0.000892796
0.000914076
0.000952117
0.000976434
0.00100519
0.00102911
0.00105856
0.00108522
0.00111413
0.00114424
0.0011704
0.0012004
0.00122652
0.00125368
0.00127887
0.0013055
0.00133072
0.00135854
0.00138324
0.00141745
0.00144509
0.00145842
0.00147822
0.00151066
0.00155025
0.0015736
0.0015959
0.00162467
0.00165628
0.00168758
0.00171182
0.00172334
0.00174162
0.00177031
0.00179914
0.00181442
0.00183185
0.00185647
0.00188438
0.00191067
0.00192019
0.00193338
0.00195578
0.00198169
0.00199491
0.00200932
0.00203002
0.00205273
0.00206235
0.00207432
0.00208729
0.00209596
0.00210366
0.00211059
0.0021172
0.00212279
0.00212795
0.00213252
0.0021371
0.00214237
0.00214829
0.00215426
0.00215976
0.00216446
0.00216831
0.00217134
0.00217412
0.00217687
0.00218009
0.00218442
0.00218998
0.00219704
0.00220421
0.00221136
0.00221846
0.00222526
0.00223118
0.00223644
0.00224074
0.00224453
0.00224697
0.00224935
0.00225166
0.00225426
0.00225685
0.00225976
0.00226293
0.00226636
0.00226979
0.00227342
0.00227706
0.00228044
0.00228389
0.00228693
0.00229027
0.00229283
0.00229526
0.00229776
0.00230013
0.00230195
0.00230396
0.00230568
0.00230772
0.0023096
0.00231177
0.00231388
0.00231621
0.00231856
0.00232092
0.00232339
0.00232577
0.00232843
0.00233102
0.00233376
0.00233659
0.0023393
0.00234234
0.00234495
0.00234713
0.00234966
0.0023517
0.00235391
0.0023559
0.00235799
0.0023597
0.0023616
0.00236307
0.00236491
0.00236639
0.00236842
0.00237026
0.00237276
0.00237518
0.00237816
0.00238137
0.00238442
0.00238726
0.00239072
0.00239403
0.00239673
0.0023995
0.00240219
0.00240518
0.00240772
0.00241068
0.00241352
0.00241681
0.00241998
0.00242362
0.00242705
0.00243097
0.00243494
0.00243839
0.00244191
0.00244593
0.00244989
0.00245287
0.00245611
0.00245931
0.00246236
0.00246526
0.00246804
0.00247089
0.00247342
0.0024763
0.002479
0.00248188
0.00248468
0.00248744
0.0024901
0.00249259
0.00249501
0.00249723
0.00249939
0.00250145
0.00250323
0.00250523
0.0025068
0.00250898
0.00251106
0.00251398
0.00251639
0.00251947
0.00252261
0.00252544
0.00252919
6.00075e-06
5.44169e-05
0.000124716
0.000211711
0.000305943
0.000395666
0.000474938
0.00054281
0.000602264
0.000651247
0.000692784
0.00072919
0.000760586
0.000787285
0.000810156
0.000829598
0.000846409
0.000861802
0.00087611
0.000889657
0.000862508
0.000837576
0.00080464
0.000792456
0.000773543
0.000757521
0.000730742
0.000712487
0.000691399
0.000677526
0.000692709
0.00065541
0.000654508
0.000606455
0.000584176
0.000545902
0.000522406
0.00049431
0.000498278
0.000472013
0.000489367
0.00048506
0.000515392
0.000518288
0.000559035
0.000563885
0.000587035
0.000587692
0.000588322
0.000590044
0.000593646
0.00059724
0.000601995
0.000607682
0.00061452
0.000623795
0.000633837
0.000645921
0.000661215
0.000674869
0.000692174
0.000708343
0.000727523
0.000747342
0.000768047
0.000791507
0.000815353
0.000841552
0.000867835
0.000896525
0.000924769
0.000955324
0.000985651
0.0010179
0.00104892
0.00107909
0.00111173
0.0011473
0.00118314
0.00121733
0.00125079
0.00127143
0.00129675
0.00132385
0.00135081
0.00136503
0.00138058
0.00140318
0.00143226
0.00145277
0.00147287
0.00149591
0.00152401
0.00155428
0.00157421
0.00159145
0.00161456
0.00164383
0.00166552
0.00168436
0.00170773
0.0017343
0.00175348
0.00176996
0.00179032
0.00181319
0.00183231
0.00185004
0.00186617
0.00188518
0.00190622
0.00192762
0.00194989
0.00196727
0.0019859
0.00200338
0.00201005
0.00202119
0.00203543
0.00205427
0.0020732
0.00208172
0.0020904
0.00209949
0.00210953
0.00212065
0.00213153
0.00214234
0.00215301
0.00216352
0.00217304
0.0021821
0.00219012
0.00219773
0.00220411
0.00221034
0.00221657
0.00222298
0.00222938
0.00223595
0.00224273
0.00224967
0.00225658
0.00226356
0.00227045
0.00227708
0.00228377
0.00228997
0.00229651
0.00230236
0.00230802
0.00231359
0.00231909
0.00232394
0.00232898
0.00233373
0.00233874
0.00234363
0.0023488
0.0023539
0.0023592
0.00236449
0.00236974
0.00237499
0.00238012
0.0023854
0.00239056
0.00239579
0.0024011
0.0024062
0.00241169
0.00241673
0.00242144
0.00242646
0.00243102
0.00243579
0.00244041
0.00244509
0.00244943
0.00245386
0.00245789
0.00246216
0.00246602
0.00247031
0.00247444
0.00247917
0.00248388
0.00248912
0.0024946
0.00249998
0.00250515
0.00251082
0.00251638
0.00252141
0.00252635
0.00253113
0.00253616
0.00254076
0.00254572
0.0025506
0.00255592
0.00256119
0.00256696
0.00257257
0.00257869
0.00258487
0.00259051
0.00259621
0.00260231
0.00260834
0.00261337
0.00261857
0.00262376
0.00262877
0.00263363
0.00263835
0.00264311
0.00264757
0.0026524
0.00265706
0.00266192
0.00266672
0.00267151
0.00267619
0.00268071
0.00268513
0.00268936
0.00269347
0.00269747
0.0027012
0.00270506
0.00270851
0.00271254
0.00271651
0.00272132
0.00272569
0.00273079
0.00273585
0.00274066
0.00274726
7.30617e-06
6.68147e-05
0.000150053
0.000243126
0.000339732
0.000429299
0.000507577
0.0005752
0.000635652
0.000685233
0.000727559
0.000763976
0.00079426
0.000818547
0.000837449
0.000851293
0.000860873
0.000867391
0.000840159
0.000799278
0.000765669
0.000735695
0.000703828
0.000688863
0.00066632
0.000647501
0.000620498
0.000604677
0.000611829
0.000585997
0.000592354
0.000547191
0.000517456
0.000474037
0.000434035
0.000396072
0.000366473
0.000336308
0.000331557
0.000324978
0.000339522
0.0003628
0.000403527
0.000420836
0.000428745
0.000433524
0.000439089
0.000439167
0.000439989
0.000438843
0.000438318
0.000437227
0.000436653
0.00043747
0.000439704
0.000442886
0.000447411
0.000453546
0.000460251
0.000467646
0.000475252
0.000482939
0.000492896
0.000502396
0.000512107
0.000524138
0.000536001
0.000549606
0.000563544
0.000579314
0.000595853
0.000614096
0.000633092
0.000653763
0.000674574
0.000696344
0.00071989
0.000745891
0.000773081
0.000801553
0.000830379
0.000860827
0.000892045
0.000923178
0.000955144
0.000985287
0.001016
0.00104832
0.00108175
0.00111312
0.00114524
0.00117833
0.00121243
0.00124534
0.00126917
0.00128323
0.00130175
0.0013262
0.00134938
0.00136648
0.00138715
0.00141096
0.0014322
0.00144879
0.0014689
0.00149148
0.00151267
0.00153483
0.00155325
0.0015746
0.00159894
0.0016227
0.00164929
0.00167187
0.00169296
0.0017111
0.00172293
0.00173905
0.00175713
0.0017776
0.00180077
0.00182428
0.00184697
0.00186452
0.00188335
0.0018947
0.00190473
0.00191616
0.00192789
0.00194187
0.00195681
0.00197304
0.00198944
0.00200873
0.00202685
0.002045
0.00206111
0.0020774
0.00209291
0.0021078
0.00212177
0.00213555
0.00214936
0.00216232
0.00217329
0.00218625
0.00219891
0.00221034
0.00222265
0.00223611
0.00224929
0.0022597
0.00227176
0.00228292
0.0022912
0.00229918
0.00230732
0.00231541
0.00232375
0.00233204
0.00234052
0.00234892
0.00235731
0.00236551
0.00237365
0.00238167
0.00238958
0.00239746
0.00240538
0.00241302
0.00242105
0.00242866
0.00243607
0.00244371
0.00245098
0.00245851
0.00246596
0.00247349
0.00248071
0.00248794
0.0024948
0.00250176
0.00250829
0.00251506
0.00252171
0.00252887
0.0025361
0.00254377
0.00255174
0.00255963
0.00256737
0.00257547
0.00258349
0.0025911
0.00259846
0.00260559
0.00261285
0.00261974
0.0026269
0.00263402
0.00264157
0.00264914
0.00265722
0.00266524
0.0026738
0.00268242
0.00269052
0.00269867
0.00270705
0.00271537
0.00272272
0.00273014
0.00273755
0.00274475
0.00275182
0.00275872
0.00276565
0.00277229
0.0027793
0.00278617
0.00279326
0.00280031
0.00280738
0.00281435
0.00282119
0.00282789
0.00283441
0.00284076
0.00284697
0.00285294
0.00285893
0.00286457
0.00287069
0.00287683
0.00288375
0.00289039
0.00289772
0.00290492
0.00291191
0.00292193
8.45316e-06
7.78115e-05
0.000170802
0.000267859
0.000364508
0.000453215
0.000532168
0.00060025
0.000660715
0.000710674
0.00075326
0.000789239
0.000817847
0.000838687
0.000852121
0.000858452
0.00083656
0.000797901
0.000748925
0.00069828
0.000670804
0.00064075
0.000609756
0.000599207
0.000578625
0.000563766
0.000555704
0.000543351
0.000559516
0.000520888
0.000498858
0.000454386
0.000409462
0.000358112
0.000310144
0.000270582
0.000238824
0.000217028
0.000207974
0.000201714
0.00021751
0.000229197
0.000272693
0.000305922
0.000322282
0.000328504
0.00033616
0.000339711
0.000344484
0.000346708
0.000346702
0.000348715
0.000351306
0.000353933
0.000357287
0.000359781
0.000363727
0.000367961
0.000373135
0.000377938
0.000383051
0.000387437
0.000392735
0.000396784
0.000401885
0.000407062
0.000412323
0.000417753
0.000423202
0.000429943
0.000436098
0.000443497
0.000450815
0.000459343
0.000467913
0.000477098
0.000487195
0.000498845
0.000512198
0.00052669
0.000541687
0.00055807
0.000575726
0.000594705
0.000614214
0.000634473
0.000655713
0.000678582
0.000702887
0.000728399
0.000754217
0.000781717
0.000810337
0.000839916
0.000869791
0.000899349
0.000930182
0.000961509
0.000994007
0.00102479
0.00105711
0.00108862
0.00112006
0.00115063
0.00118257
0.00121398
0.00124452
0.0012649
0.00128147
0.00130095
0.00132345
0.00134509
0.00136857
0.00139026
0.00140779
0.0014232
0.00143685
0.00145447
0.00147369
0.00149524
0.00151898
0.00154348
0.00156873
0.00159065
0.00160966
0.00162239
0.00163626
0.00164947
0.00166324
0.00167839
0.00169347
0.00171178
0.00172827
0.00174924
0.00176955
0.00178955
0.00180911
0.00182898
0.00184836
0.00186728
0.00188558
0.00190361
0.00192113
0.00193813
0.00195293
0.00196988
0.00198575
0.00200091
0.0020165
0.00203287
0.00205016
0.00206461
0.00208053
0.0020964
0.00211254
0.0021285
0.00214465
0.00216028
0.00217613
0.00219192
0.00220722
0.00222222
0.00223688
0.00225084
0.0022641
0.0022768
0.00228917
0.00230102
0.0023129
0.00232378
0.00233527
0.00234872
0.0023623
0.00237529
0.00238832
0.00240161
0.00241525
0.00242862
0.00244202
0.00245507
0.00246786
0.00248014
0.00249198
0.00250321