/*--------------------------------*- C++ -*----------------------------------*\
| =========                 |                                                 |
| \\      /  F ield         | OpenFOAM: The Open Source CFD Toolbox           |
|  \\    /   O peration     | Version:  2312                                  |
|   \\  /    A nd           | Website:  www.openfoam.com                      |
|    \\/     M anipulation  |                                                 |
\*---------------------------------------------------------------------------*/
FoamFile
{
    version     2.0;
    format      ascii;
    arch        "LSB;label=32;scalar=64";
    class       volScalarField;
    location    "0.001";
    object      cSound;
}
// * * * * * * * * * * * * * * * * * * * * * * * * * * * * * * * * * * * * * //

dimensions      [0 1 -1 0 0 0 0];

internalField   nonuniform List<scalar> 
48128
(
302.486
302.446
302.325
302.315
302.247
302.182
302.096
301.821
301.246
300.429
299.568
298.719
297.957
297.374
296.924
296.541
296.25
296.058
295.964
295.992
296.216
296.609
297.137
297.834
298.697
299.721
300.875
302.12
303.478
304.986
306.624
308.369
310.146
311.954
313.727
315.399
316.984
318.45
319.49
321.091
322.369
322.923
323.412
323.798
324.084
324.28
324.407
324.503
324.543
324.605
324.62
324.656
324.645
324.638
324.576
324.535
324.447
324.425
324.407
324.441
324.467
324.445
324.473
324.488
324.496
324.499
324.528
324.57
324.636
324.713
324.799
324.881
324.926
324.936
325.116
325.673
325.792
325.829
325.972
326.52
326.711
326.849
326.984
327.152
327.367
327.761
327.929
328.033
328.192
328.626
328.814
328.951
329.052
329.225
329.608
329.785
329.915
330.063
330.416
330.604
330.746
330.913
331.25
331.452
331.628
331.802
332.001
332.181
332.344
332.507
332.66
332.817
333.015
333.242
333.448
333.651
333.857
334.031
334.169
334.302
334.441
334.613
334.804
335.059
335.28
335.593
335.858
336.135
336.385
336.606
336.808
336.991
337.155
337.313
337.456
337.608
337.755
337.904
338.06
338.223
338.38
338.555
338.725
338.907
339.081
339.251
339.416
339.577
339.729
339.872
340.022
340.162
340.293
340.422
340.546
340.669
340.792
340.911
341.035
341.157
341.287
341.408
341.542
341.672
341.806
341.939
342.076
342.209
342.338
342.465
342.579
342.691
342.797
342.9
342.996
343.091
343.181
343.268
343.353
343.437
343.521
343.606
343.692
343.781
343.869
343.962
344.052
344.146
344.229
344.314
344.406
344.5
344.578
344.656
344.748
344.831
344.912
344.989
345.071
345.151
345.233
345.313
345.396
345.478
345.565
345.643
345.725
345.819
345.917
346.005
346.089
346.186
346.278
346.371
346.461
346.556
346.651
346.747
346.848
346.949
347.052
347.157
347.263
347.373
347.483
347.6
347.71
347.826
347.936
348.047
348.157
348.265
348.371
348.473
348.571
348.659
348.74
348.802
348.849
348.836
302.349
302.174
302.109
302.012
301.847
301.613
301.162
300.362
299.143
297.763
296.474
295.244
294.195
293.425
292.874
292.46
292.199
292.096
292.168
292.405
292.789
293.349
294.095
295.021
296.144
297.438
298.912
300.572
302.38
304.266
306.198
308.159
310.099
311.981
313.945
315.441
316.889
318.52
319.364
320.213
320.879
321.312
321.637
321.853
321.972
322.011
321.957
321.833
321.625
321.436
321.212
321.014
320.801
320.598
320.372
320.16
319.924
319.731
319.55
319.406
319.282
319.108
318.966
318.842
318.684
318.532
318.39
318.266
318.156
318.066
317.981
317.901
317.792
317.646
317.528
317.968
317.941
317.821
317.704
318.14
318.188
318.192
318.209
318.258
318.272
318.55
318.604
318.594
318.563
318.889
318.947
318.965
318.971
318.957
319.231
319.288
319.3
319.295
319.537
319.602
319.636
319.653
319.887
319.972
320.039
320.103
320.199
320.269
320.332
320.386
320.431
320.472
320.517
320.625
320.716
320.808
320.926
321.013
321.079
321.125
321.163
321.225
321.3
321.459
321.602
321.825
322.007
322.201
322.376
322.535
322.676
322.8
322.912
323.011
323.086
323.181
323.275
323.38
323.485
323.613
323.732
323.864
323.992
324.129
324.259
324.385
324.505
324.623
324.732
324.831
324.938
325.036
325.127
325.216
325.301
325.386
325.472
325.56
325.65
325.743
325.842
325.94
326.047
326.154
326.268
326.382
326.499
326.611
326.721
326.829
326.93
327.02
327.106
327.188
327.266
327.341
327.412
327.483
327.554
327.627
327.702
327.778
327.858
327.941
328.025
328.114
328.204
328.298
328.386
328.466
328.555
328.646
328.723
328.791
328.874
328.952
329.027
329.1
329.179
329.256
329.336
329.416
329.5
329.584
329.676
329.76
329.837
329.929
330.023
330.105
330.172
330.255
330.335
330.416
330.493
330.577
330.661
330.749
330.841
330.934
331.03
331.128
331.224
331.325
331.42
331.522
331.617
331.72
331.819
331.923
332.03
332.14
332.253
332.367
332.481
332.592
332.698
332.794
332.875
332.902
302.104
301.983
301.865
301.696
301.484
301.103
300.443
299.453
298.197
296.858
295.589
294.437
293.5
292.848
292.403
292.105
291.965
291.975
292.129
292.436
292.919
293.586
294.436
295.475
296.702
298.085
299.594
301.226
302.949
304.749
306.572
308.422
310.303
311.756
313.918
315.051
316.147
317.182
317.94
318.497
318.855
319.067
319.2
319.222
319.154
319.022
318.803
318.543
318.214
317.932
317.651
317.405
317.157
316.926
316.685
316.462
316.23
316.033
315.856
315.712
315.597
315.425
315.283
315.167
315.01
314.861
314.719
314.595
314.478
314.378
314.28
314.184
314.057
313.886
313.746
314.128
314.073
313.924
313.791
314.144
314.163
314.135
314.115
314.111
314.092
314.331
314.343
314.294
314.241
314.498
314.519
314.502
314.466
314.425
314.649
314.666
314.638
314.607
314.798
314.822
314.813
314.8
314.983
315.024
315.05
315.076
315.129
315.16
315.183
315.198
315.207
315.209
315.218
315.286
315.332
315.382
315.452
315.495
315.521
315.528
315.532
315.555
315.588
315.7
315.787
315.968
316.106
316.259
316.394
316.513
316.618
316.707
316.785
316.854
316.901
316.96
317.019
317.087
317.158
317.254
317.346
317.448
317.548
317.656
317.758
317.856
317.953
318.047
318.134
318.211
318.297
318.375
318.448
318.518
318.584
318.649
318.717
318.786
318.858
318.931
319.013
319.094
319.181
319.272
319.367
319.465
319.565
319.662
319.757
319.851
319.94
320.016
320.09
320.161
320.228
320.292
320.353
320.414
320.476
320.54
320.606
320.675
320.746
320.822
320.899
320.981
321.065
321.154
321.238
321.313
321.398
321.484
321.558
321.622
321.7
321.773
321.845
321.915
321.989
322.064
322.14
322.217
322.299
322.381
322.47
322.554
322.629
322.717
322.807
322.888
322.95
323.028
323.102
323.178
323.25
323.328
323.407
323.489
323.575
323.663
323.752
323.845
323.936
324.031
324.12
324.214
324.303
324.399
324.493
324.592
324.695
324.803
324.914
325.029
325.146
325.262
325.377
325.484
325.582
325.627
301.833
301.765
301.615
301.446
301.16
300.643
299.885
298.913
297.748
296.499
295.318
294.252
293.405
292.838
292.46
292.244
292.175
292.243
292.456
292.825
293.366
294.087
294.977
296.023
297.206
298.521
299.95
301.495
303.108
304.815
306.506
308.023
309.885
311.057
312.404
313.399
314.269
314.987
315.514
315.828
315.918
315.914
315.816
315.651
315.387
315.103
314.722
314.335
313.9
313.549
313.247
312.994
312.741
312.535
312.307
312.124
311.939
311.807
311.703
311.634
311.609
311.509
311.438
311.393
311.302
311.215
311.134
311.066
311
310.945
310.886
310.826
310.732
310.595
310.487
310.838
310.818
310.702
310.609
310.91
310.943
310.932
310.92
310.899
310.882
311.105
311.115
311.07
311.033
311.248
311.269
311.254
311.213
311.172
311.364
311.379
311.348
311.32
311.482
311.496
311.48
311.465
311.619
311.649
311.663
311.678
311.712
311.73
311.74
311.743
311.74
311.73
311.728
311.785
311.817
311.854
311.902
311.926
311.935
311.923
311.913
311.92
311.937
312.027
312.092
312.246
312.359
312.485
312.594
312.689
312.771
312.839
312.896
312.945
312.975
313.016
313.057
313.106
313.158
313.227
313.296
313.377
313.455
313.544
313.626
313.706
313.785
313.86
313.933
313.995
314.065
314.132
314.192
314.25
314.304
314.356
314.411
314.466
314.525
314.585
314.654
314.722
314.796
314.874
314.956
315.04
315.128
315.213
315.297
315.38
315.459
315.526
315.59
315.654
315.712
315.768
315.822
315.876
315.931
315.988
316.047
316.109
316.174
316.243
316.315
316.391
316.469
316.552
316.632
316.704
316.784
316.867
316.938
316.999
317.073
317.144
317.213
317.28
317.352
317.423
317.497
317.572
317.651
317.731
317.818
317.9
317.973
318.059
318.147
318.226
318.287
318.363
318.434
318.508
318.576
318.65
318.726
318.804
318.887
318.97
319.056
319.145
319.231
319.322
319.407
319.497
319.582
319.674
319.763
319.859
319.958
320.063
320.172
320.285
320.402
320.52
320.638
320.751
320.857
320.912
301.628
301.542
301.395
301.208
300.827
300.226
299.512
298.592
297.457
296.267
295.19
294.246
293.506
293.024
292.722
292.569
292.543
292.648
292.886
293.268
293.8
294.487
295.314
296.269
297.357
298.576
299.897
301.344
302.783
304.236
305.738
306.868
308.06
309.038
309.987
310.65
311.261
311.651
311.824
311.966
311.746
311.539
311.17
310.88
310.415
310.035
309.508
309.035
308.536
308.159
307.89
307.685
307.477
307.349
307.178
307.081
306.986
306.952
306.963
306.983
307.103
307.084
307.112
307.172
307.15
307.168
307.157
307.184
307.18
307.206
307.208
307.219
307.19
307.114
307.063
307.382
307.44
307.389
307.363
307.615
307.699
307.727
307.745
307.738
307.737
307.94
307.985
307.968
307.968
308.144
308.194
308.2
308.18
308.158
308.321
308.355
308.338
308.336
308.467
308.495
308.491
308.495
308.62
308.658
308.679
308.697
308.726
308.747
308.756
308.76
308.756
308.75
308.748
308.806
308.834
308.871
308.908
308.929
308.933
308.916
308.904
308.905
308.918
308.997
309.055
309.19
309.288
309.396
309.488
309.571
309.638
309.695
309.74
309.779
309.8
309.832
309.864
309.903
309.946
310.002
310.06
310.127
310.192
310.268
310.338
310.406
310.473
310.537
310.598
310.652
310.709
310.765
310.815
310.862
310.908
310.951
310.997
311.042
311.092
311.143
311.202
311.262
311.326
311.394
311.468
311.543
311.621
311.698
311.775
311.85
311.922
311.981
312.039
312.097
312.149
312.2
312.249
312.298
312.348
312.4
312.455
312.512
312.572
312.637
312.705
312.777
312.852
312.931
313.008
313.077
313.154
313.234
313.303
313.363
313.434
313.504
313.572
313.637
313.708
313.778
313.85
313.924
314.002
314.08
314.166
314.247
314.32
314.405
314.492
314.57
314.631
314.705
314.776
314.848
314.915
314.988
315.062
315.138
315.218
315.299
315.383
315.469
315.553
315.641
315.723
315.812
315.894
315.983
316.07
316.163
316.26
316.362
316.469
316.582
316.698
316.816
316.935
317.052
317.163
317.224
301.381
301.324
301.188
300.943
300.485
299.897
299.214
298.274
297.215
296.147
295.189
294.362
293.727
293.318
293.054
292.925
292.908
293.008
293.226
293.567
294.03
294.619
295.343
296.195
297.174
298.283
299.434
300.633
301.808
302.765
303.72
304.511
305.222
305.712
306.203
306.301
306.578
306.614
306.329
306.406
305.915
305.661
305.26
305.033
304.59
304.196
303.71
303.204
302.741
302.349
302.179
301.964
301.875
301.757
301.723
301.662
301.694
301.724
301.896
301.899
302.225
302.242
302.374
302.554
302.543
302.723
302.729
302.904
302.934
303.087
303.133
303.252
303.303
303.301
303.322
303.607
303.739
303.807
303.839
304.061
304.197
304.296
304.355
304.387
304.417
304.603
304.694
304.736
304.776
304.929
305.013
305.069
305.086
305.091
305.224
305.298
305.314
305.344
305.448
305.514
305.536
305.564
305.664
305.732
305.768
305.803
305.838
305.872
305.891
305.907
305.913
305.922
305.932
305.993
306.03
306.078
306.112
306.137
306.145
306.134
306.128
306.132
306.15
306.223
306.279
306.404
306.496
306.589
306.673
306.747
306.809
306.865
306.904
306.941
306.959
306.988
307.018
307.055
307.094
307.145
307.198
307.259
307.317
307.385
307.448
307.509
307.569
307.628
307.682
307.731
307.782
307.831
307.873
307.912
307.951
307.987
308.026
308.065
308.109
308.154
308.207
308.263
308.321
308.384
308.451
308.521
308.594
308.666
308.737
308.807
308.875
308.931
308.985
309.039
309.088
309.136
309.182
309.229
309.276
309.325
309.378
309.433
309.492
309.554
309.62
309.69
309.763
309.841
309.916
309.985
310.061
310.139
310.207
310.269
310.338
310.407
310.475
310.541
310.611
310.681
310.754
310.827
310.905
310.984
311.069
311.151
311.225
311.31
311.396
311.475
311.537
311.612
311.683
311.755
311.823
311.895
311.969
312.045
312.125
312.205
312.288
312.373
312.456
312.543
312.624
312.711
312.792
312.88
312.966
313.057
313.153
313.254
313.361
313.472
313.588
313.707
313.827
313.946
314.06
314.127
301.103
301.09
300.951
300.657
300.166
299.619
298.917
298.031
297.062
296.114
295.264
294.53
293.977
293.607
293.353
293.219
293.181
293.241
293.397
293.644
293.996
294.47
295.089
295.825
296.662
297.511
298.387
299.073
299.719
300.217
300.544
300.64
300.658
300.335
300.463
299.958
300.096
299.904
299.54
299.637
299.126
298.785
298.298
298.057
297.674
297.377
297.115
296.757
296.567
296.159
296.142
295.754
295.864
295.625
295.838
295.638
295.97
295.901
296.348
296.353
296.836
296.878
297.232
297.439
297.488
297.825
297.919
298.21
298.339
298.588
298.726
298.934
299.065
299.16
299.25
299.49
299.697
299.851
299.962
300.165
300.355
300.525
300.638
300.723
300.803
300.984
301.12
301.232
301.323
301.472
301.596
301.704
301.772
301.816
301.935
302.052
302.125
302.187
302.285
302.388
302.457
302.512
302.605
302.704
302.775
302.834
302.889
302.937
302.98
303.013
303.037
303.076
303.102
303.171
303.233
303.288
303.332
303.362
303.386
303.388
303.396
303.411
303.434
303.508
303.564
303.685
303.773
303.859
303.941
304.014
304.078
304.134
304.182
304.221
304.244
304.278
304.31
304.351
304.39
304.439
304.493
304.552
304.609
304.674
304.735
304.794
304.852
304.91
304.962
305.01
305.058
305.103
305.142
305.176
305.211
305.244
305.279
305.316
305.357
305.401
305.451
305.504
305.561
305.622
305.687
305.755
305.826
305.896
305.966
306.034
306.101
306.156
306.209
306.262
306.31
306.358
306.404
306.45
306.497
306.547
306.6
306.655
306.714
306.777
306.843
306.913
306.986
307.064
307.14
307.21
307.287
307.365
307.435
307.499
307.568
307.638
307.708
307.775
307.847
307.918
307.992
308.068
308.147
308.227
308.314
308.398
308.474
308.56
308.648
308.728
308.793
308.869
308.942
309.015
309.085
309.158
309.233
309.311
309.391
309.472
309.555
309.641
309.724
309.812
309.893
309.981
310.062
310.15
310.235
310.327
310.422
310.524
310.63
310.742
310.858
310.977
311.098
311.219
311.337
311.408
300.842
300.817
300.683
300.358
299.874
299.345
298.67
297.849
296.979
296.128
295.36
294.706
294.201
293.843
293.579
293.413
293.323
293.301
293.345
293.48
293.717
294.071
294.572
295.057
295.641
296.033
296.386
296.551
296.494
296.174
295.674
294.78
294.519
293.516
293.576
292.81
292.838
292.334
291.783
291.595
291.102
290.516
290.029
289.651
289.441
289.15
289.216
288.811
289.122
288.663
289.36
288.918
289.393
288.953
289.495
289.226
289.803
289.728
290.381
290.409
291.008
291.086
291.624
291.876
291.997
292.453
292.647
293.029
293.249
293.585
293.814
294.111
294.337
294.535
294.716
294.954
295.222
295.478
295.685
295.908
296.149
296.389
296.575
296.725
296.857
297.047
297.223
297.4
297.544
297.707
297.867
298.033
298.152
298.252
298.375
298.534
298.656
298.768
298.885
299.026
299.14
299.241
299.345
299.477
299.584
299.674
299.759
299.834
299.905
299.968
300.024
300.09
300.147
300.229
300.316
300.39
300.448
300.494
300.534
300.563
300.589
300.622
300.648
300.731
300.792
300.909
300.997
301.085
301.17
301.25
301.324
301.389
301.45
301.5
301.536
301.577
301.618
301.663
301.708
301.759
301.815
301.877
301.938
302.005
302.068
302.131
302.192
302.252
302.308
302.358
302.405
302.448
302.486
302.52
302.557
302.59
302.627
302.665
302.707
302.753
302.804
302.86
302.918
302.98
303.047
303.117
303.189
303.26
303.332
303.402
303.47
303.528
303.584
303.638
303.688
303.739
303.787
303.836
303.886
303.938
303.993
304.051
304.112
304.178
304.246
304.319
304.395
304.475
304.554
304.627
304.707
304.786
304.86
304.928
304.998
305.071
305.144
305.215
305.29
305.364
305.441
305.52
305.602
305.685
305.775
305.862
305.942
306.031
306.12
306.204
306.273
306.351
306.427
306.503
306.575
306.652
306.729
306.809
306.891
306.975
307.06
307.147
307.232
307.321
307.404
307.493
307.576
307.664
307.752
307.844
307.941
308.043
308.15
308.262
308.379
308.5
308.623
308.746
308.866
308.942
300.563
300.511
300.378
300.037
299.612
299.117
298.467
297.722
296.935
296.163
295.459
294.857
294.377
294.008
293.712
293.485
293.302
293.159
293.085
293.106
293.218
293.359
293.629
293.743
293.842
293.751
293.421
292.768
291.769
290.399
289.553
287.98
287.714
286.178
286.065
284.577
284.317
283.291
282.563
281.907
281.611
280.524
280.62
279.887
280.495
279.841
280.842
280.137
281.236
280.771
281.992
281.696
282.807
282.481
283.317
283.001
283.84
283.755
284.56
284.585
285.259
285.308
285.992
286.262
286.402
286.931
287.146
287.58
287.823
288.218
288.481
288.843
289.125
289.421
289.687
289.952
290.28
290.615
290.915
291.197
291.487
291.788
292.05
292.275
292.477
292.688
292.912
293.153
293.363
293.564
293.77
293.993
294.179
294.343
294.5
294.699
294.876
295.04
295.196
295.373
295.533
295.677
295.814
295.976
296.121
296.248
296.368
296.478
296.583
296.683
296.778
296.878
296.971
297.074
297.189
297.285
297.363
297.432
297.496
297.551
297.597
297.646
297.687
297.778
297.853
297.972
298.066
298.164
298.263
298.357
298.449
298.533
298.615
298.683
298.736
298.79
298.839
298.89
298.944
299.003
299.069
299.14
299.21
299.286
299.358
299.429
299.499
299.565
299.628
299.679
299.73
299.778
299.822
299.862
299.904
299.944
299.987
300.031
300.079
300.13
300.187
300.248
300.312
300.379
300.451
300.526
300.604
300.68
300.757
300.831
300.904
300.968
301.029
301.088
301.143
301.198
301.252
301.306
301.361
301.418
301.478
301.541
301.607
301.677
301.75
301.828
301.909
301.993
302.077
302.156
302.24
302.322
302.402
302.476
302.55
302.627
302.706
302.782
302.86
302.939
303.021
303.104
303.191
303.279
303.372
303.464
303.55
303.642
303.735
303.823
303.897
303.979
304.059
304.14
304.216
304.296
304.377
304.46
304.546
304.633
304.721
304.811
304.899
304.991
305.077
305.168
305.254
305.345
305.434
305.529
305.627
305.731
305.84
305.954
306.073
306.195
306.32
306.446
306.569
306.649
300.276
300.188
300.047
299.734
299.379
298.915
298.308
297.631
296.913
296.205
295.55
294.977
294.496
294.095
293.738
293.41
293.106
292.849
292.641
292.509
292.366
292.228
292.083
291.813
291.317
290.487
289.254
287.532
285.912
283.791
283.013
280.868
280.032
277.842
276.83
274.895
274.096
272.565
272.249
270.792
271.168
269.429
270.689
269.712
271.615
270.878
272.784
271.953
273.708
273.299
274.88
274.718
276.328
276.297
277.663
277.36
278.441
278.372
279.323
279.319
280.089
280.083
280.892
281.163
281.304
281.849
282.014
282.466
282.659
283.069
283.297
283.671
283.921
284.253
284.528
284.808
285.119
285.5
285.823
286.142
286.461
286.801
287.11
287.393
287.659
287.91
288.174
288.477
288.748
289.004
289.258
289.535
289.786
290.015
290.228
290.462
290.69
290.909
291.118
291.334
291.543
291.737
291.921
292.119
292.308
292.483
292.649
292.802
292.949
293.089
293.222
293.354
293.481
293.611
293.755
293.877
293.979
294.073
294.159
294.225
294.291
294.366
294.438
294.547
294.65
294.781
294.892
295.012
295.133
295.252
295.373
295.484
295.593
295.685
295.748
295.809
295.869
295.933
296
296.076
296.16
296.249
296.339
296.431
296.518
296.604
296.688
296.762
296.834
296.898
296.96
297.021
297.078
297.131
297.185
297.237
297.291
297.346
297.406
297.468
297.535
297.607
297.68
297.758
297.839
297.923
298.009
298.095
298.18
298.262
298.344
298.417
298.487
298.553
298.616
298.68
298.743
298.805
298.867
298.933
299
299.071
299.144
299.222
299.302
299.387
299.475
299.566
299.657
299.744
299.834
299.921
300.01
300.091
300.171
300.254
300.339
300.422
300.506
300.592
300.679
300.768
300.861
300.955
301.054
301.152
301.244
301.342
301.439
301.532
301.614
301.701
301.786
301.872
301.953
302.038
302.124
302.212
302.302
302.393
302.486
302.58
302.672
302.768
302.858
302.953
303.042
303.136
303.229
303.327
303.428
303.535
303.646
303.763
303.884
304.009
304.137
304.266
304.392
304.477
299.995
299.868
299.716
299.47
299.178
298.738
298.184
297.567
296.907
296.248
295.626
295.062
294.555
294.095
293.644
293.193
292.767
292.378
291.909
291.531
291.114
290.68
290.038
289.152
287.895
286.111
283.982
281.272
279.771
277.053
275.797
272.704
271.115
267.891
266.246
263.328
262.072
260.13
259.944
257.771
259.912
258.13
260.994
259.342
262.52
261.323
264.268
263.512
266.323
266.067
268.341
268.376
270.601
270.726
272.454
272.455
273.776
273.799
274.807
274.789
275.716
275.677
276.597
276.838
277.102
277.569
277.682
278.166
278.293
278.71
278.868
279.226
279.416
279.726
279.944
280.191
280.423
280.77
281.03
281.335
281.611
281.93
282.194
282.492
282.761
283.023
283.285
283.608
283.885
284.177
284.462
284.771
285.053
285.333
285.596
285.856
286.121
286.393
286.653
286.906
287.162
287.404
287.639
287.875
288.107
288.331
288.541
288.734
288.903
289.049
289.179
289.321
289.473
289.656
289.86
290.029
290.167
290.277
290.369
290.462
290.56
290.668
290.813
290.968
291.12
291.281
291.424
291.576
291.728
291.882
292.035
292.181
292.313
292.414
292.496
292.58
292.662
292.749
292.837
292.932
293.032
293.138
293.246
293.358
293.465
293.569
293.67
293.764
293.859
293.947
294.029
294.109
294.186
294.258
294.331
294.401
294.474
294.547
294.623
294.703
294.787
294.874
294.963
295.055
295.15
295.248
295.348
295.446
295.544
295.638
295.732
295.819
295.902
295.98
296.055
296.131
296.205
296.279
296.354
296.431
296.51
296.592
296.676
296.764
296.855
296.95
297.047
297.148
297.249
297.346
297.444
297.54
297.639
297.729
297.817
297.909
298.002
298.093
298.186
298.279
298.374
298.471
298.571
298.673
298.779
298.885
298.985
299.089
299.192
299.293
299.383
299.476
299.568
299.66
299.749
299.84
299.932
300.026
300.122
300.218
300.316
300.416
300.513
300.614
300.709
300.809
300.903
301.001
301.098
301.2
301.306
301.415
301.53
301.65
301.775
301.903
302.034
302.167
302.296
302.387
299.732
299.571
299.424
299.248
299.003
298.594
298.092
297.527
296.913
296.287
295.681
295.11
294.553
294.004
293.438
292.855
292.18
291.556
290.935
290.281
289.549
288.612
287.326
285.676
283.511
280.682
278.19
274.935
273.21
269.562
267.405
263.603
260.701
256.965
253.943
251.655
249.925
248.239
247.975
246.837
248.691
247.663
251.282
250.452
254.939
254.155
258.169
257.314
261.263
260.434
263.69
263.312
265.91
265.649
267.828
267.941
269.669
269.885
270.999
271.013
272.097
272.067
273.062
273.177
273.792
274.133
274.204
274.747
274.834
275.272
275.387
275.745
275.884
276.182
276.339
276.56
276.742
277.004
277.203
277.471
277.674
277.92
278.111
278.361
278.557
278.758
278.958
279.217
279.416
279.681
279.908
280.179
280.409
280.675
280.923
281.169
281.428
281.711
281.981
282.252
282.524
282.798
283.064
283.33
283.596
283.853
284.074
284.257
284.401
284.571
284.749
284.937
285.13
285.329
285.526
285.71
285.863
286.015
286.168
286.329
286.489
286.652
286.82
287.049
287.262
287.465
287.656
287.851
288.042
288.237
288.422
288.605
288.734
288.867
288.979
289.092
289.203
289.318
289.435
289.555
289.679
289.808
289.938
290.066
290.192
290.32
290.442
290.559
290.678
290.792
290.898
291.001
291.103
291.2
291.297
291.391
291.487
291.583
291.682
291.784
291.889
291.996
292.106
292.218
292.332
292.448
292.565
292.68
292.795
292.904
293.015
293.118
293.218
293.312
293.403
293.495
293.586
293.676
293.767
293.859
293.954
294.051
294.15
294.252
294.358
294.466
294.576
294.689
294.803
294.914
295.023
295.129
295.241
295.343
295.442
295.545
295.649
295.75
295.853
295.956
296.062
296.169
296.279
296.39
296.506
296.621
296.732
296.844
296.956
297.066
297.165
297.268
297.368
297.469
297.566
297.665
297.765
297.867
297.971
298.075
298.18
298.287
298.391
298.498
298.6
298.705
298.805
298.909
299.012
299.119
299.23
299.344
299.464
299.588
299.717
299.85
299.985
300.123
300.256
300.353
299.507
299.315
299.191
299.074
298.855
298.487
298.033
297.511
296.93
296.321
295.71
295.124
294.48
293.797
292.992
292.194
291.436
290.607
289.737
288.735
287.5
285.951
283.881
281.354
278.37
274.616
272.253
268.277
265.819
261.358
258.069
253.725
249.827
246.041
243.022
239.992
237.204
234.974
233.357
232.259
231.975
232.55
235.162
236.819
242.036
243.69
249.336
248.872
255.037
253.804
259.042
258.936
262.119
261.783
264.447
264.338
266.43
266.565
267.881
267.872
269.117
269.095
270.165
270.178
271.066
271.377
271.424
272.03
272.096
272.571
272.673
273.044
273.159
273.461
273.585
273.819
273.979
274.186
274.351
274.585
274.73
274.944
275.079
275.295
275.431
275.594
275.727
275.898
276.027
276.237
276.382
276.578
276.713
276.927
277.079
277.247
277.418
277.625
277.808
278.012
278.216
278.434
278.646
278.868
279.088
279.297
279.477
279.664
279.832
280.038
280.26
280.491
280.728
280.955
281.166
281.354
281.526
281.709
281.904
282.114
282.324
282.539
282.746
282.972
283.232
283.474
283.71
283.946
284.176
284.408
284.609
284.796
284.956
285.125
285.272
285.418
285.561
285.706
285.852
286
286.151
286.304
286.459
286.609
286.757
286.907
287.052
287.193
287.335
287.474
287.606
287.732
287.859
287.98
288.102
288.221
288.341
288.461
288.584
288.709
288.836
288.967
289.099
289.232
289.368
289.504
289.64
289.775
289.907
290.034
290.162
290.284
290.402
290.514
290.625
290.736
290.846
290.955
291.065
291.177
291.291
291.406
291.523
291.642
291.764
291.888
292.015
292.143
292.272
292.399
292.523
292.642
292.769
292.886
292.999
293.115
293.233
293.348
293.463
293.579
293.697
293.817
293.939
294.064
294.191
294.319
294.443
294.566
294.688
294.81
294.922
295.035
295.146
295.257
295.365
295.475
295.585
295.697
295.811
295.926
296.04
296.156
296.269
296.385
296.495
296.608
296.717
296.828
296.939
297.054
297.171
297.293
297.419
297.549
297.684
297.823
297.964
298.107
298.245
298.349
299.336
299.122
299.033
298.948
298.752
298.425
298.011
297.519
296.958
296.347
295.699
295.04
294.171
293.326
292.454
291.53
290.532
289.465
288.254
286.744
284.909
282.667
279.69
276.129
272.839
268.518
265.925
261.132
257.506
252.68
248.267
243.712
239.696
235.998
232.284
228.797
225.579
222.616
219.832
217.112
214.71
212.584
210.776
209.376
208.403
210.026
220.816
228.337
238.847
242.398
252.342
253.263
257.335
257.627
261.132
260.921
263.474
263.819
265.316
265.261
266.6
266.49
267.699
267.637
268.741
269.081
269.155
269.81
269.866
270.399
270.504
270.895
270.996
271.315
271.423
271.689
271.851
272.026
272.164
272.375
272.48
272.695
272.801
273.002
273.104
273.267
273.367
273.494
273.589
273.759
273.847
274.01
274.104
274.275
274.381
274.499
274.604
274.737
274.842
274.978
275.092
275.231
275.34
275.469
275.581
275.712
275.822
275.963
276.08
276.26
276.451
276.652
276.862
277.052
277.224
277.382
277.53
277.705
277.899
278.118
278.346
278.586
278.81
279.034
279.256
279.506
279.76
280.016
280.26
280.509
280.702
280.916
281.105
281.314
281.496
281.68
281.858
282.035
282.211
282.388
282.566
282.745
282.923
283.098
283.268
283.441
283.609
283.773
283.937
284.097
284.252
284.399
284.547
284.69
284.833
284.973
285.114
285.257
285.401
285.548
285.697
285.849
286.002
286.156
286.31
286.464
286.617
286.768
286.916
287.058
287.202
287.341
287.476
287.607
287.737
287.866
287.996
288.125
288.255
288.386
288.519
288.652
288.787
288.924
289.063
289.204
289.347
289.491
289.637
289.781
289.921
290.055
290.199
290.333
290.462
290.593
290.725
290.856
290.986
291.117
291.249
291.383
291.52
291.659
291.801
291.943
292.083
292.219
292.353
292.489
292.615
292.742
292.866
292.99
293.111
293.233
293.356
293.48
293.605
293.732
293.858
293.986
294.11
294.238
294.359
294.483
294.603
294.724
294.845
294.97
295.097
295.227
295.362
295.501
295.644
295.791
295.94
296.091
296.235
296.346
299.233
299.003
298.944
298.874
298.711
298.416
298.021
297.529
296.966
296.318
295.553
294.767
293.85
292.907
291.844
290.695
289.459
288.054
286.374
284.258
281.738
278.774
274.757
270.167
267.269
262.34
258.776
253.608
249.019
243.957
239.424
235.236
231.064
227.086
223.566
220.427
217.527
214.59
211.825
209.518
207.448
205.546
203.874
202.414
201.172
200.124
199.601
199.517
199.644
201.262
219.471
233.135
242.917
251.276
254.911
256.738
260.222
261.351
262.798
263.269
264.506
264.467
265.814
265.593
266.88
267.232
267.334
268.015
268.037
268.64
268.733
269.141
269.223
269.567
269.673
269.968
270.137
270.293
270.406
270.594
270.681
270.898
270.988
271.184
271.266
271.439
271.525
271.639
271.717
271.858
271.924
272.08
272.147
272.308
272.382
272.506
272.587
272.687
272.766
272.871
272.951
273.049
273.119
273.204
273.26
273.341
273.381
273.488
273.55
273.688
273.82
273.967
274.11
274.234
274.335
274.425
274.499
274.622
274.758
274.927
275.109
275.309
275.486
275.653
275.801
275.94
276.118
276.314
276.496
276.704
276.899
277.132
277.335
277.577
277.789
278.009
278.218
278.425
278.63
278.835
279.038
279.24
279.44
279.636
279.828
280.021
280.209
280.394
280.577
280.755
280.93
281.096
281.263
281.425
281.587
281.748
281.909
282.071
282.235
282.401
282.568
282.736
282.905
283.074
283.243
283.411
283.577
283.74
283.9
284.054
284.21
284.363
284.513
284.659
284.805
284.95
285.096
285.242
285.389
285.537
285.684
285.833
285.984
286.136
286.29
286.445
286.603
286.762
286.922
287.082
287.236
287.385
287.544
287.693
287.837
287.983
288.13
288.275
288.42
288.565
288.712
288.862
289.013
289.167
289.323
289.482
289.637
289.789
289.937
290.087
290.229
290.37
290.508
290.646
290.781
290.917
291.054
291.192
291.331
291.471
291.61
291.752
291.89
292.03
292.165
292.302
292.434
292.568
292.701
292.837
292.976
293.117
293.263
293.413
293.566
293.722
293.881
294.041
294.193
294.314
299.204
298.939
298.91
298.858
298.72
298.435
298.036
297.516
296.92
296.226
295.421
294.554
293.515
292.351
291.065
289.692
288.123
286.276
284.065
281.229
277.89
274.236
269.266
264.569
261.56
255.851
251.349
246.082
241.223
236.69
232.327
228.059
224.386
221.081
217.98
215.05
212.365
210.037
207.989
205.959
204.121
202.544
201.163
199.923
198.845
197.899
197.086
196.375
195.765
195.298
195.191
196.152
196.83
215.825
234.447
243.778
254.67
257.284
260.005
261.168
262.32
262.687
263.958
263.711
265.211
265.559
265.85
266.419
266.415
267.098
267.18
267.616
267.688
268.07
268.192
268.503
268.67
268.832
268.916
269.097
269.174
269.385
269.46
269.657
269.729
269.908
269.985