/*--------------------------------*- C++ -*----------------------------------*\
| =========                 |                                                 |
| \\      /  F ield         | OpenFOAM: The Open Source CFD Toolbox           |
|  \\    /   O peration     | Version:  2312                                  |
|   \\  /    A nd           | Website:  www.openfoam.com                      |
|    \\/     M anipulation  |                                                 |
\*---------------------------------------------------------------------------*/
FoamFile
{
    version     2.0;
    format      ascii;
    arch        "LSB;label=32;scalar=64";
    class       volScalarField;
    location    "0.001";
    object      k;
}
// * * * * * * * * * * * * * * * * * * * * * * * * * * * * * * * * * * * * * //

dimensions      [0 2 -2 0 0 0 0];

internalField   nonuniform List<scalar> 
48128
(
0.440104
0.636675
3.45268
29.1964
118.052
279.239
450.109
608.73
748.563
867.625
969.371
1057.75
1135.48
1206.08
1272.49
1336.08
1397.77
1458.73
1519.76
1583.2
1652.04
1725.54
1804.83
1893.47
1990.4
2098.1
2212.66
2335.22
2478.37
2625.29
2794.17
2969.67
3140.58
3283.03
3406.44
3482.12
3549.79
3564.99
3534.31
3505.06
3538.6
3611.53
3664.39
3695.62
3697.39
3681.95
3656.85
3620.28
3580.86
3528.13
3469.55
3398.94
3326.43
3249.11
3182.43
3111.59
3047.5
2978.94
2914.76
2845.83
2781.98
2723.86
2662.87
2608.95
2553.53
2503.97
2453.1
2407.65
2361.59
2319.73
2279.66
2241.19
2207.25
2172.07
2146.89
2119.67
2089.57
2056.81
2034.76
2012.36
1988.17
1962.96
1944.09
1925.02
1910.61
1895.92
1880.37
1863.35
1852.37
1840.78
1827.58
1814.79
1802.03
1794.35
1786.08
1776.69
1765.96
1759.72
1752.95
1745.22
1736.51
1731.41
1725.92
1719.62
1712.98
1707.47
1702.63
1697.67
1693.37
1689.06
1685.33
1681.56
1678.51
1675.64
1672.69
1669.85
1667.39
1664.79
1662.24
1659.56
1657.87
1655.98
1655.44
1654.59
1653.67
1652.26
1650.34
1647.84
1644.78
1641.36
1637.83
1634.23
1631.17
1628.22
1625.68
1623.59
1622.06
1620.57
1619.47
1618.25
1616.91
1615.41
1613.76
1611.96
1610
1607.93
1605.81
1603.78
1601.71
1599.79
1598.08
1596.54
1595.01
1593.67
1592.37
1591.31
1590.29
1589.3
1588.28
1587.22
1586.07
1584.78
1583.35
1581.79
1580.1
1578.28
1576.36
1574.35
1572.3
1570.34
1568.33
1566.34
1564.55
1563.04
1561.62
1560.38
1559.27
1558.25
1557.25
1556.22
1555.15
1554.02
1552.81
1551.51
1550.1
1548.58
1546.94
1545.17
1543.22
1541.21
1539.29
1537.41
1535.42
1533.64
1532.13
1530.72
1529.34
1528.03
1526.76
1525.5
1524.23
1522.92
1521.56
1520.13
1518.62
1516.91
1515.23
1513.7
1512.2
1510.5
1509.24
1508.26
1507.44
1506.59
1505.92
1505.33
1504.73
1504.12
1503.49
1502.8
1502.1
1501.32
1500.59
1499.78
1499.21
1498.62
1498.3
1498.03
1497.83
1497.63
1497.37
1497.03
1496.57
1495.98
1495.25
1494.38
1493.39
1492.35
1490.95
1490.08
1.35048
3.45836
15.8304
62.1589
168.228
330.436
506.398
677.021
840.373
996.861
1149.6
1300.53
1452.23
1611.84
1781.26
1965.03
2165.6
2388.14
2634.46
2910.19
3219.65
3557.56
3928.36
4338.19
4780.43
5258.18
5759.08
6258.7
6779.29
7309.43
7849.44
8373.29
8889.79
9347.11
9758.07
10040.9
10296.8
10455.4
10491.5
10508.1
10513.4
10484.7
10389.8
10240.9
10053.1
9831.84
9594.45
9342.49
9086.85
8816.26
8539.57
8254.2
7983.04
7710.34
7456.1
7200.26
6956.21
6713.09
6481.65
6249.48
6029.96
5821.2
5616.99
5425.89
5238.1
5062.25
4890.79
4730.54
4575.31
4430.92
4292.5
4162.63
4039.92
3921.3
3814.27
3723.74
3629.03
3531.36
3441.79
3370.84
3297.45
3222.56
3153.49
3089.49
3031.74
2981.5
2930.07
2877.22
2827.15
2786.56
2744.12
2700.94
2657.3
2618.79
2586.38
2552.56
2517.61
2483.78
2456.29
2427.87
2398.59
2370.63
2347.81
2324.31
2300.5
2277.11
2256.02
2235.45
2215.33
2196.13
2176.77
2158.31
2140.71
2124.17
2109.24
2094.29
2081.05
2067.91
2054.52
2041.18
2027.7
2014.8
2003.01
1992.47
1983.86
1976
1969.35
1962.84
1956.6
1950.17
1943.5
1936.47
1929.18
1921.65
1913.85
1906.23
1898.61
1891.32
1884.13
1877.5
1871.08
1865.13
1859.39
1854.23
1849.15
1844.48
1839.78
1835.42
1831.1
1826.62
1822.47
1818.35
1814.16
1810.02
1805.89
1801.88
1797.92
1794.21
1790.53
1787.06
1783.7
1780.44
1777.3
1774.4
1771.72
1769.34
1767.11
1765.19
1763.25
1761.48
1759.61
1757.62
1755.62
1753.55
1751.38
1749.14
1746.83
1744.46
1742.01
1739.52
1736.97
1734.64
1732.36
1730.31
1728.25
1726.43
1724.57
1722.96
1721.29
1719.55
1717.74
1716.23
1714.54
1712.65
1710.9
1709.27
1707.6
1705.86
1704.23
1702.6
1701.04
1699.45
1697.91
1696.3
1694.86
1693.31
1691.67
1689.99
1688.62
1687.06
1685.33
1683.69
1682.03
1680.32
1678.6
1676.92
1675.32
1673.69
1672.21
1670.74
1669.34
1667.93
1666.54
1665.19
1663.87
1662.58
1661.26
1660.07
1658.89
1657.83
1656.85
1655.96
1655.3
1654.79
1654.46
1654.08
1653.98
1653.88
1653.48
1652.79
4.05687
16.3305
54.6989
154.462
338.288
609.617
924.752
1239.85
1545.78
1837.11
2115.99
2385.34
2650.59
2916.72
3188.14
3474.34
3777.98
4107.52
4464.59
4855.23
5281.63
5746.13
6240.07
6774.03
7345.71
7953.67
8596.69
9266.87
9982.31
10703
11430.6
12127.5
12807.3
13387.6
13908
14231.1
14474.6
14592.4
14572.6
14483.5
14315.9
14073.2
13780.8
13451.5
13102.9
12732.4
12353.6
11968.6
11583.7
11196.7
10809
10418
10038.3
9667.08
9309.33
8963.4
8626.34
8305.07
7993.25
7693.88
7407.15
7128.53
6865.33
6615.68
6373.52
6145.43
5925.46
5718.71
5519.55
5333.58
5154.72
4988.01
4827.34
4675.58
4527.27
4408.75
4286.84
4163.56
4039.52
3943.75
3846.81
3750.14
3656.75
3571.84
3491.19
3422.07
3351.86
3281.44
3210.31
3153.02
3094.84
3035.91
2978.64
2922.36
2875.89
2828.6
2780.71
2732.35
2692.32
2651.77
2611.03
2569.98
2535.89
2501.32
2467.18
2433.33
2402.23
2372.02
2342.51
2314.04
2285.77
2258.24
2231.79
2206.32
2182.6
2158.83
2137.16
2116.3
2095.25
2074.88
2054.29
2034.88
2015.64
1998.44
1982.24
1967.9
1954.49
1942.02
1930.61
1919.23
1908.17
1896.98
1885.73
1874.36
1862.68
1851.48
1840.18
1829.46
1818.59
1808.67
1798.74
1789.52
1780.49
1772.13
1763.99
1756.25
1748.63
1741.35
1734.22
1726.94
1720.04
1713.33
1706.61
1699.94
1693.48
1687.03
1680.88
1674.79
1668.98
1663.25
1657.82
1652.51
1647.43
1642.65
1638.09
1633.93
1629.92
1626.33
1622.79
1619.49
1616.32
1613
1609.76
1606.48
1603.15
1599.77
1596.35
1592.92
1589.43
1585.99
1582.49
1579.23
1576
1573.09
1570.18
1567.6
1565.02
1562.76
1560.59
1558.34
1556.05
1553.99
1551.9
1549.6
1547.31
1545.19
1543.09
1540.94
1538.92
1536.95
1535.08
1533.21
1531.43
1529.62
1527.99
1526.34
1524.54
1522.7
1521.07
1519.34
1517.35
1515.39
1513.39
1511.37
1509.3
1507.23
1505.26
1503.29
1501.44
1499.63
1497.88
1496.17
1494.44
1492.77
1491.07
1489.34
1487.56
1485.88
1484.26
1482.76
1481.4
1480.1
1479.09
1478.33
1477.79
1477.31
1477.15
1477.17
1477.01
1476.87
11.3956
46.903
133.846
321.746
637.975
1070.76
1528.42
1960.49
2354.63
2717.04
3058.16
3384.3
3703.44
4022.3
4343.83
4680.24
5034.87
5417.84
5829.52
6277.62
6765.73
7301.54
7880
8506.5
9182.09
9904.15
10678
11483.1
12333.7
13179.5
14015.8
14792.5
15529
16117.1
16585.7
16849.6
16951.7
16916.6
16770.1
16485.9
16112.9
15683.8
15238.1
14762.5
14280.2
13793.7
13308.3
12840.8
12366.6
11927.4
11483.6
11060
10641
10246.6
9856.45
9490.26
9126.97
8791.36
8459.72
8153.43
7854.9
7561.28
7291.53
7031.25
6783.5
6545.81
6321.03
6106.21
5902.07
5708.94
5523.67
5350.42
5181.4
5021.79
4859.32
4735.17
4608.62
4479.43
4345.78
4242.01
4139.91
4038.39
3936.68
3844.57
3752.45
3676.68
3600.35
3523.34
3444.09
3379.81
3315.81
3251.07
3187.5
3122.6
3069.77
3016.84
2963.28
2908.17
2862.12
2816.45
2770.41
2723.14
2683.45
2643.82
2604.84
2565.73
2529.48
2494.33
2459.89
2426.56
2393.58
2361.29
2330.17
2300.25
2271.96
2243.66
2217.57
2192.49
2167.18
2142.71
2117.98
2094.89
2071.58
2050.95
2030.31
2012.28
1995.16
1979.07
1964.11
1949.3
1935.05
1920.69
1906.53
1892.34
1877.87
1864.07
1850.21
1837.02
1823.64
1811.35
1798.97
1787.39
1775.99
1765.32
1754.95
1744.99
1735.24
1725.85
1716.7
1707.37
1698.53
1689.9
1681.37
1672.93
1664.83
1656.69
1649
1641.27
1633.97
1626.65
1619.68
1612.93
1606.4
1600.17
1594.13
1588.51
1583.06
1578.05
1573.15
1568.56
1564.21
1559.78
1555.48
1551.24
1546.97
1542.71
1538.45
1534.21
1529.94
1525.74
1521.48
1517.47
1513.47
1509.82
1506.18
1502.93
1499.71
1496.83
1494.11
1491.36
1488.59
1486.1
1483.58
1480.88
1478.21
1475.68
1473.21
1470.69
1468.34
1466.06
1463.92
1461.8
1459.8
1457.77
1455.95
1454.1
1452.14
1450.16
1448.35
1446.47
1444.36
1442.26
1440.11
1437.92
1435.69
1433.43
1431.24
1429.06
1427
1424.97
1423.01
1421.11
1419.18
1417.32
1415.42
1413.5
1411.52
1409.57
1407.68
1405.87
1404.24
1402.65
1401.34
1400.3
1399.56
1398.85
1398.48
1398.43
1398.24
1398.32
25.7109
100.575
259.266
562.003
1029.25
1576.09
2084.01
2543.78
2967.46
3364.06
3741.32
4104.21
4459.73
4814.12
5170.54
5541.5
5930.41
6349.52
6803.19
7300.25
7848.26
8455.52
9114.36
9826.34
10597.8
11420.3
12296.4
13192.8
14121.4
15022.7
15880.8
16624.5
17255.1
17700.5
17914
18001
17874
17611.9
17252.5
16730.8
16125.3
15473.6
14813
14167.6
13517
12933.7
12340.2
11823.8
11292.4
10857.8
10414.4
10038.8
9655.69
9323.33
8984.57
8687.08
8383.01
8115.72
7842.76
7603.9
7365.8
7127.43
6913.01
6698.46
6499.75
6297.9
6113.25
5928.25
5756.66
5587.66
5427.45
5273.86
5123.46
4979.05
4828.44
4716.38
4603.52
4487
4363.73
4265.44
4172.39
4078.34
3983.23
3894.46
3803.66
3730.19
3657.47
3583.56
3506.17
3442.17
3380.15
3317.47
3254.25
3188.68
3135.26
3082.96
3029.84
2974.21
2927.16
2881.43
2835.1
2786.73
2745.65
2705.51
2665.78
2625.64
2587.83
2551.24
2515.36
2480.55
2446.11
2412.54
2379.38
2348.17
2318.36
2288.66
2260.79
2234.07
2207.14
2181.02
2154.63
2129.9
2104.74
2082.51
2060.04
2040.46
2021.61
2003.74
1987
1970.35
1954.36
1938.25
1922.49
1906.72
1890.67
1875.35
1860.02
1845.44
1830.65
1817.01
1803.24
1790.4
1777.62
1765.65
1753.96
1742.71
1731.69
1721.02
1710.64
1700.13
1690.06
1680.3
1670.65
1661.12
1651.99
1642.84
1634.21
1625.51
1617.31
1609.05
1601.2
1593.58
1586.11
1578.95
1571.93
1565.36
1558.92
1552.95
1547.11
1541.58
1536.4
1531.15
1526.06
1521.15
1516.2
1511.35
1506.51
1501.75
1496.95
1492.24
1487.48
1482.94
1478.41
1474.26
1470.12
1466.4
1462.73
1459.42
1456.31
1453.2
1450.08
1447.28
1444.46
1441.48
1438.53
1435.72
1433
1430.23
1427.64
1425.15
1422.83
1420.54
1418.42
1416.26
1414.33
1412.37
1410.33
1408.25
1406.36
1404.41
1402.25
1400.1
1397.91
1395.69
1393.4
1391.08
1388.81
1386.54
1384.4
1382.29
1380.25
1378.27
1376.28
1374.34
1372.36
1370.38
1368.35
1366.3
1364.28
1362.32
1360.53
1358.77
1357.28
1356.05
1355.16
1354.29
1353.74
1353.59
1353.32
1353.46
47.6795
176.649
425.589
850.854
1426.65
1979.37
2489.98
2959.01
3397.52
3814.7
4215.26
4603.52
4984.88
5365.51
5748.74
6144.45
6558.94
7006.98
7496.99
8036.69
8634.69
9302.26
10029.7
10812
11654.3
12542.2
13474.7
14402
15321.6
16170.9
16918.4
17502.6
17893.2
18068.8
17915.5
17560
16922.4
16149.3
15267
14341.9
13344.9
12490.3
11612
10905.9
10173.9
9600.84
9004.09
8545.87
8073.08
7748.92
7415.88
7185.62
6943.77
6764.22
6572.83
6424.66
6266.48
6143.15
6011.37
5905.82
5798.22
5687.99
5587.14
5483.21
5386.37
5285.73
5191.15
5093.5
4996.18
4897.1
4799.05
4701.98
4603.98
4503.95
4396.18
4315.27
4237.86
4154.61
4063.96
3987.48
3917.75
3845.87
3771.99
3699.2
3624.13
3562.73
3503.89
3442.98
3378.72
3322.75
3270.66
3217.51
3162.88
3105.54
3057.95
3012.34
2965.53
2916.23
2873.29
2832.16
2790.16
2746.26
2707.93
2671.39
2634.62
2597.5
2561.78
2527.36
2493.56
2460.61
2428.03
2396.23
2363.99
2334.49
2305.71
2277.53
2250.22
2224.22
2198.15
2172.7
2146.95
2122.57
2097.64
2075.55
2053.65
2033.97
2015.11
1997.04
1980.08
1963.14
1946.77
1930.27
1914.16
1897.95
1881.5
1865.82
1850.04
1835.11
1819.97
1805.93
1791.87
1778.67
1765.51
1753.09
1740.92
1729.2
1717.68
1706.52
1695.66
1684.72
1674.08
1663.87
1653.73
1643.74
1634.16
1624.57
1615.54
1606.44
1597.85
1589.27
1581.01
1572.99
1565.07
1557.48
1549.97
1542.9
1535.92
1529.4
1523.04
1516.94
1511.26
1505.53
1499.97
1494.64
1489.32
1484.15
1479.01
1473.97
1468.9
1463.94
1458.92
1454.11
1449.3
1444.86
1440.45
1436.46
1432.56
1429.01
1425.69
1422.41
1419.11
1416.14
1413.19
1410.08
1406.99
1404.02
1401.18
1398.28
1395.57
1392.97
1390.57
1388.24
1386.09
1383.91
1381.98
1380.02
1377.99
1375.91
1374.04
1372.1
1369.98
1367.88
1365.74
1363.57
1361.34
1359.07
1356.83
1354.58
1352.47
1350.39
1348.39
1346.45
1344.5
1342.59
1340.65
1338.71
1336.72
1334.71
1332.7
1330.7
1328.87
1327.06
1325.49
1324.18
1323.21
1322.28
1321.62
1321.41
1321.09
1321.25
76.2407
269.355
616.448
1146.82
1729.42
2271.09
2772.2
3237.79
3680.1
4105.96
4519.19
4924.03
5323.96
5723.21
6124.99
6537.91
6970.51
7438.94
7956.03
8527.93
9160.01
9870.8
10649.4
11475.3
12351
13247.8
14164.6
15053.3
15871.7
16577.2
17068.1
17268.5
17024.9
16521.4
15641.2
14506.2
13197.4
11953.9
10623.3
9665.35
8653
7913.7
7147.41
6602.45
6037.14
5636.88
5221.96
4930.94
4633.34
4447.39
4257.31
4142.38
4022.59
3950.77
3874.05
3829.17
3780.76
3759.84
3735.03
3727.41
3721.03
3714.08
3711.08
3706.17
3703.6
3698.78
3693.7
3686.52
3678.1
3666.36
3651.68
3633.47
3611.01
3583.08
3548.68
3516.86
3491.85
3463.32
3428.18
3391.72
3358.5
3323.95
3286.07
3245.24
3201.51
3162.16
3126.85
3089.33
3048.86
3010.34
2975.92
2940.26
2902.37
2861.82
2825.92
2792.77
2758.4
2721.99
2688.31
2656.55
2623.96
2589.91
2558.52
2529.33
2499.84
2469.93
2440.55
2412.04
2384.01
2356.5
2329.16
2302.29
2274.86
2249.61
2224.73
2200.41
2176.48
2153.47
2130.71
2108.22
2085.44
2063.55
2041.31
2021.14
2001.63
1983.42
1966.17
1949.45
1933.72
1918.04
1902.77
1887.35
1872.18
1856.9
1841.36
1826.5
1811.5
1797.32
1783.04
1769.56
1756.29
1743.63
1731.1
1719.09
1707.32
1695.95
1684.75
1673.88
1663.32
1652.7
1642.24
1632.24
1622.29
1612.45
1603.02
1593.61
1584.7
1575.81
1567.31
1558.94
1550.79
1542.88
1535.03
1527.48
1519.97
1512.88
1505.81
1499.16
1492.69
1486.43
1480.61
1474.77
1469.07
1463.64
1458.25
1453.05
1447.91
1442.89
1437.84
1432.9
1427.9
1423.07
1418.24
1413.75
1409.32
1405.28
1401.37
1397.78
1394.46
1391.19
1387.9
1384.95
1382.03
1378.96
1375.89
1372.93
1370.11
1367.23
1364.52
1361.95
1359.59
1357.32
1355.26
1353.19
1351.37
1349.54
1347.63
1345.67
1343.91
1342.11
1340.13
1338.16
1336.17
1334.15
1332.07
1329.95
1327.85
1325.73
1323.74
1321.8
1319.94
1318.14
1316.34
1314.57
1312.77
1310.96
1309.12
1307.25
1305.36
1303.45
1301.68
1299.92
1298.38
1297.08
1296.12
1295.21
1294.56
1294.34
1294.04
1294.2
109.036
369.66
812.467
1385.5
1948.09
2469.38
2952.36
3405.74
3841.29
4265.73
4683.26
5097.02
5507.92
5917.29
6329.12
6751.3
7192.83
7671.32
8203.7
8794.05
9445.92
10175.9
10975.2
11803.8
12667.7
13531.3
14372.8
15143.7
15692.7
15970.6
15765.6
15243.1
14191.8
12810.6
11309.1
9806.56
8448.33
7357.87
6244.65
5504.71
4749.71
4251.06
3743.22
3411.87
3075.93
2857.89
2636.41
2488.98
2340.39
2247.82
2154.46
2098.74
2041.75
2012.8
1983.16
1972.69
1967.34
1973.45
1983.23
2000.24
2021.63
2048.07
2077.04
2107.97
2142.32
2175.87
2210.87
2244.4
2280.13
2313.04
2346.67
2377.46
2405.17
2431.14
2449.43
2464.84
2481.52
2499.46
2512.28
2520.27
2527.47
2535.11
2538.48
2537.06
2532.51
2526.65
2521.64
2515.63
2506.94
2497.02
2486.99
2476.05
2462.94
2447.05
2430.42
2415.1
2399.35
2382.04
2364.27
2347.2
2329.72
2311.07
2292.16
2274.67
2256.98
2238.51
2219.73
2200.8
2182.16
2163.44
2144.56
2125.65
2106.31
2087.79
2069.75
2051.5
2033.68
2016.24
1999.06
1981.74
1964.14
1946.96
1929.63
1913.43
1897.74
1882.88
1868.8
1855.02
1841.99
1829.06
1816.35
1803.5
1790.72
1777.83
1764.66
1751.85
1739.02
1726.77
1714.54
1702.77
1691.28
1680.17
1669.21
1658.59
1648.13
1637.99
1627.96
1618.17
1608.7
1599.19
1589.72
1580.62
1571.59
1562.59
1553.93
1545.34
1537.11
1529.02
1521.2
1513.56
1506.08
1498.83
1491.59
1484.59
1477.59
1470.94
1464.27
1457.94
1451.8
1445.8
1440.24
1434.67
1429.22
1424.04
1418.94
1414.05
1409.24
1404.54
1399.83
1395.2
1390.53
1385.98
1381.41
1377.13
1372.92
1369.07
1365.37
1361.97
1358.85
1355.8
1352.74
1349.99
1347.3
1344.47
1341.61
1338.84
1336.2
1333.5
1330.96
1328.56
1326.37
1324.3
1322.46
1320.63
1319.05
1317.47
1315.81
1314.1
1312.58
1311.02
1309.3
1307.57
1305.83
1304.06
1302.24
1300.38
1298.51
1296.62
1294.86
1293.15
1291.53
1289.97
1288.41
1286.88
1285.32
1283.75
1282.14
1280.5
1278.84
1277.14
1275.53
1273.92
1272.5
1271.32
1270.44
1269.64
1269.1
1268.92
1268.72
1268.95
143.718
470.811
984.852
1557.08
2094.96
2590.03
3048.49
3481.92
3902.15
4317.39
4731.73
5146.45
5559.89
5970.83
6384.04
6807.23
7248.93
7727.52
8265.09
8864.31
9517.65
10238
11030.4
11839.1
12646.3
13395.6
14019.7
14448
14388.6
14029.5
13105.9
11760.5
10193.8
8524.81
7136.24
5816.79
4788.85
3970.36
3277.35
2803.33
2385.5
2117.94
1866.01
1709.17
1559.7
1463.81
1366.61
1298.14
1227.7
1176.95
1125.02
1088.06
1049.14
1024.39
998.583
986.539
974.06
971.619
972.13
976.778
984.758
997.817
1014.06
1034.01
1058.57
1085.78
1116.59
1149.17
1184.62
1221.3
1259.97
1299.17
1339.26
1379.3
1417.39
1452.43
1488.26
1524.67
1561.9
1595.3
1628.23
1660.32
1690.69
1718.37
1742
1761.75
1781.16
1800.33
1817.71
1831.49
1845.07
1857.52
1869.33
1877.65
1883.72
1889.55
1895.75
1899.95
1902.47
1904.19
1906
1905.57
1904.27
1902.44
1900.17
1896.76
1892.36
1887.08
1881.27
1875.01
1868.24
1860.99
1853.13
1844.92
1836.53
1827.68
1818.47
1809.14
1799.83
1790.42
1780.67
1770.5
1759.9
1749.65
1739.35
1729.47
1720.11
1710.81
1702.02
1693.3
1684.55
1675.7
1666.74
1657.59
1648.2
1638.75
1629.36
1620.22
1611.11
1602.21
1593.49
1584.97
1576.52
1568.22
1560
1552.01
1544.01
1536.19
1528.6
1520.97
1513.27
1505.84
1498.44
1491.01
1483.81
1476.69
1469.83
1463.12
1456.62
1450.28
1444.07
1438.02
1431.95
1426.04
1420.08
1414.36
1408.59
1403.07
1397.69
1392.42
1387.54
1382.65
1377.88
1373.35
1368.91
1364.67
1360.55
1356.52
1352.5
1348.51
1344.5
1340.52
1336.51
1332.72
1329
1325.59
1322.35
1319.38
1316.68
1314.08
1311.45
1309.12
1306.88
1304.5
1302.08
1299.71
1297.42
1295.09
1292.88
1290.82
1288.96
1287.23
1285.75
1284.3
1283.1
1281.91
1280.65
1279.33
1278.17
1276.98
1275.63
1274.27
1272.89
1271.48
1270.02
1268.52
1267
1265.44
1264.01
1262.64
1261.33
1260.11
1258.89
1257.7
1256.48
1255.24
1253.97
1252.66
1251.31
1249.93
1248.57
1247.22
1246.03
1245.04
1244.34
1243.73
1243.39
1243.31
1243.27
1243.66
178.678
557.812
1117.13
1671.56
2181.94
2645.44
3072.57
3482.06
3886.1
4287.67
4691.32
5097.98
5504.59
5908.43
6313.9
6730.13
7166.34
7637.59
8166.06
8755.03
9389.13
10076.6
10821
11569.5
12244.3
12769.4
12998.6
12872.3
12264.3
11215.2
9742.92
8071.93
6532.87
5112.97
4038.59
3122.96
2492.5
1997.65
1662.12
1422.08
1245.6
1136.19
1040.64
985.732
928.591
886.933
843.755
806.172
766.775
732.433
695.829
666.579
635.942
614.335
592.278
577.439
562.318
552.863
542.949
537.604
532.041
529.902
529.913
531.492
535.293
540.952
549.075
559.042
571.488
585.912
602.798
621.593
642.683
665.406
689.58
714.797
741.807
770.771
801.866
833.622
866.264
899.436
933.653
967.342
1001
1031.64
1061.89
1091.93
1122.65
1150.3
1177.8
1204.9
1232.54
1258.45
1282.2
1303.71
1325.55
1345.97
1365
1381.73
1398.69
1413.62
1427.29
1439.36
1451.7
1462.44
1472.57
1481.45
1489.75
1497.62
1504.93
1511.36
1516.98
1521.29
1524.89
1527.46
1528.55
1529.4
1529.82
1530.17
1529.74
1528.65
1526.69
1524.26
1521.38
1518.18
1514.89
1511.45
1508.24
1504.96
1501.68
1498.23
1494.68
1490.92
1486.83
1482.54
1478.08
1473.52
1468.88
1464.17
1459.44
1454.68
1449.87
1445
1440.07
1435.2
1430.26
1425.36
1420.55
1415.69
1410.71
1405.81
1400.87
1395.88
1390.9
1385.94
1381.1
1376.4
1371.83
1367.38
1363
1358.71
1354.38
1350.08
1345.7
1341.42
1337.05
1332.83
1328.69
1324.61
1320.86
1317.09
1313.42
1309.94
1306.54
1303.35
1300.28
1297.27
1294.28
1291.28
1288.24
1285.17
1282.04
1279.01
1276.07
1273.37
1270.85
1268.56
1266.53
1264.61
1262.67
1260.99
1259.42
1257.72
1255.98
1254.22
1252.5
1250.74
1249.05
1247.51
1246.14
1244.92
1243.94
1243.03
1242.35
1241.7
1240.98
1240.2
1239.53
1238.84
1237.99
1237.12
1236.22
1235.3
1234.32
1233.28
1232.21
1231.1
1230.1
1229.14
1228.26
1227.46
1226.67
1225.92
1225.14
1224.34
1223.5
1222.61
1221.68
1220.7
1219.7
1218.7
1217.83
1217.13
1216.68
1216.35
1216.29
1216.36
1216.52
1217.25
211.417
629.347
1205.43
1737.28
2215.82
2646.96
3051.42
3437.93
3817.17
4196.05
4579.89
4969.54
5360.69
5749.92
6140.89
6546.08
6971.47
7424.05
7924.5
8486.99
9086.47
9731.04
10419.9
11068.1
11531.4
11697.8
11453.2
10854.4
9696.72
8167.11
6553.18
4998.3
3799.4
2810.15
2123.02
1604.83
1282.76
1044.18
908.533
801.872
748.001
707.233
681.626
663.042
643.122
623.349
601.544
579.283
554.164
528.902
500.844
480.312
459.554
444.468
429.052
416.765
404.231
394.663
384.898
377.543
369.939
364.034
358.483
353.557
350.113
346.562
344.713
342.753
342.282
342.582
343.749
345.748
348.843
352.895
357.99
364.041
371.307
380.016
390.447
402.189
415.378
430.012
446.42
464.198
483.307
503.287
524.252
546.4
570.101
594.509
619.735
645.743
672.935
700.574
728.427
755.169
782.386
809.185
836.273
861.337
886.745
910.613
934.054
956.069
978.49
999.869
1021.46
1041.59
1061.01
1079.54
1097.81
1114.63
1130.74
1145.04
1158.09
1170.18
1180.54
1190.87
1200.4
1210.02
1218.76
1227.16
1234.17
1240.35
1245.73
1250.2
1254.45
1257.87
1261.33
1264.34
1267.51
1270.21
1272.98
1275.67
1277.75
1279.61
1281.12
1282.39
1283.38
1284.07
1284.6
1284.77
1284.67
1284.35
1283.81
1283.1
1282.19
1281.16
1280.02
1278.82
1277.44
1275.96
1274.37
1272.65
1270.82
1268.92
1266.98
1265.11
1263.27
1261.48
1259.67
1257.85
1255.94
1253.92
1251.76
1249.51
1247.13
1244.77
1242.39
1240.05
1237.91
1235.79
1233.75
1231.83
1229.97
1228.28
1226.71
1225.19
1223.67
1222.09
1220.42
1218.66
1216.8
1214.91
1213.08
1211.42
1209.94
1208.62
1207.53
1206.54
1205.54
1204.76
1204.11
1203.33
1202.47
1201.57
1200.64
1199.65
1198.69
1197.86
1197.16
1196.62
1196.28
1196.06
1196.05
1196.1
1196.07
1195.97
1195.94
1195.88
1195.67
1195.4
1195.11
1194.8
1194.4
1193.94
1193.43
1192.88
1192.39
1191.95
1191.58
1191.3
1191.04
1190.83
1190.59
1190.33
1190.01
1189.65
1189.22
1188.73
1188.19
1187.64
1187.17
1186.84
1186.74
1186.78
1186.98
1187.33
1187.78
1188.98
241.533
681.065
1255.71
1760.23
2210.9
2620.99
2995.89
3351.52
3701
4051.87
4410.08
4776.38
5146.36
5516.62
5891.48
6276.59
6680.26
7106.9
7572.28
8106.75
8699.14
9317.88
9939.45
10432.1
10553.9
10368.2
9690.72
8557.55
7019.84
5359.63
3974.25
2839.09
2049.8
1481.34
1112.34
872.838
725.46
621.911
562.261
514.411
490.921
469.239
460.066
451.303
446.02
438.881
430.474
420.705
405.543
394.176
382.606
374.72
365.964
357.091
347.43
338.593
329.443
321.707
313.733
307.33
300.845
295.243
289.978
285.015
280.64
276.175
272.399
268.502
265.217
261.858
259.165
256.424
254.296
252.26
250.655
249.297
248.215
247.711
247.982
248.647
249.828
251.566
254.037
257.202
261.137
265.76
271.153
277.477
284.962
293.453
303.055
313.751
325.842
339.113
353.567
369.032
385.66
403.437
422.375
442.097
462.707
484.008
505.868
528.089
550.914
574.277
598.216
622.237
646.373
669.908
693.667
716.306
738.612
759.456
779.049
798.094
815.811
833.611
850.641
867.828
883.986
899.718
914.079
927.215
939.057
949.499
959.621
968.655
977.776
986.339
995.128
1003.58
1012.1
1020.55
1028.65
1036.61
1044.18
1051.5
1058.45
1065.07
1071.27
1077.01
1082.2
1087.02
1091.21
1095.28
1098.85
1102.3
1105.4
1108.51
1111.31
1113.88
1116.34
1118.55
1120.58
1122.46
1124.18
1125.9
1127.51
1129.13
1130.58
1131.98
1133.08
1134.04
1134.63
1135.12
1135.28
1135.41
1135.39
1135.37
1135.4
1135.47
1135.58
1135.76
1135.99
1136.32
1136.73
1137.2
1137.69
1138.01
1138.14
1138.12
1137.98
1137.72
1137.4
1137.18
1137.13
1137.17
1137.35
1137.62
1137.95
1138.38
1138.95
1139.43
1139.73
1139.96
1140.11
1140.17
1140.24
1140.36
1140.58
1140.94
1141.46
1142.14
1142.98
1143.94
1144.85
1145.61
1146.37
1147.17
1147.71
1148.25
1148.73
1149.2
1149.54
1149.8
1150
1150.17
1150.36
1150.58
1150.84
1151.17
1151.54
1151.97
1152.35
1152.73
1153.03
1153.28
1153.44
1153.51
1153.51
1153.51
1153.54
1153.67
1153.96
1154.4
1155.01
1155.74
1156.54
1158.34
267.091
712.272
1271.09
1753.87
2185.5
2568.07
2911
3233.16
3549.8
3869.48
4198.33
4537.06
4882.57
5232.24
5581.35
5938.35
6316.55
6723.75
7183.51
7730
8352.18
8940.58
9441.89
9662.09
9444.64
8843.97
7692.67
6126.43
4523.02
3160.26
2205.94
1523.13
1093.04
814.207
644.508
535.923
467.727
415.482
378.688
344.633
319.787
294.543
275.655
258.558
248.469
243.291
245.709
252.65
264.459
280.557
297.562
304.804
300.076
294.687
289.81
285.317
280.427
275.364
269.901
265.055
260.074
255.651
251.34
247.207
243.458
239.585
236.094
232.545
229.297
225.994
222.978
219.912
217.116
214.28
211.686
209.056
206.619
204.148
202.12
200.102
198.423
196.701
195.347
194.024
193.062
192.197
191.544
191.124
191.265
191.696
192.515
193.741
195.497
197.776
200.63
204.046
208.113
212.919
218.571
225.014
232.336
240.555
249.733
259.824
270.963
283.191
296.609
311.155
326.846
343.582
361.269
379.665
398.576
417.741
436.98
456.31
475.772
495.474
515.339
535.465
555.28
574.883
593.633
611.411
628.096
643.173
657.923
671.687
685.605
699.117
712.944
726.467
740.002
753.539
766.545
779.262
791.465
803.302
814.66
825.606
836.019
846.032
855.431
864.514
872.835
881.051
888.611
896.197
903.421
910.693
917.717
924.451
931.066
937.376
943.342
949.132
954.648
960.127
965.381
970.636
975.611
980.53
985.034
989.365
993.183
996.842
1000.02
1003.09
1005.88
1008.59
1011.25
1013.96
1016.64
1019.36
1022.1
1024.91
1027.78
1030.71
1033.64
1036.33
1038.81
1041
1042.98
1044.72
1046.38
1048.03
1049.74
1051.52
1053.4
1055.34
1057.34
1059.36
1061.49
1063.58
1065.4
1067.08
1068.64
1070.05
1071.42
1072.81
1074.24
1075.78
1077.45
1079.28
1081.25
1083.36
1085.43
1087.31
1089.1
1090.95
1092.5
1094.05
1095.51
1096.94
1098.23
1099.41
1100.51
1101.56
1102.61
1103.67
1104.76
1105.89
1107.06
1108.3
1109.46
1110.64
1111.71
1112.72
1113.62
1114.4
1115.09
1115.73
1116.39
1117.1
1117.94
1118.9
1120.01
1121.23
1122.47
1124.97
290.097
726.572
1265.08
1731.76
2140.42
2494.24
2805.17
3093.56
3375.99
3662.82
3960.4
4269.32
4588.95
4910.28
5229.17
5560.32
5931.18
6355.91
6853.65
7448.8
8105
8599.36
8855.82
8751.08
8149.51
7011.81
5439.38
3821.99
2623.09
1754.33
1207.16
856.521
646.909
517.487
436.11
379.797
336.588
300.08
269.598
240.277
215.122
193.607
176.476
161.478
149.285
140.203
138.287
140.127
144.575
153.088
165.957
181.982
199.656
219.829
240.551
242.622
241.224
239.069
236.158
233.041
229.808
226.736
223.517
220.247
217.212
214.022
211.056
208.049
205.226
202.367
199.675
196.94
194.351
191.718
189.245
186.75
184.323
181.854
179.587
177.298
175.23
173.126
171.181
169.209
167.431
165.636
163.919
162.175
160.674
159.196
157.98
156.775
155.764
154.886
154.164
153.638
153.166
153.032
153.177
153.536
154.174
155.124
156.441
158.131
160.264
162.901
166.159
170.068
174.709
180.115
186.311
193.282
200.998
209.401
218.474
228.283
238.943
250.511
262.985
276.345
290.457
305.178
320.259
335.524
350.873
366.013
381.301
396.448
411.825
427.362
443.237
459.228
475.432
491.786
507.936
523.913
539.447
554.617
569.335
583.616
597.368
610.846
623.807
636.505
648.561
660.39
671.701
682.817
693.365
703.786
713.904
723.714
733.239
742.543
751.448
760.268
768.758
777.274
785.518
793.838
801.949
810.09
817.799
825.352
832.342
839.116
845.256
851.217
856.784
862.204
867.492
872.849
878.163
883.525
888.928
894.394
899.946
905.562
911.197
916.526
921.635
926.319
930.72
934.752
938.659
942.441
946.241
950.059
953.938
957.869
961.847
965.775
969.769
973.772
977.435
980.898
984.156
987.237
990.184
993.118
996.068
999.086
1002.2
1005.46
1008.84
1012.36
1015.83
1019.13
1022.21
1025.34
1028.16
1030.96
1033.63
1036.26
1038.72
1041.05
1043.27
1045.41
1047.52
1049.63
1051.75
1053.91
1056.08
1058.32
1060.47
1062.63
1064.67
1066.63
1068.45
1070.14
1071.68
1073.13
1074.57
1076.03
1077.57
1079.21
1080.97
1082.84
1084.67
1088.06
308.282
724.675
1247.83
1695.08
2080.35
2406.42
2686.48
2942.08
3190.91
3444.69
3711.09
3990.29
4281.16
4570.89
4868.2
5197.3
5598.2
6087.17
6652.5
7295.1
7916.27
8190.43
8082.54
7584.15
6409.3
4834.29
3341.8
2208.62
1478.91
1007.97
725.313
555.425
452.429
385.642
337.626
299.486
266.522
237.245
211.065
187.835
168.127
151.498
137.481
125.631
115.721
107.526
103.398
101.308
99.2289
99.589
103.394
110.593
121.184
134.962
151.664
168.954
189.751
205.507
206.61
205.914
204.302
202.321
199.959
197.484
195.065
192.5
190.032
187.484
184.972
182.435
180.036
177.593
175.27
172.912
170.686
168.478
166.318
164.113
161.995
159.847
157.899
155.932
154.103
152.251
150.541
148.829
147.155
145.451
143.863
142.261
140.815
139.35
137.999
136.634
135.401
134.152
132.977
131.784
130.772
129.756
128.9
128.04
127.362
126.702
126.212
125.799
125.605
125.673
125.924
126.41
127.158
128.185
129.494
131.085
132.97
135.211
137.91
141.122
144.892
149.26
154.223
159.765
165.824
172.351
179.325
186.785
194.799
203.384
212.609
222.483
233.157
244.537
256.726
269.601
283.114
297.138
311.535
326.21
341.065
356.056
371.01
385.96
400.73
415.425
429.814
444.015
457.951
471.715
484.98
498.065
510.805
523.276
535.336
547.231
558.739
570.215
581.347
592.518
603.398
614.369
624.903
635.385
645.335
655.104
664.232
673.122
681.365
689.434
697.076
704.549
711.925
719.428
726.992
734.649
742.4
750.257
758.24
766.322
774.425
782.205
789.75
796.782
803.513
809.8
815.937
821.871
827.809
833.72
839.69
845.699
851.755
857.721
863.698
869.73
875.392
880.816
885.959
890.901
895.626
900.317
904.982
909.704
914.491
919.399
924.415
929.579
934.65
939.604
944.206
948.865
953.188
957.468
961.573
965.632
969.476
973.184
976.72
980.173
983.539
986.914
990.263
993.657
997.044
1000.5
1003.85
1007.2
1010.41
1013.53
1016.48
1019.27
1021.88
1024.34
1026.74
1029.13
1031.56
1034.05
1036.64
1039.35
1041.94
1046.44
323.844
716.082
1220.44
1647.52
2010.14
2310.64
2561.94
2786.49
3004.01
3226.86
3464
3717.78
3976.24
4246.26
4546.62
4913.46
5389.45
5970.98
6578.02
7209.67
7588.74
7484.22
6972.68
5872.99
4398.12
2950.05
1953.6
1291.24
890.6
650.885
508.534
420.86
363.409
321.124
286.858
256.683
229.92
205.841
184.533
165.84
149.835
136.252
124.483
114.421
105.899
98.9239
93.2886
88.7356
85.3123
82.2347
82.0036
82.557
84.1122
88.451
96.1244
107.409
121.866
137.875
153.296
173.095
178.658
178.628
177.58
175.944
174
171.852
169.711
167.47
165.244
162.996
160.884
158.727
156.721
154.694
152.79
150.941
149.134
147.279
145.452
143.597
141.91
140.213
138.663
137.096
135.636
134.185
132.782
131.356
129.981
128.589
127.304
126.006
124.789
123.555