/*--------------------------------*- C++ -*----------------------------------*\
| =========                 |                                                 |
| \\      /  F ield         | OpenFOAM: The Open Source CFD Toolbox           |
|  \\    /   O peration     | Version:  2312                                  |
|   \\  /    A nd           | Website:  www.openfoam.com                      |
|    \\/     M anipulation  |                                                 |
\*---------------------------------------------------------------------------*/
FoamFile
{
    version     2.0;
    format      ascii;
    arch        "LSB;label=32;scalar=64";
    class       volScalarField;
    location    "0.001";
    object      nut;
}
// * * * * * * * * * * * * * * * * * * * * * * * * * * * * * * * * * * * * * //

dimensions      [0 2 -1 0 0 0 0];

internalField   nonuniform List<scalar> 
48128
(
2.00931e-07
2.90013e-07
1.5721e-06
1.31605e-05
5.2387e-05
0.000120527
0.000187516
0.000244514
0.000290797
0.00032834
0.000360033
0.000387529
0.000412628
0.00043677
0.00046063
0.00048482
0.000509827
0.000536121
0.000564104
0.00059519
0.000630781
0.000669691
0.000713049
0.000762374
0.000817188
0.000878176
0.000943424
0.0010135
0.00109182
0.00117159
0.00125821
0.00134475
0.0014286
0.00150005
0.00156432
0.00161045
0.00165266
0.00167691
0.00168597
0.00169229
0.00171486
0.00174763
0.00177304
0.00179129
0.00180045
0.00180393
0.00180391
0.00179991
0.00179451
0.00178459
0.00177264
0.00169449
0.00157794
0.00147596
0.0013875
0.00130841
0.00123735
0.00117302
0.00111523
0.00106121
0.00101439
0.000970945
0.000929556
0.000893822
0.000858863
0.00082768
0.000797637
0.000771334
0.000746021
0.000723668
0.00070267
0.00068328
0.000665658
0.000647806
0.000630899
0.000623128
0.000610926
0.000596287
0.000582925
0.000577079
0.000567983
0.000557726
0.000549157
0.000541068
0.000533418
0.000528978
0.000523008
0.000515837
0.000509219
0.000506327
0.000501461
0.000496155
0.000490586
0.000485671
0.000483537
0.000479974
0.000475512
0.000471468
0.000469674
0.000466763
0.000463175
0.000459928
0.000458528
0.000456216
0.000453544
0.000451031
0.00044901
0.000446871
0.000444861
0.000442827
0.000440911
0.000439014
0.000437223
0.000436083
0.000434845
0.000433581
0.000432589
0.000431426
0.000430127
0.000428683
0.00042737
0.000426232
0.000425296
0.000425043
0.000424591
0.000424538
0.000424192
0.000423795
0.000423207
0.000422405
0.000421465
0.000420402
0.000419401
0.000418367
0.000417327
0.000416476
0.000415742
0.000415102
0.000414528
0.000414135
0.000413674
0.00041328
0.000412841
0.000412439
0.000411986
0.000411495
0.000410968
0.000410462
0.000409916
0.000409337
0.000408869
0.00040841
0.000407928
0.000407487
0.000407048
0.000406659
0.000406322
0.000405997
0.00040571
0.000405419
0.000405177
0.000404916
0.000404654
0.000404388
0.000404126
0.000403853
0.000403574
0.000403275
0.000402944
0.000402624
0.000402294
0.000401869
0.000401489
0.000401153
0.000400826
0.000400534
0.000400272
0.000400038
0.000399818
0.000399612
0.000399421
0.000399239
0.000399063
0.00039889
0.000398709
0.000398525
0.000398326
0.000398126
0.000397893
0.000397573
0.000397307
0.000397077
0.000396801
0.000396459
0.000396244
0.000396054
0.000395856
0.000395653
0.000395482
0.000395314
0.000395148
0.000394977
0.000394807
0.00039463
0.000394464
0.000394266
0.000393987
0.000393791
0.000393624
0.00039341
0.000393115
0.000392959
0.000392822
0.000392688
0.000392546
0.000392442
0.000392339
0.00039224
0.000392146
0.000392043
0.000391932
0.000391817
0.00039168
0.000391552
0.000391418
0.000391306
0.000391207
0.00039115
0.000391089
0.00039105
0.000391016
0.000390986
0.000390954
0.000390917
0.000390864
0.000390789
0.000390696
0.000390582
0.000390413
0.000390082
1.72261e-06
5.87098e-06
1.91096e-05
6.3037e-05
0.000155851
0.00030133
0.000491167
0.000697621
0.00091956
0.0011464
0.00137199
0.0015931
0.00181198
0.00203526
0.00226793
0.00251741
0.00278886
0.00308949
0.00342124
0.00379443
0.0042346
0.00470932
0.00523047
0.00580964
0.00642866
0.00710004
0.00779752
0.00840676
0.00896707
0.00952086
0.010053
0.0105309
0.0109913
0.0113655
0.011697
0.0118857
0.0120711
0.0121602
0.0121322
0.012094
0.0120145
0.0119075
0.01176
0.0115947
0.0114058
0.0112011
0.0109944
0.010782
0.0105722
0.0103488
0.0101242
0.00989589
0.00969188
0.00948798
0.00930572
0.00911648
0.00894059
0.00875299
0.00857897
0.00839069
0.00821641
0.00805484
0.00788323
0.00772789
0.00756692
0.00742027
0.00726621
0.00712549
0.00698094
0.0068475
0.00671528
0.00659032
0.00647078
0.00635655
0.00625034
0.00614826
0.00604379
0.00593801
0.00584467
0.00576107
0.00567546
0.0055889
0.00551252
0.0054426
0.00537656
0.00531428
0.00525137
0.00518746
0.00512872
0.00507461
0.00501861
0.00496281
0.00490799
0.00486057
0.00481455
0.00476746
0.00471972
0.00467559
0.00463496
0.00459348
0.0045517
0.00451323
0.00447781
0.00444169
0.00440562
0.0043709
0.00433905
0.0043073
0.00427662
0.00424662
0.00421621
0.00418775
0.00415757
0.00412948
0.0041034
0.00407737
0.00405429
0.00403156
0.00400926
0.00398685
0.00396432
0.00394169
0.00392041
0.00389942
0.00388053
0.00386365
0.00384785
0.00382361
0.00379856
0.00377614
0.00375608
0.00373725
0.00371847
0.0036998
0.00368121
0.0036625
0.00364375
0.00362567
0.00360717
0.00358842
0.00356984
0.00355244
0.00353419
0.00351794
0.00350137
0.00348564
0.00347067
0.00345609
0.00344234
0.0034294
0.00341656
0.00340473
0.00339296
0.00338131
0.00336989
0.00335869
0.00334762
0.00333619
0.0033257
0.0033145
0.00330449
0.00329425
0.00328414
0.00327434
0.00326459
0.00325552
0.00324668
0.0032385
0.00323118
0.00322405
0.00321778
0.00321167
0.00320547
0.00320014
0.00319467
0.00318931
0.00318412
0.00317895
0.00317373
0.0031684
0.00316286
0.00315758
0.00315221
0.00314712
0.00314198
0.00313708
0.00313216
0.00312748
0.00312309
0.00311917
0.00311492
0.00311075
0.00310782
0.00310486
0.00310156
0.00309861
0.0030961
0.00309349
0.00309081
0.00308814
0.00308548
0.00308279
0.00308005
0.0030772
0.0030744
0.0030719
0.0030696
0.00306685
0.00306425
0.00306261
0.00306093
0.00305902
0.00305714
0.00305528
0.0030533
0.00305116
0.00304899
0.00304666
0.00304436
0.00304201
0.00303956
0.00303716
0.00303461
0.00303217
0.0030299
0.00302777
0.00302568
0.00302357
0.00302151
0.00301945
0.00301734
0.00301512
0.00301313
0.00301122
0.00300954
0.00300777
0.00300632
0.00300545
0.00300498
0.00300501
5.18459e-06
4.06006e-05
9.87397e-05
0.000243698
0.000517052
0.000999075
0.00167629
0.00245458
0.00328255
0.00409154
0.00484562
0.0055368
0.0061814
0.00679847
0.00737645
0.00797553
0.00858473
0.00923304
0.00991873
0.0106619
0.0114514
0.0122797
0.0131217
0.013989
0.0148653
0.0157259
0.0165278
0.0172413
0.0179258
0.0185395
0.019076
0.0195031
0.0198779
0.0200942
0.0202572
0.0202188
0.02015
0.019997
0.0197072
0.0194395
0.0191162
0.018765
0.0183864
0.0180021
0.0176255
0.0172548
0.0168931
0.016539
0.0161915
0.0158501
0.0155161
0.0151861
0.0148756
0.0145787
0.0142979
0.0140274
0.013765
0.0135073
0.0132591
0.0130099
0.0127723
0.0125437
0.0123152
0.0121035
0.0118881
0.0116884
0.0114848
0.0112942
0.0111023
0.0109215
0.0107429
0.0105731
0.0104073
0.0102488
0.010096
0.00995975
0.00981675
0.00967196
0.00952959
0.00941167
0.00928932
0.00916621
0.00905106
0.00894471
0.00884647
0.00875447
0.00865939
0.00856373
0.00846955
0.00838719
0.00830163
0.00821394
0.0081306
0.00805156
0.00797902
0.00790408
0.00782804
0.00775404
0.00768785
0.00761988
0.00755169
0.00748525
0.00742556
0.00736383
0.00730268
0.0072426
0.00718711
0.00713138
0.0070775
0.0070242
0.0069705
0.00691852
0.00686577
0.00681468
0.00676613
0.00671754
0.00667314
0.00663006
0.00658713
0.00654451
0.0065015
0.00645947
0.006418
0.00637957
0.0063426
0.0063084
0.00627626
0.00624701
0.00621989
0.00619283
0.00616651
0.00613975
0.00611307
0.00608612
0.00605901
0.00603239
0.00600567
0.00597962
0.00595354
0.00592888
0.00590337
0.00588016
0.00585676
0.00583539
0.00581424
0.00579443
0.00577476
0.0057559
0.00573745
0.00571881
0.00570133
0.00568401
0.00566672
0.00564966
0.00563295
0.00561632
0.00560018
0.00558397
0.00556828
0.00555272
0.00553748
0.00552247
0.00550792
0.00549386
0.00548052
0.00546796
0.00545604
0.00544535
0.0054348
0.00542526
0.00541553
0.0054062
0.00539722
0.00538829
0.00537933
0.00537044
0.0053616
0.00535284
0.00534386
0.00533506
0.00532562
0.00531705
0.00530831
0.00530071
0.00529274
0.00528598
0.0052787
0.00527254
0.00526631
0.00526047
0.00525468
0.00525006
0.00524502
0.00524029
0.00523608
0.00523219
0.00522843
0.00522437
0.00522082
0.00521699
0.00521362
0.00520984
0.00520643
0.00520254
0.00519928
0.00519574
0.00519257
0.0051895
0.00518733
0.00518494
0.00518286
0.00518087
0.00517888
0.00517636
0.00517391
0.00517101
0.00516827
0.00516478
0.00516176
0.00515851
0.00515555
0.00515233
0.00514918
0.00514612
0.00514327
0.00514053
0.00513784
0.00513539
0.00513289
0.00513003
0.00512734
0.00512429
0.00512198
0.00511975
0.00511801
0.00511609
0.00511523
0.00511445
0.00511407
0.0051134
1.45961e-05
0.000128051
0.000299372
0.000675465
0.00137825
0.00255515
0.00400803
0.00556186
0.00702814
0.00832535
0.0094599
0.0104753
0.0113532
0.0121746
0.0129355
0.013699
0.0144607
0.015254
0.016069
0.0169182
0.017787
0.018671
0.0195406
0.0203955
0.0211961
0.0219354
0.0225983
0.0231675
0.0236742
0.0240648
0.0243232
0.0244353
0.0244902
0.0243414
0.0240056
0.0233291
0.0227334
0.021997
0.0213533
0.0209961
0.020368
0.0199832
0.0193565
0.0190415
0.0184758
0.0181469
0.0176712
0.0173626
0.0169792
0.0167365
0.016525
0.0164105
0.0162308
0.0161268
0.0158589
0.0156111
0.0153612
0.0151313
0.0149019
0.0146878
0.0144776
0.0142708
0.0140758
0.0138895
0.0137059
0.0135297
0.0133564
0.0131885
0.0130242
0.0128649
0.0127089
0.0125597
0.0124111
0.0122687
0.0121208
0.0120073
0.0118862
0.0117586
0.0116247
0.0115219
0.0114155
0.0113073
0.0111979
0.0110989
0.0109995
0.0109169
0.0108294
0.0107391
0.0106459
0.0105701
0.0104901
0.0104069
0.0103257
0.0102429
0.0101742
0.0101017
0.010027
0.00995081
0.00988623
0.0098192
0.00975068
0.00968121
0.00962136
0.00955907
0.00949669
0.00943374
0.00937564
0.00931718
0.00925999
0.00920304
0.00914567
0.00908873
0.00903224
0.00897717
0.00892407
0.00887085
0.00882223
0.00877455
0.00872636
0.00867806
0.00862896
0.00858189
0.00853438
0.00849151
0.00844901
0.00841047
0.00837447
0.00834091
0.00830956
0.0082774
0.00824644
0.0082139
0.00818191
0.00814903
0.00811567
0.00808316
0.00805046
0.00801879
0.00798681
0.00795708
0.00792648
0.00789825
0.00787002
0.00784372
0.00781779
0.00779309
0.00776851
0.00774493
0.00772151
0.00769772
0.00767546
0.00765312
0.00763101
0.00760921
0.00758795
0.00756669
0.00754625
0.00752567
0.00750591
0.00748607
0.00746691
0.00744782
0.00742947
0.00741159
0.00739427
0.00737797
0.00736227
0.00734796
0.00733372
0.00732088
0.00730797
0.00729532
0.00728294
0.00727091
0.00725876
0.00724684
0.00723497
0.00722341
0.00721156
0.00720022
0.00718803
0.0071771
0.0071657
0.00715613
0.0071458
0.00713745
0.00712825
0.00712072
0.00711314
0.00710597
0.00709876
0.00709326
0.007087
0.00708108
0.00707581
0.00707102
0.00706666
0.00706194
0.00705811
0.00705395
0.00705061
0.00704672
0.00704354
0.00703963
0.00703673
0.00703339
0.00703045
0.00702762
0.00702598
0.00702403
0.00702238
0.00702091
0.00701954
0.00701776
0.00701607
0.00701387
0.00701197
0.00700911
0.0070069
0.00700431
0.00700218
0.00699965
0.00699723
0.00699476
0.00699249
0.00699031
0.00698821
0.00698626
0.00698463
0.00698228
0.00698054
0.00697789
0.00697649
0.00697487
0.0069746
0.00697308
0.00697336
0.00697388
0.00697431
0.00697581
3.28714e-05
0.000287401
0.000677449
0.00144369
0.00284291
0.00478823
0.00689336
0.00890797
0.0107016
0.0122577
0.01363
0.0147614
0.0157727
0.0166879
0.0175295
0.0183448
0.0191433
0.0199489
0.0207577
0.0215719
0.0223806
0.0231757
0.0239166
0.0245955
0.0251964
0.0257107
0.0261165
0.0263835
0.0265272
0.0264854
0.0255984
0.0246851
0.023625
0.0227104
0.0217339
0.0207893
0.0201363
0.0193881
0.0184388
0.0182024
0.017441
0.0170223
0.0163379
0.0160425
0.015496
0.0151947
0.0147729
0.0144851
0.0141922
0.0139674
0.0138479
0.0137585
0.0136868
0.0136258
0.0135798
0.0135313
0.0135226
0.0135103
0.0135494
0.0135465
0.0136665
0.0136141
0.0136639
0.0137083
0.0136327
0.0135291
0.0134309
0.0133289
0.0132318
0.013132
0.0130362
0.0129403
0.0128441
0.0127475
0.0126404
0.0125728
0.0124972
0.0124135
0.0123184
0.0122502
0.0121826
0.0121099
0.0120337
0.0119613
0.0118843
0.0118282
0.0117682
0.0117042
0.0116337
0.0115801
0.0115251
0.0114665
0.0114049
0.0113387
0.0112895
0.0112376
0.0111826
0.0111226
0.011075
0.0110258
0.010974
0.0109184
0.0108728
0.0108269
0.0107791
0.0107297
0.0106838
0.0106376
0.0105923
0.0105466
0.0105008
0.0104543
0.0104078
0.0103634
0.0103206
0.0102769
0.0102372
0.0101979
0.0101579
0.0101171
0.0100754
0.0100355
0.0099947
0.00995895
0.00992291
0.00989169
0.00986269
0.00983534
0.00981019
0.00978359
0.00975821
0.00973057
0.0097036
0.00967493
0.00964552
0.00961672
0.00958775
0.00955963
0.00953104
0.00950458
0.00947759
0.00945268
0.00942763
0.00940445
0.00938148
0.00935955
0.00933754
0.00931647
0.0092953
0.00927367
0.00925322
0.00923292
0.00921262
0.00919255
0.00917299
0.00915341
0.00913472
0.00911577
0.00909783
0.0090795
0.00906216
0.00904461
0.00902776
0.00901132
0.00899516
0.00898023
0.00896552
0.00895226
0.00893904
0.00892721
0.00891547
0.00890389
0.00889226
0.00888139
0.00886999
0.00885921
0.00884814
0.00883766
0.00882654
0.00881621
0.00880474
0.0087948
0.00878402
0.00877563
0.00876611
0.00875918
0.00875122
0.00874527
0.00873934
0.00873391
0.00872813
0.00872462
0.00871999
0.00871553
0.0087118
0.00870849
0.00870592
0.00870277
0.00870092
0.00869863
0.00869757
0.00869583
0.00869519
0.00869361
0.00869338
0.00869262
0.0086922
0.00869185
0.00869301
0.0086937
0.00869457
0.00869571
0.00869696
0.00869791
0.00869893
0.00869947
0.00870044
0.00870032
0.00870108
0.00870134
0.00870226
0.00870272
0.00870336
0.00870379
0.00870441
0.00870507
0.00870582
0.00870658
0.00870783
0.00870814
0.00870947
0.00870934
0.00871097
0.00871207
0.00871534
0.00871655
0.00871992
0.00872373
0.00872706
0.00873383
6.06578e-05
0.000529102
0.0012573
0.0025705
0.00471064
0.00713347
0.00961108
0.0118733
0.0138513
0.0155888
0.0170261
0.0182398
0.0193115
0.0202586
0.021111
0.0219041
0.0226576
0.0233905
0.0241036
0.0247922
0.0254457
0.0260479
0.0265745
0.0270165
0.0273195
0.0275041
0.0271803
0.0262813
0.025189
0.0240997
0.0227536
0.0215582
0.0202781
0.0190846
0.0182851
0.0171958
0.0165437
0.0157147
0.0146711
0.014219
0.0134068
0.012895
0.012282
0.0119316
0.0114914
0.0112022
0.0109167
0.0106622
0.0104746
0.0102901
0.0102669
0.0101715
0.0102264
0.0101672
0.010271
0.0102458
0.0103808
0.0104226
0.0105766
0.0106407
0.0108028
0.0108349
0.0109892
0.0111076
0.0111735
0.0113317
0.0114257
0.01157
0.0116625
0.0117904
0.0118686
0.0119852
0.0120317
0.0120095
0.0119746
0.0119684
0.0119588
0.0119386
0.0119053
0.0118874
0.0118715
0.0118502
0.0118244
0.0117932
0.0117572
0.0117391
0.0117188
0.0116933
0.0116608
0.0116384
0.0116175
0.0115927
0.0115632
0.0115276
0.0115058
0.0114829
0.0114564
0.0114243
0.0114014
0.0113777
0.0113511
0.0113203
0.0112969
0.0112749
0.0112504
0.0112235
0.0111986
0.0111734
0.0111489
0.0111232
0.0110977
0.0110707
0.0110425
0.0110173
0.0109929
0.0109674
0.010944
0.0109209
0.0108974
0.0108724
0.0108466
0.0108217
0.0107955
0.0107739
0.0107529
0.0107355
0.01072
0.0107052
0.0106925
0.0106782
0.0106647
0.0106489
0.0106338
0.0106164
0.0105983
0.0105804
0.0105622
0.0105447
0.0105267
0.0105105
0.0104939
0.0104789
0.0104635
0.0104496
0.0104357
0.0104225
0.0104092
0.0103964
0.0103837
0.0103701
0.0103573
0.0103448
0.0103319
0.0103193
0.010307
0.0102946
0.0102832
0.0102712
0.0102605
0.0102491
0.0102386
0.0102277
0.0102173
0.0102072
0.0101971
0.0101881
0.010179
0.0101713
0.0101635
0.010157
0.0101507
0.0101445
0.0101381
0.0101326
0.0101264
0.010121
0.010115
0.0101098
0.0101035
0.0100983
0.0100915
0.0100863
0.0100798
0.0100761
0.0100709
0.0100687
0.0100654
0.0100642
0.0100632
0.0100628
0.0100616
0.0100632
0.0100633
0.0100634
0.0100642
0.0100652
0.0100672
0.0100683
0.010071
0.0100732
0.0100769
0.0100799
0.0100844
0.0100878
0.0100927
0.0100971
0.0101018
0.0101064
0.0101128
0.0101185
0.0101243
0.0101303
0.0101365
0.0101424
0.0101483
0.0101537
0.0101597
0.0101645
0.0101705
0.0101758
0.0101821
0.0101878
0.0101939
0.0101996
0.0102055
0.0102113
0.0102173
0.0102232
0.0102296
0.0102348
0.0102414
0.0102461
0.0102529
0.010259
0.0102679
0.0102742
0.010283
0.0102923
0.0103009
0.0103161
9.61421e-05
0.000846995
0.00202068
0.00395525
0.00653355
0.00928077
0.0119622
0.0143549
0.0164524
0.018266
0.0197344
0.0209968
0.0220843
0.0230216
0.0238346
0.0245539
0.0252041
0.0258024
0.0263538
0.0268514
0.0272719
0.0276229
0.027859
0.0279973
0.0269009
0.0258456
0.0245929
0.0234076
0.0219488
0.0206275
0.019111
0.0177445
0.0167394
0.0154345
0.0147431
0.0134991
0.0126235
0.0116637
0.0107568
0.0101189
0.00951857
0.00901507
0.00859849
0.00823086
0.00796581
0.00771671
0.00758785
0.00737863
0.00730477
0.00717331
0.00723187
0.0071468
0.0072476
0.00721155
0.00736821
0.00737634
0.00752693
0.0076007
0.00774938
0.00784094
0.00796607
0.0080481
0.00822984
0.00832175
0.00845126
0.00860009
0.00875248
0.00889551
0.00905298
0.00919696
0.00934269
0.00948983
0.00962444
0.00980142
0.00994657
0.00991662
0.0099885
0.0101916
0.0103614
0.0103714
0.0104327
0.0105528
0.0106779
0.0107898
0.0108175
0.0108039
0.0108383
0.0108968
0.0109143
0.0109327
0.0109533
0.0109703
0.0109815
0.0109863
0.0109974
0.0110093
0.011018
0.011022
0.0110291
0.0110366
0.0110413
0.0110427
0.0110464
0.011053
0.0110571
0.011059
0.011061
0.0110619
0.0110636
0.0110633
0.0110633
0.0110608
0.0110571
0.0110553
0.0110537
0.0110506
0.0110481
0.0110454
0.0110433
0.0110389
0.011034
0.0110286
0.0110224
0.0110193
0.0110169
0.0110165
0.0110177
0.011019
0.0110221
0.0110238
0.0110259
0.0110259
0.0110264
0.0110244
0.0110218
0.0110192
0.0110161
0.0110137
0.0110106
0.0110088
0.0110068
0.0110057
0.0110041
0.0110033
0.0110025
0.0110018
0.0110011
0.0110005
0.0110002
0.0109987
0.0109974
0.0109966
0.0109953
0.0109937
0.0109929
0.0109914
0.0109912
0.0109902
0.0109904
0.0109899
0.01099
0.0109898
0.0109895
0.0109895
0.0109889
0.0109895
0.0109894
0.0109905
0.0109917
0.0109937
0.0109962
0.0109987
0.0110009
0.0110042
0.0110067
0.0110103
0.011013
0.0110167
0.0110189
0.0110222
0.0110236
0.0110265
0.0110277
0.0110316
0.0110339
0.0110392
0.0110435
0.01105
0.0110566
0.0110642
0.0110705
0.0110798
0.0110876
0.0110951
0.0111032
0.0111111
0.0111201
0.011128
0.0111377
0.0111467
0.0111576
0.0111678
0.0111797
0.0111905
0.0112031
0.0112151
0.0112271
0.011239
0.011253
0.011266
0.0112789
0.0112919
0.0113051
0.011318
0.0113309
0.0113433
0.0113563
0.0113681
0.0113812
0.0113937
0.0114073
0.0114204
0.0114339
0.0114471
0.0114605
0.0114737
0.0114871
0.0115003
0.0115139
0.0115262
0.01154
0.0115516
0.0115656
0.0115788
0.0115951
0.0116088
0.0116252
0.0116422
0.0116582
0.0116847
0.000135953
0.00122089
0.00289909
0.00531297
0.00818065
0.0111246
0.013907
0.0163672
0.0185414
0.0203693
0.0218697
0.0231533
0.0242308
0.0251284
0.0258647
0.0264694
0.0269693
0.0273814
0.0277118
0.0279518
0.0280892
0.0281267
0.0265581
0.0254607
0.0240765
0.022842
0.0213675
0.0200534
0.018339
0.0168942
0.0157247
0.0144019
0.0137341
0.0122153
0.0113349
0.0100835
0.00922206
0.00836892
0.0078239
0.0070869
0.00672464
0.00624933
0.00606592
0.00570311
0.00562341
0.0053918
0.00538988
0.00519506
0.00520225
0.00514463
0.00520456
0.00518086
0.00527236
0.00528807
0.00541529
0.00544792
0.00557735
0.00564104
0.00572098
0.0057937
0.00588178
0.00598001
0.006088
0.0061979
0.00631084
0.00643146
0.00654776
0.00665859
0.00677222
0.00688421
0.00700041
0.00712338
0.0072367
0.00739945
0.007532
0.00758444
0.00766194
0.00779733
0.00798593
0.00808856
0.00818056
0.00829948
0.00844083
0.0085859
0.00869953
0.00874285
0.00881485
0.00893576
0.00906799
0.00913051
0.00920114
0.00930402
0.00943153
0.00955686
0.00959592
0.00964708
0.00974442
0.00986564
0.00992287
0.00998177
0.0100729
0.0101789
0.010219
0.0102666
0.0103203
0.0103566
0.010391
0.0104223
0.0104543
0.0104832
0.0105124
0.0105381
0.010563
0.0105878
0.0106122
0.0106344
0.0106569
0.0106782
0.0107002
0.0107193
0.0107381
0.0107559
0.0107724
0.0107905
0.0108085
0.0108271
0.0108469
0.0108661
0.0108868
0.0109065
0.0109262
0.0109442
0.0109623
0.0109781
0.0109934
0.0110083
0.0110224
0.0110373
0.0110514
0.0110661
0.0110807
0.0110956
0.0111101
0.0111246
0.0111389
0.011153
0.0111671
0.0111807
0.0111952
0.0112081
0.0112209
0.0112338
0.0112466
0.0112584
0.0112711
0.011283
0.0112962
0.0113087
0.0113222
0.011335
0.0113483
0.0113611
0.0113735
0.0113859
0.0113973
0.0114096
0.0114207
0.011433
0.0114451
0.0114578
0.0114712
0.0114846
0.0114977
0.0115121
0.0115258
0.0115406
0.0115548
0.0115698
0.0115832
0.0115976
0.0116099
0.0116233
0.0116347
0.0116484
0.0116607
0.0116756
0.0116898
0.0117061
0.0117226
0.0117402
0.0117563
0.0117755
0.011793
0.0118102
0.0118278
0.0118447
0.0118627
0.0118795
0.011898
0.0119159
0.0119358
0.011955
0.0119763
0.0119966
0.0120188
0.0120402
0.0120617
0.0120829
0.0121061
0.0121282
0.0121501
0.0121719
0.012194
0.0122155
0.0122373
0.0122584
0.0122801
0.0123006
0.0123225
0.0123438
0.0123664
0.0123886
0.0124114
0.0124337
0.0124564
0.0124788
0.0125014
0.0125237
0.0125464
0.0125677
0.0125904
0.0126107
0.0126335
0.0126555
0.0126808
0.0127036
0.0127293
0.0127557
0.0127811
0.0128213
0.000176812
0.00162824
0.00377571
0.00651309
0.00957677
0.0126405
0.0154614
0.0179502
0.0201644
0.0219969
0.0235261
0.0248167
0.0258688
0.0267029
0.0273304
0.0277813
0.0280844
0.0282574
0.0283033
0.0282389
0.0267973
0.0253223
0.0236152
0.0224323
0.0210058
0.0196628
0.0179892
0.016596
0.0151307
0.0138835
0.0132503
0.0118082
0.0109393
0.00957509
0.00855807
0.00751999
0.00671356
0.00592665
0.00558375
0.00496185
0.00481607
0.00450994
0.00452604
0.0043287
0.00444609
0.0043017
0.00428752
0.00416559
0.00403422
0.00394063
0.00384088
0.00377346
0.00369978
0.00365993
0.00361721
0.00360837
0.00359965
0.00361419
0.00364226
0.00367412
0.00372026
0.00377367
0.00383931
0.00391375
0.00400111
0.00409681
0.00420264
0.00431539
0.00443634
0.00456415
0.00469731
0.0048372
0.0049813
0.00513253
0.00528243
0.00542707
0.0055782
0.00573563
0.00590193
0.00606069
0.0062141
0.00629809
0.00641026
0.00653394
0.00666172
0.00672529
0.00679089
0.00688529
0.00701816
0.00711075
0.00719954
0.00729856
0.00742613
0.00757014
0.00766411
0.00774096
0.0078438
0.00798028
0.00808152
0.00816616
0.00827132
0.00839539
0.00848501
0.00855867
0.00865028
0.00875624
0.00884785
0.00893367
0.00901437
0.00910992
0.00921673
0.00932422
0.00943501
0.00951936
0.00960618
0.0096849
0.00971579
0.00977108
0.00984395
0.00993921
0.0100354
0.0100808
0.0101236
0.0101653
0.010205
0.0102448
0.0102849
0.0103241
0.010364
0.0104031
0.0104416
0.0104789
0.0105157
0.0105507
0.0105853
0.0106187
0.0106517
0.0106848
0.0107174
0.0107498
0.0107823
0.0108145
0.0108462
0.0108773
0.0109081
0.0109384
0.0109684
0.0109977
0.0110278
0.0110563
0.0110846
0.0111126
0.0111405
0.0111672
0.0111947
0.0112214
0.0112492
0.0112764
0.0113045
0.011332
0.0113598
0.011387
0.0114136
0.0114396
0.0114645
0.0114896
0.0115134
0.0115379
0.0115621
0.0115866
0.0116121
0.0116375
0.0116629
0.0116894
0.0117157
0.0117432
0.0117703
0.0117982
0.0118247
0.0118516
0.0118766
0.0119022
0.0119255
0.0119505
0.0119742
0.0120002
0.0120257
0.0120532
0.0120809
0.01211
0.0121376
0.0121679
0.0121968
0.0122252
0.0122538
0.0122813
0.0123096
0.0123367
0.0123653
0.0123934
0.0124235
0.0124533
0.0124852
0.0125163
0.0125495
0.0125819
0.0126142
0.0126464
0.0126801
0.0127125
0.0127449
0.0127767
0.012809
0.0128407
0.0128725
0.0129037
0.0129353
0.0129658
0.0129978
0.0130293
0.0130621
0.0130947
0.013128
0.0131609
0.0131943
0.0132273
0.0132605
0.0132933
0.0133265
0.0133583
0.013391
0.0134216
0.0134543
0.0134866
0.013522
0.0135553
0.0135918
0.0136286
0.0136648
0.0137207
0.000216577
0.0020132
0.00457339
0.00752999
0.010719
0.0138257
0.016642
0.0191442
0.0214024
0.0232572
0.0248101
0.0260952
0.0271039
0.0278446
0.0283226
0.028568
0.0286147
0.0284873
0.0271748
0.0253858
0.0237948
0.0221951
0.0205725
0.019398
0.0179367
0.0166154
0.0150612
0.0138171
0.0131239
0.0118637
0.0111723
0.00977756
0.00862589
0.0074396
0.006381
0.00544023
0.00470757
0.0040343
0.00371199
0.00338165
0.00331473
0.00330002
0.00346568
0.00342472
0.00329825
0.0031996
0.00309421
0.00300581
0.00291076
0.00283146
0.00274286
0.0026781
0.00260755
0.00256606
0.00252248
0.0025015
0.00247932
0.0024741
0.00246792
0.00247533
0.00248269
0.00249975
0.00252376
0.00255457
0.0025868
0.00262867
0.00267429
0.0027271
0.00278568
0.00285127
0.00292445
0.00300368
0.00308998
0.00318186
0.00327871
0.00338044
0.00348853
0.00360383
0.0037257
0.00385387
0.0039856
0.00412217
0.00426421
0.00440618
0.00455538
0.00469709
0.00483985
0.00498479
0.00513733
0.00528177
0.00542976
0.00557931
0.00573493
0.00588793
0.00600054
0.00606538
0.00614828
0.00625987
0.00636795
0.00644632
0.00653967
0.00664924
0.0067491
0.00682577
0.00691757
0.00702176
0.00712353
0.00723047
0.00732282
0.0074287
0.00754878
0.00766506
0.00779368
0.00790164
0.00799995
0.0080822
0.00814021
0.00821988
0.00830956
0.00840939
0.00852269
0.0086376
0.00874683
0.00882906
0.00891173
0.00895571
0.00899513
0.0090404
0.00908804
0.00914612
0.00921189
0.0092846
0.00936188
0.00945213
0.00954119
0.00962971
0.00970863
0.00978809
0.0098635
0.00993552
0.0100025
0.0100679
0.0101328
0.010193
0.0102441
0.0103048
0.0103635
0.0104178
0.0104754
0.0105399
0.0106036
0.0106552
0.0107144
0.0107713
0.0108144
0.0108566
0.0108995
0.0109421
0.0109854
0.0110283
0.0110714
0.0111136
0.0111553
0.0111956
0.011235
0.0112735
0.0113108
0.0113481
0.0113849
0.0114219
0.0114598
0.0114977
0.011536
0.0115752
0.0116147
0.0116554
0.0116963
0.0117378
0.0117783
0.0118188
0.0118575
0.0118961
0.0119325
0.0119695
0.0120055
0.0120434
0.0120811
0.0121205
0.0121604
0.0122015
0.0122414
0.0122837
0.0123248
0.0123654
0.0124059
0.012445
0.0124843
0.0125225
0.0125619
0.012601
0.012642
0.012683
0.0127262
0.0127691
0.0128141
0.0128584
0.0129026
0.0129466
0.0129917
0.0130354
0.0130791
0.013122
0.0131653
0.0132079
0.0132507
0.0132929
0.0133353
0.0133767
0.0134197
0.0134622
0.0135061
0.0135499
0.0135947
0.0136392
0.0136842
0.0137288
0.0137738
0.013818
0.0138626
0.013906
0.0139497
0.0139916
0.0140351
0.0140785
0.0141248
0.0141696
0.0142176
0.0142654
0.0143132
0.0143869
0.00025242
0.00236221
0.00524187
0.00835186
0.0115898
0.0146974
0.0175559
0.020087
0.0223508
0.0242172
0.0257745
0.0270375
0.0279792
0.0285895
0.0288659
0.0288405
0.0278347
0.0262241
0.0242142
0.0221317
0.0207802
0.0192443
0.0176917
0.0167155
0.0153845
0.0142389
0.0132547
0.0122432
0.0118207
0.0104932
0.00939197
0.00816036
0.00683722
0.0057301
0.00460001
0.00382339
0.00316201
0.00268855
0.00239296
0.00218855
0.00216843
0.00216994
0.00238136
0.00254323
0.00252695
0.00245998
0.00239357
0.00233161
0.0022665
0.00220418
0.0021337
0.00209183
0.00204947
0.0020273
0.00200384
0.00198967
0.0019744
0.00196757
0.00196037
0.00195981
0.00195841
0.00196188
0.00196534
0.00197113
0.00198033
0.00198962
0.00200333
0.00201737
0.00203456
0.00205705
0.00207901
0.00210593
0.0021346
0.00216747
0.00220344
0.00224255
0.00228557
0.00233426
0.00238914
0.00244886
0.00251385
0.00258425
0.00266121
0.00274342
0.00283073
0.00292257
0.00301919
0.00312138
0.003229
0.00334275
0.00345947
0.00358295
0.00371102
0.00384426
0.00398155
0.00411801
0.00425824
0.00439954
0.00454817
0.00468939
0.00483622
0.00497931
0.00512452
0.00526572
0.00541197
0.00555573
0.00569936
0.00579619
0.00587855
0.00597247
0.00607913
0.0061812
0.00629133
0.0063935
0.00647584
0.00654691
0.00661473
0.00669972
0.00679161
0.00689394
0.00700664
0.00712287
0.00724324
0.00734607
0.00743133
0.00748542
0.00754589
0.00760249
0.00766215
0.00772788
0.00779552
0.00787832
0.0079557
0.00805149
0.00814848
0.00824397
0.00833777
0.00843278
0.00852521
0.00861509
0.00870161
0.00878618
0.00886811
0.00894729
0.00901675
0.00909584
0.00916949
0.00924137
0.00931452
0.00939256
0.00947493
0.00954553
0.00962256
0.00970106
0.0097806
0.00985985
0.00993988
0.0100175
0.0100958
0.0101735
0.0102485
0.0103216
0.0103927
0.01046
0.0105236
0.0105842
0.0106427
0.0106987
0.0107544
0.0108069
0.0108614
0.0109267
0.0109936
0.0110581
0.0111245
0.0111922
0.011262
0.0113309
0.0114003
0.0114681
0.0115347
0.0115984
0.0116598
0.011718
0.0117755
0.0118315
0.0118881
0.0119397
0.0119919
0.0120452
0.0120976
0.0121523
0.012206
0.0122592
0.0123119
0.0123632
0.0124138
0.0124636
0.012514
0.0125645
0.0126166
0.0126691
0.0127237
0.0127787
0.0128359
0.0128926
0.0129492
0.0130056
0.0130624
0.0131181
0.0131734
0.013228
0.0132828
0.013337
0.0133912
0.0134448
0.0134985
0.0135515
0.0136059
0.01366
0.0137156
0.0137711
0.0138279
0.0138845
0.0139418
0.0139986
0.0140558
0.0141124
0.0141688
0.0142243
0.0142796
0.0143336
0.0143885
0.0144436
0.0145012
0.0145583
0.0146174
0.0146771
0.0147372
0.0148298
0.000284148
0.00264564
0.00576742
0.00896225
0.012228
0.0153774
0.0182323
0.0207564
0.0230027
0.0248758
0.0264259
0.0276496
0.0284968
0.0289312
0.0289402
0.0270863
0.0250144
0.0230361
0.0211472
0.0191578
0.0179408
0.0167037
0.0155169
0.0149272
0.0138102
0.0129317
0.012582
0.0114971
0.0107359
0.00949734
0.00815051
0.0067341
0.00540834
0.00442803
0.00345748
0.00288751
0.00234896
0.00199151
0.00169997
0.00146064
0.00133327
0.00126025
0.0012553
0.00128853
0.00143828
0.00163962
0.00183972
0.00181252
0.0017782
0.00176425
0.00175345
0.00175895
0.00176228
0.00176203
0.00175907
0.00175692
0.00175456
0.00175381
0.00175222
0.00175275
0.00175226
0.00175349
0.0017547
0.00175664
0.00175918
0.00176164
0.00176508
0.00176835
0.00177258
0.00177685
0.0017825
0.00178833
0.00179532
0.00180338
0.00181161
0.0018221
0.00183156
0.00184539
0.00186062
0.00187839
0.00189687
0.00191843
0.0019423
0.00196852
0.00199735
0.00202949
0.00206498
0.00210445
0.00214874
0.00219732
0.00225058
0.00230866
0.00237271
0.00244201
0.00251675
0.00259651
0.00268192
0.00277331
0.00286972
0.0029728
0.00307998
0.00319293
0.00330961
0.00343133
0.00355765
0.00368866
0.00382551
0.00396462
0.00410971
0.00425217
0.00440248
0.00454874
0.00469675
0.00484004
0.00497944
0.00511902
0.00525352
0.00539134
0.0055269
0.00566615
0.00577663
0.00588551
0.00599161
0.00609238
0.00617229
0.00621154