/*--------------------------------*- C++ -*----------------------------------*\
| =========                 |                                                 |
| \\      /  F ield         | OpenFOAM: The Open Source CFD Toolbox           |
|  \\    /   O peration     | Version:  2312                                  |
|   \\  /    A nd           | Website:  www.openfoam.com                      |
|    \\/     M anipulation  |                                                 |
\*---------------------------------------------------------------------------*/
FoamFile
{
    version     2.0;
    format      ascii;
    arch        "LSB;label=32;scalar=64";
    class       volScalarField;
    location    "0.001";
    object      omega;
}
// * * * * * * * * * * * * * * * * * * * * * * * * * * * * * * * * * * * * * //

dimensions      [0 0 -1 0 0 0 0];

internalField   nonuniform List<scalar> 
48128
(
2.19032e+06
2.19533e+06
2.19622e+06
2.21849e+06
2.25346e+06
2.31681e+06
2.40038e+06
2.48955e+06
2.57418e+06
2.64245e+06
2.69245e+06
2.72947e+06
2.75182e+06
2.76136e+06
2.76249e+06
2.75582e+06
2.74166e+06
2.72089e+06
2.69412e+06
2.66e+06
2.61904e+06
2.57662e+06
2.53114e+06
2.48365e+06
2.43567e+06
2.38916e+06
2.34535e+06
2.30412e+06
2.26994e+06
2.24079e+06
2.22075e+06
2.20833e+06
2.19837e+06
2.18861e+06
2.17759e+06
2.16221e+06
2.14793e+06
2.12593e+06
2.09631e+06
2.07119e+06
2.0635e+06
2.06653e+06
2.06673e+06
2.0631e+06
2.05359e+06
2.04107e+06
2.02718e+06
2.01137e+06
1.99545e+06
1.977e+06
1.95728e+06
1.93505e+06
1.91232e+06
1.88866e+06
1.86775e+06
1.84601e+06
1.82599e+06
1.80501e+06
1.78506e+06
1.76394e+06
1.74403e+06
1.72571e+06
1.70673e+06
1.68953e+06
1.67209e+06
1.65623e+06
1.64008e+06
1.62542e+06
1.6106e+06
1.59696e+06
1.58384e+06
1.57119e+06
1.55992e+06
1.54832e+06
1.54009e+06
1.53006e+06
1.51968e+06
1.50883e+06
1.50159e+06
1.49317e+06
1.48464e+06
1.47599e+06
1.4694e+06
1.46261e+06
1.45753e+06
1.45184e+06
1.44612e+06
1.44012e+06
1.43633e+06
1.43167e+06
1.42682e+06
1.42229e+06
1.41775e+06
1.41508e+06
1.41172e+06
1.40821e+06
1.40442e+06
1.40229e+06
1.39955e+06
1.39668e+06
1.39359e+06
1.39185e+06
1.3896e+06
1.38725e+06
1.38488e+06
1.38292e+06
1.38114e+06
1.37935e+06
1.37785e+06
1.37634e+06
1.37511e+06
1.37388e+06
1.37296e+06
1.372e+06
1.371e+06
1.37005e+06
1.36918e+06
1.36825e+06
1.36743e+06
1.36662e+06
1.36623e+06
1.36575e+06
1.36575e+06
1.3655e+06
1.36521e+06
1.36461e+06
1.36382e+06
1.36278e+06
1.36155e+06
1.3602e+06
1.35886e+06
1.35753e+06
1.35646e+06
1.35543e+06
1.35465e+06
1.35402e+06
1.35359e+06
1.35317e+06
1.35289e+06
1.35253e+06
1.35212e+06
1.35164e+06
1.35109e+06
1.35047e+06
1.34978e+06
1.34906e+06
1.34832e+06
1.34763e+06
1.34691e+06
1.3463e+06
1.34575e+06
1.34526e+06
1.3448e+06
1.34442e+06
1.34405e+06
1.34379e+06
1.34353e+06
1.34327e+06
1.343e+06
1.34271e+06
1.34237e+06
1.34197e+06
1.34151e+06
1.34099e+06
1.3404e+06
1.33976e+06
1.33907e+06
1.33835e+06
1.33761e+06
1.3369e+06
1.33616e+06
1.33547e+06
1.33487e+06
1.33437e+06
1.33392e+06
1.33354e+06
1.33322e+06
1.33294e+06
1.33266e+06
1.33236e+06
1.33205e+06
1.33171e+06
1.33133e+06
1.3309e+06
1.33043e+06
1.3299e+06
1.32932e+06
1.32868e+06
1.32794e+06
1.32723e+06
1.32653e+06
1.32585e+06
1.3251e+06
1.32451e+06
1.32399e+06
1.3235e+06
1.32302e+06
1.32259e+06
1.32216e+06
1.32173e+06
1.32129e+06
1.32083e+06
1.32035e+06
1.31984e+06
1.31929e+06
1.31865e+06
1.31807e+06
1.31754e+06
1.317e+06
1.31638e+06
1.31602e+06
1.31572e+06
1.3155e+06
1.31527e+06
1.31512e+06
1.315e+06
1.31489e+06
1.31477e+06
1.31464e+06
1.31449e+06
1.31434e+06
1.31416e+06
1.31402e+06
1.31384e+06
1.31378e+06
1.31371e+06
1.31376e+06
1.31383e+06
1.31393e+06
1.31403e+06
1.31411e+06
1.31414e+06
1.31411e+06
1.31402e+06
1.31385e+06
1.31361e+06
1.31331e+06
1.31299e+06
1.31251e+06
1.31237e+06
783974
589060
828397
986070
1.07941e+06
1.09659e+06
1.03101e+06
970471
913886
869557
837906
816355
801463
791959
785413
780575
776518
772986
770031
766964
760319
755430
751053
746723
743613
740585
738578
744484
756020
767728
780805
795113
808803
822414
834238
844789
853011
859810
864763
868865
875058
880509
883485
883240
881402
877756
872663
866493
859507
851913
843483
834104
823683
812643
801239
789807
778049
766948
755528
744812
733892
722696
712524
702117
692236
682219
673087
663890
655399
647086
639214
631628
624332
616891
610250
605657
600456
594705
588877
585106
581001
576599
572060
567651
563882
561035
557964
554648
551239
549118
546788
544236
541424
538783
537201
535413
533423
531223
529948
528546
526966
525263
524321
523294
522173
520969
519933
518990
518009
517148
516287
515386
514895
514393
514022
513638
513297
512931
512444
511978
511487
511151
510919
510966
511233
511433
511682
511850
512030
512147
512165
512129
512024
511886
511681
511584
511482
511497
511512
511644
511829
511992
512196
512360
512536
512686
512818
512959
513104
513163
513236
513320
513397
513465
513546
513640
513754
513923
514093
514294
514495
514703
514940
515181
515417
515667
515882
516087
516255
516392
516585
516568
516590
516599
516597
516583
516560
516524
516504
516493
516509
516527
516555
516581
516617
516644
516690
516726
516774
516703
516631
516543
516450
516247
516018
515859
515688
515527
515362
515237
515098
514989
514873
514779
514689
514588
514383
514179
513983
513755
513400
513097
512823
512591
512347
512158
511992
511881
511769
511670
511572
511491
511393
511305
511184
511051
510915
510804
510736
510722
510735
510780
510847
510938
511035
511156
511230
511329
511246
511216
782486
402223
553970
633823
654263
610181
551664
505116
470908
449003
436681
430816
428801
429027
432205
435626
440081
444872
450118
455380
461222
467938
475554
484241
494153
505768
520136
537482
556867
577308
599215
621823
644298
666245
686568
703858
718341
729733
739454
745055
748890
749968
749511
747215
743406
737904
731281
723661
715420
706412
696631
686024
674818
663097
651096
638993
626685
614856
602849
591385
579941
568297
557466
546591
536128
525771
515939
506342
497153
488355
479824
471762
463840
456207
448420
442657
436686
430477
423893
419028
414112
409127
404014
399325
394642
390894
387077
383178
379041
375932
372799
369604
366350
362956
360431
357866
355224
352378
350204
348007
345755
343340
341509
339677
337846
335974
334242
332617
330980
329438
327921
326404
325061
323760
322577
321372
320263
319198
318082
317041
315972
315023
314060
313257
312528
311948
311409
310871
310392
309912
309441
308967
308475
307972
307423
306923
306408
305950
305464
305061
304698
304331
304006
303687
303391
303093
302806
302532
302264
301975
301691
301429
301163
300892
300639
300380
300148
299928
299729
299539
299381
299234
299103
298997
298894
298818
298737
298665
298592
298509
298460
298361
298258
298144
298020
297883
297738
297583
297432
297277
297146
297012
296893
296769
296666
296558
296479
296396
296335
296235
296126
295996
295882
295708
295509
295324
295135
294952
294765
294604
294437
294291
294143
294013
293886
293767
293600
293419
293227
293030
292764
292497
292224
291975
291714
291477
291251
291065
290878
290710
290537
290388
290228
290078
289907
289725
289529
289341
289166
289036
288921
288841
288774
288750
288744
288758
288775
288823
288813
288823
780724
366285
447088
476334
462887
419060
381340
352487
335029
326357
323276
323074
326204
330384
335807
341648
348177
355175
362781
371058
380376
391063
403264
417077
433197
451514
472511
495655
520976
547669
576230
605372
634090
662126
687206
709714
727505
740140
752209
755931
756961
754887
751545
745746
738835
730317
720953
710614
699553
687915
675558
662534
649092
635380
621507
607916
594158
581006
567694
555115
542557
529841
518019
506227
494933
483812
473258
462994
453163
443761
434630
426000
417481
409316
400907
394359
387728
380950
373840
368170
362656
357149
351556
346391
341148
336788
332462
328086
323513
319751
316090
312397
308697
304857
301720
298646
295529
292255
289506
286831
284125
281281
278905
276577
274289
271974
269793
267713
265647
263669
261717
259804
257983
256234
254587
252925
251361
249869
248349
246911
245450
244106
242734
241530
240301
239259
238243
237273
236368
235496
234653
233834
233017
232217
231388
230611
229826
229089
228332
227640
226957
226301
225666
225061
224482
223915
223369
222837
222327
221802
221293
220812
220334
219856
219404
218945
218519
218090
217691
217290
216915
216564
216220
215902
215590
215304
215023
214761
214510
214258
214042
213806
213579
213349
213117
212880
212640
212395
212151
211902
211669
211432
211210
210983
210778
210570
210390
210208
210050
209874
209697
209508
209338
209132
208910
208694
208473
208256
208035
207835
207630
207443
207254
207080
206907
206742
206550
206351
206142
205931
205680
205423
205157
204898
204629
204370
204114
203886
203656
203442
203224
203025
202821
202626
202420
202208
201986
201764
201540
201349
201165
201013
200866
200764
200665
200607
200546
200524
200485
200453
782166
349948
382710
389282
362040
329159
302321
285562
277291
274443
274491
278037
282749
288479
294962
302075
309790
318290
327743
338415
350673
364845
381090
399518
420607
444183
470829
500041
532338
566482
602994
640343
675358
709694
734718
757735
772358
780116
788228
786576
783622
777426
769878
759624
748172
735509
722078
708166
693339
679084
664176
649543
634446
619958
605104
591145
576837
563472
549743
537185
524457
511653
499850
487889
476776
465506
455165
444768
435064
425500
416336
407554
398897
390591
381985
375127
368363
361461
354244
348195
342487
336777
331005
325587
320058
315364
310792
306177
301380
297248
293286
289319
285338
281221
277715
274343
270943
267402
264305
261336
258347
255232
252524
249889
247309
244708
242220
239832
237470
235199
232946
230769
228615
226584
224635
222700
220841
219072
217284
215577
213850
212236
210586
209110
207605
206280
204976
203729
202545
201394
200279
199192
198121
197079
196015
195010
194000
193045
192073
191172
190264
189406
188554
187746
186960
186196
185455
184729
184033
183329
182645
181990
181344
180702
180093
179479
178901
178318
177769
177218
176691
176191
175692
175219
174753
174312
173880
173470
173074
172683
172329
171964
171617
171274
170936
170597
170263
169926
169596
169261
168941
168616
168307
167994
167705
167412
167146
166881
166638
166386
166139
165884
165650
165392
165125
164865
164601
164342
164079
163836
163589
163359
163127
162908
162690
162480
162252
162019
161781
161543
161279
161011
160736
160462
160181
159904
159625
159367
159107
158859
158608
158372
158132
157901
157663
157423
157176
156928
156673
156442
156213
156013
155812
155652
155491
155370
155247
155162
155072
154968
786041
333866
338494
331007
302857
277476
259073
249216
245285
244707
247576
252389
258130
264852
272310
280516
289480
299566
311032
324162
339337
357121
377418
400199
426593
456011
489393
525770
565771
607877
648720
689971
721343
753353
769480
786635
793081
792899
791151
782905
770108
754727
737772
720153
701487
683753
664831
647859
629822
615311
599870
587096
573442
561712
549180
538208
526609
516271
505433
495795
485980
476240
467014
457596
448810
439817
431427
422883
414656
406363
398321
390446
382654
375030
367126
360555
354372
347998
341358
335437
330012
324541
319001
313673
308247
303493
298998
294440
289751
285499
281530
277547
273530
269400
265775
262333
258854
255265
252013
248921
245805
242596
239706
236932
234180
231434
228760
226195
223660
221214
218786
216448
214081
211893
209744
207664
205611
203667
201714
199835
197938
196141
194306
192646
190985
189462
187978
186548
185183
183846
182543
181264
180006
178776
177530
176347
175157
174030
172891
171821
170753
169738
168730
167766
166823
165910
165016
164145
163300
162459
161633
160842
160060
159288
158549
157808
157105
156402
155728
155064
154417
153797
153179
152585
152001
151441
150891
150365
149853
149349
148882
148408
147954
147508
147073
146640
146219
145796
145385
144969
144570
144167
143782
143395
143031
142667
142326
141990
141675
141353
141042
140726
140430
140119
139800
139493
139183
138879
138573
138286
137996
137723
137449
137187
136928
136675
136410
136143
135871
135603
135316
135028
134735
134443
134145
133849
133550
133266
132980
132706
132428
132163
131893
131632
131366
131100
130829
130557
130279
130017
129755
129519
129280
129075
128869
128699
128525
128388
128250
128076
793001
318012
305069
289947
264698
244709
231747
225553
223681
224787
229000
234513
241075
248602
256979
266268
276563
288304
301893
317597
335877
357342
382260
409871
442126
477851
518087
560526
604073
648874
683985
720315
739717
761037
762177
759384
749446
734845
714827
694238
670563
649239
625962
606370
585149
567472
548265
532958
516722
505212
492938
484207
474837
467758
460060
453772
447020
441319
435227
429813
424292
418671
412924
407018
401121
395080
389135
383214
377543
371890
366320
360796
355287
349687
343896
338619
333959
329150
324092
319121
314573
310020
305379
300696
295958
291587
287582
283507
279346
275353
271691
268020
264296
260490
256963
253675
250353
246961
243747
240702
237649
234537
231617
228836
226084
223341
220645
218048
215482
213002
210530
208149
205737
203488
201267
199122
197000
194964
192941
190980
189001
187109
185197
183418
181687
180041
178456
176918
175441
173991
172573
171175
169791
168436
167065
165756
164442
163190
161938
160741
159564
158431
157314
156235
155177
154152
153143
152165
151208
150263
149330
148432
147544
146670
145824
144988
144179
143383
142607
141852
141109
140392
139681
138994
138318
137666
137024
136404
135802
135207
134648
134085
133541
133007
132487
131972
131473
130973
130489
130000
129532
129059
128608
128155
127726
127300
126895
126496
126119
125738
125369
124997
124646
124285
123918
123564
123209
122863
122514
122184
121853
121539
121225
120923
120625
120333
120033
119731
119427
119129
118818
118507
118192
117879
117561
117245
116926
116618
116310
116011
115710
115420
115126
114839
114548
114258
113964
113671
113372
113086
112797
112531
112262
112022
111781
111571
111359
111176
110998
110761
802011
302780
280249
260778
238134
221974
212293
208083
207174
209420
214144
220142
227311
235482
244701
255061
266705
280165
296036
314615
336283
361788
391976
424789
462492
503283
546682
590730
629609
669191
691118
713350
710766
704925
690626
670726
645426
618097
584439
558167
528971
506763
482428
464379
444859
430449
415030
403864
392218
384223
375903
370288
364401
360500
356326
353592
350601
348763
346660
345244
343711
342487
341169
339751
338269
336499
334509
332298
329997
327497
324833
321963
318910
315610
312061
308409
305125
301821
298358
294824
291464
288200
284855
281410
277885
274431
271291
268151
264939
261748
258748
255761
252706
249562
246459
243560
240683
237748
234844
232071
229331
226543
223830
221227
218694
216144
213621
211163
208734
206372
204002
201712
199405
197189
195035
192911
190833
188817
186824
184876
182914
181013
179127
177325
175579
173904
172289
170715
169195
167704
166237
164791
163353
161943
160520
159140
157771
156449
155142
153873
152632
151427
150242
149092
147962
146865
145781
144729
143696
142682
141675
140702
139740
138794
137868
136962
136073
135207
134356
133529
132714
131926
131146
130389
129644
128922
128211
127521
126849
126185
125553
124921
124305
123700
123110
122528
121962
121397
120850
120301
119772
119241
118732
118225
117739
117259
116800
116347
115917
115484
115065
114644
114245
113839
113429
113033
112638
112252
111864
111495
111126
110773
110423
110084
109749
109423
109090
108757
108423
108097
107760
107426
107088
106754
106416
106080
105741
105411
105081
104761
104438
104125
103809
103499
103186
102875
102560
102247
101929
101620
101310
101019
100725
100456
100186
99943.5
99698.8
99478.4
99265.6
98971.9
812830
289154
260839
239069
218755
204900
197168
193977
193517
196273
201127
207379
214926
223602
233587
245029
258112
273468
292018
313905
339505
369415
404475
441776
482545
525727
566713
606321
635132
661810
661289
656629
641543
618668
589595
553515
516639
483359
448891
424720
399264
381915
363542
350863
337481
328259
318740
311635
304322
298670
292907
288346
283569
279892
276065
273403
270598
268834
266903
265854
264701
264415
264125
264199
264570
265031
265687
266295
267027
267586
268233
268580
268858
268737
268322
267627
266800
265824
264642
263220
261667
260027
258261
256326
254199
251969
249807
247655
245420
243128
240891
238702
236461
234127
231745
229451
227227
224954
222650
220408
218220
216002
213769
211592
209476
207337
205184
203051
200926
198845
196749
194694
192631
190599
188639
186680
184762
182896
181050
179242
177420
175632
173842
172120
170441
168814
167246
165710
164225
162768
161331
159912
158500
157107
155707
154327
152967
151638
150327
149045
147788
146560
145353
144174
143014
141886
140769
139683
138613
137566
136520
135507
134504
133517
132546
131596
130661
129750
128853
127981
127120
126286
125461
124658
123867
123099
122343
121605
120886
120175
119491
118810
118142
117486
116843
116210
115592
114977
114380
113783
113205
112628
112072
111520
110989
110464
109960
109463
108988
108512
108049
107589
107149
106705
106259
105828
105399
104979
104558
104154
103752
103365
102982
102610
102243
101886
101524
101162
100801
100450
100090
99733.3
99374.1
99020.2
98662
98307
97948.7
97598.5
97248.1
96907.6
96564.4
96230.6
95893.7
95563.1
95229
94898.2
94563.8
94232.2
93896.8
93569.1
93239.3
92925.9
92611.5
92317.2
92023.3
91752.4
91481
91227.8
90983.5
90641.3
825011
277077
244267
221988
203559
191342
184628
181886
181573
184359
189089
195361
203092
212193
222927
235583
250443
268105
289840
315602
345220
379187
417654
458233
500338
542824
575184
607954
618572
618112
606969
586434
557310
518226
476487
432575
398696
367060
343769
326145
311224
302789
293541
287828
281540
277201
272689
268205
263428
258677
253687
248901
243885
239408
234800
230837
226803
223460
220003
217185
214300
211982
209970
208055
206932
205789
205316
204995
205152
205491
206124
206944
207989
209125
210321
211451
212641
213875
215226
216308
217349
218195
218951
219542
219740
219633
219405
219052
218528
217787
216916
215958
214917
213734
212421
211056
209676
208236
206722
205176
203620
202025
200397
198757
197164
195542
193898
192234
190560
188919
187264
185622
183968
182306
180685
179053
177425
175829
174250
172699
171133
169560
167966
166406
164875
163367
161922
160492
159125
157769
156447
155125
153822
152526
151221
149925
148641
147373
146120
144884
143668
142473
141297
140142
139004
137896
136795
135725
134665
133632
132593
131582
130581
129593
128616
127659
126712
125789
124877
123989
123110
122257
121412
120590
119777
118988
118210
117450
116706
115971
115260
114552
113854
113167
112491
111823
111170
110521
109887
109257
108644
108033
107441
106856
106290
105732
105193
104662
104152
103643
103148
102656
102186
101713
101240
100780
100326
99878.9
99431.9
99000.6
98571.2
98156.5
97746.2
97346.5
96951.7
96567.6
96180.6
95793.6
95410.1
95036.2
94654.5
94278.2
93899.7
93527.2
93150.9
92777.9
92402.2
92033.2
91663.9
91303.6
90941
90587.8
90231.6
89882.1
89529.3
89180.4
88828.2
88479.5
88127.9
87782.5
87436
87102.5
86770.1
86453.2
86138.4
85842.4
85548
85266.1
84993.3
84608.5
837561
266423
229961
208012
191188
180098
173811
171152
170784
173267
177691
183802
191595
201120
212738
226975
244172
264780
289810
319796
353168
390801
432492
475996
516755
553592
575297
588647
582349
568270
544039
508143
463770
414006
373280
334564
309581
286553
274626
263232
259481
257388
255983
255239
254505
253396
251316
248448
244502
239954
234730
229614
224231
219241
214115
209465
204736
200584
196339
192642
188897
185553
182402
179367
176796
174185
172070
169900
168234
166540
165342
164178
163423
162814
162468
162334
162457
162799
163426
164235
165236
166397
167751
169204
170736
172207
173640
175051
176556
177850
179142
180227
181334
182239
182951
183382
183734
183925
183870
183678
183355
182879
182271
181565
180801
179971
179079
178125
177124
176095
175027
173920
172769
171580
170373
169150
167910
166679
165447
164217
162970
161703
160408
159101
157807
156523
155295
154058
152879
151689
150547
149390
148263
147136
145996
144854
143714
142580
141453
140335
139231
138137
137059
135991
134937
133907
132882
131882
130887
129918
128942
127984
127036
126097
125164
124247
123333
122438
121551
120683
119823
118985
118153
117343
116540
115760
114990
114236
113496
112765
112053
111346
110645
109954
109269
108591
107925
107262
106613
105967
105337
104710
104100
103498
102913
102337
101778
101227
100696
100168
99651.1
99138.6
98649
98157.4
97667.5
97189.2
96718.1
96252.4
95788.2
95336.9
94887.8
94451.7
94019.8
93598
93180.5
92774.3
92366.6
91958.4
91555.5
91162.9
90763.4
90369.4
89974.3
89585.3
89192.7
88802.9
88411.6
88025.1
87638.2
87258.8
86878.2
86507.1
86133.5
85766.8
85397.1
85031.6
84663.2
84298.4
83932.2
83570.3
83208.9
82856.9
82508.3
82170.7
81837.5
81518.7
81203.5
80896.9
80597.5
80175.1
850025
257429
217726
196405
180806
170444
164317
161469
160895
162884
166885
172747
180594
190681
203574
219887
240056
264070
292824
327222
365395
407402
452372
498115
530266
557435
561611
557332
541797
513853
473376
421599
371799
327578
294446
268033
250288
235143
227320
220230
220156
221682
225510
229923
234973
235096
233988
232110
228063
223424
218202
213036
207665
202659
197508
192719
187765
183433
179049
175341
171690
168375
165258
162250
159529
156771
154327
151838
149622
147372
145394
143387
141644
139882
138360
136819
135521
134232
133279
132372
131705
131131
130792
130658
130742
130949
131310
131852
132619
133550
134657
135902
137329
138866
140485
142126
143800
145471
147183
148714
150230
151587
152848
153902
154853
155687
156375
156947
157279
157545
157563
157473
157260
156911
156453
155907
155288
154620
153909
153160
152369
151533
150643
149706
148735
147753
146784
145805
144858
143900
142978
142044
141131
140212
139284
138353
137419
136487
135558
134634
133716
132796
131879
130965
130053
129156
128261
127381
126500
125638
124772
123912
123064
122219
121382
120552
119722
118906
118091
117292
116495
115716
114940
114183
113428
112694
111966
111253
110551
109857
109178
108506
107836
107175
106515
105860
105212
104566
103930
103298
102677
102059
101457
100862
100281
99709.9
99152.4
98603.5
98070.6
97542.6
97022.3
96504.9
96010.2
95514.6
95021.3
94537.5
94062.6
93590.8
93121.4
92661.7
92203.5
91756.5
91312.5
90877.7
90446.2
90025.5
89604.8
89182.8
88766.5
88361.6
87950.5
87544.3
87137.8
86737
86332.8
85930.8
85528.4
85129.1
84728.9
84334.5
83939.3
83552.6
83164
82781.8
82396.7
82015.6
81632.4
81252
80872.2
80494.8
80119.5
79749.8
79386
79029.1
78679.2
78339.4
78004.8
77677.3
77353.6
76898.2
861693
249832
207131
186607
171958
162055
155909
152742
151827
153254
156801
162436
170487
181485
196156
215217
238879
267127
300994
341253
385527
432398
479636
519386
537931
548534
541873
524945
494441
447156
392846
339798
299207
266752
242964
224245
210656
198913
190743
183044
178681
173851
170942
167878
167675
168742
171211
175183
180772
188209
189285
188356
185055
181423
177486
173870
170176
166752
163217
160072
156869
153937
151108
148372
145890
143361
141094
138799
136712
134598
132665
130709
128911
127093
125416
123720
122135
120530
119100
117659
116369
115058
113908
112747
111763
110767
109929
109078
108485
107885
107546
107208
107133
107204
107410
107755
108259
108931
109788
110795
111956
113252
114676
116192
117804
119495
121257
123049
124863
126622
128333
129877
131303
132524
133571
134454
135178
135780
136259
136611
136855
136925
136859
136686
136393
136003
135542
135030
134494
133934
133372
132791
132197
131584
130949
130295
129623
128939
128244
127541
126831
126115
125392
124664
123927
123195
122456
121726
120995
120278
119562
118845
118145
117441
116740
116038
115336
114638
113939
113248
112555
111874
111191
110523
109853
109200
108550
107912
107282
106659
106046
105443
104838
104240
103639
103040
102445
101849
101260
100672
100093
99516.9
98953.4
98394.7
97848.1
97308.4
96780.2
96258.8
95750.7
95246.4
94748.2
94249.4
93770.5
93292.9
92816.2
92347
91886.4
91427.9
90971.5
90521.5
90071.3
89629.9
89190
88757.8
88327.4
87905.9
87485.8
87063.6
86645.9
86239.3
85827.4
85419.5
85011.3
84608
84201.7
83797.1
83392.3
82989.7
82585.2
82185
81783
81387.6
80990.3
80597.9
80202.7
79810.5
79417
79024.9
78635
78246
77860.4
77477
77101.4
76729.5
76366.2
76009.6
75659.2
75314.1
74970.2
74486
872408
243756
198008
178237
164353
154742
148477
144955
143620
144526
147689
153248
161842
174277
191466
213928
242416
276760
317726
365482
416494
467334
506697
533541
539012
533763
515770
481445
429655
370282
320042
279939
250200
227433
209934
195644
183364
172205
162535
153027
144624
136879
130484
124212
118930
114689
113070
113965
117043
122659
130618
139004
147361
156887
158265
156815
154595
151889
148922
146104
143250
140719
138202
135780
133609
131389
129400
127388
125555
123702
121993
120262
118651
117020
115498
113965
112498
111012
109622
108219
106921
105607
104379
103137
101992
100836
99739.8
98628
97622.9
96608.7
95710.6
94799.4
93997.1
93203.6
92521.5
91860.2
91290.2
90769.7
90375.7
90054.8
89841.8
89731.4
89777.5
89917.6
90184.9
90595.4
91173.7
91917
92833.4
93915.9
95154
96520.4
97986.3
99514.3
101080
102677
104308
105961
107620
109262
110834
112303
113633
114786
115796
116607
117339
117889
118400
118775
119121
119363
119528
119636
119621
119550
119411
119207
118942
118622
118257
117857
117427
116971
116489
115988
115469
114938
114397
113855
113308
112754
112204
111650
111095
110536
109973
109409
108841
108275
107708
107151
106592
106043
105493
104954
104411
103876
103341
102815
102290
101779
101262
100750
100236
99720
99207.6
98692.6
98182.1
97668.7
97161.6
96654.9
96157.9
95661.3
95174.4
94690.7
94216.5
93746.5
93287.6
92831.9
92381.7
91927.8
91489.1
91053.8
90616.8
90184.8
89759.7
89336.7
88914.4
88495.7
88074.9
87660.5
87245.8
86836.9
86428.1
86025.9
85624.6
85220.8
84818.9
84426.6
84029.7
83635
83239.6
82848.1
82453.6
82060.2
81666.2
81273.6
80878
80485
80089.2
79697.8
79303.9
78912.8
78518.8
78126.2
77732.3
77338.3
76946.8
76555.2
76167.5
75779.5
75399.5
75021.2
74651.3
74285.9
73926.4
73570.3
73212.8
72707.5
881537
238839
190149
171036
157817
148420
141996
138114
136411
136918
139894
145702
155321
170055
190637
218204
253736
296504
346229
401761
458842
502506
527519
537933
531140
511244
474396
416959
356873
306937
269430
241022
219473
202531
188468
176281
165245
155103
145656
136716
128572
120881
113673
106707
100016
93520.5
88266.1
84828
82039.6
80313
81614.1
85615.5
93428.9
103593
114812
124217
134572
134958
133726
132039
130054
128074
126051
124083
122268
120408
118708
116972
115361
113733
112230
110706
109287
107851
106508
105164
103873
102563
101308
100038
98859.6
97669.2
96552.9
95423.7
94369.5
93309.7
92290.9
91259.6
90283.7
89298.6
88382.1
87454.6
86584.9
85705.2
84890.8
84067.4
83290.6
82505.3
81794.2
81078.4
80432.4
79779.4
79210.3
78634.5
78153.2
77668.3
77312.1
76974.5
76785.3
76621.3
76628
76701.7
76860.5
77109.5
77452
77904.4
78487.4
79208.1
80067.7
81065.7
82189.3
83417.1
84714.4
86050.6
87405.9
88769.3
90153.1
91517.4
92902
94254
95639.2
96953.5
98276.6
99525.3
100696
101766
102719
103550
104265
104857
105340
105709
105992
106172
106293
106303
106268
106183
106047
105865
105641
105377
105082
104762
104422
104064
103693
103307
102909
102503
102089
101670
101247
100820
100389
99957.8
99522
99088.6
98651.6
98219.9
97784.5
97368.2
96948.1
96536.1
96125.1
95714.3
95307.9
94900.7
94489.9
94074.5
93659.1
93239.9
92825.1
92406.9
91996
91585.4
91183.4
90784.2
90395
90009.9
89628.4
89242.4
88865.8
88492.4
88115.4
87739.4
87367.8
86998.8
86628.6
86260.8
85889.7
85522.7
85153.8
84789.1
84422.2
84060
83696.7
83330.5
82962.9
82602.8
82238.5
81874.6
81509.3
81146
80779.7
80413.3
80045.7
79677.9
79307.2
78936.6
78563
78191.3
77816.8
77442.7
77065.4
76687.6
76307.6
75925.9
75545.9
75164.6
74787.1
74407.5
74034.8
73662.2
73296.4
72933.2
72574.8
72218.2
71857.7
71345.4
889264
235786
183604
164902
152250
143043
136474
132267
130311
130693
133747
140340
151871
170014
196032
231247
276393
329220
387670
449592
502542
530729
537582
532501
511494
470323
410502
348546
300591
264524
237488
216624
200166
186506
174657
163933
154170
145109
136636
128630
121163
113977
107061
100258
93664.6
87285.7
81263.5
75498.8
70108
64770.9
60798.7
59200.7
59338.1
61454.3
67524.9
77271.6
89276.8
102356
110694
117962
117425
116451
115012
113423
111796
110140
108624
107069
105636
104185
102853
101501
100257
99000.3
97830.2
96666
95548.8
94411.8
93310.4
92194.4
91156.5
90108.8
89133.5
88147
87223.1
86296.4
85411.1
84515.4
83653.5
82782.5
81961.1
81131.3
80345.6
79550
78801
78045.1
77316.2
76579.4
75881
75177.5
74511.3
73840.3
73198.8
72561.4
71944.2
71340.9
70760.2
70213.6
69694.8
69215.2
68749.4
68332.8
67925.9
67566.2
67202.5
66913.2
66635.8
66480.2
66329.4
66327.5
66377.3
66495.4
66679.9
66930.9
67249.8
67645.5
68128.6
68701.9
69376.2
70155.7
71058.4
72073
73215.6
74461.6
75806.9
77223.2
78685.9
80171
81667.6
83134.4
84561.9
85914.8
87196.6
88385.7
89484.8
90481.8
91374.2
92180.9
92883.2
93499.3
94027.2
94459.2
94810.8
95074.7
95269.7
95391.3
95466.6
95468.1
95438.6
95372.3
95266.3
95123.2
94944.6
94733.6
94492.8
94228.8
93946.7
93651.9
93345.5
93032.1
92711.4
92397.8
92080.9
91768.3
91456.3
91143.6
90832.5
90519.5
90202.7
89881
89554.2
89223.3
88893.2
88560.1
88232.7
87905.1
87586.2
87270.4
86964.5
86661.4
86358.5
86050.6
85746.6
85445.4
85140.2
84832.9
84527.9
84225.9
83921.7
83619.5
83314.3
83010.5
82704.1
82399.2
82091.5
81786.1
81477.8
81165.8
80850.3
80539.5
80224.7
79908.3
79589.1
79269.4
78946.6
78621.8
78294.8
77966.3
77635.1
77302.2
76966.2
76629.6
76290
75948.5
75603.5
75255.9
74905.2
74551.4
74197.4
73841.5
73487.8
73131.6
72779.8
72427
72078.4
71730.7
71386.2
71042
70692.3
70192.5
895242
233354
177949
159678
147547
138586
131935
127489
125409
126019
129635
137824
152613
176556
210862
256419
312623
375627
443355
500922
537405
544260
537849
514495
470830
407390
345510
298262
263363
237284
217226
201064
187602
175840
165336
155635
146643
138128
130137
122606
115462
108473
101670
94975.1
88536.4
82359.3
76495.6
70846
65476
60336.4
55600.3
51246.1
47231.3
44087.2
44370
45697.4
50827.4
59676.3
71190.2
84350
92981.5
102020
102510
102001
101017
99820.4
98576.4
97284.8