/*--------------------------------*- C++ -*----------------------------------*\
| =========                 |                                                 |
| \\      /  F ield         | OpenFOAM: The Open Source CFD Toolbox           |
|  \\    /   O peration     | Version:  2312                                  |
|   \\  /    A nd           | Website:  www.openfoam.com                      |
|    \\/     M anipulation  |                                                 |
\*---------------------------------------------------------------------------*/
FoamFile
{
    version     2.0;
    format      ascii;
    arch        "LSB;label=32;scalar=64";
    class       volScalarField;
    location    "0.001";
    object      p;
}
// * * * * * * * * * * * * * * * * * * * * * * * * * * * * * * * * * * * * * //

dimensions      [1 -1 -2 0 0 0 0];

internalField   nonuniform List<scalar> 
48128
(
2205.45
2199.89
2197.88
2181.39
2165.57
2137.26
2090.74
2034.55
1976.46
1927.29
1890.97
1863.69
1847.77
1843.15
1846.28
1856.27
1873.67
1898.54
1931.14
1974.38
2030.84
2096.35
2174
2266.31
2373.98
2498.08
2638.07
2797.41
2977.06
3177.35
3401.09
3643.11
3913.77
4197.7
4512.29
4827.44
5166.79
5507.95
5843.31
6182.19
6512.54
6833.15
7147.39
7459.68
7767.18
8064.83
8351.79
8625.43
8891.01
9135.97
9377.57
9596.27
9813.35
10007.4
10198.4
10366.6
10531.4
10673.2
10818.7
10942.6
11069.4
11185.5
11278.9
11382.2
11456.4
11532.4
11590.8
11651.8
11702.5
11754.5
11801.3
11843.2
11880.2
11902.1
11920.4
12057.7
12108.1
12110.9
12112.5
12232.2
12279.3
12299.3
12323.9
12359.7
12388.2
12472.6
12515.7
12531
12539.4
12626.4
12660.6
12673.7
12683.8
12693.4
12761.1
12789.7
12796.5
12799.6
12854.7
12878.6
12885.6
12890.6
12940.1
12963.4
12974
12984.8
13002
13015.1
13022.7
13029.6
13030.6
13029.5
13029
13038.9
13047.6
13056.2
13069.8
13081.4
13081
13076.5
13067
13062
13059.2
13074.1
13087
13118.7
13146.6
13178.8
13208.3
13233.2
13251.8
13266.9
13273.8
13280.8
13278
13278.1
13277.1
13277.4
13278.6
13283.4
13287.8
13295.4
13303.4
13313.6
13324.1
13332.8
13341.6
13348.7
13356.3
13358.5
13362.6
13366.3
13367.4
13367.4
13366.8
13365.5
13365
13364.1
13364.5
13365.3
13367.7
13370.7
13374.8
13379.6
13386
13393
13401.1
13409.3
13417.3
13424.8
13432.4
13436.2
13438.7
13441.3
13441.6
13441.3
13440.4
13439.1
13437.6
13436.3
13435.3
13435.2
13435.7
13437.2
13439.4
13442.8
13446.8
13452.1
13458.1
13461.1
13465.6
13471.3
13476.4
13476.3
13479.2
13481.9
13484.7
13485.8
13488
13490.3
13493.1
13495.9
13499.3
13503
13507.7
13513.1
13514.6
13518.5
13523.3
13527.9
13525.1
13526.7
13526.5
13526.2
13524.2
13523.1
13521.7
13519.9
13518.8
13517.5
13516
13514.6
13512.1
13510.1
13506.2
13503.1
13497.8
13493.4
13487.7
13482.5
13477.5
13473.1
13469.9
13467.3
13466.4
13465.5
13465.4
13464.9
13463.9
13448.2
2206.88
2200.12
2197.93
2182.91
2166.41
2134.68
2087.3
2030.47
1972.84
1928.86
1896.35
1868.23
1851.7
1846.44
1849.12
1858.79
1875.95
1901.22
1934.3
1976.29
2027.75
2091.65
2167.74
2258.72
2364.34
2485.49
2623.77
2780.97
2957.87
3154.19
3374.02
3611.71
3877.81
4156.92
4467.05
4779.25
5113.14
5451.27
5785.87
6119.81
6446.91
6767.37
7083.39
7396.25
7703.15
8001.46
8288.85
8563.6
8829.18
9076.3
9318.76
9538.63
9756.92
9954.04
10147.1
10317.9
10484.2
10628.6
10775.6
10903
11034.7
11150.1
11246.3
11352.3
11427.8
11505.1
11565.3
11628.2
11680.7
11734.6
11783
11826.6
11865.7
11886.2
11901.2
12046.4
12100.1
12101.3
12099.7
12223.3
12272.5
12293.5
12317.5
12352.1
12379
12467
12511.3
12525.9
12532.2
12621.4
12656.6
12670.9
12679.9
12686.5
12757.8
12787.1
12793.6
12795.2
12852
12876.4
12883.4
12887
12938.2
12961.5
12972.3
12982.7
13000
13013.3
13021
13027.9
13029
13027.6
13027.2
13037.9
13046.5
13055.3
13069.1
13080.8
13080.3
13075.6
13066
13061.1
13058.5
13073.4
13086.2
13118.7
13146.1
13178.4
13207.9
13233
13251.5
13266.5
13273.5
13280.4
13277.4
13277.8
13276.7
13277
13278.1
13283
13287.5
13295.1
13303.1
13313.4
13323.9
13332.6
13341.4
13348.5
13356.1
13358.3
13362.4
13366.2
13367.2
13367.3
13366.6
13365.3
13364.8
13364
13364.4
13365.2
13367.7
13370.6
13374.7
13379.6
13385.9
13393
13401.1
13409.3
13417.3
13424.8
13432.4
13436.2
13438.8
13441.3
13441.6
13441.3
13440.4
13439.2
13437.6
13436.3
13435.3
13435.2
13435.8
13437.2
13439.4
13442.8
13446.9
13452.2
13458.2
13461.1
13465.7
13471.4
13476.5
13476.4
13479.2
13481.9
13484.8
13485.8
13488
13490.3
13493.1
13495.9
13499.4
13503
13507.8
13513.2
13514.7
13518.5
13523.4
13528
13525.2
13526.7
13526.6
13526.2
13524.2
13523.1
13521.7
13519.9
13518.8
13517.5
13516
13514.6
13512.2
13510.1
13506.2
13503.1
13497.8
13493.4
13487.7
13482.5
13477.5
13473.1
13469.9
13467.3
13466.4
13465.5
13465.5
13465
13464
13448.2
2209.25
2200.88
2194.89
2180.88
2157.43
2122.3
2074.07
2020.13
1967.01
1921.53
1885.35
1859.3
1845.1
1841.29
1844.99
1855.44
1873.02
1897.58
1930.1
1972.46
2025.95
2089.19
2165.21
2255.17
2359.72
2479.45
2616.11
2770.41
2944.43
3137.57
3354.48
3587.97
3851.12
4126.04
4432.97
4742.51
5073.59
5407.69
5740.98
6074.25
6400.78
6722.32
7039.14
7352.91
7660.24
7959.57
8248.43
8524.98
8791.61
9039.91
9285.55
9508.21
9730.07
9929.29
10124.6
10296.5
10464
10608.8
10757
10885.8
11022.9
11135.8
11232.8
11341.7
11416.6
11494.5
11554.8
11619
11671.8
11727.1
11775.6
11820.9
11860.8
11881.5
11895.3
12035.5
12093.7
12099.5
12099.6
12213.9
12266.9
12292.8
12317.4
12349.3
12374.3
12463
12508.5
12524.3
12532.1
12615.4
12652.7
12670.2
12679.8
12684.8
12753.3
12784.4
12792.7
12794.2
12849
12874.3
12883
12885.9
12935.8
12959.6
12971.7
12982.2
12998.7
13012.1
13019.9
13026.5
13027.8
13025.9
13025.4
13036.9
13045.4
13054.6
13068.3
13080.3
13080
13074.8
13065.4
13060.7
13057.9
13073.1
13085.7
13118.5
13146
13178.2
13207.4
13232.5
13250.9
13265.9
13273.1
13280
13277
13277.2
13276.3
13276.7
13277.9
13282.6
13287.4
13295
13303
13313.3
13323.7
13332.5
13341.3
13348.4
13356
13358.2
13362.3
13366
13367.1
13367.2
13366.5
13365.2
13364.7
13363.9
13364.3
13365.1
13367.7
13370.6
13374.6
13379.6
13385.9
13393
13401.2
13409.3
13417.3
13424.8
13432.5
13436.3
13438.7
13441.3
13441.6
13441.3
13440.4
13439.2
13437.6
13436.3
13435.3
13435.2
13435.8
13437.3
13439.5
13442.9
13447
13452.3
13458.3
13461.3
13465.8
13471.4
13476.6
13476.5
13479.3
13482
13484.8
13485.9
13488.1
13490.4
13493.2
13496
13499.4
13503.1
13507.8
13513.2
13514.8
13518.6
13523.4
13528.1
13525.3
13526.7
13526.6
13526.2
13524.3
13523.2
13521.7
13519.9
13518.8
13517.5
13516
13514.6
13512.2
13510.2
13506.3
13503.1
13497.8
13493.4
13487.7
13482.5
13477.5
13473.1
13469.9
13467.3
13466.4
13465.5
13465.5
13465
13464
13448.2
2215.09
2201.21
2193.56
2173.11
2144.26
2104.52
2056.15
2002.98
1952.86
1911.92
1879.72
1855.42
1842.68
1839.71
1844.16
1855
1872.39
1896.58
1928.55
1969.2
2020.3
2082.43
2156.84
2244.83
2347.25
2464.56
2599.28
2750.57
2921.75
3111.11
3326.26
3555.69
3816.37
4088.64
4391.06
4698.04
5029.32
5361.24
5693.1
6029.01
6353.69
6675.93
6990.75
7308.2
7614.75
7916.08
8205.28
8483.81
8749.84
8997.23
9245.98
9470.66
9695.67
9896.99
10093.1
10266.3
10434.9
10580.2
10730
10860.4
11005.6
11115.2
11212.8
11324.9
11399.7
11478.7
11539.4
11605.7
11658.9
11716.4
11765.1
11812.6
11854.2
11876.3
11892.9
12016.8
12080.1
12096.5
12102.9
12201.2
12256.6
12291.3
12318.5
12347.6
12371.5
12455.4
12502
12522.4
12534.1
12607.1
12646
12668.9
12680.3
12685.9
12746.1
12779.2
12791.6
12795.2
12844.1
12870.5
12882.3
12886.7
12931.6
12956.3
12970.7
12981.6
12996.9
13010.4
13018.2
13024.7
13025.7
13023.9
13023.1
13035.3
13044.1
13053.9
13067.2
13079.4
13079.3
13073.7
13064.8
13060.2
13057.8
13072.8
13085.6
13117.9
13146.1
13178.3
13206.7
13231.6
13249.9
13265.1
13272.4
13279.3
13276.5
13276.5
13275.7
13276.3
13277.6
13282.1
13287.1
13294.8
13302.8
13313.1
13323.5
13332.3
13341
13348.1
13355.8
13358.2
13362
13365.8
13366.9
13367
13366.3
13365
13364.5
13363.7
13364.2
13364.9
13367.5
13370.5
13374.5
13379.6
13385.9
13392.9
13401.2
13409.2
13417.3
13424.7
13432.5
13436.4
13438.6
13441.2
13441.6
13441.3
13440.4
13439.1
13437.6
13436.3
13435.3
13435.2
13435.8
13437.3
13439.5
13442.9
13447
13452.3
13458.4
13461.4
13465.9
13471.4
13476.6
13476.7
13479.3
13482
13484.8
13486
13488.1
13490.4
13493.2
13496
13499.5
13503.1
13507.9
13513.4
13515
13518.7
13523.5
13528.2
13525.5
13526.7
13526.6
13526.3
13524.3
13523.2
13521.7
13519.9
13518.9
13517.5
13516
13514.6
13512.2
13510.2
13506.3
13503.1
13497.8
13493.4
13487.7
13482.5
13477.5
13473.1
13469.9
13467.4
13466.4
13465.5
13465.5
13465.1
13464.1
13448.2
2217.39
2201.01
2186.29
2161.02
2126.2
2083.9
2035.78
1986.08
1939.19
1899.86
1870.1
1848.85
1838.47
1836.65
1841.8
1852.69
1869.87
1893.48
1924.62
1964.33
2014.12
2074.96
2147.7
2233.91
2334.57
2449.47
2582.32
2730.88
2900.11
3085.24
3299.1
3526.13
3783.08
4054.28
4356.95
4659.39
4992.48
5317.86
5645.93
5992.83
6310.13
6632.47
6940.18
7265.04
7566.12
7871.68
8159.03
8439.69
8704.64
8951.32
9204.41
9433.88
9663.85
9867.85
10064.7
10239.3
10408.4
10554.2
10706.6
10837.7
10993.1
11097.5
11196.2
11311.3
11384
11465.1
11524.7
11594.6
11647.2
11707.9
11756.1
11806.4
11849.3
11874.1
11895
11997.2
12065.2
12095.6
12111
12188.7
12246.4
12291.1
12321.6
12349
12373.5
12446
12494.3
12521.8
12538.8
12598.1
12638.9
12668.1
12682.4
12689.7
12738.9
12773.6
12791.2
12799.3
12838.6
12866.4
12882.4
12890.3
12926.8
12952.8
12970.2
12981.7
12995.7
13009
13016.7
13022.9
13023.6
13022.2
13021.2
13033.6
13043
13053.8
13066.5
13078.5
13078.4
13072.9
13064.6
13060.4
13058.7
13073
13086.5
13117.7
13146.8
13178.4
13205.9
13230.6
13248.8
13263.9
13271.5
13278.6
13276.1
13275.9
13275.2
13276
13277.3
13281.7
13287
13294.8
13302.8
13313
13323.4
13332.1
13340.8
13347.9
13355.5
13358.2
13361.8
13365.5
13366.8
13366.7
13366.2
13364.8
13364.3
13363.5
13364.1
13364.8
13367.4
13370.5
13374.5
13379.5
13385.8
13393
13401.2
13409.2
13417.3
13424.6
13432.5
13436.6
13438.6
13441.2
13441.5
13441.2
13440.3
13439.1
13437.6
13436.3
13435.3
13435.2
13435.8
13437.3
13439.5
13443
13447
13452.3
13458.5
13461.5
13466
13471.4
13476.7
13477
13479.4
13482
13484.8
13486
13488.2
13490.5
13493.2
13496
13499.5
13503.2
13507.9
13513.5
13515.1
13518.8
13523.5
13528.3
13525.7
13526.8
13526.6
13526.3
13524.4
13523.2
13521.7
13520
13518.9
13517.6
13516.1
13514.7
13512.3
13510.3
13506.4
13503.1
13497.9
13493.4
13487.7
13482.5
13477.5
13473.1
13469.9
13467.4
13466.4
13465.6
13465.6
13465.1
13464.1
13448.3
2217.1
2196.61
2176.22
2145
2106.22
2063.19
2015.37
1966.72
1923.38
1887.66
1860.96
1842.69
1834.29
1833.21
1838.95
1849.65
1866.46
1889.41
1919.6
1958.06
2006.37
2066.05
2137
2221.25
2320.47
2432.89
2563.89
2709.37
2878.39
3059.81
3269.97
3494.04
3749.54
4016.95
4317.47
4607.64
4944.54
5261.3
5573.18
5937.39
6245.78
6568.25
6873.3
7204.91
7504.37
7811.35
8100.89
8376.35
8633.44
8879.99
9136.79
9374.99
9615.34
9822.5
10028
10200.1
10375.1
10517.8
10682.2
10806.1
10977.9
11072.8
11177
11298
11361.6
11452.7
11506.1
11584.8
11633.4
11700.6
11746
11800.8
11844
11872.8
11899.6
11976.2
12047.9
12094.3
12117.9
12177
12236.7
12289.8
12324.3
12352
12377.9
12436
12485.8
12521.1
12543.6
12590
12631.2
12666.6
12684.5
12694.5
12731.6
12768.5
12790.5
12803.2
12833.1
12863.1
12882.3
12893.8
12921.8
12949.7
12969.3
12982
12994.9
13007.5
13015.1
13020.8
13021.1
13020.5
13020
13031.4
13041.9
13054.1
13066.4
13077.3
13077
13072.2
13064.9
13061.3
13060.5
13073.3
13088.1
13118.6
13148.1
13178.2
13204.9
13229.4
13247.5
13262.5
13270.4
13277.8
13275.5
13275.4
13274.7
13275.9
13277.3
13281.5
13287.2
13294.9
13302.9
13313
13323.4
13331.9
13340.7
13347.7
13355.1
13358.3
13361.6
13365.1
13366.7
13366.5
13366
13364.7
13364.2
13363.5
13363.9
13364.8
13367.2
13370.4
13374.5
13379.6
13385.9
13393
13401.2
13409.1
13417.4
13424.5
13432.4
13436.6
13438.5
13441.1
13441.4
13441.1
13440.3
13439.1
13437.5
13436.3
13435.3
13435.3
13435.8
13437.3
13439.6
13443
13447.1
13452.4
13458.6
13461.7
13466.2
13471.4
13476.6
13477.3
13479.5
13482
13484.8
13486.1
13488.3
13490.5
13493.3
13496.1
13499.6
13503.2
13508
13513.6
13515.4
13518.9
13523.6
13528.3
13525.9
13526.8
13526.7
13526.3
13524.4
13523.2
13521.8
13520
13518.9
13517.6
13516.1
13514.8
13512.4
13510.3
13506.5
13503.2
13498
13493.5
13487.8
13482.6
13477.6
13473.1
13469.9
13467.4
13466.5
13465.7
13465.6
13465.2
13464.2
13448.3
2211.68
2187.3
2162.59
2127.16
2086.43
2042.88
1993.75
1947.8
1907.86
1875.7
1852.07
1836.41
1829.71
1829.17
1835.17
1845.97
1862.2
1884.42
1913.57
1950.67
1997.48
2055.98
2125.25
2207.16
2305.06
2415.06
2545.09
2686.68
2852.87
3030.93
3237.53
3455.26
3702.29
3955.61
4261.72
4528.17
4860.32
5164.23
5456.61
5824.33
6128.95
6450.88
6754.45
7089.14
7393.08
7706.27
8006.77
8276.62
8537.74
8772.83
9042.4
9273.91
9534.26
9737.83
9966.44
10127
10321.9
10457.1
10643.2
10759.5
10943
11034.7
11151.6
11274.6
11332
11434.3
11485.2
11570.5
11618.9
11691
11735.5
11794.2
11838
11872.4
11902.8
11959.8
12028.8
12090.6
12122.3
12170.8
12227.6
12287.3
12327.3
12356.5
12382.3
12427.6
12476.4
12519.5
12546.3
12584.2
12623.8
12664.2
12685.9
12698.8
12726.8
12763.1
12789.5
12805.7
12829.6
12860
12882
12896.5
12918.6
12946.5
12968
12982.2
12994.4
13005.8
13013.3
13018.1
13018.1
13018.9
13019.6
13029.2
13041.4
13054.8
13067.2
13075.5
13075.3
13071.4
13065.8
13062.7
13063.2
13074.5
13090.5
13121
13149.3
13177.9
13203.7
13227.8
13245.7
13260.8
13269.2
13276.6
13275.1
13274.8
13274.4
13275.7
13277.5
13281.6
13287.5
13295.2
13303.3
13313.2
13323.4
13331.8
13340.6
13347.5
13354.8
13358.4
13361.6
13364.7
13366.6
13366.2
13365.9
13364.6
13364.1
13363.5
13363.9
13364.8
13367.2
13370.5
13374.6
13379.7
13386
13393.1
13401.3
13409.1
13417.4
13424.4
13432.3
13436.6
13438.5
13441.1
13441.3
13441.1
13440.3
13439.1
13437.5
13436.3
13435.3
13435.3
13435.9
13437.4
13439.7
13443.1
13447.2
13452.4
13458.7
13461.9
13466.5
13471.4
13476.6
13477.7
13479.6
13482
13484.8
13486.2
13488.3
13490.6
13493.3
13496.1
13499.6
13503.3
13508
13513.7
13515.6
13519.2
13523.6
13528.3
13526.2
13526.9
13526.7
13526.4
13524.5
13523.2
13521.8
13520
13519
13517.7
13516.2
13514.8
13512.5
13510.4
13506.6
13503.3
13498.1
13493.5
13487.8
13482.6
13477.6
13473.2
13470
13467.5
13466.5
13465.7
13465.7
13465.3
13464.2
13448.4
2203.11
2173.28
2146.48
2108.98
2067.52
2021.33
1973.04
1930.18
1893.65
1864.73
1843.7
1830.39
1824.85
1824.84
1830.92
1841.79
1857.32
1878.59
1906.68
1942.38
1987.6
2044.8
2112.41
2192.28
2288.63
2396.19
2523.36
2660.81
2822.95
2993.71
3190.09
3395.73
3643.75
3851.81
4148.64
4392.92
4704.95
5002.26
5296.23
5643.85
5957.32
6276.43
6590.17
6918.7
7238.43
7546.55
7870.03
8114.26
8401
8612.14
8931.93
9138.36
9427.53
9612.26
9869.24
10025.3
10241
10378.6
10582.4
10700.3
10886.5
10983.3
11116.8
11234.2
11294.7
11402.5
11458.9
11547.8
11599.6
11675.2
11721.4
11783.7
11828.2
11870.1
11903.2
11949.2
12010.8
12082.1
12122.9
12167.7
12221.2
12283.2
12327.9
12361.2
12385.9
12423.4
12467.4
12516.2
12546.7
12580.4
12617.2
12659.5
12686.3
12703.1
12724.9
12757.9
12787.3
12807.1
12828.2
12856.7
12881.4
12898.7
12917.3
12943.3
12965.8
12981.9
12993.8
13004
13010.9
13014.7
13014.9
13016.8
13019
13027.7
13041.2
13056.5
13067.4
13073.6
13073.5
13071
13067
13064.7
13066.2
13077.4
13094.3
13124
13150.6
13177.5
13202.2
13225.9
13243.5
13258.8
13267.5
13275.3
13274.4
13274.2
13274.3
13275.7
13277.9
13281.9
13287.9
13295.7
13303.8
13313.6
13323.3
13331.7
13340.5
13347.2
13354.5
13358.4
13361.5
13364.4
13366.4
13366
13365.8
13364.6
13364
13363.5
13363.9
13364.9
13367.3
13370.6
13374.8
13379.9
13386.2
13393.3
13401.4
13409.1
13417.5
13424.4
13432.1
13436.5
13438.6
13441.1
13441.2
13441
13440.2
13439.1
13437.6
13436.3
13435.4
13435.4
13436
13437.5
13439.8
13443.2
13447.4
13452.5
13458.7
13462.2
13466.8
13471.4
13476.5
13478.1
13479.8
13482.1
13484.8
13486.3
13488.4
13490.6
13493.4
13496.2
13499.7
13503.4
13508.1
13513.8
13515.9
13519.5
13523.7
13528.4
13526.4
13527
13526.8
13526.4
13524.6
13523.3
13521.8
13520.1
13519
13517.7
13516.2
13514.9
13512.6
13510.5
13506.7
13503.4
13498.2
13493.6
13487.9
13482.7
13477.7
13473.3
13470.1
13467.6
13466.6
13465.8
13465.8
13465.4
13464.2
13448.5
2189.96
2155.8
2128.78
2090.15
2048.39
2000.41
1954.59
1914.57
1881.03
1854.9
1836.18
1824.7
1819.91
1820.39
1826.57
1837.21
1851.9
1872.2
1899.24
1933.29
1976.63
2033.26
2098.36
2177.25
2271.14
2374.54
2498.08
2628.41
2778.54
2939.58
3130.66
3288.58
3534.97
3709.16
3983.22
4203.21
4495.21
4781.77
5084.69
5404.37
5749.69
6049.55
6402.35
6699.56
7067.25
7332.56
7713.32
7908.32
8238.96
8431.28
8778.82
8971.08
9295.38
9463.53
9740.44
9889.6
10133
10278.4
10500.1
10625.8
10814.2
10913.9
11070.6
11177
11246.9
11361.5
11426.2
11520
11575.4
11655.1
11702.8
11769.4
11814.7
11866.1
11902.5
11940.4
11995.3
12067.2
12118.4
12165.5
12215.6
12276.9
12324.5
12362.9
12389.7
12419.7
12458.9
12509.8
12545.3
12576.5
12610.9
12653.6
12685.9
12705.9
12724.5
12753.4
12784.3
12807.7
12827.7
12853.8
12880.4
12900
12916.9
12940.2
12963.1
12981
12992.6
13001.9
13007.1
13010.5
13011.6
13014.9
13018.8
13027.4
13042
13058.3
13067
13071.1
13071.4
13070.7
13068.8
13067.8
13070.3
13081.3
13099.4
13127.6
13151.9
13177.1
13200.4
13223.4
13240.8
13256.1
13265.5
13273.6
13273.3
13273.7
13274.3
13275.9
13278.5
13282.6
13288.6
13296.4
13304.5
13314.2
13323.4
13331.7
13340.5
13347
13354.1
13358.2
13361.5
13364.2
13366.3
13365.8
13365.7
13364.6
13364
13363.5
13364
13365.1
13367.5
13370.9
13375.1
13380.2
13386.4
13393.5
13401.6
13409.2
13417.7
13424.3
13431.9
13436.4
13438.6
13441.1
13441.1
13440.9
13440.2
13439.1
13437.6
13436.4
13435.5
13435.6
13436.1
13437.7
13440
13443.4
13447.5
13452.6
13458.8
13462.4
13467.2
13471.4
13476.4
13478.5
13480
13482.1
13484.8
13486.4
13488.5
13490.7
13493.4
13496.3
13499.8
13503.5
13508.2
13513.9
13516.2
13519.8
13523.8
13528.3
13526.7
13527.1
13526.8
13526.4
13524.7
13523.3
13521.9
13520.2
13519.1
13517.8
13516.3
13515
13512.7
13510.6
13506.9
13503.5
13498.4
13493.7
13488
13482.8
13477.8
13473.4
13470.2
13467.7
13466.7
13466
13465.9
13465.5
13464.2
13448.7
2172.65
2136.21
2109.87
2071.96
2029.07
1981.71
1938.65
1901.12
1870.2
1846.45
1829.68
1819.56
1815.36
1816.14
1822.28
1832.41
1846.17
1865.19
1891.21
1924.23
1964.65
2021.88
2084.8
2160.03
2251.86
2348.84
2462.13
2584.34
2722.17
2841.64
3034.74
3149.95
3370.51
3500.34
3739.73
3918.19
4170.97
4421.28
4751.92
5005.55
5431.76
5665.48
6133.17
6392.7
6840.72
7101.13
7544
7718.64
8088.52
8269.02
8624.62
8800.65
9133.45
9296.19
9599.35
9728.61
9993.39
10146.7
10393.2
10528.3
10726.7
10825.3
11006.7
11104.9
11189.7
11314
11386
11485.6
11545
11628.7
11680.2
11751.3
11797.2
11858.3
11897.3
11935.1
11982.5
12050.2
12108.3
12163.9
12212
12269.4
12317.3
12360.8
12392.9
12419.9
12452.1
12500.9
12540
12573.2
12605.4
12646.2
12681
12706.9
12725.6
12749.6
12779.3
12806.5
12827.6
12851.2
12877.9
12900.3
12917
12937.4
12959.6
12979.1
12990.1
12999.1
13002.3
13005.5
13008.2
13013
13019.2
13028.7
13043.7
13060.1
13065.9
13068.6
13069.6
13070.8
13071
13072.2
13075.8
13086.9
13105.5
13131.4
13153
13176.3
13198.3
13220.3
13237.7
13253
13262.6
13271.6
13272
13273.2
13274.3
13276.4
13279.3
13283.6
13289.6
13297.2
13305.4
13314.8
13323.5
13331.7
13340.4
13346.6
13353.7
13358.1
13361.6
13364
13366.2
13365.7
13365.6
13364.6
13364
13363.7
13364.2
13365.3
13367.8
13371.2
13375.5
13380.6
13386.8
13393.8
13401.7
13409.4
13417.8
13424.2
13431.7
13436.1
13438.7
13441.1
13441
13440.9
13440.2
13439.1
13437.7
13436.5
13435.6
13435.7
13436.3
13437.9
13440.2
13443.6
13447.8
13452.8
13458.9
13462.8
13467.6
13471.4
13476.3
13478.9
13480.2
13482.2
13484.8
13486.5
13488.6
13490.8
13493.5
13496.4
13499.9
13503.7
13508.3
13514
13516.6
13520.2
13523.9
13528.3
13526.9
13527.2
13526.9
13526.5
13524.8
13523.4
13521.9
13520.2
13519.2
13517.9
13516.4
13515.2
13512.8
13510.8
13507.1
13503.7
13498.6
13493.8
13488.1
13482.9
13477.9
13473.5
13470.3
13467.9
13466.8
13466.1
13466
13465.6
13464.2
13448.8
2152.76
2115.71
2090.74
2054.47
2010.77
1965.71
1925.15
1889.98
1861.37
1839.62
1824.36
1815.27
1811.52
1812.35
1818.16
1827.65
1840.04
1857.84
1882.5
1915.38
1954.09
2009.51
2070.94
2140.82
2226.66
2315.11
2415.08
2507.96
2646.19
2720.84
2882.52
2963.36
3125.18
3229.68
3383.39
3527.45
3711.29
3904.87
4170.6
4400.69
4787.9
5063.41
5531.98
5771.12
6289.55
6512.57
7003.13
7226.63
7702.19
7949.61
8374.68
8577.52
8963.57
9139.52
9453.91
9587.78
9862.82
10013.9
10267.3
10401.1
10620.6
10720.1
10920.1
11019.4
11130.6
11259.1
11335.8
11445
11506.8
11596.9
11651.9
11728.2
11777.6
11844.7
11887.2
11930.1
11973.1
12033.5
12094.1
12159.4
12206.2
12260.5
12305.6
12356.5
12391.7
12421.2
12449.2
12490.1
12530.6
12569.4
12601.1
12637.8
12673.4
12705.7
12727.4
12747
12773.5
12803.9
12827.3
12849
12874.8
12899.3
12916.7
12934.8
12955.4
12975.5
12985.6
12995.1
12996.2
12999.3
13003.8
13011
13020.1
13031.4
13046.4
13061.3
13063.8
13066
13067.9
13070.6
13073.2
13077.2
13083.2
13094.3
13112.4
13135.2
13154.2
13175.4
13195.7
13216.6
13233.5
13249.2
13258.7
13269.2
13270.8
13273
13274.5
13277
13280.3
13284.7
13290.7
13298.2
13306.5
13315.6
13323.6
13331.9
13340.4
13346.3
13353.3
13357.9
13361.8
13363.7
13365.9
13365.5
13365.4
13364.6
13364.1
13363.8
13364.4
13365.7
13368.2
13371.6
13375.9
13381
13387.2
13394.1
13401.9
13409.6
13418
13424.1
13431.4
13435.8
13438.8
13441
13440.9
13440.8
13440.2
13439.1
13437.8
13436.6
13435.8
13436
13436.6
13438.1
13440.5
13443.9
13448
13453
13459
13463.1
13468.1
13471.4
13476.3
13479.3
13480.4
13482.3
13484.9
13486.7
13488.8
13491
13493.6
13496.6
13500.1
13503.9
13508.5
13514.1
13517
13520.7
13524
13528.3
13527.2
13527.4
13527
13526.5
13524.9
13523.5
13522
13520.3
13519.2
13518
13516.6
13515.3
13513
13510.9
13507.3
13503.8
13498.8
13494
13488.3
13483.1
13478.1
13473.7
13470.5
13468.1
13466.9
13466.3
13466.2
13465.8
13464.1
13449
2131.65
2095.73
2072.59
2038.04
1994.63
1952.68
1914.26
1881.31
1854.72
1834.58
1820.47
1812.1
1808.59
1809.27
1814.31
1822.63
1833.62
1850.51
1875.19
1906.62
1944.39
1996.78
2053.69
2117.05
2191.11
2266.14
2355.45
2410.1
2535.77
2570.94
2693.05
2735.61
2845.9
2883.43
2987.24
3064.88
3203.02
3346.23
3520.67
3691.4
3979.59
4204.78
4659.19
4953.94
5540.2
5841.39
6405.66
6701.07
7303.08
7543.86
8011.14
8203.75
8645.41
8823.62
9200.94
9396.82
9718.76
9893.01
10143.5
10268
10503.1
10604.1
10815.2
10920.3
11068.8
11194.7
11274.1
11397.4
11462.1
11561
11618.9
11701.9
11754.5
11825.9
11872.5
11923.4
11966.4
12021
12078.6
12147.8
12196.9
12250.1
12294.3
12348.3
12384.7
12419.7
12447.1
12481.5
12518.8
12562.7
12594.3
12629.4
12663.6
12701.3
12726.8
12746.5
12769.3
12799.4
12825.2
12847.8
12871.7
12897.1
12915.6
12932.7
12950.9
12969.7
12979.4
12989.4
12989.8
12994.2
13000.8
13010.1
13021.5
13034.5
13049.3
13061.5
13062.3
13064
13066.4
13070.7
13075.7
13082.1
13090.4
13104
13120.2
13138.8
13155.5
13174.1
13192.7
13212.1
13228.3
13244.8
13254.3
13266.4
13269.3
13272.5
13274.7
13277.7
13281.4
13286
13292
13299.3
13307.5
13316.3
13323.8
13331.9
13340.2
13345.9
13352.7
13357.5
13361.8
13363.4
13365.6
13365.3
13365.3
13364.6
13364.2
13364.1
13364.8
13366.2
13368.7
13372.1
13376.5
13381.6
13387.6
13394.5
13402.2
13409.8
13418.1
13423.9
13431.1
13435.5
13438.9
13440.9
13440.8
13440.7
13440.1
13439.1
13437.9
13436.8
13436
13436.2
13436.9
13438.4
13440.8
13444.1
13448.3
13453.2
13459.1
13463.5
13468.5
13471.5
13476.2
13479.6
13480.6
13482.4
13485
13486.8
13488.9
13491.1
13493.7
13496.7
13500.2
13504
13508.7
13514.2
13517.4
13521.2
13524.1
13528.2
13527.4
13527.6
13527.2
13526.6
13525.1
13523.6
13522.1
13520.4
13519.3
13518.1
13516.7
13515.4
13513.2
13511.1
13507.5
13504
13499
13494.1
13488.4
13483.2
13478.2
13473.8
13470.6
13468.3
13467.1
13466.5
13466.4
13466
13464
13449.1
2110.63
2077.62
2056.29
2022.46
1981.5
1942.52
1906.17
1875.24
1850.36
1831.51
1818.28
1810.36
1806.72
1806.91
1810.1
1817.47
1828.53
1844.13
1868.73
1898.5
1933.39
1982.24
2030.28
2085.45
2147.31
2191.84
2283.93
2301.19
2394.49
2400.95
2470.1
2491.02
2522.77
2551.26
2584.94
2617.24
2650.02
2676.79
2714.76
2743.11
2800.81
2884.29
3055.94
3261.61
3638.5
4093.62
4708.36
5217.66
6109.82
6575.08
7294.64
7653.38
8243.86
8472.7
8923.21
9121.6
9498.61
9692.13
9974.75
10113.8
10373.1
10484.9
10711
10812.3
10995.4
11123.2
11203.4
11341.6
11410.6
11520
11582.2
11672.2
11727.9
11803.7
11853.4
11914.1
11960.1
12013.1
12066.3
12132.3
12183.2
12239.3
12281.9
12336
12374.4
12416.4
12444
12474.9
12507.3
12552.2
12585.4
12622.2
12652
12694.2
12720.3
12745
12767.3
12793.8
12820.4
12846.3
12868.5
12892.9
12913.1
12930.4
12945.5
12962.5
12972.7
12983.7
12983.8
12989
12997.8
13009.6
13023.6
13038.6
13052.9
13061.8
13060.8
13062
13064.9
13070.7
13078
13087.4
13098.2
13113.2
13129.2
13142.7
13156.7
13172.7
13189.4
13207.1
13222.4
13240.2
13249.9
13263.1
13267.3
13271.8
13274.8
13278.4
13282.4
13287.3
13293.4
13300.5
13308.5
13316.9
13324
13331.8
13339.8
13345.5
13352.1
13356.9
13361.7
13362.9
13365.1
13364.9
13365.1
13364.6
13364.3
13364.3
13365.1
13366.7
13369.2
13372.7
13377.1
13382.1
13388.1
13394.9
13402.5
13409.9
13418.1
13423.7
13430.6
13435
13438.8
13440.5
13440.8
13440.6
13440
13439.1
13438
13437
13436.3
13436.5
13437.2
13438.7
13441.1
13444.5
13448.6
13453.4
13459.2
13463.8
13469
13471.5
13476.2
13479.9
13480.8
13482.6
13485
13486.9
13489
13491.2
13493.9
13496.9
13500.4
13504.3
13508.8
13514.3
13517.9
13521.7
13524.2
13528.2
13527.7
13527.7
13527.3
13526.7
13525.2
13523.6
13522.2
13520.6
13519.4
13518.3
13516.9
13515.6
13513.4
13511.3
13507.7
13504.2
13499.3
13494.3
13488.6
13483.4
13478.4
13474.1
13470.9
13468.5
13467.3
13466.8
13466.6
13466.3
13463.9
13449.1
2091.6
2061.71
2042.71
2008.87
1971.75
1935.17
1901.03
1872.01
1848.56
1830.58
1817.8
1809.92
1805.76
1804.59
1806.56
1813.79
1824.37
1838.96
1862.58
1889.26
1920.04
1964.54
1997.75
2038.95
2100.34
2115.78
2193.28
2182.22
2234.68
2230.1
2246.94
2241.21
2241.07
2239.62
2225.39
2197.75
2155.83
2108.45
2061.87
2014.59
1985.1
1961.7
1951.21
1955.27
1975.42
2066.66
2452.04
2872.22
3484.83
4160.26
5263.54
6123.63
7167.85
7661.03
8357.9
8701.43
9190.77
9438.58
9749.05
9904.05
10191.6
10321.8
10586.5
10686.5
10907.3
11043.3
11130.3
11281
11352.4
11473.4
11541.7
11639
11697.5
11778.6
11830.5
11901.7
11952.9
12007.4
12056.7
12117.7
12165.7
12225.9
12268.1
12322.4
12361.8
12409.7
12438.6
12469.9
12499.1
12540.9
12573.5
12613.6
12642.7
12683.8
12712.6
12742.9
12764.9
12789.6
12814.7
12842.8
12864.3
12888.4
12907.8
12926.9
12940.5
12955.4
12964
12975
12975.6
12983.4
12995
13009.6
13026.4
13043.2
13055.6
13061
13058.4
13060
13063.6
13071
13080.8
13093.3
13106.7
13122.5
13137
13147.5
13158.8
13171.6
13185.9
13201.5
13216.4
13235.2
13244.7
13259.2
13264.6
13270.8
13274.9
13279.1
13283.6
13288.9
13295
13302
13309.6
13317.6
13324.3
13331.7
13339.3
13344.9
13351.4
13356.1
13361.2
13362.3
13364.5
13364.5
13364.7
13364.4
13364.3
13364.6
13365.5
13367.2
13369.8
13373.4
13377.7
13382.8
13388.7
13395.4
13402.7
13410
13418.1
13423.4
13430.1
13434.4
13438.5
13440.1
13440.6
13440.4
13439.9
13439.1
13438
13437.1
13436.6
13436.8
13437.5
13439.1
13441.5
13444.8
13449
13453.7
13459.3
13464.1
13469.4
13471.7
13476.2
13480.1
13481
13482.7
13485.1
13487
13489.1
13491.3
13494
13497
13500.6
13504.5
13509.1
13514.4
13518.3
13522.2
13524.4
13528.1
13527.9
13527.9
13527.4
13526.7
13525.3
13523.7
13522.2
13520.7
13519.5
13518.4
13517
13515.8
13513.6
13511.5
13508
13504.4
13499.5
13494.5
13488.8
13483.6
13478.7
13474.3
13471.1
13468.8
13467.5
13467
13466.8
13466.6
13463.9
13449
2075.24
2049.12
2032.36
1998.68
1965.58
1930.86
1898.93
1871.52
1849.13
1831.63
1818.88
1810.63
1805.56
1803.32
1804.22
1811.31
1821.34
1834.14
1855.83
1877.32
1903.73
1946.15
1964.04
1986.16
2052.83
2040.16
2087.5
2069.56
2078.16
2060.19
2043.07
2027.86
2001.33
1962.9
1922.83
1885.5
1856.35
1823.67
1789.05
1769.37
1754.88
1742.37
1732.09
1727.43
1727.85
1732.13
1751.87
1785.45
1833.69
1927.31
2524.58
3237.57
4192.57
5388.17
6626.02
7652.13
8470.52
8974.09
9396.13
9668.64
9982.7
10141.8
10439.8
10530.8
10792.7
10939.1
11048.2
11215.5
11286.4
11421.5
11496
11601.1
11662
11749.9
11805.2
11885.6
11944
12002.2
12047.2
12103.5
12147.6
12209.6
12252.5
12308
12347.3
12399.2
12430.9
12464.9
12492.7
12531
12561.3
12603.7
12632.2
12673.5
12702.8
12738.5
12761.3
12786.1
12809.5
12837.7
12859.8
12883.4
12902.6
12922.5
12934.3
12947.2
12952.4
12963.4
12967
12978.4
12992.8
13010.1
13030.1
13047.7
13058.4
13059.6
13055.6
13057.9
13062.1
13071.1
13083.7
13099.3
13115.7
13131.8
13143.6
13150.3
13160.6
13171
13182.8
13196.9
13210.5
13229.3
13238.7
13254.9
13261.5
13269.6
13275
13279.9
13285
13290.6
13296.8
13303.6
13310.7
13318.3
13324.6
13331.5
13338.6
13344.3
13350.6
13355.1
13360.6
13361.6
13363.8
13364
13364.4
13364.3
13364.4
13364.9
13366
13367.9
13370.5
13374
13378.3
13383.4
13389.2
13395.8
13403
13410
13417.9
13423
13429.5
13433.7
13438
13439.5
13440.4
13440.1
13439.7
13439
13438.1
13437.3
13436.8
13437.1
13437.9
13439.4
13441.9
13445.2
13449.3
13453.9
13459.4
13464.4
13469.7
13471.9
13476.2
13480.3
13481.2
13482.9
13485.1
13487.1
13489.2
13491.4
13494.1
13497.2
13500.8
13504.8
13509.3
13514.6
13518.8
13522.7
13524.5
13528.1
13528
13528.1
13527.5
13526.8
13525.4
13523.8
13522.3
13520.8
13519.6
13518.5
13517.2
13515.9
13513.8
13511.7
13508.2
13504.6
13499.8
13494.7
13489
13483.9
13478.9
13474.6
13471.4
13469.1
13467.8
13467.4
13467
13466.9
13463.9
13448.9
2062.36
2041.33
2025.34
1992.58
1963.04
1929.76
1899.66
1873.52
1851.93
1834.84
1822.13
1812.94
1806.43
1803.21
1803.48
1810.18
1818.51
1828.85
1850.03
1864
1885.23
1928.69
1933.77
1936.7
1992.78
1962.47
1976.7
1958.31
1942.7
1922.88
1897.76
1859.53
1828.56
1800.6
1779.98
1758.79
1741.49
1724.01
1720.95
1713.46
1704.6
1698.09
1693.66
1693.2
1694.57
1697.28
1699.33
1703.57
1710.3
1720.94
1745.83
1804.36
1877.5
2509.01
3408.28
4583.05
6163.44
7517.95
8510.43
9132.09
9598.88
9885.89
10233.4
10340.4
10651
10800.9
10952.6
11129.1
11208.3
11363.6
11444.2
11557
11621.2
11717.1
11778.9
11866.7
11932.8
11995
12035.7
12089.4
12130.6
12191.5
12234.8
12292.5
12332
12385.8
12420.6
12459
12486.1
12522.2
12550.1
12592.1
12620.9
12662.8
12692
12731.9
12756.7
12783
12805.2
12832.5
12854.1
12878
12896.4
12916.1
12926.6
12938.2
12939.2
12950.3
12959.1
12975.1
12992.4
13012.1
13034.7
13051.9
13059.5
13058.1
13052.4