/*--------------------------------*- C++ -*----------------------------------*\
| =========                 |                                                 |
| \\      /  F ield         | OpenFOAM: The Open Source CFD Toolbox           |
|  \\    /   O peration     | Version:  2312                                  |
|   \\  /    A nd           | Website:  www.openfoam.com                      |
|    \\/     M anipulation  |                                                 |
\*---------------------------------------------------------------------------*/
FoamFile
{
    version     2.0;
    format      ascii;
    arch        "LSB;label=32;scalar=64";
    class       surfaceScalarField;
    location    "0.001";
    object      phi;
}
// * * * * * * * * * * * * * * * * * * * * * * * * * * * * * * * * * * * * * //

dimensions      [1 0 -1 0 0 0 0];

oriented        oriented;

internalField   nonuniform List<scalar> 
95760
(
3.67782e-09
-3.73377e-09
1.31018e-09
2.31076e-09
-7.54823e-09
8.80205e-09
-2.13411e-08
1.37349e-08
-4.12493e-08
1.98484e-08
-6.39868e-08
2.26756e-08
-8.3409e-08
1.93577e-08
-9.96229e-08
1.61462e-08
-1.1266e-07
1.29688e-08
-1.23256e-07
1.05327e-08
-1.32026e-07
8.71208e-09
-1.39595e-07
7.51654e-09
-1.46287e-07
6.64475e-09
-1.52497e-07
6.16505e-09
-1.58374e-07
5.83683e-09
-1.64078e-07
5.66777e-09
-1.69667e-07
5.557e-09
-1.75119e-07
5.42311e-09
-1.80533e-07
5.38942e-09
-1.86205e-07
5.64995e-09
-1.91567e-07
5.34024e-09
-1.96663e-07
5.0744e-09
-2.01525e-07
4.84229e-09
-2.05735e-07
4.18889e-09
-2.0942e-07
3.6629e-09
-2.12195e-07
2.75262e-09
-2.13285e-07
1.06813e-09
-2.12826e-07
-4.79224e-10
-2.1019e-07
-2.65255e-09
-2.05595e-07
-4.60581e-09
-1.97955e-07
-7.64385e-09
-1.87844e-07
-1.01001e-08
-1.73598e-07
-1.42278e-08
-1.56551e-07
-1.70195e-08
-1.34368e-07
-2.21452e-08
-1.09676e-07
-2.46468e-08
-8.03148e-08
-2.92885e-08
-4.87035e-08
-3.15059e-08
-1.60103e-08
-3.25642e-08
1.58544e-08
-3.1774e-08
4.7676e-08
-3.17062e-08
8.38096e-08
-3.60153e-08
1.23613e-07
-3.96681e-08
1.66649e-07
-4.28741e-08
2.1155e-07
-4.47079e-08
2.57367e-07
-4.56116e-08
3.04429e-07
-4.68595e-08
3.51628e-07
-4.70169e-08
3.99887e-07
-4.80974e-08
4.46614e-07
-4.6596e-08
4.92924e-07
-4.61997e-08
5.37119e-07
-4.41149e-08
5.80823e-07
-4.36462e-08
6.22824e-07
-4.19594e-08
6.64984e-07
-4.21287e-08
7.05154e-07
-4.01253e-08
7.45178e-07
-3.99741e-08
7.82412e-07
-3.71778e-08
8.18779e-07
-3.63011e-08
8.51456e-07
-3.26245e-08
8.84119e-07
-3.26549e-08
9.16128e-07
-3.20158e-08
9.45107e-07
-2.90076e-08
9.74026e-07
-2.89711e-08
1.00096e-06
-2.6982e-08
1.02707e-06
-2.61378e-08
1.05073e-06
-2.36892e-08
1.07344e-06
-2.27485e-08
1.09399e-06
-2.05916e-08
1.11367e-06
-1.97471e-08
1.13189e-06
-1.82831e-08
1.14934e-06
-1.75305e-08
1.16642e-06
-1.71463e-08
1.18362e-06
-1.7262e-08
1.19723e-06
-1.3673e-08
1.20887e-06
-1.16954e-08
1.2206e-06
-1.17844e-08
1.23273e-06
-1.21827e-08
1.24251e-06
-9.80745e-09
1.25171e-06
-9.26302e-09
1.26019e-06
-8.56331e-09
1.2689e-06
-8.79453e-09
1.27881e-06
-1.00083e-08
1.2889e-06
-1.02173e-08
1.29657e-06
-7.8191e-09
1.30385e-06
-7.3784e-09
1.31139e-06
-7.62954e-09
1.31932e-06
-8.03705e-09
1.32581e-06
-6.58072e-09
1.33186e-06
-6.14391e-09
1.33727e-06
-5.4911e-09
1.34292e-06
-5.73056e-09
1.35011e-06
-7.26675e-09
1.35527e-06
-5.22506e-09
1.35982e-06
-4.63006e-09
1.36429e-06
-4.5404e-09
1.3689e-06
-4.67419e-09
1.37336e-06
-4.51779e-09
1.37704e-06
-3.75337e-09
1.38033e-06
-3.37084e-09
1.38415e-06
-3.90466e-09
1.38747e-06
-3.40124e-09
1.39042e-06
-3.049e-09
1.39294e-06
-2.62814e-09
1.39555e-06
-2.73481e-09
1.39834e-06
-2.90178e-09
1.40092e-06
-2.70408e-09
1.40311e-06
-2.32722e-09
1.40551e-06
-2.51251e-09
1.40736e-06
-2.03192e-09
1.40924e-06
-1.90769e-09
1.4108e-06
-1.56155e-09
1.411e-06
-7.69782e-11
1.41163e-06
-4.16649e-10
1.41212e-06
-1.70977e-10
1.41264e-06
-1.58112e-10
1.41359e-06
-5.84122e-10
1.41449e-06
-6.04915e-10
1.41587e-06
-1.17624e-09
1.41678e-06
-8.40155e-10
1.41732e-06
-6.21377e-10
1.41742e-06
-2.85534e-10
1.41716e-06
1.53431e-11
1.4168e-06
9.87108e-11
1.41614e-06
3.75896e-10
1.41585e-06
9.03402e-12
1.4155e-06
8.45385e-11
1.41527e-06
-1.43639e-11
1.41515e-06
-1.09868e-10
1.41524e-06
-3.09722e-10
1.41535e-06
-3.13738e-10
1.41534e-06
-1.8509e-10
1.41553e-06
-3.88982e-10
1.41551e-06
-1.72319e-10
1.41532e-06
-1.13506e-11
1.41504e-06
8.81668e-11
1.41468e-06
1.82603e-10
1.41418e-06
3.33729e-10
1.41367e-06
3.52592e-10
1.41283e-06
6.78618e-10
1.41196e-06
7.28804e-10
1.4111e-06
7.06549e-10
1.41015e-06
7.97937e-10
1.40927e-06
7.33107e-10
1.40834e-06
7.70857e-10
1.40744e-06
7.34798e-10
1.40656e-06
7.29839e-10
1.40567e-06
7.32822e-10
1.40479e-06
7.24683e-10
1.40396e-06
6.74458e-10
1.40314e-06
6.60287e-10
1.4023e-06
6.87745e-10
1.40144e-06
7.05996e-10
1.40058e-06
7.0665e-10
1.39966e-06
7.54404e-10
1.39872e-06
7.85982e-10
1.39773e-06
8.31427e-10
1.39662e-06
9.7062e-10
1.39552e-06
9.64566e-10
1.39434e-06
1.05725e-09
1.39317e-06
1.04833e-09
1.39196e-06
1.10029e-09
1.39064e-06
1.22149e-09
1.38932e-06
1.21814e-09
1.38801e-06
1.2266e-09
1.38668e-06
1.26594e-09
1.38541e-06
1.20555e-09
1.38419e-06
1.18734e-09
1.38302e-06
1.13697e-09
1.38194e-06
1.06967e-09
1.3808e-06
1.15007e-09
1.37993e-06
8.83079e-10
1.379e-06
9.20232e-10
1.37806e-06
8.98888e-10
1.37711e-06
9.1019e-10
1.37616e-06
9.0056e-10
1.37518e-06
9.19147e-10
1.37417e-06
9.41567e-10
1.3731e-06
9.97275e-10
1.372e-06
1.03779e-09
1.37081e-06
1.11527e-09
1.36961e-06
1.14924e-09
1.36836e-06
1.20339e-09
1.3671e-06
1.22546e-09
1.36583e-06
1.26435e-09
1.3646e-06
1.24736e-09
1.36333e-06
1.3018e-09
1.36212e-06
1.27233e-09
1.36087e-06
1.34707e-09
1.35976e-06
1.14988e-09
1.35858e-06
1.19483e-09
1.35748e-06
1.09462e-09
1.35627e-06
1.19246e-09
1.35526e-06
9.44079e-10
1.35428e-06
9.13153e-10
1.35326e-06
9.40405e-10
1.35224e-06
9.15181e-10
1.35124e-06
9.21776e-10
1.35027e-06
8.97065e-10
1.34927e-06
9.31703e-10
1.34829e-06
9.01339e-10
1.34729e-06
9.3932e-10
1.34629e-06
9.28451e-10
1.34523e-06
9.72893e-10
1.34416e-06
9.70198e-10
1.34304e-06
1.03632e-09
1.34204e-06
8.17107e-10
1.34094e-06
8.53574e-10
1.33986e-06
7.72894e-10
1.3387e-06
7.72577e-10
1.33782e-06
4.61265e-10
1.33688e-06
4.8103e-10
1.33591e-06
4.49693e-10
1.3349e-06
4.50659e-10
1.33391e-06
4.07581e-10
1.33287e-06
4.18801e-10
1.33179e-06
4.37638e-10
1.33064e-06
4.85749e-10
1.32947e-06
4.74061e-10
1.32826e-06
4.91256e-10
1.32702e-06
4.77878e-10
1.32573e-06
4.87389e-10
1.32445e-06
4.1575e-10
1.3231e-06
4.29718e-10
1.32179e-06
3.08517e-10
1.32045e-06
2.67662e-10
1.31911e-06
2.22372e-10
1.31773e-06
1.96254e-10
1.31632e-06
2.11786e-10
1.31488e-06
2.25437e-10
1.31339e-06
2.66318e-10
1.31187e-06
3.21668e-10
1.31038e-06
3.58992e-10
1.30893e-06
3.98248e-10
1.30755e-06
4.01223e-10
1.30622e-06
4.5505e-10
1.30505e-06
3.86102e-10
1.30392e-06
4.36796e-10
1.30317e-06
2.09423e-10
4.9089e-10
3.31858e-10
-4.12163e-09
-9.22309e-09
1.18092e-08
-2.36727e-08
2.31951e-08
-4.36165e-08
3.36205e-08
-6.61444e-08
4.23161e-08
-8.62223e-08
4.26913e-08
-1.04066e-07
3.71372e-08
-1.19075e-07
3.10874e-08
-1.31361e-07
2.51874e-08
-1.41119e-07
2.02303e-08
-1.48826e-07
1.63619e-08
-1.55235e-07
1.38744e-08
-1.60636e-07
1.19993e-08
-1.65235e-07
1.07202e-08
-1.69304e-07
9.86592e-09
-1.72987e-07
9.31576e-09
-1.76402e-07
8.93952e-09
-1.79737e-07
8.72995e-09
-1.82937e-07
8.56366e-09
-1.85378e-07
8.06812e-09
-1.87598e-07
7.54091e-09
-1.88961e-07
6.4183e-09
-1.89369e-07
5.2329e-09
-1.89062e-07
3.86489e-09
-1.87482e-07
2.06426e-09
-1.84523e-07
-2.26949e-10
-1.80184e-07
-3.29205e-09
-1.74591e-07
-6.09296e-09
-1.67053e-07
-1.02091e-08
-1.57165e-07
-1.45065e-08
-1.43996e-07
-2.08199e-08
-1.28155e-07
-2.59335e-08
-1.08086e-07
-3.42779e-08
-8.42406e-08
-4.08361e-08
-5.60865e-08
-5.02609e-08
-2.48765e-08
-5.58051e-08
1.12528e-08
-6.53581e-08
5.13501e-08
-7.14914e-08
9.29797e-08
-7.40638e-08
1.39446e-07
-7.81134e-08
1.8972e-07
-8.18566e-08
2.41529e-07
-8.76991e-08
2.92859e-07
-9.08546e-08
3.44948e-07
-9.47933e-08
3.98261e-07
-9.78196e-08
4.52132e-07
-9.9267e-08
5.06824e-07
-1.01331e-07
5.61672e-07
-1.0167e-07
6.17032e-07
-1.03282e-07
6.70486e-07
-9.99012e-08
7.23272e-07
-9.88593e-08
7.73875e-07
-9.46205e-08
8.23615e-07
-9.33075e-08
8.71592e-07
-8.98765e-08
9.18576e-07
-8.90649e-08
9.63495e-07
-8.49901e-08
1.00745e-06
-8.38767e-08
1.04859e-06
-7.82463e-08
1.08856e-06
-7.62021e-08
1.12532e-06
-6.93307e-08
1.16132e-06
-6.86346e-08
1.19624e-06
-6.69317e-08
1.2286e-06
-6.13882e-08
1.25996e-06
-6.03665e-08
1.28939e-06
-5.64403e-08
1.31774e-06
-5.45e-08
1.34394e-06
-4.99092e-08
1.36903e-06
-4.78604e-08
1.3923e-06
-4.38955e-08
1.41456e-06
-4.20557e-08
1.43544e-06
-3.92159e-08
1.45527e-06
-3.74243e-08
1.47446e-06
-3.63887e-08
1.49299e-06
-3.58494e-08
1.51328e-06
-3.40038e-08
1.52898e-06
-2.74483e-08
1.54211e-06
-2.49657e-08
1.55514e-06
-2.52481e-08
1.57193e-06
-2.66267e-08
1.58429e-06
-2.17066e-08
1.59507e-06
-1.94406e-08
1.60556e-06
-1.93802e-08
1.61753e-06
-2.20907e-08
1.62899e-06
-2.18197e-08
1.64201e-06
-2.10063e-08
1.65263e-06
-1.80989e-08
1.66213e-06
-1.7237e-08
1.67106e-06
-1.70711e-08
1.68276e-06
-1.83786e-08
1.69147e-06
-1.49304e-08
1.69905e-06
-1.31458e-08
1.70649e-06
-1.32353e-08
1.71412e-06
-1.49688e-08
1.72425e-06
-1.54175e-08
1.73159e-06
-1.20503e-08
1.73796e-06
-1.0984e-08
1.7439e-06
-1.06985e-08
1.75219e-06
-1.28726e-08
1.7582e-06
-9.84429e-09
1.76356e-06
-8.81502e-09
1.76861e-06
-9.0429e-09
1.77576e-06
-1.06421e-08
1.78081e-06
-8.20688e-09
1.78529e-06
-7.2236e-09
1.78953e-06
-7.10133e-09
1.79439e-06
-7.89057e-09
1.79882e-06
-7.27192e-09
1.80299e-06
-6.65919e-09
1.80689e-06
-6.55822e-09
1.81047e-06
-5.79882e-09
1.81384e-06
-5.37525e-09
1.81696e-06
-4.68609e-09
1.81995e-06
-3.00961e-09
1.82261e-06
-2.9453e-09
1.82502e-06
-2.35932e-09
1.82767e-06
-2.54505e-09
1.8301e-06
-2.74782e-09
1.8323e-06
-2.57886e-09
1.83465e-06
-3.37302e-09
1.83649e-06
-2.64386e-09
1.83821e-06
-2.45026e-09
1.83968e-06
-1.92903e-09
1.84121e-06
-1.79567e-09
1.84274e-06
-1.78575e-09
1.84435e-06
-1.63542e-09
1.84571e-06
-1.74062e-09
1.8475e-06
-2.07168e-09
1.84956e-06
-2.41634e-09
1.85148e-06
-2.32645e-09
1.85314e-06
-2.23456e-09
1.85458e-06
-1.9856e-09
1.85564e-06
-1.48924e-09
1.8566e-06
-1.59618e-09
1.85734e-06
-1.16156e-09
1.85827e-06
-1.20396e-09
1.85864e-06
-5.52467e-10
1.85897e-06
-4.06527e-10
1.85901e-06
3.21214e-11
1.85927e-06
-1.70983e-10
1.85929e-06
4.0493e-10
1.85926e-06
5.17008e-10
1.85929e-06
4.22435e-10
1.85931e-06
5.351e-10
1.8594e-06
3.97351e-10
1.85948e-06
4.47252e-10
1.85958e-06
3.7815e-10
1.8596e-06
4.58408e-10
1.85962e-06
4.5595e-10
1.85957e-06
5.1741e-10
1.8595e-06
4.63634e-10
1.85942e-06
4.66315e-10
1.85921e-06
6.32163e-10
1.85892e-06
7.0954e-10
1.85861e-06
7.38425e-10
1.85819e-06
8.82226e-10
1.85775e-06
9.37122e-10
1.8572e-06
1.10296e-09
1.85662e-06
1.28324e-09
1.85597e-06
1.36139e-09
1.85531e-06
1.47992e-09
1.85452e-06
1.59535e-09
1.8537e-06
1.67451e-09
1.85287e-06
1.81938e-09
1.85201e-06
1.84261e-09
1.85118e-06
1.83315e-09
1.85032e-06
1.91833e-09
1.84958e-06
1.75505e-09
1.84882e-06
1.78174e-09
1.84806e-06
1.72168e-09
1.84736e-06
1.60893e-09
1.84649e-06
1.87531e-09
1.84593e-06
1.28273e-09
1.84519e-06
1.48773e-09
1.84438e-06
1.48603e-09
1.84352e-06
1.56442e-09
1.84263e-06
1.5761e-09
1.84165e-06
1.66909e-09
1.8406e-06
1.7473e-09
1.83945e-06
1.88477e-09
1.83824e-06
1.9768e-09
1.83693e-06
2.14491e-09
1.83564e-06
2.18913e-09
1.8343e-06
2.29854e-09
1.83298e-06
2.31454e-09
1.83165e-06
2.38923e-09
1.83038e-06
2.34153e-09
1.82907e-06
2.44952e-09
1.82783e-06
2.36978e-09
1.82648e-06
2.57915e-09
1.82531e-06
2.16618e-09
1.82406e-06
2.25658e-09
1.82293e-06
2.0153e-09
1.82147e-06
2.44537e-09
1.82036e-06
1.80425e-09
1.81925e-06
1.75567e-09
1.81807e-06
1.84558e-09
1.81684e-06
1.85533e-09
1.81562e-06
1.87228e-09
1.81444e-06
1.80504e-09
1.81323e-06
1.88632e-09
1.81205e-06
1.82012e-09
1.81082e-06
1.90929e-09
1.80961e-06
1.87292e-09
1.80832e-06
1.98772e-09
1.80704e-06
1.95592e-09
1.80562e-06
2.19038e-09
1.8044e-06
1.6608e-09
1.8031e-06
1.72853e-09
1.80189e-06
1.51584e-09
1.80038e-06
1.74337e-09
1.79935e-06
9.35461e-10
1.79815e-06
1.07043e-09
1.79694e-06
9.9692e-10
1.79562e-06
1.0686e-09
1.79435e-06
9.36216e-10
1.79303e-06
9.78761e-10
1.79165e-06
1.02273e-09
1.79018e-06
1.12992e-09
1.78872e-06
1.08342e-09
1.78719e-06
1.13809e-09
1.78567e-06
1.06891e-09
1.78406e-06
1.12172e-09
1.7825e-06
9.30354e-10
1.78083e-06
9.96977e-10
1.77923e-06
7.2328e-10
1.77755e-06
6.87151e-10
1.77589e-06
5.62598e-10
1.77415e-06
5.41728e-10
1.77236e-06
5.55174e-10
1.77048e-06
6.03392e-10
1.76855e-06
6.6403e-10
1.76657e-06
7.65247e-10
1.76463e-06
8.03678e-10
1.76271e-06
8.59129e-10
1.76087e-06
8.33449e-10
1.75906e-06
9.04898e-10
1.75738e-06
7.5448e-10
1.7557e-06
8.52668e-10
1.75406e-06
6.32371e-10
8.4424e-10
-6.62961e-09
2.45242e-09
-1.87877e-08
2.39105e-08
-3.66828e-08
4.10325e-08
-5.85252e-08
5.54038e-08
-7.82625e-08
6.19923e-08
-9.54659e-08
5.98315e-08
-1.10259e-07
5.18652e-08
-1.22055e-07
4.28149e-08
-1.31347e-07
3.44121e-08
-1.38917e-07
2.77367e-08
-1.45198e-07
2.25829e-08
-1.50094e-07
1.87157e-08
-1.54025e-07
1.58796e-08
-1.57153e-07
1.37997e-08
-1.59727e-07
1.23952e-08
-1.61925e-07
1.14739e-08
-1.63851e-07
1.08276e-08
-1.65218e-07
1.00632e-08
-1.66002e-07
9.31754e-09
-1.66274e-07
8.31344e-09
-1.65771e-07
7.01345e-09
-1.64541e-07
5.16569e-09
-1.62458e-07
3.13024e-09
-1.59224e-07
6.11287e-10
-1.54653e-07
-2.52526e-09
-1.48711e-07
-6.18858e-09
-1.41051e-07
-1.09712e-08
-1.31364e-07
-1.57977e-08
-1.18958e-07
-2.26306e-08
-1.03797e-07
-2.96783e-08
-8.46792e-08
-3.99436e-08
-6.20185e-08
-4.85882e-08
-3.49217e-08
-6.13493e-08
-3.93731e-09
-7.17764e-08
3.27994e-08
-8.6958e-08
7.23182e-08
-9.52633e-08
1.17289e-07
-1.10249e-07
1.65874e-07
-1.19963e-07
2.16649e-07
-1.24696e-07
2.72425e-07
-1.33744e-07
3.31482e-07
-1.40779e-07
3.91329e-07
-1.47406e-07
4.50755e-07
-1.50122e-07
5.11019e-07
-1.54873e-07
5.71962e-07
-1.58547e-07
6.33091e-07
-1.60163e-07
6.94568e-07
-1.62569e-07
7.55689e-07
-1.62578e-07
8.16498e-07
-1.63903e-07
8.74737e-07
-1.57981e-07
9.314e-07
-1.55387e-07
9.85384e-07
-1.48498e-07
1.03785e-06
-1.45685e-07
1.08803e-06
-1.39988e-07
1.13628e-06
-1.37257e-07
1.18203e-06
-1.30678e-07
1.22601e-06
-1.27792e-07
1.26694e-06
-1.19114e-07
1.30626e-06
-1.15439e-07
1.34276e-06
-1.05777e-07
1.37795e-06
-1.03809e-07
1.41147e-06
-1.00443e-07
1.44296e-06
-9.29007e-08
1.47281e-06
-9.02429e-08
1.50065e-06
-8.43036e-08
1.5272e-06
-8.10603e-08
1.55171e-06
-7.44305e-08
1.57509e-06
-7.1263e-08
1.59681e-06
-6.56589e-08
1.61764e-06
-6.2948e-08
1.63723e-06
-5.88572e-08
1.65593e-06
-5.61973e-08
1.67387e-06
-5.43885e-08
1.69119e-06
-5.32286e-08
1.7101e-06
-5.29522e-08
1.72658e-06
-4.39857e-08
1.7398e-06
-3.82461e-08
1.7522e-06
-3.76969e-08
1.76765e-06
-4.21081e-08
1.78104e-06
-3.51939e-08
1.79204e-06
-3.05472e-08
1.8028e-06
-3.02561e-08
1.81409e-06
-3.35078e-08
1.8257e-06
-3.3575e-08
1.83868e-06
-3.41621e-08
1.85011e-06
-2.96527e-08
1.85961e-06
-2.6846e-08
1.86881e-06
-2.63684e-08
1.87997e-06
-2.96337e-08
1.88963e-06
-2.46709e-08
1.89766e-06
-2.12405e-08
1.90537e-06
-2.10132e-08
1.91312e-06
-2.27715e-08
1.92273e-06
-2.50938e-08
1.93094e-06
-2.03228e-08
1.93765e-06
-1.77813e-08
1.94408e-06
-1.72038e-08
1.95197e-06
-2.08393e-08
1.95887e-06
-1.68258e-08
1.96473e-06
-1.47624e-08
1.97025e-06
-1.46525e-08
1.9773e-06
-1.77885e-08
1.98321e-06
-1.42236e-08
1.98829e-06
-1.24229e-08
1.99306e-06
-1.20034e-08
1.99812e-06
-1.30778e-08
2.00299e-06
-1.22897e-08
2.00756e-06
-1.13984e-08
2.01182e-06
-1.09778e-08
2.0158e-06
-9.93454e-09
2.01922e-06
-8.93875e-09
2.02248e-06
-7.93964e-09
2.02601e-06
-6.45523e-09
2.029e-06
-5.79415e-09
2.03189e-06
-5.02763e-09
2.03515e-06
-5.53449e-09
2.0383e-06
-5.64374e-09
2.04124e-06
-5.31176e-09
2.04377e-06
-5.76726e-09
2.04574e-06
-4.60654e-09
2.04771e-06
-4.55301e-09
2.04945e-06
-3.86869e-09
2.05178e-06
-4.41023e-09
2.05394e-06
-4.27715e-09
2.05658e-06
-4.65671e-09
2.05888e-06
-4.41947e-09
2.06167e-06
-5.20938e-09
2.06469e-06
-5.76587e-09
2.06751e-06
-5.45117e-09
2.06996e-06
-4.96239e-09
2.0721e-06
-4.37981e-09
2.07385e-06
-3.48464e-09
2.07518e-06
-3.18947e-09
2.07616e-06
-2.40956e-09
2.07722e-06
-2.54506e-09
2.07807e-06
-1.67842e-09
2.07877e-06
-1.38942e-09
2.0793e-06
-7.75067e-10
2.07987e-06
-1.02014e-09
2.08029e-06
-3.04061e-10
2.08069e-06
-1.58701e-10
2.0812e-06
-3.70582e-10
2.08181e-06
-3.59258e-10
2.08237e-06
-4.45074e-10
2.08295e-06
-4.17918e-10
2.08342e-06
-3.84127e-10
2.08379e-06
-2.12971e-10
2.08415e-06
-2.08263e-10
2.08427e-06
9.36357e-11
2.08455e-06
-1.35325e-10
2.08468e-06
6.23493e-12
2.08466e-06
3.32758e-10
2.08462e-06
4.08576e-10
2.08447e-06
5.3998e-10
2.08421e-06
7.97039e-10
2.08393e-06
8.69589e-10
2.08354e-06
1.153e-09
2.08318e-06
1.32372e-09
2.08272e-06
1.50471e-09
2.08228e-06
1.61491e-09
2.08171e-06
1.86652e-09
2.0811e-06
1.97877e-09
2.08053e-06
2.09681e-09
2.07994e-06
2.13979e-09
2.0794e-06
2.10231e-09
2.07883e-06
2.22706e-09
2.07837e-06
1.96365e-09
2.07787e-06
2.06027e-09
2.07734e-06
2.01868e-09
2.07685e-06
1.87421e-09
2.0762e-06
2.30591e-09
2.07567e-06
1.58944e-09
2.075e-06
1.90537e-09
2.07424e-06
1.94357e-09
2.07342e-06
2.09941e-09
2.07252e-06
2.1807e-09
2.07152e-06
2.35827e-09
2.07043e-06
2.50198e-09
2.06924e-06
2.72044e-09
2.06799e-06
2.86342e-09
2.06665e-06
3.11189e-09
2.06534e-06
3.16028e-09
2.06398e-06
3.31594e-09
2.06266e-06
3.31043e-09
2.06134e-06
3.41753e-09
2.06008e-06
3.32708e-09
2.05878e-06
3.48414e-09
2.05756e-06
3.34281e-09
2.05625e-06
3.67946e-09
2.05499e-06
3.1606e-09
2.05371e-06
3.2502e-09
2.05256e-06
2.85164e-09
2.05105e-06
3.64941e-09
2.04976e-06
2.73533e-09
2.04855e-06
2.60109e-09
2.04726e-06
2.76189e-09
2.04589e-06
2.82858e-09
2.04453e-06
2.85572e-09
2.04324e-06
2.73097e-09
2.04191e-06
2.85592e-09
2.04062e-06
2.75241e-09
2.03928e-06
2.89305e-09
2.03797e-06
2.81465e-09
2.03656e-06
3.01211e-09
2.0352e-06
2.92599e-09
2.03368e-06
3.33501e-09
2.03227e-06
2.59781e-09
2.03085e-06
2.63444e-09
2.02953e-06
2.26437e-09
2.02788e-06
2.76408e-09
2.02658e-06
1.59383e-09
2.02517e-06
1.78359e-09
2.02376e-06
1.6563e-09
2.02224e-06
1.80551e-09
2.02077e-06
1.59278e-09
2.01924e-06
1.65687e-09
2.01768e-06
1.71214e-09
2.01604e-06
1.87086e-09
2.01441e-06
1.78478e-09
2.0127e-06
1.88383e-09
2.01102e-06
1.73875e-09
2.00924e-06
1.84339e-09
2.00751e-06
1.53765e-09
2.00565e-06
1.65588e-09
2.00384e-06
1.25902e-09
2.00194e-06
1.2421e-09
2.00006e-06
1.01918e-09
1.99809e-06
9.98312e-10
1.99608e-06
1.0074e-09
1.99398e-06
1.07428e-09
1.99183e-06
1.14568e-09
1.98963e-06
1.27067e-09
1.98748e-06
1.28776e-09
1.98534e-06
1.34865e-09
1.98329e-06
1.26193e-09
1.98124e-06
1.3494e-09
1.97931e-06
1.10314e-09
1.97735e-06
1.23661e-09
1.97536e-06
1.0756e-09
1.22825e-09
-1.103e-08
1.34266e-08
-2.74251e-08
4.02482e-08
-4.71551e-08
6.07037e-08
-6.63586e-08
7.45463e-08
-8.31455e-08
7.87158e-08
-9.70844e-08
7.37051e-08
-1.08196e-07
6.29094e-08
-1.17419e-07
5.19678e-08
-1.2501e-07
4.19344e-08
-1.30949e-07
3.36105e-08
-1.35401e-07
2.69735e-08
-1.38732e-07
2.1988e-08
-1.41235e-07
1.83272e-08
-1.43104e-07
1.56158e-08
-1.44508e-07
1.3749e-08
-1.45445e-07
1.23628e-08
-1.45859e-07
1.11965e-08
-1.45861e-07
1.00236e-08
-1.45279e-07
8.69823e-09
-1.44016e-07
7.01721e-09
-1.41905e-07
4.8727e-09
-1.38838e-07
2.07364e-09
-1.34723e-07
-1.00552e-09
-1.29206e-07
-4.9245e-09
-1.21953e-07
-9.79343e-09
-1.12851e-07
-1.53054e-08
-1.01318e-07
-2.25173e-08
-8.71663e-08
-2.99627e-08
-6.94125e-08
-4.03964e-08
-4.83221e-08
-5.07755e-08
-2.2561e-08
-6.57054e-08
7.37446e-09
-7.85211e-08
4.34822e-08
-9.74229e-08
8.38754e-08
-1.12124e-07
1.30457e-07
-1.33485e-07
1.80469e-07
-1.45204e-07
2.36467e-07
-1.66161e-07
2.95775e-07
-1.79149e-07
3.57314e-07
-1.86075e-07
4.2303e-07
-1.99297e-07
4.91359e-07
-2.08956e-07
5.59871e-07
-2.15758e-07
6.28946e-07
-2.19023e-07
6.98084e-07
-2.23808e-07
7.67748e-07
-2.2798e-07
8.36438e-07
-2.28603e-07
9.05614e-07
-2.31482e-07
9.73162e-07
-2.29899e-07
1.03921e-06
-2.29753e-07
1.10154e-06
-2.20138e-07
1.16114e-06
-2.1485e-07
1.21698e-06
-2.04224e-07
1.2712e-06
-1.99816e-07
1.32176e-06
-1.90466e-07
1.37038e-06
-1.85819e-07
1.41559e-06
-1.75805e-07
1.45838e-06
-1.70496e-07
1.49759e-06
-1.58247e-07
1.53491e-06
-1.5266e-07
1.56948e-06
-1.4029e-07
1.60231e-06
-1.36621e-07
1.63275e-06
-1.30856e-07
1.66157e-06
-1.21753e-07
1.68853e-06
-1.17231e-07
1.71315e-06
-1.08935e-07
1.73633e-06
-1.04246e-07
1.75754e-06
-9.56521e-08
1.77775e-06
-9.15118e-08
1.79645e-06
-8.44105e-08
1.81444e-06
-8.10128e-08
1.83133e-06
-7.58263e-08
1.8476e-06
-7.2552e-08
1.863e-06
-6.98505e-08
1.87766e-06
-6.79631e-08
1.89363e-06
-6.89789e-08
1.90904e-06
-5.94655e-08
1.92117e-06
-5.04461e-08
1.93244e-06
-4.90353e-08
1.94494e-06
-5.46553e-08
1.95725e-06
-4.76129e-08
1.96792e-06
-4.13327e-08
1.97794e-06
-4.04122e-08
1.98758e-06
-4.32879e-08
1.99812e-06
-4.42653e-08
2.00961e-06
-4.58339e-08
2.02042e-06
-4.0594e-08
2.0294e-06
-3.59505e-08
2.03801e-06
-3.50845e-08
2.04752e-06
-3.92352e-08
2.05667e-06
-3.38909e-08
2.06453e-06
-2.91675e-08
2.07172e-06
-2.82607e-08
2.07877e-06
-2.98827e-08
2.08686e-06
-3.32366e-08
2.09467e-06
-2.82058e-08
2.10122e-06
-2.44049e-08
2.10745e-06
-2.35104e-08
2.11411e-06
-2.75765e-08
2.12065e-06
-2.34483e-08
2.12634e-06
-2.05435e-08
2.1318e-06
-2.02118e-08
2.13783e-06
-2.39142e-08
2.14355e-06
-2.00502e-08
2.14862e-06
-1.76201e-08
2.15331e-06
-1.68178e-08
2.15786e-06
-1.7773e-08
2.16246e-06
-1.70364e-08
2.16675e-06
-1.58585e-08
2.17066e-06
-1.50656e-08
2.17421e-06
-1.36126e-08
2.17725e-06
-1.21359e-08
2.18001e-06
-1.06728e-08
2.18327e-06
-9.61481e-09
2.18606e-06
-8.40463e-09
2.1888e-06
-7.52196e-09
2.19191e-06
-8.36485e-09
2.19522e-06
-8.69109e-09
2.19824e-06
-8.13841e-09
2.20043e-06
-7.83748e-09
2.20218e-06
-6.36898e-09
2.20389e-06
-6.4123e-09
2.20553e-06
-5.74464e-09
2.20794e-06
-7.10531e-09
2.21014e-06
-6.82907e-09
2.21303e-06
-7.92479e-09
2.21581e-06
-7.58407e-09
2.21924e-06
-8.99689e-09
2.22273e-06
-9.5818e-09
2.22594e-06
-8.96069e-09
2.22874e-06
-8.03794e-09
2.23115e-06
-7.04567e-09
2.23309e-06
-5.67775e-09
2.23457e-06
-4.92547e-09
2.23566e-06
-3.76879e-09
2.23658e-06
-3.74995e-09
2.23744e-06
-2.81825e-09
2.23814e-06
-2.37222e-09
2.23873e-06
-1.65366e-09
2.23935e-06
-1.91755e-09
2.23997e-06
-1.2106e-09
2.2407e-06
-1.16636e-09
2.24138e-06
-1.33036e-09
2.24216e-06
-1.43217e-09
2.24289e-06
-1.46131e-09
2.24365e-06
-1.47318e-09
2.24429e-06
-1.32483e-09
2.24488e-06
-1.12023e-09
2.24538e-06
-1.0214e-09
2.2456e-06
-4.53978e-10
2.24585e-06
-7.21356e-10
2.24607e-06
-5.70207e-10
2.24603e-06
2.30109e-11
2.246e-06
6.65762e-11
2.24585e-06
3.17141e-10
2.24559e-06
6.82724e-10
2.2453e-06
7.79452e-10
2.24494e-06
1.14172e-09
2.24459e-06
1.30642e-09
2.24419e-06
1.56128e-09
2.24379e-06
1.67725e-09
2.24332e-06
2.00825e-09
2.24281e-06
2.15567e-09
2.24236e-06
2.21287e-09
2.24191e-06
2.27626e-09
2.2415e-06
2.20629e-09
2.24113e-06
2.30438e-09
2.24078e-06
2.04504e-09
2.2404e-06
2.18908e-09
2.24002e-06
2.12434e-09
2.23962e-06
2.01167e-09
2.23912e-06
2.5565e-09
2.23853e-06
1.91616e-09
2.23786e-06
2.29014e-09
2.23712e-06
2.35127e-09
2.23629e-06
2.5999e-09
2.23535e-06
2.78281e-09
2.23429e-06
3.05216e-09
2.23315e-06
3.26411e-09
2.2319e-06
3.56523e-09
2.23059e-06
3.75852e-09
2.2292e-06
4.07715e-09
2.22784e-06
4.12714e-09
2.22644e-06
4.31831e-09
2.22509e-06
4.28214e-09
2.22374e-06
4.41309e-09
2.22246e-06
4.27055e-09
2.22116e-06
4.46824e-09
2.21994e-06
4.25702e-09
2.21864e-06
4.70832e-09
2.21731e-06
4.16307e-09
2.21598e-06
4.22567e-09
2.2148e-06
3.6584e-09
2.21325e-06
4.82424e-09
2.21181e-06
3.75594e-09
2.21048e-06
3.50211e-09
2.20907e-06
3.72013e-09
2.20758e-06
3.85744e-09
2.2061e-06
3.89503e-09
2.20469e-06
3.70611e-09
2.20324e-06
3.87006e-09
2.20185e-06
3.72701e-09
2.2004e-06
3.91593e-09
2.19899e-06
3.78606e-09
2.19749e-06
4.06873e-09
2.19605e-06
3.90953e-09
2.19445e-06
4.48852e-09
2.19289e-06
3.63145e-09
2.19134e-06
3.59906e-09
2.1899e-06
3.06262e-09
2.18815e-06
3.82601e-09
2.18659e-06
2.43807e-09
2.18499e-06
2.62857e-09
2.18339e-06
2.44877e-09
2.18168e-06
2.67068e-09
2.18e-06
2.3926e-09
2.17829e-06
2.47304e-09
2.17655e-06
2.52069e-09
2.17475e-06
2.72408e-09
2.17295e-06
2.59733e-09
2.17109e-06
2.74046e-09
2.16925e-06
2.50963e-09
2.16732e-06
2.66803e-09
2.16542e-06
2.25476e-09
2.16341e-06
2.424e-09
2.16141e-06
1.92437e-09
2.15931e-06
1.93552e-09
2.15722e-06
1.61675e-09
2.15506e-06
1.5853e-09
2.15284e-06
1.59036e-09
2.15054e-06
1.66269e-09
2.1482e-06
1.73385e-09
2.14583e-06
1.86021e-09
2.14351e-06
1.84127e-09
2.14121e-06
1.88595e-09
2.13899e-06
1.72571e-09
2.13677e-06
1.81926e-09
2.13466e-06
1.46406e-09
2.1325e-06
1.61776e-09
2.13029e-06
1.53285e-09
1.6676e-09
-1.51757e-08
2.85455e-08
-3.41992e-08
5.92125e-08
-5.24497e-08
7.88934e-08
-6.90739e-08
9.11072e-08
-8.28791e-08
9.24554e-08
-9.34934e-08
8.42519e-08
-1.02302e-07
7.16482e-08
-1.09369e-07
5.89635e-08
-1.14995e-07
4.74896e-08
-1.19279e-07
3.7826e-08
-1.22385e-07
3.00139e-08
-1.24595e-07
2.41347e-08
-1.26145e-07
1.98156e-08
-1.271e-07
1.6512e-08
-1.27461e-07
1.40517e-08
-1.274e-07
1.22456e-08
-1.26912e-07
1.06552e-08
-1.25856e-07
8.91839e-09
-1.24094e-07
6.89167e-09
-1.21523e-07
4.40606e-09
-1.17908e-07
1.22387e-09
-1.13e-07
-2.86125e-09
-1.0668e-07
-7.34712e-09
-9.85782e-08
-1.30412e-08
-8.82019e-08
-2.01806e-08
-7.54319e-08
-2.8084e-08
-5.94161e-08
-3.85401e-08
-4.01791e-08
-4.92055e-08
-1.62289e-08
-6.43503e-08
1.20295e-08
-7.9039e-08
4.6701e-08
-1.00369e-07
8.65365e-08
-1.18342e-07
1.34112e-07
-1.44961e-07
1.8659e-07
-1.64555e-07
2.46933e-07
-1.93756e-07
3.10884e-07
-2.09087e-07
3.81065e-07
-2.36231e-07
4.53508e-07
-2.51466e-07
5.30158e-07
-2.62537e-07
6.06845e-07
-2.75804e-07
6.87454e-07
-2.89411e-07
7.65888e-07
-2.94009e-07
8.4791e-07
-3.00849e-07
9.26613e-07
-3.02298e-07
1.00708e-06
-3.08197e-07
1.08397e-06
-3.05232e-07
1.16251e-06
-3.0974e-07
1.23719e-06
-3.04333e-07
1.308e-06
-3.00353e-07
1.37375e-06
-2.8571e-07
1.43559e-06
-2.76551e-07
1.49233e-06
-2.60844e-07
1.54688e-06
-2.54272e-07
1.59606e-06
-2.39564e-07
1.64336e-06
-2.33047e-07
1.68602e-06
-2.18371e-07
1.72557e-06
-2.09948e-07
1.76096e-06
-1.93548e-07
1.79447e-06
-1.86066e-07
1.82527e-06
-1.71037e-07
1.85367e-06
-1.64988e-07
1.87872e-06
-1.55874e-07
1.90281e-06
-1.4587e-07
1.92519e-06
-1.39622e-07
1.94465e-06
-1.28399e-07
1.96314e-06
-1.22741e-07
1.9799e-06
-1.12443e-07
1.99588e-06
-1.07549e-07
2.01061e-06
-9.92157e-08
2.02483e-06
-9.53165e-08
2.03801e-06
-8.91059e-08
2.05083e-06
-8.54747e-08
2.06261e-06
-8.17208e-08
2.07378e-06
-7.92118e-08
2.0857e-06
-8.09734e-08
2.0984e-06
-7.22514e-08
2.10931e-06
-6.14445e-08
2.119e-06
-5.88036e-08
2.12721e-06
-6.29373e-08
2.13709e-06
-5.76109e-08
2.14699e-06
-5.13634e-08
2.15563e-06
-4.92107e-08
2.16328e-06
-5.10842e-08
2.17147e-06
-5.2624e-08
2.18057e-06
-5.51072e-08
2.19005e-06
-5.023e-08
2.19826e-06
-4.42918e-08
2.20579e-06
-4.27262e-08
2.21255e-06
-4.60795e-08
2.22041e-06
-4.1815e-08
2.22764e-06
-3.64591e-08
2.23382e-06
-3.45068e-08
2.23945e-06
-3.5563e-08
2.24518e-06
-3.90292e-08
2.25164e-06
-3.47233e-08
2.25796e-06
-3.08012e-08
2.26346e-06
-2.90883e-08
2.26823e-06
-3.24196e-08
2.27358e-06
-2.88923e-08
2.27902e-06
-2.60789e-08
2.28387e-06
-2.51558e-08
2.28815e-06
-2.82961e-08
2.29301e-06
-2.50218e-08
2.29781e-06
-2.25511e-08
2.30182e-06
-2.09631e-08
2.30545e-06
-2.1545e-08
2.30926e-06
-2.09981e-08
2.31276e-06
-1.9532e-08
2.31583e-06
-1.83187e-08
2.31848e-06
-1.63885e-08
2.32066e-06
-1.44259e-08
2.32258e-06
-1.25631e-08
2.32502e-06
-1.19317e-08
2.32718e-06
-1.03668e-08
2.32952e-06
-9.59891e-09
2.33204e-06
-1.06086e-08
2.33508e-06
-1.14694e-08
2.33762e-06
-1.04962e-08
2.33919e-06
-9.31412e-09
2.34036e-06
-7.5793e-09
2.34143e-06
-7.66747e-09
2.34273e-06
-7.29627e-09
2.34471e-06
-9.39197e-09
2.34668e-06
-9.164e-09
2.34918e-06
-1.0813e-08
2.35239e-06
-1.11747e-08
2.35614e-06
-1.30989e-08
2.35964e-06
-1.34135e-08
2.36288e-06
-1.25015e-08
2.36572e-06
-1.11481e-08
2.3681e-06
-9.67883e-09
2.36995e-06
-7.7808e-09
2.37132e-06
-6.55706e-09
2.37227e-06
-4.9795e-09
2.3729e-06
-4.65832e-09
2.37347e-06
-3.67606e-09
2.37394e-06
-3.11698e-09
2.37435e-06
-2.35072e-09
2.37476e-06
-2.60983e-09
2.37529e-06
-2.02013e-09
2.37601e-06
-2.17003e-09
2.37661e-06
-2.20746e-09
2.37735e-06
-2.46754e-09
2.37809e-06
-2.48682e-09
2.37884e-06
-2.52493e-09
2.37945e-06
-2.24381e-09
2.38002e-06
-2.0158e-09
2.38047e-06
-1.80209e-09
2.3807e-06
-1.01333e-09
2.38082e-06
-1.19046e-09
2.38095e-06
-1.06423e-09
2.3809e-06
-2.89444e-10
2.38076e-06
-1.83425e-10
2.38049e-06
2.00574e-10
2.38013e-06
6.51408e-10
2.37971e-06
7.89901e-10
2.37927e-06
1.19883e-09
2.37883e-06
1.36847e-09
2.37836e-06
1.65875e-09
2.37787e-06
1.80875e-09
2.37739e-06
2.13101e-09
2.37689e-06
2.3046e-09
2.37644e-06
2.31657e-09
2.37599e-06
2.38967e-09
2.37564e-06
2.23283e-09
2.37526e-06
2.3743e-09
2.37493e-06
2.09052e-09
2.37455e-06
2.28499e-09
2.37421e-06
2.18236e-09
2.37381e-06
2.13219e-09
2.37338e-06
2.71386e-09
2.37269e-06
2.32238e-09
2.37195e-06
2.72706e-09
2.37116e-06
2.78301e-09
2.37025e-06
3.15304e-09
2.36922e-06
3.44753e-09
2.36806e-06
3.81795e-09
2.36681e-06
4.09965e-09
2.36546e-06
4.48549e-09
2.36404e-06
4.7291e-09
2.36255e-06
5.11206e-09
2.36108e-06
5.15846e-09
2.35959e-06
5.37658e-09
2.35815e-06
5.29979e-09
2.35672e-06
5.44585e-09
2.35538e-06
5.24106e-09
2.35401e-06
5.4702e-09
2.35274e-06
5.18295e-09
2.3514e-06
5.73168e-09
2.34998e-06
5.21322e-09
2.34858e-06
5.23401e-09
2.34731e-06
4.49827e-09
2.34571e-06
6.00767e-09
2.34412e-06
4.8752e-09
2.34262e-06
4.51366e-09
2.34108e-06
4.7628e-09
2.33945e-06
4.97234e-09
2.33783e-06
5.02604e-09
2.33627e-06
4.77104e-09
2.3347e-06
4.96953e-09
2.33317e-06
4.78323e-09
2.33159e-06
5.01742e-09
2.33007e-06
4.82773e-09
2.32844e-06
5.19463e-09
2.32689e-06
4.95198e-09
2.3252e-06
5.68716e-09
2.32347e-06
4.77675e-09
2.32177e-06
4.6554e-09
2.32021e-06
3.93911e-09
2.31832e-06
4.96176e-09
2.31653e-06
3.46379e-09
2.31472e-06
3.62589e-09
2.31292e-06
3.39428e-09
2.31101e-06
3.6838e-09
2.30912e-06
3.35675e-09
2.3072e-06
3.45124e-09
2.30527e-06
3.47814e-09
2.30328e-06
3.71775e-09
2.30131e-06
3.5499e-09
2.29926e-06
3.7345e-09
2.29725e-06
3.41272e-09
2.29515e-06
3.62157e-09
2.29308e-06
3.10739e-09
2.29088e-06
3.32566e-09
2.2887e-06
2.73674e-09
2.2864e-06
2.7795e-09
2.28409e-06
2.37903e-09
2.28173e-06
2.32885e-09
2.27929e-06
2.32947e-09
2.27679e-06
2.39691e-09
2.27426e-06
2.45734e-09
2.2717e-06