/*--------------------------------*- C++ -*----------------------------------*\
| =========                 |                                                 |
| \\      /  F ield         | OpenFOAM: The Open Source CFD Toolbox           |
|  \\    /   O peration     | Version:  2312                                  |
|   \\  /    A nd           | Website:  www.openfoam.com                      |
|    \\/     M anipulation  |                                                 |
\*---------------------------------------------------------------------------*/
FoamFile
{
    version     2.0;
    format      ascii;
    arch        "LSB;label=32;scalar=64";
    class       volScalarField;
    location    "0.001";
    object      rho;
}
// * * * * * * * * * * * * * * * * * * * * * * * * * * * * * * * * * * * * * //

dimensions      [1 -3 0 0 0 0 0];

internalField   nonuniform List<scalar> 
48128
(
0.0337455
0.0336691
0.0336654
0.0334151
0.0331876
0.0327679
0.0320728
0.0312678
0.030491
0.0298947
0.0294999
0.0292399
0.0291386
0.0291798
0.029318
0.0295528
0.0298885
0.0303245
0.0308649
0.0315499
0.0324031
0.0333598
0.0344725
0.0357684
0.0372515
0.0389315
0.0407983
0.0429068
0.0452543
0.0478225
0.0506446
0.0536364
0.0569627
0.0603893
0.0641832
0.0679399
0.0719901
0.0760387
0.080144
0.0839486
0.0877346
0.0917381
0.0956675
0.099609
0.103532
0.10737
0.111103
0.114676
0.118177
0.121387
0.124586
0.127463
0.130355
0.132939
0.135527
0.137797
0.140064
0.141969
0.14392
0.145538
0.147201
0.148766
0.149981
0.151341
0.15232
0.153328
0.154076
0.154848
0.155458
0.156075
0.156613
0.157091
0.157538
0.157819
0.157885
0.159158
0.159706
0.159708
0.159589
0.160625
0.161055
0.161182
0.16137
0.161672
0.161834
0.162543
0.162938
0.163035
0.162985
0.163683
0.163939
0.163972
0.164001
0.163953
0.164445
0.164636
0.164594
0.164486
0.164842
0.164961
0.164909
0.164806
0.165103
0.165198
0.165158
0.165123
0.165143
0.16513
0.165064
0.16499
0.164851
0.164682
0.164479
0.164381
0.164286
0.164196
0.164163
0.164138
0.163998
0.16381
0.163555
0.163325
0.163104
0.16304
0.162986
0.163078
0.163166
0.163296
0.163418
0.163512
0.163546
0.163554
0.16348
0.163413
0.163239
0.163095
0.162941
0.1628
0.162665
0.162567
0.162469
0.162394
0.162328
0.162279
0.16224
0.162184
0.162133
0.162065
0.162013
0.161903
0.161809
0.161722
0.16161
0.161488
0.161363
0.16123
0.161108
0.160985
0.160873
0.160767
0.160675
0.160596
0.160519
0.160455
0.160405
0.160364
0.160333
0.160307
0.160281
0.160252
0.160236
0.160176
0.160108
0.160042
0.159956
0.159864
0.159769
0.159673
0.159576
0.159483
0.159393
0.159312
0.159239
0.159174
0.159118
0.159073
0.159038
0.159014
0.159007
0.158963
0.158933
0.158913
0.158901
0.158828
0.158777
0.158732
0.158691
0.158633
0.158583
0.158538
0.158495
0.158454
0.158418
0.158386
0.158362
0.158353
0.158296
0.158255
0.158223
0.158196
0.158086
0.158016
0.15793
0.157841
0.157736
0.157637
0.157534
0.157426
0.157322
0.157215
0.157104
0.156992
0.156868
0.156745
0.156601
0.156459
0.156298
0.156144
0.155979
0.155819
0.155664
0.155516
0.155384
0.155264
0.155166
0.155077
0.155005
0.154943
0.15489
0.154721
0.0337979
0.0337334
0.0337143
0.0335055
0.0332887
0.032852
0.032219
0.0315089
0.0308647
0.0304571
0.0302046
0.0300051
0.0299522
0.030024
0.0301808
0.0304246
0.0307603
0.0311966
0.031724
0.03236
0.0331156
0.0340289
0.0350881
0.0363315
0.0377427
0.0393321
0.0411118
0.0430952
0.0452898
0.0476988
0.0503813
0.0532465
0.0564564
0.0597922
0.0634515
0.0672437
0.0712856
0.0752235
0.0794188
0.083558
0.0876591
0.0917686
0.0958598
0.0999598
0.10403
0.108033
0.111951
0.11575
0.119495
0.122984
0.126445
0.129588
0.13273
0.135583
0.138408
0.140924
0.143407
0.145558
0.147738
0.149619
0.151544
0.153296
0.154756
0.156337
0.157533
0.158749
0.159723
0.160716
0.161553
0.162392
0.163148
0.163834
0.164488
0.164923
0.165255
0.166808
0.167581
0.167724
0.167826
0.169075
0.169704
0.16999
0.170304
0.17073
0.171087
0.172002
0.172554
0.172767
0.172888
0.173763
0.174183
0.174361
0.174479
0.174584
0.175265
0.175605
0.175681
0.175708
0.17622
0.176483
0.176541
0.176571
0.177014
0.177239
0.177313
0.177383
0.177513
0.177617
0.177653
0.177687
0.177652
0.177587
0.177532
0.177558
0.177574
0.177592
0.177649
0.177712
0.177633
0.177517
0.177345
0.177211
0.177092
0.177118
0.177134
0.177329
0.177498
0.17772
0.177925
0.178087
0.17818
0.178245
0.178216
0.178198
0.178076
0.177976
0.177859
0.177748
0.177647
0.177571
0.177501
0.177458
0.177424
0.177411
0.177408
0.177388
0.177373
0.177338
0.177319
0.177242
0.177179
0.177123
0.177037
0.176941
0.176839
0.17673
0.17663
0.176523
0.176431
0.176341
0.176267
0.176199
0.176137
0.176086
0.176047
0.176017
0.175998
0.175983
0.17597
0.175951
0.175943
0.175896
0.175837
0.175782
0.175703
0.175618
0.175529
0.175437
0.175342
0.175247
0.175153
0.17507
0.174992
0.174923
0.174861
0.174811
0.174769
0.174737
0.174722
0.174675
0.174639
0.174615
0.1746
0.174526
0.174475
0.174428
0.174384
0.174321
0.174266
0.174214
0.174165
0.174117
0.174073
0.174031
0.173996
0.173976
0.173914
0.173866
0.17383
0.173803
0.173696
0.173628
0.173543
0.173453
0.173347
0.173245
0.173138
0.173023
0.172913
0.172799
0.17268
0.172559
0.172428
0.172297
0.172149
0.172003
0.171837
0.171675
0.1715
0.171326
0.171153
0.170982
0.170826
0.170676
0.170547
0.170422
0.170314
0.170209
0.170114
0.169886
0.0338892
0.0337879
0.0337222
0.0335445
0.0332304
0.0327721
0.0321682
0.0315391
0.030969
0.0305265
0.0302094
0.0300255
0.029987
0.0300583
0.0302104
0.0304437
0.0307615
0.0311628
0.0316635
0.0322904
0.033057
0.0339341
0.0349661
0.0361632
0.0375274
0.0390665
0.0408055
0.0427451
0.044915
0.0472973
0.0499674
0.0528063
0.0559944
0.0594337
0.0629781
0.0668922
0.0710664
0.0752531
0.0795102
0.0838322
0.0881403
0.0924449
0.0967213
0.101019
0.105286
0.10949
0.11362
0.117621
0.121551
0.125206
0.128835
0.13213
0.135424
0.138398
0.141336
0.143937
0.146494
0.148706
0.150953
0.152899
0.154938
0.156696
0.158202
0.159854
0.161071
0.162323
0.163323
0.164359
0.165229
0.166117
0.166909
0.167653
0.168356
0.168833
0.169179
0.170758
0.171643
0.171888
0.172035
0.173271
0.174002
0.1744
0.174771
0.175228
0.175604
0.176594
0.177225
0.177504
0.177675
0.178563
0.179068
0.179335
0.179512
0.179629
0.180342
0.180762
0.180913
0.180968
0.181524
0.181854
0.181986
0.182043
0.182536
0.182823
0.182964
0.183081
0.183253
0.183407
0.183489
0.183565
0.183572
0.183543
0.183526
0.183609
0.183675
0.183746
0.183857
0.183975
0.183941
0.18386
0.183724
0.183629
0.183553
0.183636
0.183712
0.183961
0.184185
0.184458
0.184709
0.184921
0.185055
0.185162
0.185171
0.185186
0.18509
0.185022
0.184941
0.184868
0.184801
0.184755
0.184715
0.184701
0.184696
0.184713
0.184739
0.184747
0.184756
0.184746
0.18475
0.184691
0.184648
0.184609
0.184539
0.184459
0.184374
0.18428
0.184194
0.184104
0.184027
0.183953
0.183894
0.183841
0.183795
0.18376
0.183736
0.183722
0.183719
0.183718
0.183719
0.183712
0.183716
0.183681
0.183629
0.183582
0.183511
0.183433
0.18335
0.183263
0.183172
0.183082
0.182992
0.182912
0.182839
0.182773
0.182714
0.182667
0.182627
0.182599
0.182585
0.182539
0.182505
0.182483
0.182469
0.182396
0.182345
0.182298
0.182255
0.182191
0.182136
0.182083
0.182034
0.181984
0.181939
0.181895
0.181859
0.181838
0.181774
0.181725
0.181689
0.181661
0.181554
0.181485
0.181399
0.18131
0.181203
0.181101
0.180993
0.180877
0.180766
0.180651
0.18053
0.180408
0.180275
0.180142
0.179992
0.179844
0.179675
0.179511
0.179331
0.179152
0.178973
0.178795
0.17863
0.17847
0.178329
0.17819
0.178065
0.177941
0.17782
0.177563
0.0340397
0.0338416
0.0337576
0.0334804
0.0330987
0.032597
0.0320091
0.0313845
0.0308392
0.0304475
0.0301746
0.0300008
0.029967
0.0300346
0.0301851
0.0304074
0.030707
0.0310893
0.0315674
0.0321515
0.0328644
0.0337091
0.0347032
0.0358641
0.0372025
0.0387185
0.0404469
0.0423634
0.0445222
0.0468782
0.0495687
0.0524671
0.0556388
0.0591598
0.0629888
0.0669653
0.0712911
0.0756498
0.0800644
0.0846202
0.089126
0.0936485
0.0981262
0.102689
0.107176
0.111618
0.115976
0.120208
0.124322
0.128123
0.131919
0.135343
0.138783
0.141852
0.144873
0.147533
0.150133
0.152353
0.154612
0.156561
0.15868
0.160363
0.161845
0.163511
0.164686
0.16592
0.166884
0.167917
0.168758
0.169651
0.17042
0.171174
0.17188
0.172354
0.172715
0.17412
0.17506
0.175428
0.175627
0.176711
0.177475
0.17799
0.178398
0.178843
0.179209
0.180165
0.180827
0.181175
0.181387
0.182192
0.18273
0.183078
0.183292
0.18342
0.184063
0.184525
0.184741
0.184825
0.185339
0.185702
0.185893
0.185974
0.186437
0.186757
0.186948
0.187087
0.187267
0.18744
0.18754
0.18763
0.187649
0.187633
0.187625
0.187731
0.18782
0.187917
0.188051
0.188197
0.188185
0.18812
0.188003
0.187928
0.187874
0.187981
0.188086
0.188364
0.188633
0.188942
0.189218
0.189459
0.189623
0.189757
0.189793
0.189832
0.189755
0.189705
0.189644
0.189594
0.189548
0.189528
0.189518
0.18953
0.189549
0.189588
0.189637
0.189664
0.189694
0.189704
0.189725
0.189683
0.189654
0.189626
0.18957
0.189501
0.189427
0.189345
0.189271
0.189194
0.189129
0.189068
0.189022
0.188982
0.18895
0.188928
0.188919
0.188917
0.188929
0.18894
0.188953
0.188957
0.188972
0.188948
0.188902
0.188862
0.188797
0.188726
0.188648
0.188567
0.18848
0.188394
0.188309
0.188235
0.188165
0.188104
0.18805
0.188007
0.187971
0.187946
0.187937
0.187894
0.187861
0.18784
0.187829
0.187758
0.187706
0.187659
0.187617
0.187553
0.187498
0.187446
0.187397
0.187348
0.187303
0.187259
0.187223
0.187202
0.187138
0.187088
0.187051
0.187023
0.186914
0.186843
0.186757
0.186666
0.18656
0.186456
0.186348
0.186232
0.186121
0.186005
0.185885
0.185762
0.185629
0.185495
0.185343
0.185194
0.185024
0.184857
0.184676
0.184494
0.184311
0.18413
0.183961
0.183796
0.183649
0.183502
0.183368
0.183232
0.183097
0.182819
0.0341213
0.0338888
0.0336949
0.0333469
0.0328927
0.0323674
0.0317709
0.0311866
0.0306831
0.0303029
0.0300464
0.0298957
0.0298779
0.0299466
0.0300927
0.0303023
0.0305887
0.0309527
0.0314106
0.0319753
0.032667
0.033497
0.0344773
0.0356304
0.036964
0.0384672
0.0401969
0.0421024
0.0442874
0.0466656
0.0494111
0.0524233
0.0558087
0.0594317
0.0634781
0.0675951
0.0721432
0.0766528
0.0812912
0.0862075
0.0909
0.0956705
0.100347
0.10524
0.10993
0.11465
0.11924
0.12372
0.128017
0.131967
0.135935
0.13951
0.143105
0.146247
0.149331
0.152017
0.154624
0.156824
0.159077
0.161004
0.163184
0.164754
0.16619
0.167832
0.168937
0.170119
0.171016
0.172023
0.172807
0.173678
0.174392
0.175126
0.175795
0.17625
0.17662
0.177767
0.178707
0.179217
0.179476
0.18033
0.181086
0.181714
0.182142
0.182556
0.18292
0.183749
0.184408
0.184834
0.185086
0.185748
0.186289
0.186712
0.186949
0.187081
0.18761
0.188079
0.188358
0.18848
0.188899
0.189273
0.189514
0.189625
0.190007
0.190343
0.190573
0.190719
0.190889
0.191059
0.191161
0.191247
0.191262
0.191249
0.191237
0.191347
0.191451
0.191562
0.191703
0.191853
0.191847
0.191787
0.19168
0.191617
0.191575
0.191687
0.191814
0.192102
0.192408
0.192735
0.193023
0.19328
0.193462
0.193611
0.193666
0.193722
0.193658
0.193615
0.193565
0.193528
0.193494
0.193487
0.193493
0.193522
0.193556
0.193611
0.193675
0.193716
0.19376
0.193782
0.193816
0.193789
0.193769
0.193753
0.19371
0.19365
0.193585
0.193512
0.193448
0.19338
0.193325
0.193274
0.193237
0.193207
0.193185
0.193173
0.193174
0.193183
0.193204
0.193224
0.193247
0.193259
0.193282
0.193267
0.193225
0.193191
0.193131
0.193064
0.192991
0.192912
0.192829
0.192746
0.192664
0.192593
0.192526
0.192468
0.192417
0.192377
0.192344
0.192321
0.192316
0.192274
0.192243
0.192221
0.192212
0.192143
0.19209
0.192042
0.191999
0.191936
0.191881
0.191827
0.191778
0.191728
0.191682
0.191638
0.191602
0.191581
0.191516
0.191464
0.191425
0.191397
0.191287
0.191212
0.191124
0.191032
0.190923
0.190818
0.190708
0.190591
0.190479
0.190362
0.19024
0.190117
0.189982
0.189847
0.189694
0.189542
0.18937
0.189201
0.189017
0.188833
0.188648
0.188463
0.188291
0.188122
0.187971
0.187819
0.187677
0.187533
0.187388
0.187094
0.0341729
0.03387
0.0335856
0.0331579
0.0326577
0.0321161
0.0315152
0.0309485
0.0304826
0.0301328
0.0298996
0.0297727
0.0297652
0.0298306
0.029978
0.0301789
0.0304567
0.0308103
0.0312559
0.0318083
0.0324906
0.0333232
0.0342987
0.0354463
0.0367859
0.0382818
0.0400337
0.0419685
0.0442401
0.0467319
0.0496278
0.0527532
0.0563476
0.0601728
0.0644673
0.068756
0.0736499
0.0783499
0.0831484
0.0885381
0.0934357
0.0984234
0.103265
0.108409
0.113243
0.118181
0.122954
0.12756
0.131877
0.135995
0.140085
0.143942
0.147719
0.15102
0.154214
0.156925
0.159582
0.161746
0.164087
0.165987
0.168263
0.169698
0.171144
0.172792
0.173778
0.174963
0.175772
0.17677
0.177475
0.178322
0.178959
0.179652
0.180249
0.18069
0.181073
0.181896
0.182827
0.183447
0.183768
0.184394
0.185133
0.185815
0.186265
0.186645
0.186998
0.187647
0.188285
0.188767
0.189055
0.189564
0.19008
0.190543
0.19079
0.190934
0.191325
0.191787
0.192098
0.192251
0.192568
0.192935
0.193196
0.193332
0.193625
0.193957
0.194205
0.194351
0.194498
0.194645
0.194734
0.194799
0.194796
0.194775
0.194756
0.194848
0.194957
0.19508
0.19522
0.195351
0.195337
0.195278
0.195176
0.195119
0.195082
0.195181
0.19533
0.195627
0.195947
0.196278
0.196569
0.196838
0.197027
0.197178
0.197246
0.197308
0.197252
0.197211
0.197164
0.197132
0.197104
0.197101
0.197117
0.197154
0.197198
0.19726
0.197332
0.19738
0.197433
0.197462
0.197502
0.197486
0.197471
0.197459
0.197428
0.197375
0.197318
0.197252
0.197195
0.197134
0.197085
0.19704
0.197007
0.196984
0.196969
0.196964
0.196971
0.196986
0.197014
0.197039
0.197068
0.197084
0.197113
0.197104
0.197063
0.197033
0.196974
0.196909
0.196838
0.19676
0.196678
0.196596
0.196515
0.196445
0.196379
0.196321
0.196271
0.196232
0.196199
0.196177
0.196173
0.196132
0.196101
0.196077
0.196067
0.196
0.195944
0.195894
0.195849
0.195784
0.195727
0.195671
0.19562
0.195568
0.195521
0.195474
0.195436
0.195414
0.195347
0.195293
0.19525
0.19522
0.195108
0.195028
0.194936
0.194841
0.19473
0.194621
0.194508
0.194388
0.194274
0.194155
0.19403
0.193905
0.193768
0.193631
0.193475
0.19332
0.193145
0.192973
0.192786
0.192598
0.19241
0.192222
0.192046
0.191873
0.191718
0.191561
0.191414
0.191263
0.191109
0.190803
0.0341523
0.0337788
0.033428
0.0329448
0.0324198
0.031859
0.0312392
0.0307008
0.0302677
0.0299484
0.0297416
0.0296375
0.0296403
0.0297064
0.0298554
0.0300585
0.0303307
0.0306801
0.0311216
0.0316717
0.0323539
0.0331944
0.0341689
0.0353094
0.0366681
0.0381988
0.0400195
0.0420521
0.0444612
0.0470796
0.0501794
0.0535201
0.0573392
0.0613946
0.0660892
0.0704579
0.0755568
0.0803839
0.0851413
0.0908205
0.0958973
0.101165
0.106271
0.111718
0.116808
0.122
0.12698
0.131577
0.135902
0.140029
0.144348
0.148433
0.152486
0.155995
0.159426
0.162213
0.164964
0.167205
0.169667
0.171515
0.173872
0.175281
0.176714
0.178415
0.179265
0.180475
0.181164
0.182153
0.182756
0.183584
0.184113
0.184776
0.1853
0.185721
0.186084
0.186675
0.187494
0.188264
0.188618
0.189116
0.189758
0.190469
0.190946
0.19129
0.191587
0.192057
0.192637
0.193158
0.193455
0.193847
0.194298
0.194779
0.195026
0.195167
0.195443
0.19585
0.19616
0.196327
0.196566
0.196896
0.197144
0.197293
0.197512
0.197808
0.198043
0.198184
0.198298
0.198408
0.198467
0.198496
0.198464
0.198426
0.198403
0.198459
0.198563
0.198696
0.198827
0.198914
0.198879
0.198817
0.198721
0.198654
0.198632
0.198706
0.198876
0.199181
0.199494
0.199816
0.2001
0.200368
0.200555
0.20071
0.200773
0.200834
0.20078
0.200732
0.200684
0.200648
0.200624
0.20062
0.200639
0.200678
0.200725
0.200789
0.200862
0.200911
0.200966
0.200995
0.201036
0.201027
0.201012
0.201
0.200976
0.200926
0.200874
0.200813
0.200757
0.2007
0.200652
0.20061
0.200579
0.200558
0.200546
0.200542
0.200551
0.200568
0.200598
0.200623
0.200656
0.200671
0.200701
0.200693
0.200652
0.200622
0.200562
0.200495
0.200423
0.200344
0.20026
0.200176
0.200093
0.200021
0.199953
0.199894
0.199841
0.1998
0.199766
0.199742
0.199736
0.199693
0.19966
0.199632
0.199618
0.199552
0.199492
0.199436
0.199387
0.19932
0.199259
0.199199
0.199144
0.199088
0.199037
0.198987
0.198945
0.19892
0.198851
0.198792
0.198744
0.19871
0.198594
0.198508
0.198412
0.198312
0.198196
0.198083
0.197965
0.197841
0.197723
0.1976
0.197472
0.197343
0.197202
0.197061
0.196902
0.196743
0.196564
0.196387
0.196195
0.196003
0.19581
0.195618
0.195438
0.195262
0.195101
0.19494
0.194788
0.19463
0.194468
0.194151
0.0340791
0.0336233
0.0332383
0.0327283
0.0321885
0.0315807
0.0309656
0.0304602
0.0300592
0.0297703
0.0295879
0.0295049
0.0295166
0.0295885
0.0297404
0.0299508
0.0302219
0.0305726
0.0310206
0.0315724
0.0322552
0.0331036
0.0340819
0.0352543
0.0366585
0.0382798
0.0402153
0.0423586
0.0449573
0.0477797
0.0510865
0.0547097
0.0588098
0.0625934
0.0673898
0.0717316
0.0768118
0.0819477
0.087091
0.0929276
0.098421
0.104112
0.109684
0.115452
0.120963
0.126366
0.131723
0.136192
0.140701
0.144696
0.149347
0.153267
0.157598
0.161176
0.164866
0.167785
0.170712
0.173095
0.175703
0.177626
0.179973
0.181475
0.183005
0.184618
0.185458
0.186644
0.187319
0.188281
0.188841
0.189637
0.190091
0.190715
0.191142
0.191562
0.19186
0.192291
0.192931
0.193741
0.194123
0.194546
0.195084
0.195756
0.196222
0.196552
0.196771
0.197115
0.197578
0.198116
0.198405
0.198721
0.199089
0.199534
0.199796
0.199926
0.200105
0.200411
0.200708
0.200868
0.201041
0.201299
0.201532
0.201666
0.201816
0.202045
0.202251
0.20238
0.202451
0.202507
0.20252
0.202494
0.202423
0.202363
0.202319
0.202344
0.202436
0.202574
0.202664
0.202698
0.202642
0.202564
0.202469
0.202388
0.202377
0.202438
0.202617
0.202919
0.203211
0.20351
0.203775
0.204032
0.204204
0.20435
0.204404
0.204455
0.204392
0.204333
0.20428
0.20424
0.204213
0.204206
0.204222
0.204258
0.2043
0.20436
0.204424
0.204468
0.204519
0.204542
0.204577
0.204569
0.204552
0.204539
0.204519
0.204466
0.204413
0.20435
0.204291
0.204231
0.204181
0.204135
0.204102
0.204078
0.204063
0.204058
0.204063
0.204077
0.204104
0.204126
0.204156
0.204167
0.204193
0.204182
0.204138
0.204104
0.204038
0.203967
0.20389
0.203806
0.203717
0.203628
0.20354
0.203463
0.20339
0.203326
0.203269
0.203223
0.203184
0.203156
0.203144
0.203098
0.203061
0.203025
0.203004
0.202937
0.20287
0.202807
0.202751
0.202679
0.202612
0.202547
0.202485
0.202424
0.202368
0.202312
0.202264
0.202234
0.20216
0.202096
0.202041
0.202
0.20188
0.201786
0.201683
0.201576
0.201455
0.201335
0.201211
0.201081
0.200957
0.200829
0.200696
0.200562
0.200416
0.20027
0.200105
0.19994
0.199756
0.199573
0.199376
0.199179
0.19898
0.198783
0.198598
0.198417
0.198251
0.198085
0.197926
0.197762
0.197592
0.197265
0.0339387
0.0334208
0.0330311
0.0325055
0.0319464
0.0313015
0.0307177
0.0302397
0.0298677
0.0296064
0.0294475
0.0293831
0.0294017
0.0294831
0.029643
0.0298617
0.030138
0.0304982
0.0309543
0.0315047
0.0321864
0.0330767
0.034073
0.0353265
0.0368252
0.0385256
0.0406211
0.0429312
0.0456949
0.0488005
0.0522767
0.0555151
0.0597852
0.0634063
0.0681447
0.0726623
0.0778525
0.0834166
0.0891585
0.0952055
0.101502
0.107624
0.113823
0.119732
0.125756
0.131087
0.136914
0.141082
0.145834
0.149733
0.154557
0.158275
0.16271
0.166036
0.169888
0.172874
0.176083
0.178718
0.18154
0.183682
0.186055
0.187706
0.189493
0.190953
0.191959
0.193201
0.19401
0.195012
0.19562
0.196428
0.196872
0.197495
0.19787
0.198324
0.198568
0.198835
0.199299
0.200031
0.200466
0.200856
0.201283
0.201876
0.202294
0.202611
0.202772
0.202969
0.203299
0.203793
0.20408
0.204306
0.204578
0.204959
0.205222
0.205317
0.2054
0.205588
0.205839
0.205986
0.20609
0.206261
0.206465
0.206578
0.206656
0.206803
0.206966
0.207074
0.207091
0.207087
0.207022
0.206937
0.206822
0.206733
0.206666
0.20666
0.206731
0.206856
0.206885
0.206854
0.20677
0.206684
0.206589
0.206504
0.206488
0.206536
0.206716
0.206997
0.207248
0.207508
0.207739
0.207968
0.208114
0.208238
0.208271
0.208303
0.208224
0.208155
0.208096
0.208051
0.208016
0.207998
0.208001
0.208024
0.208053
0.208099
0.208144
0.208174
0.208214
0.208223
0.208247
0.20824
0.208219
0.208195
0.208167
0.208104
0.208043
0.207971
0.207903
0.207834
0.207775
0.207721
0.207679
0.207648
0.207625
0.207611
0.207608
0.207614
0.207633
0.207646
0.20767
0.207671
0.207688
0.207668
0.207619
0.207577
0.2075
0.207421
0.207335
0.207243
0.207146
0.207048
0.206951
0.206867
0.206785
0.206713
0.206648
0.206594
0.206548
0.206511
0.206491
0.206438
0.206396
0.206348
0.206315
0.206246
0.206169
0.206096
0.206031
0.205952
0.205877
0.205803
0.205733
0.205664
0.2056
0.205537
0.205482
0.205444
0.205364
0.205293
0.205228
0.205179
0.205053
0.204949
0.204837
0.204722
0.204594
0.204465
0.204333
0.204196
0.204065
0.20393
0.20379
0.203649
0.203497
0.203343
0.203172
0.203
0.20281
0.202619
0.202414
0.202211
0.202005
0.201802
0.201611
0.201424
0.201252
0.20108
0.200915
0.200744
0.200564
0.200228
0.0337347
0.0331883
0.0328099
0.0322877
0.0316945
0.0310507
0.0304998
0.0300457
0.0297001
0.0294632
0.0293252
0.0292765
0.0293043
0.029397
0.0295682
0.0297989
0.030085
0.0304484
0.0309169
0.0314852
0.032178
0.0331468
0.0342121
0.0355121
0.0371483
0.0389698
0.0411985
0.0437629
0.0466205
0.0493968
0.0530441
0.0559019
0.0601738
0.063481
0.0683192
0.0725905
0.077725
0.0833172
0.0897566
0.0955667
0.103416
0.109264
0.117185
0.123031
0.129814
0.13549
0.141936
0.14611
0.151155
0.154991
0.159801
0.163256
0.167461
0.170484
0.174314
0.177048
0.180457
0.183317
0.186493
0.188923
0.191426
0.193195
0.195302
0.196665
0.197969
0.199393
0.200427
0.201535
0.2023
0.203177
0.203749
0.204448
0.204886
0.205466
0.205744
0.205992
0.206359
0.206972
0.2075
0.207986
0.208345
0.208829
0.209193
0.209519
0.209674
0.209765
0.209923
0.210304
0.210566
0.210748
0.210919
0.211196
0.211411
0.211507
0.211509
0.211566
0.211726
0.211858
0.211902
0.211979
0.212114
0.212199
0.212207
0.212253
0.212344
0.212408
0.212348
0.212272
0.212111
0.211962
0.211814
0.211702
0.211618
0.211586
0.211621
0.211712
0.211657
0.211566
0.211459
0.211383
0.211291
0.211203
0.211159
0.21118
0.211334
0.211563
0.211751
0.211955
0.212135
0.212316
0.212422
0.212506
0.212505
0.212516
0.212432
0.212364
0.212297
0.212238
0.212187
0.212148
0.212123
0.212116
0.212118
0.212138
0.212151
0.212158
0.212178
0.21217
0.212179
0.212156
0.212124
0.212075
0.212029
0.211945
0.211866
0.211777
0.211691
0.211606
0.21153
0.21146
0.211402
0.211355
0.211318
0.211289
0.211272
0.211263
0.211266
0.211265
0.211278
0.211263
0.211264
0.211229
0.211171
0.211115
0.211025
0.210932
0.210833
0.210728
0.210618
0.210507
0.210398
0.210301
0.210207
0.210123
0.210046
0.20998
0.209922
0.209873
0.209841
0.209779
0.209729
0.209665
0.209618
0.209544
0.209453
0.209368
0.209291
0.209202
0.209117
0.209032
0.208952
0.208873
0.208799
0.208726
0.208661
0.208612
0.208525
0.208446
0.208368
0.208307
0.208173
0.208058
0.207936
0.207811
0.207673
0.207534
0.207393
0.207247
0.207107
0.206963
0.206814
0.206666
0.206505
0.206343
0.206163
0.205982
0.205784
0.205583
0.205371
0.205159
0.204946
0.204735
0.204536
0.204343
0.204163
0.203985
0.203812
0.203633
0.203443
0.203097
0.0334885
0.0329402
0.0325842
0.0320718
0.0314508
0.0308365
0.0303127
0.0298825
0.0295611
0.0293459
0.029225
0.0291905
0.0292305
0.0293355
0.02952
0.0297655
0.0300546
0.0304262
0.0309291
0.0315511
0.032281
0.0332956
0.0344656
0.0358473
0.0376109
0.039594
0.0419255
0.0443808
0.0473306
0.0496254
0.0530545
0.0557865
0.0595246
0.0630044
0.0668213
0.0712191
0.0756503
0.0807891
0.0864106
0.0927216
0.0992251
0.106389
0.113697
0.120128
0.127768
0.133513
0.140388
0.145702
0.152029
0.157214
0.162825
0.166726
0.171376
0.174579
0.178301
0.180825
0.184221
0.187012
0.19034
0.192844
0.195592
0.197482
0.19983
0.201297
0.202939
0.204593
0.205819
0.207078
0.208006
0.209009
0.209762
0.210594
0.211194
0.211926
0.212356
0.212748
0.213161
0.213706
0.214386
0.215076
0.215481
0.21595
0.21634
0.216775
0.21698
0.217095
0.217181
0.217398
0.217679
0.217904
0.218015
0.218177
0.218359
0.218486
0.218456
0.218394
0.218443
0.218548
0.218551
0.218533
0.218582
0.218629
0.218568
0.218514
0.21851
0.218509
0.218362
0.218229
0.217991
0.217824
0.217704
0.21761
0.217533
0.217448
0.217392
0.217386
0.21722
0.217094
0.216986
0.216891
0.216791
0.216694
0.216579
0.216531
0.216605
0.21674
0.216841
0.216964
0.217072
0.217186
0.217237
0.217277
0.217237
0.217257
0.217163
0.217074
0.216977
0.21689
0.216811
0.216745
0.216694
0.216659
0.216634
0.216617
0.216589
0.216569
0.21656
0.216517
0.21649
0.216434
0.216377
0.216291
0.216214
0.216101
0.215992
0.215876
0.215762
0.215651
0.215548
0.215453
0.21537
0.215298
0.215237
0.215185
0.215145
0.215114
0.215094
0.215074
0.215066
0.215027
0.215007
0.214952
0.214879
0.214801
0.21469
0.214578
0.21446
0.214336
0.214207
0.214078
0.21395
0.213835
0.213724
0.213621
0.213528
0.213445
0.213371
0.213305
0.213255
0.213181
0.213119
0.213036
0.21297
0.212888
0.21278
0.212679
0.212587
0.212485
0.212387
0.212289
0.212195
0.212103
0.212016
0.211931
0.211853
0.211791
0.211694
0.211605
0.211511
0.211435
0.211292
0.211163
0.211028
0.21089
0.210741
0.21059
0.210437
0.21028
0.210129
0.209974
0.209815
0.209656
0.209485
0.209312
0.209123
0.208932
0.208723
0.208512
0.20829
0.208068
0.207846
0.207626
0.207419
0.207217
0.207029
0.206843
0.206661
0.206474
0.206271
0.205916
0.0332184
0.0326938
0.0323644
0.0318625
0.0312349
0.0306618
0.0301599
0.0297534
0.0294542
0.0292576
0.0291519
0.0291303
0.0291839
0.029304
0.029499
0.0297523
0.0300702
0.0304772
0.0310158
0.0316778
0.0324688
0.0335605
0.0348266
0.0363173
0.0381638
0.0402703
0.0426108
0.0446377
0.0475603
0.049534
0.0527269
0.0551167
0.0586222
0.0611349
0.0648524
0.0677535
0.0717909
0.0760228
0.0801566
0.0848202
0.0900835
0.0959726
0.103304
0.110568
0.119339
0.126604
0.13455
0.141691
0.149788
0.155714
0.1613
0.165652
0.171177
0.175049
0.179577
0.183244
0.187102
0.190152
0.193367
0.195719
0.198608
0.200563
0.203067
0.204869
0.206722
0.208553
0.209925
0.211381
0.212446
0.213599
0.214489
0.215461
0.216212
0.217056
0.217663
0.218247
0.218747
0.21933
0.220063
0.220899
0.221467
0.222038
0.222534
0.223109
0.223453
0.223761
0.223934
0.224136
0.224485
0.224846
0.225045
0.225236
0.225477
0.22572
0.225774
0.225727
0.225715
0.225792
0.225814
0.225779
0.225762
0.225771
0.22567
0.225544
0.225438
0.225357
0.225176
0.225058
0.224837
0.224645
0.224479
0.224343
0.224235
0.224147
0.224091
0.224011
0.223786
0.223577
0.223378
0.2232
0.223038
0.222894
0.222772
0.222648
0.222594
0.222594
0.22258
0.222594
0.222612
0.222638
0.222625
0.222622
0.222581
0.222579
0.222455
0.222336
0.222201
0.222075
0.221957
0.221851
0.22176
0.221686
0.221623
0.221573
0.221505
0.221445
0.221397
0.221313
0.221245
0.221151
0.221061
0.22093
0.220812
0.22066
0.220513
0.220359
0.220208
0.220061
0.219922
0.219792
0.219675
0.219571
0.219477
0.219393
0.219321
0.219259
0.21921
0.21916
0.219125
0.219056
0.219007
0.218925
0.218831
0.218724
0.218587
0.218449
0.218304
0.218154
0.217999
0.217844
0.217691
0.217551
0.217415
0.217288
0.217171
0.217066
0.21697
0.216883
0.21681
0.216718
0.216639
0.216531
0.216443
0.216347
0.216218
0.216097
0.215986
0.215867
0.21575
0.215635
0.215524
0.215416
0.215312
0.215211
0.215116
0.215037
0.214928
0.214825
0.214711
0.214617
0.21446
0.214315
0.214164
0.21401
0.213846
0.21368
0.213512
0.213341
0.213175
0.213007
0.212834
0.212662
0.212479
0.212293
0.212092
0.211888
0.211668
0.211444
0.211209
0.210976
0.210743
0.210512
0.210294
0.210083
0.209884
0.209689
0.209497
0.209301
0.209083
0.208717
0.0329401
0.0324666
0.0321599
0.0316557
0.03106
0.030524
0.0300443
0.0296606
0.0293816
0.0292019
0.029111
0.0290993
0.029168
0.029307
0.0295202
0.0298024
0.03014
0.0305709
0.0311649
0.0318817
0.0327471
0.0339392
0.0352704
0.0368827
0.0387952
0.0406898
0.0431386
0.0447622
0.0474427
0.0492084
0.0519241
0.0541726
0.0565881
0.0590021
0.0612757
0.0636175
0.0659376
0.0678739
0.0697937
0.0711914
0.0728669
0.0746679
0.0773638
0.0814193
0.086954
0.0965074
0.106029
0.117938
0.131507
0.1429
0.152192
0.159808
0.167981
0.173088
0.178638
0.18276
0.187337
0.190959
0.194602
0.197328
0.200518
0.202712
0.205447
0.207371
0.209504
0.211451
0.212902
0.21457
0.21577
0.217081
0.218089
0.219188
0.220047
0.220981
0.22171
0.222466
0.223063
0.223714
0.224436
0.225278
0.225983
0.226671
0.227238
0.22788
0.228364
0.228868
0.229155
0.22944
0.229821
0.230295
0.23066
0.231008
0.231327
0.23174
0.231962
0.232131
0.232251
0.232386
0.232562
0.23269
0.232752
0.232828
0.232837
0.232778
0.232683
0.232641
0.232522
0.232409
0.232132
0.231884
0.231675
0.231503
0.231359
0.231252
0.231158
0.231007
0.230706
0.230428
0.230161
0.22992
0.229707
0.229521
0.229376
0.229271
0.22913
0.228974
0.228837
0.228735
0.228655
0.228587
0.228528
0.228537
0.228447
0.228403
0.22824
0.228084
0.227907
0.227738
0.227575
0.227423
0.227286
0.227165
0.227056
0.226961
0.226848
0.226743
0.226652
0.226525
0.226412
0.226275
0.226148
0.22597
0.225808
0.225616
0.225428
0.225233
0.225041
0.224855
0.224676
0.224508
0.224352
0.224208
0.224076
0.223954
0.223846
0.223748
0.223663
0.22358
0.223513
0.223409
0.223327
0.223212
0.223094
0.222951
0.222784
0.222612
0.222435
0.222252
0.222065
0.221878
0.221694
0.221522
0.221356
0.2212
0.221055
0.220922
0.220798
0.220684
0.220583
0.220467
0.220366
0.220229
0.220112
0.219997
0.219842
0.219696
0.219561
0.219419
0.21928
0.219143
0.21901
0.21888
0.218756
0.218634
0.218518
0.218417
0.21829
0.218169
0.21803
0.217914
0.21774
0.217574
0.217403
0.217229
0.217046
0.216861
0.216674
0.216485
0.2163
0.216115
0.215925
0.215736
0.215536
0.215334
0.215118
0.214897
0.214661
0.214421
0.214171
0.213924
0.213675
0.213432
0.2132
0.212976
0.212763
0.212557
0.212352
0.212144
0.211911
0.21153
0.0326805
0.0322597
0.0319814
0.0314695
0.0309284
0.0304213
0.0299677
0.0296078
0.0293474
0.0291819
0.0291054
0.0291089
0.0292138
0.0293632
0.0295709
0.0298779
0.0302588
0.030726
0.0313828
0.0321686
0.033115
0.0344222
0.0357533
0.0374378
0.0395007
0.0410818
0.0434214
0.0448027
0.0471812
0.0489001
0.0510365
0.0528271
0.0546087
0.0562972
0.0577426
0.0587765
0.0593125
0.0595633
0.059732
0.059834
0.0602847
0.0607715
0.0614879
0.0624426
0.0636766
0.0655923
0.0704036
0.0771249
0.0855208
0.0991264
0.115725
0.133658
0.151537
0.161597
0.171596
0.178937
0.185355
0.189855
0.193894
0.197059
0.200748
0.20348
0.206818
0.208868
0.211434
0.213532
0.215095
0.21695
0.218232
0.219691
0.220826
0.222047
0.222994
0.224014
0.224822
0.225732
0.226433
0.227172
0.227873
0.228673
0.229402
0.230173
0.230788
0.231467