/*--------------------------------*- C++ -*----------------------------------*\
| =========                 |                                                 |
| \\      /  F ield         | OpenFOAM: The Open Source CFD Toolbox           |
|  \\    /   O peration     | Version:  2312                                  |
|   \\  /    A nd           | Website:  www.openfoam.com                      |
|    \\/     M anipulation  |                                                 |
\*---------------------------------------------------------------------------*/
FoamFile
{
    version     2.0;
    format      ascii;
    arch        "LSB;label=32;scalar=64";
    class       volScalarField;
    location    "0.001";
    object      T;
}
// * * * * * * * * * * * * * * * * * * * * * * * * * * * * * * * * * * * * * //

dimensions      [0 0 0 1 0 0 0];

internalField   nonuniform List<scalar> 
48128
(
227.719
227.66
227.478
227.462
227.361
227.262
227.133
226.72
225.857
224.632
223.348
222.083
220.952
220.088
219.422
218.857
218.427
218.145
218.005
218.047
218.377
218.957
219.738
220.769
222.05
223.575
225.301
227.169
229.216
231.5
233.993
236.663
239.399
242.198
244.959
247.577
250.072
252.39
254.042
256.594
258.641
259.531
260.316
260.939
261.4
261.716
261.922
262.076
262.141
262.241
262.265
262.323
262.306
262.294
262.194
262.128
261.985
261.951
261.921
261.976
262.019
261.982
262.027
262.052
262.064
262.069
262.117
262.184
262.291
262.415
262.554
262.686
262.76
262.775
263.067
263.97
264.162
264.223
264.454
265.344
265.654
265.878
266.099
266.372
266.722
267.365
267.64
267.809
268.069
268.778
269.085
269.311
269.476
269.759
270.386
270.677
270.891
271.134
271.714
272.023
272.257
272.533
273.087
273.421
273.711
273.998
274.328
274.624
274.894
275.165
275.417
275.677
276.006
276.382
276.724
277.06
277.403
277.692
277.922
278.144
278.374
278.66
278.978
279.405
279.773
280.295
280.738
281.202
281.62
281.99
282.329
282.635
282.91
283.175
283.416
283.671
283.918
284.168
284.431
284.705
284.971
285.265
285.552
285.858
286.152
286.439
286.718
286.99
287.246
287.488
287.743
287.979
288.202
288.421
288.63
288.838
289.047
289.25
289.46
289.667
289.887
290.093
290.321
290.541
290.77
290.997
291.23
291.455
291.676
291.892
292.087
292.277
292.459
292.634
292.799
292.96
293.114
293.263
293.408
293.552
293.695
293.84
293.988
294.139
294.291
294.449
294.603
294.764
294.908
295.053
295.21
295.372
295.505
295.64
295.796
295.94
296.078
296.211
296.352
296.488
296.629
296.767
296.91
297.051
297.201
297.335
297.476
297.638
297.806
297.957
298.103
298.269
298.428
298.588
298.744
298.908
299.072
299.238
299.411
299.586
299.764
299.945
300.129
300.319
300.509
300.711
300.902
301.102
301.292
301.486
301.676
301.864
302.047
302.224
302.393
302.546
302.686
302.795
302.876
302.854
227.514
227.25
227.152
227.007
226.758
226.407
225.731
224.533
222.715
220.664
218.758
216.947
215.407
214.282
213.478
212.874
212.495
212.345
212.449
212.794
213.354
214.17
215.261
216.619
218.271
220.182
222.371
224.847
227.56
230.408
233.344
236.342
239.327
242.24
245.3
247.643
249.922
252.501
253.842
255.193
256.255
256.947
257.468
257.813
258.005
258.066
257.98
257.782
257.448
257.146
256.787
256.471
256.131
255.807
255.446
255.108
254.732
254.424
254.137
253.908
253.71
253.435
253.209
253.011
252.761
252.52
252.295
252.099
251.925
251.781
251.647
251.521
251.349
251.118
250.93
251.627
251.585
251.394
251.209
251.899
251.976
251.982
252.008
252.087
252.108
252.55
252.635
252.618
252.57
253.086
253.179
253.207
253.216
253.195
253.629
253.72
253.739
253.732
254.116
254.219
254.274
254.301
254.673
254.808
254.916
255.018
255.171
255.282
255.382
255.468
255.54
255.605
255.677
255.85
255.995
256.142
256.33
256.47
256.574
256.648
256.709
256.808
256.928
257.183
257.412
257.768
258.06
258.372
258.652
258.906
259.134
259.333
259.512
259.672
259.792
259.945
260.096
260.265
260.435
260.64
260.832
261.044
261.252
261.473
261.683
261.885
262.08
262.27
262.447
262.606
262.779
262.937
263.085
263.229
263.367
263.504
263.644
263.786
263.933
264.083
264.243
264.403
264.576
264.751
264.934
265.119
265.309
265.492
265.672
265.847
266.012
266.157
266.297
266.432
266.558
266.68
266.796
266.912
267.028
267.146
267.268
267.393
267.523
267.658
267.796
267.941
268.088
268.242
268.385
268.516
268.662
268.811
268.937
269.048
269.184
269.312
269.435
269.555
269.683
269.81
269.941
270.072
270.209
270.348
270.498
270.636
270.763
270.914
271.068
271.203
271.313
271.45
271.581
271.714
271.84
271.978
272.118
272.262
272.414
272.567
272.725
272.886
273.045
273.212
273.368
273.536
273.693
273.862
274.026
274.198
274.375
274.558
274.744
274.933
275.121
275.305
275.48
275.639
275.773
275.819
227.145
226.962
226.786
226.531
226.213
225.642
224.654
223.175
221.308
219.325
217.454
215.763
214.39
213.44
212.792
212.357
212.154
212.169
212.392
212.839
213.542
214.516
215.76
217.285
219.094
221.141
223.386
225.827
228.417
231.14
233.914
236.745
239.641
241.891
245.258
247.031
248.754
250.384
251.583
252.464
253.033
253.37
253.58
253.615
253.507
253.298
252.951
252.537
252.016
251.57
251.126
250.736
250.345
249.98
249.6
249.249
248.883
248.574
248.295
248.069
247.888
247.619
247.396
247.213
246.967
246.733
246.511
246.316
246.134
245.978
245.824
245.673
245.474
245.208
244.989
245.585
245.5
245.267
245.06
245.611
245.641
245.596
245.565
245.559
245.53
245.904
245.923
245.845
245.763
246.165
246.198
246.171
246.114
246.05
246.401
246.428
246.383
246.336
246.634
246.672
246.658
246.637
246.924
246.989
247.03
247.071
247.153
247.202
247.238
247.262
247.276
247.28
247.293
247.399
247.472
247.551
247.661
247.729
247.769
247.78
247.785
247.823
247.874
248.05
248.186
248.471
248.688
248.93
249.142
249.33
249.494
249.634
249.758
249.866
249.94
250.035
250.127
250.234
250.347
250.499
250.643
250.805
250.963
251.134
251.295
251.45
251.603
251.751
251.89
252.012
252.148
252.272
252.387
252.497
252.602
252.706
252.814
252.922
253.037
253.153
253.283
253.412
253.551
253.695
253.847
254.001
254.16
254.315
254.467
254.616
254.758
254.879
254.996
255.11
255.216
255.318
255.416
255.514
255.612
255.714
255.82
255.929
256.043
256.164
256.287
256.419
256.552
256.694
256.829
256.949
257.084
257.222
257.342
257.443
257.568
257.686
257.801
257.912
258.032
258.151
258.273
258.397
258.528
258.66
258.803
258.937
259.057
259.199
259.344
259.474
259.573
259.699
259.819
259.941
260.056
260.181
260.308
260.441
260.579
260.721
260.865
261.015
261.161
261.314
261.457
261.61
261.753
261.909
262.059
262.22
262.386
262.56
262.74
262.926
263.115
263.304
263.489
263.663
263.822
263.894
226.738
226.636
226.41
226.156
225.727
224.953
223.82
222.371
220.641
218.795
217.055
215.491
214.252
213.425
212.874
212.56
212.46
212.558
212.868
213.406
214.195
215.249
216.553
218.093
219.84
221.789
223.917
226.23
228.657
231.24
233.812
236.132
238.996
240.808
242.898
244.447
245.806
246.931
247.758
248.251
248.393
248.387
248.232
247.973
247.559
247.113
246.516
245.909
245.229
244.681
244.211
243.816
243.422
243.101
242.747
242.463
242.175
241.97
241.809
241.701
241.663
241.508
241.397
241.327
241.186
241.052
240.927
240.821
240.719
240.634
240.543
240.45
240.305
240.093
239.926
240.468
240.437
240.258
240.114
240.58
240.632
240.614
240.596
240.563
240.536
240.882
240.898
240.828
240.77
241.103
241.136
241.113
241.049
240.986
241.284
241.306
241.258
241.214
241.465
241.488
241.462
241.439
241.679
241.724
241.747
241.77
241.823
241.851
241.866
241.871
241.865
241.851
241.848
241.936
241.985
242.043
242.117
242.156
242.168
242.15
242.134
242.145
242.172
242.312
242.413
242.652
242.827
243.023
243.194
243.342
243.468
243.574
243.663
243.739
243.787
243.851
243.915
243.99
244.071
244.18
244.286
244.412
244.534
244.673
244.802
244.927
245.049
245.168
245.281
245.379
245.487
245.592
245.686
245.776
245.861
245.943
246.029
246.115
246.208
246.302
246.409
246.516
246.632
246.753
246.882
247.015
247.152
247.285
247.418
247.548
247.672
247.776
247.878
247.977
248.069
248.157
248.242
248.327
248.413
248.502
248.596
248.693
248.795
248.904
249.017
249.137
249.26
249.391
249.517
249.63
249.756
249.887
249.999
250.095
250.212
250.324
250.434
250.539
250.653
250.766
250.883
251.001
251.125
251.252
251.389
251.519
251.635
251.771
251.911
252.036
252.132
252.252
252.366
252.481
252.59
252.708
252.828
252.952
253.083
253.215
253.351
253.492
253.63
253.774
253.909
254.053
254.188
254.334
254.476
254.628
254.786
254.953
255.127
255.308
255.494
255.682
255.87
256.05
256.22
256.307
226.43
226.3
226.079
225.799
225.228
224.33
223.264
221.895
220.211
218.452
216.866
215.483
214.4
213.695
213.255
213.032
212.995
213.147
213.495
214.052
214.829
215.835
217.049
218.456
220.062
221.871
223.839
226.003
228.167
230.362
232.643
234.365
236.19
237.692
239.154
240.177
241.123
241.728
241.997
242.217
241.876
241.554
240.982
240.533
239.814
239.228
238.416
237.686
236.92
236.341
235.929
235.615
235.296
235.1
234.84
234.69
234.545
234.494
234.51
234.54
234.725
234.696
234.739
234.831
234.796
234.824
234.806
234.849
234.843
234.882
234.884
234.901
234.858
234.742
234.663
235.15
235.24
235.161
235.122
235.508
235.636
235.679
235.707
235.696
235.694
236.005
236.074
236.049
236.048
236.319
236.395
236.405
236.373
236.34
236.589
236.642
236.616
236.613
236.814
236.857
236.85
236.856
237.049
237.108
237.139
237.168
237.211
237.244
237.258
237.265
237.259
237.248
237.246
237.335
237.377
237.435
237.491
237.525
237.53
237.505
237.485
237.487
237.508
237.629
237.718
237.926
238.076
238.243
238.385
238.512
238.615
238.704
238.773
238.833
238.865
238.914
238.963
239.024
239.09
239.177
239.266
239.37
239.471
239.588
239.695
239.801
239.904
240.003
240.098
240.18
240.269
240.356
240.432
240.506
240.577
240.643
240.714
240.785
240.862
240.94
241.032
241.125
241.224
241.33
241.444
241.56
241.682
241.801
241.92
242.036
242.148
242.241
242.33
242.42
242.501
242.58
242.656
242.733
242.81
242.891
242.976
243.065
243.16
243.26
243.365
243.478
243.594
243.718
243.837
243.945
244.066
244.19
244.298
244.392
244.503
244.611
244.717
244.819
244.929
245.039
245.152
245.267
245.388
245.511
245.645
245.772
245.886
246.019
246.155
246.277
246.373
246.489
246.6
246.713
246.818
246.932
247.048
247.168
247.294
247.421
247.552
247.687
247.819
247.958
248.087
248.226
248.355
248.495
248.631
248.777
248.93
249.092
249.26
249.438
249.621
249.807
249.995
250.179
250.354
250.451
226.058
225.973
225.77
225.402
224.717
223.839
222.82
221.422
219.852
218.275
216.865
215.652
214.722
214.125
213.741
213.552
213.527
213.672
213.991
214.489
215.165
216.029
217.092
218.346
219.792
221.436
223.147
224.938
226.7
228.139
229.582
230.779
231.857
232.602
233.35
233.5
233.923
233.977
233.543
233.659
232.912
232.525
231.916
231.57
230.898
230.302
229.566
228.802
228.104
227.513
227.258
226.935
226.801
226.624
226.573
226.481
226.53
226.575
226.833
226.837
227.327
227.353
227.551
227.822
227.806
228.077
228.086
228.349
228.394
228.625
228.694
228.874
228.951
228.949
228.981
229.411
229.61
229.714
229.761
230.098
230.303
230.453
230.542
230.591
230.636
230.918
231.056
231.12
231.18
231.413
231.541
231.625
231.651
231.659
231.861
231.973
231.998
232.043
232.202
232.302
232.335
232.378
232.53
232.633
232.688
232.741
232.795
232.847
232.876
232.9
232.909
232.922
232.937
233.031
233.088
233.16
233.212
233.251
233.262
233.246
233.237
233.242
233.27
233.381
233.467
233.656
233.798
233.939
234.067
234.18
234.275
234.36
234.42
234.477
234.504
234.549
234.594
234.651
234.711
234.788
234.869
234.962
235.051
235.156
235.252
235.346
235.438
235.528
235.61
235.686
235.763
235.838
235.903
235.963
236.023
236.078
236.138
236.198
236.265
236.334
236.416
236.5
236.59
236.686
236.79
236.897
237.009
237.119
237.229
237.337
237.441
237.527
237.61
237.693
237.768
237.842
237.913
237.985
238.057
238.134
238.215
238.3
238.39
238.486
238.588
238.696
238.808
238.928
239.044
239.15
239.268
239.388
239.494
239.588
239.695
239.802
239.907
240.009
240.117
240.226
240.338
240.452
240.572
240.694
240.826
240.953
241.068
241.199
241.333
241.455
241.552
241.667
241.778
241.89
241.994
242.107
242.222
242.34
242.463
242.588
242.717
242.849
242.978
243.114
243.24
243.376
243.502
243.638
243.772
243.915
244.064
244.222
244.387
244.562
244.743
244.928
245.115
245.301
245.48
245.584
225.643
225.622
225.414
224.974
224.24
223.423
222.377
221.062
219.626
218.226
216.976
215.898
215.089
214.547
214.177
213.981
213.926
214.012
214.24
214.601
215.117
215.811
216.719
217.802
219.035
220.291
221.589
222.611
223.573
224.317
224.805
224.948
224.976
224.492
224.684
223.929
224.135
223.849
223.306
223.45
222.688
222.181
221.458
221.1
220.532
220.092
219.704
219.175
218.895
218.293
218.268
217.696
217.859
217.506
217.82
217.526
218.015
217.912
218.571
218.579
219.292
219.354
219.878
220.185
220.256
220.755
220.895
221.327
221.519
221.888
222.093
222.403
222.599
222.74
222.874
223.231
223.539
223.769
223.935
224.239
224.522
224.777
224.945
225.073
225.193
225.464
225.667
225.835
225.971
226.196
226.382
226.544
226.646
226.711
226.891
227.067
227.176
227.27
227.417
227.572
227.677
227.759
227.898
228.048
228.155
228.244
228.327
228.4
228.464
228.514
228.551
228.608
228.648
228.752
228.846
228.929
228.995
229.04
229.076
229.08
229.093
229.114
229.149
229.261
229.346
229.529
229.662
229.792
229.915
230.026
230.123
230.207
230.28
230.34
230.375
230.425
230.474
230.537
230.596
230.67
230.752
230.841
230.928
231.026
231.118
231.208
231.297
231.383
231.463
231.536
231.609
231.676
231.736
231.788
231.841
231.891
231.945
232.001
232.063
232.129
232.206
232.287
232.373
232.465
232.565
232.668
232.776
232.883
232.989
233.093
233.195
233.279
233.359
233.44
233.514
233.587
233.657
233.728
233.8
233.876
233.956
234.04
234.13
234.226
234.327
234.435
234.546
234.665
234.782
234.888
235.006
235.125
235.232
235.33
235.435
235.542
235.65
235.753
235.863
235.972
236.086
236.201
236.323
236.446
236.579
236.708
236.825
236.957
237.092
237.215
237.315
237.431
237.543
237.657
237.763
237.877
237.992
238.111
238.235
238.36
238.488
238.62
238.748
238.883
239.009
239.144
239.269
239.405
239.537
239.678
239.826
239.982
240.146
240.319
240.499
240.684
240.871
241.059
241.241
241.351
225.251
225.213
225.012
224.526
223.804
223.015
222.011
220.791
219.503
218.248
217.116
216.156
215.417
214.892
214.506
214.264
214.133
214.1
214.164
214.361
214.708
215.226
215.96
216.672
217.53
218.107
218.628
218.872
218.787
218.316
217.578
216.266
215.882
214.415
214.501
213.384
213.425
212.69
211.89
211.616
210.902
210.053
209.35
208.804
208.503
208.082
208.177
207.595
208.043
207.383
208.385
207.749
208.432
207.799
208.579
208.193
209.025
208.916
209.858
209.898
210.765
210.879
211.659
212.025
212.201
212.864
213.147
213.703
214.025
214.516
214.85
215.285
215.615
215.905
216.171
216.52
216.914
217.29
217.595
217.924
218.278
218.632
218.907
219.129
219.323
219.604
219.864
220.127
220.34
220.582
220.818
221.064
221.242
221.39
221.572
221.808
221.99
222.157
222.33
222.54
222.709
222.86
223.016
223.211
223.371
223.506
223.632
223.745
223.851
223.944
224.027
224.126
224.212
224.334
224.464
224.575
224.662
224.731
224.791
224.834
224.873
224.922
224.961
225.085
225.176
225.352
225.483
225.614
225.743
225.863
225.973
226.071
226.162
226.237
226.292
226.354
226.415
226.482
226.549
226.626
226.711
226.804
226.895
226.996
227.091
227.185
227.277
227.367
227.451
227.526
227.598
227.663
227.72
227.771
227.826
227.876
227.932
227.99
228.053
228.121
228.199
228.283
228.37
228.464
228.565
228.67
228.78
228.887
228.996
229.1
229.204
229.291
229.375
229.457
229.534
229.61
229.683
229.757
229.832
229.911
229.995
230.082
230.175
230.274
230.378
230.488
230.603
230.724
230.844
230.955
231.076
231.196
231.308
231.412
231.518
231.628
231.74
231.848
231.96
232.074
232.191
232.31
232.435
232.562
232.698
232.831
232.953
233.088
233.225
233.352
233.457
233.576
233.692
233.809
233.919
234.035
234.154
234.275
234.401
234.528
234.658
234.792
234.922
235.058
235.185
235.321
235.448
235.583
235.717
235.859
236.007
236.163
236.327
236.5
236.679
236.864
237.053
237.243
237.427
237.543
224.833
224.755
224.557
224.047
223.413
222.676
221.709
220.603
219.438
218.299
217.263
216.378
215.674
215.134
214.7
214.368
214.102
213.893
213.785
213.816
213.979
214.185
214.579
214.746
214.89
214.758
214.275
213.323
211.869
209.884
208.663
206.403
206.021
203.827
203.667
201.553
201.185
199.735
198.71
197.789
197.373
195.853
195.987
194.964
195.812
194.9
196.297
195.313
196.849
196.198
197.909
197.492
199.054
198.596
199.772
199.327
200.511
200.39
201.53
201.564
202.52
202.59
203.562
203.947
204.147
204.901
205.209
205.83
206.177
206.744
207.121
207.642
208.047
208.473
208.856
209.24
209.712
210.197
210.63
211.039
211.459
211.896
212.278
212.605
212.899
213.206
213.532
213.884
214.19
214.485
214.785
215.112
215.384
215.625
215.854
216.146
216.406
216.647
216.875
217.136
217.371
217.583
217.784
218.024
218.237
218.425
218.602
218.763
218.919
219.066
219.206
219.355
219.492
219.644
219.814
219.956
220.072
220.174
220.269
220.349
220.418
220.491
220.551
220.686
220.798
220.974
221.114
221.259
221.405
221.546
221.682
221.807
221.928
222.03
222.109
222.188
222.261
222.337
222.418
222.506
222.604
222.709
222.814
222.926
223.034
223.14
223.244
223.342
223.436
223.513
223.59
223.661
223.727
223.786
223.849
223.908
223.972
224.038
224.11
224.186
224.272
224.363
224.458
224.559
224.666
224.779
224.894
225.009
225.124
225.234
225.344
225.44
225.531
225.619
225.702
225.785
225.866
225.947
226.029
226.115
226.205
226.299
226.398
226.504
226.614
226.73
226.851
226.978
227.104
227.223
227.349
227.473
227.594
227.705
227.816
227.933
228.05
228.165
228.284
228.403
228.526
228.651
228.782
228.915
229.056
229.195
229.324
229.464
229.604
229.737
229.85
229.974
230.095
230.217
230.332
230.453
230.576
230.702
230.832
230.964
231.097
231.235
231.368
231.507
231.638
231.776
231.906
232.044
232.18
232.324
232.474
232.632
232.797
232.971
233.152
233.339
233.529
233.721
233.909
234.031
224.404
224.273
224.062
223.595
223.065
222.375
221.473
220.468
219.406
218.361
217.396
216.554
215.849
215.261
214.738
214.26
213.815
213.44
213.138
212.945
212.737
212.536
212.326
211.934
211.213
210.012
208.232
205.76
203.449
200.442
199.344
196.334
195.167
192.125
190.729
188.072
186.98
184.898
184.468
182.5
183.007
180.667
182.361
181.046
183.611
182.616
185.195
184.068
186.451
185.894
188.052
187.829
190.037
189.994
191.879
191.46
192.955
192.859
194.179
194.174
195.246
195.237
196.367
196.746
196.944
197.707
197.939
198.573
198.846
199.422
199.744
200.272
200.625
201.095
201.483
201.881
202.321
202.863
203.322
203.777
204.231
204.715
205.157
205.561
205.943
206.301
206.681
207.115
207.504
207.873
208.238
208.638
209
209.33
209.637
209.976
210.306
210.622
210.925
211.238
211.541
211.823
212.09
212.379
212.653
212.907
213.149
213.372
213.587
213.791
213.985
214.177
214.363
214.553
214.763
214.942
215.092
215.229
215.355
215.452
215.549
215.658
215.763
215.923
216.074
216.266
216.43
216.605
216.783
216.958
217.135
217.3
217.46
217.595
217.688
217.778
217.865
217.96
218.059
218.171
218.294
218.426
218.559
218.694
218.823
218.95
219.073
219.183
219.29
219.385
219.476
219.565
219.65
219.728
219.808
219.884
219.965
220.047
220.135
220.227
220.327
220.432
220.542
220.656
220.776
220.901
221.029
221.156
221.283
221.404
221.526
221.634
221.739
221.837
221.931
222.026
222.118
222.211
222.304
222.401
222.502
222.607
222.716
222.831
222.951
223.078
223.208
223.344
223.48
223.61
223.744
223.875
224.007
224.128
224.247
224.372
224.499
224.622
224.749
224.876
225.008
225.141
225.279
225.42
225.569
225.716
225.854
226
226.146
226.286
226.408
226.539
226.667
226.796
226.919
227.046
227.176
227.308
227.443
227.58
227.719
227.862
228
228.144
228.28
228.423
228.558
228.699
228.84
228.987
229.141
229.301
229.47
229.646
229.829
230.018
230.212
230.408
230.598
230.727
223.985
223.794
223.568
223.201
222.766
222.112
221.288
220.373
219.397
218.424
217.508
216.679
215.935
215.262
214.602
213.943
213.322
212.754
212.074
211.524
210.92
210.291
209.363
208.086
206.281
203.733
200.711
196.899
194.803
191.037
189.308
185.086
182.935
178.611
176.423
172.577
170.936
168.412
168.171
165.37
168.129
165.831
169.531
167.392
171.52
169.96
173.812
172.818
176.525
176.186
179.211
179.257
182.242
182.411
184.746
184.747
186.543
186.575
187.952
187.927
189.197
189.143
190.408
190.739
191.104
191.749
191.904
192.575
192.75
193.328
193.548
194.044
194.309
194.741
195.044
195.388
195.712
196.197
196.561
196.987
197.374
197.82
198.192
198.611
198.989
199.358
199.727
200.183
200.574
200.987
201.39
201.828
202.227
202.625
203
203.37
203.746
204.133
204.504
204.865
205.231
205.578
205.913
206.252
206.584
206.905
207.207
207.484
207.728
207.938
208.125
208.329
208.549
208.811
209.106
209.35
209.549
209.708
209.841
209.976
210.117
210.274
210.484
210.708
210.928
211.161
211.369
211.59
211.81
212.034
212.257
212.469
212.66
212.808
212.927
213.049
213.168
213.294
213.424
213.561
213.707
213.862
214.02
214.183
214.34
214.492
214.639
214.777
214.916
215.045
215.164
215.281
215.394
215.5
215.607
215.71
215.816
215.923
216.035
216.152
216.275
216.402
216.533
216.668
216.808
216.952
217.098
217.243
217.387
217.525
217.665
217.791
217.914
218.029
218.14
218.252
218.361
218.47
218.58
218.694
218.811
218.931
219.056
219.186
219.321
219.46
219.605
219.753
219.903
220.047
220.192
220.333
220.48
220.614
220.744
220.88
221.019
221.154
221.291
221.429
221.571
221.715
221.863
222.014
222.172
222.33
222.479
222.633
222.787
222.938
223.071
223.211
223.347
223.485
223.617
223.753
223.891
224.03
224.174
224.318
224.464
224.614
224.759
224.91
225.052
225.201
225.342
225.489
225.635
225.788
225.946
226.111
226.283
226.463
226.65
226.843
227.04
227.24
227.434
227.571
223.591
223.351
223.133
222.87
222.505
221.897
221.152
220.314
219.405
218.482
217.588
216.749
215.932
215.127
214.3
213.449
212.467
211.56
210.659
209.714
208.658
207.309
205.467
203.113
200.046
196.074
192.607
188.127
185.774
180.845
177.963
172.938
169.151
164.338
160.495
157.616
155.456
153.367
153.04
151.639
153.926
152.656
157.149
156.113
161.756
160.764
165.882
164.785
169.882
168.805
173.052
172.557
175.979
175.633
178.526
178.677
180.988
181.279
182.779
182.797
184.263
184.222
185.572
185.728
186.566
187.03
187.127
187.869
187.989
188.587
188.745
189.236
189.427
189.837
190.053
190.357
190.608
190.969
191.244
191.613
191.894
192.234
192.498
192.845
193.115
193.395
193.672
194.032
194.309
194.678
194.994
195.372
195.692
196.063
196.41
196.755
197.117
197.514
197.893
198.273
198.656
199.041
199.416
199.791
200.166
200.528
200.841
201.1
201.304
201.544
201.796
202.063
202.338
202.619
202.899
203.161
203.379
203.595
203.813
204.043
204.27
204.502
204.744
205.07
205.375
205.665
205.939
206.218
206.492
206.771
207.036
207.299
207.485
207.676
207.837
208
208.16
208.325
208.493
208.666
208.845
209.031
209.218
209.404
209.586
209.77
209.946
210.116
210.288
210.453
210.607
210.756
210.903
211.044
211.185
211.321
211.46
211.6
211.744
211.891
212.044
212.2
212.359
212.522
212.687
212.856
213.027
213.195
213.362
213.521
213.683
213.833
213.979
214.116
214.25
214.384
214.516
214.648
214.781
214.916
215.055
215.196
215.342
215.491
215.646
215.804
215.966
216.132
216.299
216.461
216.622
216.777
216.941
217.092
217.237
217.388
217.541
217.691
217.842
217.994
218.15
218.308
218.469
218.634
218.805
218.975
219.139
219.305
219.469
219.632
219.779
219.931
220.079
220.228
220.372
220.519
220.667
220.818
220.972
221.127
221.282
221.441
221.596
221.755
221.906
222.062
222.211
222.366
222.519
222.679
222.843
223.014
223.192
223.377
223.57
223.768
223.97
224.175
224.375
224.519
223.257
222.971
222.786
222.611
222.286
221.739
221.064
220.29
219.431
218.532
217.632
216.77
215.826
214.824
213.649
212.487
211.386
210.185
208.929
207.485
205.715
203.504
200.569
197.013
192.857
187.69
184.474
179.126
175.858
170.006
165.754
160.22
155.335
150.663
146.988
143.346
140.034
137.414
135.529
134.256
133.928
134.593
137.634
139.58
145.798
147.797
154.725
154.149
161.882
160.319
167.005
166.868
170.996
170.558
174.047
173.903
176.667
176.847
178.596
178.585
180.249
180.22
181.655
181.673
182.869
183.289
183.353
184.172
184.261
184.905
185.044
185.548
185.704
186.115
186.283
186.602
186.821
187.103
187.328
187.648
187.846
188.139
188.323
188.619
188.806
189.029
189.212
189.446
189.624
189.913
190.113
190.382
190.568
190.863
191.072
191.304
191.54
191.826
192.079
192.361
192.643
192.945
193.239
193.548
193.853
194.143
194.394
194.653
194.888
195.174
195.484
195.806
196.138
196.455
196.75
197.014
197.255
197.512
197.784
198.079
198.374
198.677
198.967
199.286
199.652
199.993
200.327
200.661
200.985
201.314
201.599
201.863
202.091
202.33
202.538
202.746
202.95
203.156
203.363
203.574
203.789
204.008
204.227
204.442
204.653
204.867
205.074
205.276
205.479
205.678
205.867
206.048
206.229
206.403
206.577
206.748
206.92
207.092
207.268
207.448
207.632
207.819
208.009
208.202
208.396
208.593
208.789
208.983
209.174
209.357
209.543
209.719
209.889
210.051
210.212
210.372
210.531
210.689
210.849
211.011
211.175
211.342
211.512
211.686
211.862
212.043
212.227
212.413
212.601
212.785
212.965
213.139
213.324
213.496
213.66
213.829
214.001
214.169
214.337
214.507
214.679
214.854
215.033
215.215
215.402
215.589
215.771
215.951
216.13
216.308
216.473
216.639
216.802
216.965
217.124
217.286
217.448
217.613
217.78
217.949
218.117
218.289
218.455
218.626
218.788
218.956
219.116
219.281
219.445
219.614
219.788
219.967
220.154
220.347
220.547
220.753
220.962
221.175
221.38
221.533
223.001
222.682
222.55
222.423
222.132
221.646
221.032
220.303
219.473
218.571
217.616
216.647
215.373
214.137
212.866
211.522
210.077
208.537
206.796
204.634
202.024
198.857
194.69
189.764
185.269
179.448
175.998
169.712
165.03
158.903
153.401
147.824
142.992
138.614
134.285
130.284
126.644
123.34
120.274
117.316
114.734
112.474
110.569
109.105
108.093
109.783
121.353
129.76
141.98
146.234
158.478
159.637
164.812
165.186
169.711
169.437
172.768
173.222
175.192
175.12
176.893
176.747
178.355
178.272
179.746
180.2
180.299
181.178
181.254
181.97
182.111
182.638
182.775
183.205
183.351
183.71
183.93
184.167
184.353
184.639
184.781
185.074
185.217
185.491
185.63
185.85
185.986
186.16
186.289
186.521
186.641
186.863
186.992
187.224
187.369
187.53
187.674
187.856
187.999
188.186
188.342
188.532
188.681
188.858
189.012
189.192
189.343
189.537
189.697
189.945
190.207
190.484
190.772
191.035
191.272
191.49
191.694
191.937
192.205
192.507
192.823
193.156
193.467
193.778
194.087
194.434
194.788
195.144
195.484
195.832
196.102
196.401
196.665
196.957
197.212
197.47
197.72
197.968
198.215
198.464
198.715
198.967
199.218
199.463
199.704
199.948
200.184
200.416
200.648
200.874
201.093
201.301
201.51
201.713
201.915
202.115
202.315
202.517
202.722
202.931
203.143
203.359
203.577
203.795
204.015
204.235
204.454
204.669
204.88
205.083
205.288
205.487
205.681
205.867
206.054
206.239
206.425
206.61
206.797
206.985
207.175
207.367
207.561
207.758
207.958
208.16
208.366
208.574
208.784
208.992
209.193
209.387
209.596
209.789
209.975
210.165
210.356
210.545
210.733
210.923
211.115
211.31
211.508
211.71
211.915
212.122
212.326
212.524
212.719
212.916
213.1
213.285
213.465
213.646
213.822
214.001
214.18
214.361
214.545
214.73
214.914
215.101
215.284
215.47
215.648
215.83
216.005
216.183
216.361
216.543
216.73
216.922
217.12
217.324
217.535
217.751
217.97
218.192
218.405
218.569
222.848
222.506
222.418
222.313
222.071
221.633
221.047
220.318
219.485
218.528
217.4
216.245
214.903
213.525
211.979
210.312
208.528
206.508
204.107
201.101
197.552
193.417
187.884
181.658
177.782
171.285
166.663
160.073
154.332
148.121
142.668
137.721
132.879
128.342
124.395
120.926
117.765
114.606
111.672
109.253
107.104
105.15
103.446
101.97
100.722
99.6752
99.155
99.0715
99.198
100.812
119.879
135.271
146.861
157.142
161.722
164.048
168.53
169.995
171.883
172.5
174.124
174.074
175.851
175.558
177.265
177.732
177.868
178.776
178.805
179.61
179.735
180.282
180.391
180.853
180.994
181.39
181.617
181.827
181.98
182.233
182.349
182.643
182.763
183.029
183.14
183.373
183.489
183.643
183.748
183.94
184.029
184.24
184.331
184.548
184.649
184.817
184.927
185.062
185.169
185.313
185.422
185.554
185.649
185.765
185.842
185.951
186.006
186.151
186.237
186.424
186.604
186.804
186.999
187.168
187.307
187.429
187.53
187.698
187.885
188.116
188.365
188.638
188.882
189.111
189.313
189.504
189.749
190.018
190.269
190.555
190.823
191.145
191.425
191.759
192.052
192.356
192.646
192.933
193.218
193.502
193.784
194.064
194.342
194.615
194.882
195.151
195.414
195.672
195.926
196.176
196.42
196.652
196.886
197.113
197.341
197.566
197.792
198.019
198.25
198.482
198.717
198.954
199.192
199.43
199.668
199.906
200.139
200.37
200.596
200.813
201.034
201.25
201.463
201.67
201.877
202.082
202.289
202.497
202.705
202.915
203.125
203.337
203.551
203.767
203.987
204.208
204.433
204.66
204.889
205.117
205.337
205.55
205.777
205.992
206.198
206.407
206.618
206.826
207.033
207.242
207.454
207.668
207.886
208.107
208.333
208.56
208.785
209.003
209.217
209.434
209.639
209.843
210.043
210.242
210.438
210.634
210.832
211.032
211.233
211.437
211.639
211.844
212.045
212.248
212.445
212.644
212.837
213.031
213.225
213.424
213.626
213.832
214.045
214.263
214.487
214.715
214.947
215.182
215.404
215.582
222.805
222.411
222.367
222.29
222.085
221.661
221.069
220.298
219.416
218.392
217.206
215.934
214.413
212.716
210.848
208.863
206.608
203.967
200.829
196.838
192.193
187.171
180.448
174.208
170.268
162.916
157.233
150.713
144.819
139.428
134.335
129.445
125.308
121.645
118.256
115.098
112.242
109.795
107.664
105.573
103.697
102.1
100.714
99.4753
98.4059
97.4716
96.6722
95.9757
95.3804
94.9261
94.8219
95.7583
96.4216
115.93
136.798
147.903
161.416
164.746
168.25
169.757
171.259
171.738
173.404
173.08
175.054
175.515
175.899
176.653
176.648
177.554
177.663
178.243
178.34
178.849
179.012
179.428
179.651
179.867
179.979
180.222
180.325
180.608
180.708
180.973
181.07
181.311
181.413
181.571
181.66
181.826
181.901
182.1