/*--------------------------------*- C++ -*----------------------------------*\
| =========                 |                                                 |
| \\      /  F ield         | OpenFOAM: The Open Source CFD Toolbox           |
|  \\    /   O peration     | Version:  2312                                  |
|   \\  /    A nd           | Website:  www.openfoam.com                      |
|    \\/     M anipulation  |                                                 |
\*---------------------------------------------------------------------------*/
FoamFile
{
    version     2.0;
    format      ascii;
    arch        "LSB;label=32;scalar=64";
    class       volVectorField;
    location    "0.001";
    object      U;
}
// * * * * * * * * * * * * * * * * * * * * * * * * * * * * * * * * * * * * * //

dimensions      [0 1 -1 0 0 0 0];

internalField   nonuniform List<vector> 
48128
(
(3.55592 -1.63365 0)
(3.44227 0.41393 0)
(-3.92506 2.88625 0)
(-15.1409 3.40778 0)
(-33.5752 5.63934 0)
(-57.7191 7.31735 0)
(-81.8957 5.83775 0)
(-103.894 4.55329 0)
(-123.789 3.08684 0)
(-140.456 1.65131 0)
(-153.956 1.01471 0)
(-165.333 1.26379 0)
(-174.666 1.25374 0)
(-182.052 1.43211 0)
(-188.274 1.5162 0)
(-193.716 1.6437 0)
(-198.255 1.75578 0)
(-201.905 1.88889 0)
(-204.65 2.15456 0)
(-206.371 2.47747 0)
(-207.007 2.70289 0)
(-206.672 2.38527 0)
(-205.02 2.05612 0)
(-202.086 1.51809 0)
(-197.736 1.07715 0)
(-192.11 0.410144 0)
(-185.166 -0.420435 0)
(-176.573 -1.07927 0)
(-166.07 -1.83448 0)
(-154.493 -2.49459 0)
(-141.632 -3.37183 0)
(-127.672 -4.00489 0)
(-112.81 -4.95137 0)
(-97.0165 -5.43861 0)
(-80.6505 -6.40694 0)
(-63.7483 -6.55426 0)
(-46.9759 -7.18642 0)
(-30.0758 -7.20682 0)
(-14.5566 -6.96498 0)
(0.179696 -6.32039 0)
(12.7774 -5.33057 0)
(25.5083 -5.02803 0)
(38.6037 -5.08856 0)
(51.9519 -5.22199 0)
(65.0936 -5.16367 0)
(77.7757 -4.99484 0)
(90.0246 -4.87648 0)
(101.751 -4.62613 0)
(113.316 -4.50709 0)
(123.979 -4.17532 0)
(134.352 -3.97956 0)
(143.683 -3.73136 0)
(152.715 -3.5726 0)
(161.005 -3.26448 0)
(169.217 -3.12457 0)
(176.796 -2.84451 0)
(184.434 -2.71728 0)
(191.303 -2.45075 0)
(198.024 -2.29313 0)
(204.112 -2.02194 0)
(209.652 -1.83152 0)
(215.371 -1.74601 0)
(220.674 -1.54184 0)
(225.632 -1.44826 0)
(230.526 -1.30892 0)
(235.301 -1.22093 0)
(239.792 -1.08346 0)
(243.981 -0.993232 0)
(247.924 -0.873051 0)
(251.527 -0.792173 0)
(254.991 -0.698413 0)
(258.184 -0.654818 0)
(261.412 -0.557335 0)
(264.675 -0.637066 0)
(269 -0.326488 0)
(268.878 -0.339198 0)
(270.515 -0.389611 0)
(273.076 -0.442256 0)
(276.545 -0.190866 0)
(276.173 -0.201638 0)
(277.318 -0.224006 0)
(278.979 -0.247072 0)
(280.766 -0.186572 0)
(282.321 -0.225905 0)
(284.329 -0.121011 0)
(284.449 -0.126929 0)
(285.386 -0.144246 0)
(286.859 -0.197812 0)
(288.97 -0.0587944 0)
(288.704 -0.0702202 0)
(289.46 -0.095089 0)
(290.6 -0.0874951 0)
(291.948 -0.147705 0)
(293.703 -0.0117862 0)
(293.56 -0.0302905 0)
(294.205 -0.0563044 0)
(295.24 -0.0824465 0)
(296.794 -0.0210472 0)
(296.678 -0.0307802 0)
(297.207 -0.0414018 0)
(298.055 -0.0602467 0)
(299.306 -0.00499587 0)
(299.165 -0.015551 0)
(299.567 -0.024267 0)
(300.17 -0.0357083 0)
(300.883 -0.0125204 0)
(301.367 -0.0146277 0)
(301.921 -0.00983607 0)
(302.521 -0.0167911 0)
(303.141 -0.0187482 0)
(303.799 -0.0159408 0)
(304.429 -0.0199616 0)
(305.104 0.0043051 0)
(305.308 0.00448522 0)
(305.573 0.000343771 0)
(305.888 0.0130041 0)
(306.088 0.00569541 0)
(306.406 -0.00326378 0)
(306.86 -0.00795158 0)
(307.415 -0.011413 0)
(308.072 -0.0135023 0)
(308.527 -0.000981536 0)
(309.076 0.00527082 0)
(308.992 0.016927 0)
(309.045 0.0318859 0)
(308.722 0.0252234 0)
(308.49 0.0304889 0)
(308.184 0.0328949 0)
(307.902 0.0313367 0)
(307.739 0.0245327 0)
(307.696 0.015724 0)
(307.749 0.0121749 0)
(307.868 0.00625023 0)
(308.041 0.00166078 0)
(308.304 0.00662852 0)
(308.512 0.00380319 0)
(308.738 0.00603694 0)
(308.901 0.00512212 0)
(309.082 0.0132485 0)
(309.086 0.0258812 0)
(309.108 0.0311522 0)
(309.054 0.0335053 0)
(308.987 0.0376861 0)
(308.871 0.0388141 0)
(308.754 0.0402821 0)
(308.645 0.0404204 0)
(308.562 0.0389439 0)
(308.476 0.0382435 0)
(308.424 0.0375731 0)
(308.441 0.0346715 0)
(308.404 0.0333431 0)
(308.408 0.032116 0)
(308.433 0.0310761 0)
(308.464 0.0299736 0)
(308.506 0.0303738 0)
(308.556 0.0309642 0)
(308.575 0.0312239 0)
(308.578 0.0359715 0)
(308.556 0.0358441 0)
(308.514 0.0390565 0)
(308.428 0.0391164 0)
(308.321 0.0406148 0)
(308.183 0.0449306 0)
(308.02 0.0457882 0)
(307.822 0.0467599 0)
(307.607 0.0474698 0)
(307.373 0.0485076 0)
(307.137 0.0447712 0)
(306.93 0.0450309 0)
(306.728 0.0412842 0)
(306.54 0.0426923 0)
(306.433 0.0377769 0)
(306.336 0.0345713 0)
(306.269 0.0322982 0)
(306.218 0.0311079 0)
(306.175 0.0303474 0)
(306.141 0.0293313 0)
(306.104 0.0289248 0)
(306.06 0.0296888 0)
(305.998 0.0307833 0)
(305.914 0.0326706 0)
(305.808 0.0343235 0)
(305.678 0.0360881 0)
(305.523 0.0369825 0)
(305.351 0.0384303 0)
(305.155 0.0381234 0)
(304.946 0.0396575 0)
(304.71 0.0389967 0)
(304.464 0.040836 0)
(304.286 0.0366877 0)
(304.077 0.0369399 0)
(303.841 0.0347496 0)
(303.642 0.0334081 0)
(303.54 0.028699 0)
(303.387 0.0268499 0)
(303.234 0.0268426 0)
(303.099 0.0251631 0)
(302.986 0.0251612 0)
(302.852 0.0244042 0)
(302.718 0.0247577 0)
(302.576 0.0240121 0)
(302.433 0.0245181 0)
(302.276 0.0242184 0)
(302.11 0.02502 0)
(301.914 0.0247459 0)
(301.708 0.0264137 0)
(301.579 0.0221269 0)
(301.407 0.0222763 0)
(301.21 0.020598 0)
(301.031 0.0186144 0)
(301.008 0.0121994 0)
(300.93 0.0111092 0)
(300.873 0.0100119 0)
(300.805 0.0092069 0)
(300.786 0.00802741 0)
(300.747 0.00791888 0)
(300.706 0.00795783 0)
(300.658 0.00870108 0)
(300.598 0.00859521 0)
(300.533 0.00875952 0)
(300.469 0.00849822 0)
(300.392 0.00891434 0)
(300.343 0.00744853 0)
(300.269 0.00764955 0)
(300.251 0.00475097 0)
(300.212 0.00314267 0)
(300.224 0.00235311 0)
(300.208 0.00172245 0)
(300.212 0.00208907 0)
(300.196 0.00224603 0)
(300.161 0.00317571 0)
(300.101 0.00436196 0)
(300.015 0.00539688 0)
(299.903 0.00697291 0)
(299.774 0.00713484 0)
(299.632 0.00969003 0)
(299.476 0.00810512 0)
(299.338 0.0101802 0)
(299.176 0.00496918 0)
(299.28 0.00999215 0)
(1.3471 -3.72821 0)
(-4.41626 4.63485 0)
(-17.5792 9.23265 0)
(-35.5146 13.3182 0)
(-58.9085 17.4831 0)
(-82.6556 18.7617 0)
(-104.969 16.2213 0)
(-125.581 13.6189 0)
(-144.226 11.1283 0)
(-159.086 9.66017 0)
(-170.599 8.65158 0)
(-180.259 7.39615 0)
(-187.658 6.4973 0)
(-192.9 5.8691 0)
(-196.756 5.41713 0)
(-199.703 5.09759 0)
(-201.651 4.82766 0)
(-202.677 4.5978 0)
(-202.96 4.4035 0)
(-202.133 4.20129 0)
(-199.889 4.33829 0)
(-196.442 3.71258 0)
(-191.545 3.19063 0)
(-185.187 2.64142 0)
(-177.318 2.01695 0)
(-168.072 1.2777 0)
(-157.52 0.256477 0)
(-146.199 -0.522068 0)
(-133.995 -1.64825 0)
(-120.641 -2.63632 0)
(-106.169 -4.05954 0)
(-90.608 -4.94638 0)
(-74.3328 -6.56513 0)
(-56.984 -7.39534 0)
(-39.4021 -8.87533 0)
(-21.189 -9.29005 0)
(-3.39644 -10.333 0)
(14.9929 -10.4897 0)
(32.2352 -10.1634 0)
(49.5187 -9.89616 0)
(66.9115 -9.48908 0)
(83.7036 -9.66537 0)
(99.1205 -9.71913 0)
(113.475 -9.81316 0)
(127.116 -9.73076 0)
(140.054 -9.46806 0)
(152.47 -9.30465 0)
(164.196 -8.99187 0)
(175.717 -8.84133 0)
(186.153 -8.25374 0)
(196.301 -7.93213 0)
(205.409 -7.33976 0)
(214.247 -7.04758 0)
(222.304 -6.59185 0)
(230.238 -6.41415 0)
(237.452 -5.96375 0)
(244.636 -5.77967 0)
(251.164 -5.24479 0)
(257.382 -5.01182 0)
(263.193 -4.40316 0)
(268.346 -4.35275 0)
(273.597 -4.1737 0)
(278.654 -3.71127 0)
(283.179 -3.63707 0)
(287.764 -3.33311 0)
(292.091 -3.17809 0)
(296.359 -2.83555 0)
(300.196 -2.68451 0)
(303.969 -2.39854 0)
(307.343 -2.26988 0)
(310.659 -2.07363 0)
(313.702 -1.9545 0)
(316.771 -1.89638 0)
(319.893 -1.86569 0)
(324.268 -1.69614 0)
(324.305 -1.1757 0)
(325.935 -1.10374 0)
(328.328 -1.20322 0)
(332.043 -1.20091 0)
(331.906 -0.904262 0)
(333.076 -0.798549 0)
(334.73 -0.835658 0)
(336.532 -1.00123 0)
(338.047 -0.975102 0)
(340.218 -0.81623 0)
(340.538 -0.681773 0)
(341.567 -0.671182 0)
(343.003 -0.699968 0)
(345.305 -0.714364 0)
(345.256 -0.544076 0)
(346.056 -0.459002 0)
(347.229 -0.490634 0)
(348.544 -0.608067 0)
(350.502 -0.564167 0)
(350.556 -0.391515 0)
(351.281 -0.357843 0)
(352.345 -0.378346 0)
(354.031 -0.429232 0)
(354.141 -0.300472 0)
(354.786 -0.259867 0)
(355.69 -0.307269 0)
(357.119 -0.320653 0)
(357.194 -0.236122 0)
(357.712 -0.197526 0)
(358.419 -0.208325 0)
(359.242 -0.242546 0)
(359.855 -0.212562 0)
(360.532 -0.1849 0)
(361.242 -0.188061 0)
(361.971 -0.153327 0)
(362.73 -0.141833 0)
(363.475 -0.117509 0)
(364.321 -0.0281598 0)
(364.727 -0.0410765 0)
(365.181 -0.0228652 0)
(365.683 -0.030808 0)
(366.036 -0.0477001 0)
(366.478 -0.0430812 0)
(367.018 -0.0817264 0)
(367.644 -0.0577607 0)
(368.366 -0.0459541 0)
(368.945 -0.0323834 0)
(369.666 -0.0117516 0)
(369.804 -0.0126296 0)
(370.098 0.00622284 0)
(369.93 -0.0129537 0)
(369.921 -0.0174968 0)
(369.837 -0.0262353 0)
(369.804 -0.0272736 0)
(369.841 -0.0334958 0)
(369.936 -0.0299652 0)
(370.102 -0.0203593 0)
(370.327 -0.0281157 0)
(370.599 -0.0154715 0)
(370.966 -0.0113576 0)
(371.272 0.0019627 0)
(371.604 0.00846225 0)
(371.864 0.0225153 0)
(372.16 0.0160367 0)
(372.29 0.0391654 0)
(372.462 0.0406801 0)
(372.533 0.0372405 0)
(372.629 0.0430645 0)
(372.652 0.0369181 0)
(372.687 0.0389895 0)
(372.733 0.0357262 0)
(372.789 0.0361852 0)
(372.852 0.0362603 0)
(372.933 0.0349592 0)
(373.063 0.0338314 0)
(373.148 0.0326069 0)
(373.254 0.0353101 0)
(373.379 0.0370714 0)
(373.51 0.0371004 0)
(373.648 0.0400001 0)
(373.795 0.0418541 0)
(373.906 0.0448174 0)
(374.023 0.0523429 0)
(374.089 0.0521605 0)
(374.164 0.0564709 0)
(374.163 0.0564976 0)
(374.155 0.0582634 0)
(374.119 0.0640873 0)
(374.059 0.0636859 0)
(373.97 0.0632141 0)
(373.862 0.0650845 0)
(373.736 0.0598394 0)
(373.609 0.0601985 0)
(373.489 0.0557555 0)
(373.38 0.0526947 0)
(373.257 0.0570541 0)
(373.218 0.0407687 0)
(373.181 0.0443222 0)
(373.16 0.0438191 0)
(373.149 0.0449666 0)
(373.146 0.0439577 0)
(373.142 0.0454776 0)
(373.133 0.0467402 0)
(373.113 0.0496509 0)
(373.076 0.0512717 0)
(373.017 0.0550245 0)
(372.94 0.0556214 0)
(372.841 0.0577207 0)
(372.721 0.0580943 0)
(372.585 0.0594036 0)
(372.427 0.0580311 0)
(372.255 0.0601244 0)
(372.061 0.0581602 0)
(371.843 0.0616476 0)
(371.688 0.0509336 0)
(371.505 0.0528423 0)
(371.308 0.0478039 0)
(371.102 0.0544883 0)
(371.002 0.0409962 0)
(370.86 0.0396396 0)
(370.715 0.0409436 0)
(370.576 0.0401058 0)
(370.458 0.0399456 0)
(370.325 0.0385739 0)
(370.19 0.0399874 0)
(370.049 0.0383551 0)
(369.907 0.0398276 0)
(369.753 0.0390259 0)
(369.588 0.0407507 0)
(369.4 0.0404058 0)
(369.186 0.043024 0)
(369.049 0.0327005 0)
(368.876 0.0341047 0)
(368.692 0.0306892 0)
(368.486 0.0316774 0)
(368.447 0.0179478 0)
(368.357 0.0194017 0)
(368.286 0.0180311 0)
(368.202 0.0184126 0)
(368.168 0.0165902 0)
(368.12 0.017039 0)
(368.071 0.0177916 0)
(368.018 0.0197087 0)
(367.956 0.0190531 0)
(367.892 0.0196283 0)
(367.832 0.0189366 0)
(367.758 0.0191276 0)
(367.717 0.016184 0)
(367.648 0.0166982 0)
(367.64 0.0122244 0)
(367.608 0.0109912 0)
(367.623 0.00917264 0)
(367.615 0.0082692 0)
(367.626 0.00856321 0)
(367.618 0.00920113 0)
(367.597 0.0104821 0)
(367.555 0.0123489 0)
(367.49 0.0134101 0)
(367.403 0.0143045 0)
(367.297 0.0142189 0)
(367.178 0.0152291 0)
(367.049 0.0128661 0)
(366.923 0.0142026 0)
(366.745 0.00781569 0)
(366.817 0.0147144 0)
(-4.63451 -0.722048 0)
(-12.8279 10.6861 0)
(-29.0842 19.541 0)
(-50.5609 26.8642 0)
(-72.9901 32.0653 0)
(-94.3931 31.5051 0)
(-113.59 27.6081 0)
(-130.736 23.5379 0)
(-145.473 19.7103 0)
(-157.476 16.78 0)
(-167.23 14.1121 0)
(-174.949 11.7294 0)
(-180.432 9.90484 0)
(-183.894 8.55269 0)
(-186.145 7.60803 0)
(-187.501 6.9973 0)
(-187.951 6.60924 0)
(-187.526 6.10106 0)
(-185.834 5.65491 0)
(-182.901 4.9956 0)
(-178.615 3.87425 0)
(-172.965 2.94173 0)
(-166.184 1.88144 0)
(-158.063 0.799522 0)
(-148.578 -0.458689 0)
(-137.893 -1.81165 0)
(-126.099 -3.36336 0)
(-113.114 -4.69193 0)
(-98.9087 -6.49851 0)
(-83.4634 -8.19751 0)
(-66.8857 -10.4831 0)
(-49.1378 -12.0002 0)
(-30.6934 -14.3786 0)
(-11.246 -15.7965 0)
(8.26994 -17.8684 0)
(28.1847 -18.4178 0)
(47.5337 -19.9814 0)
(66.9984 -20.4272 0)
(85.4984 -19.9299 0)
(103.885 -20.0562 0)
(122.006 -19.9298 0)
(139.146 -19.9103 0)
(154.802 -19.3696 0)
(169.343 -19.0501 0)
(183.045 -18.6448 0)
(195.773 -18.0306 0)
(207.973 -17.5637 0)
(219.261 -16.8952 0)
(230.395 -16.465 0)
(240.143 -15.3848 0)
(249.637 -14.6874 0)
(257.905 -13.6589 0)
(265.94 -13.0317 0)
(273.089 -12.2031 0)
(280.124 -11.6977 0)
(286.348 -10.8861 0)
(292.524 -10.4424 0)
(298.11 -9.55304 0)
(303.26 -9.08105 0)
(308.127 -8.16161 0)
(312.332 -7.84161 0)
(316.637 -7.49832 0)
(320.84 -6.81217 0)
(324.495 -6.53426 0)
(328.252 -6.03695 0)
(331.745 -5.73443 0)
(335.237 -5.20926 0)
(338.304 -4.91749 0)
(341.368 -4.47307 0)
(344.078 -4.22148 0)
(346.76 -3.89688 0)
(349.236 -3.66806 0)
(351.756 -3.50483 0)
(354.359 -3.39085 0)
(358.015 -3.27874 0)
(357.94 -2.71618 0)
(359.248 -2.39238 0)
(361.221 -2.30336 0)
(364.297 -2.45747 0)
(364.192 -2.03098 0)
(365.122 -1.7898 0)
(366.468 -1.72354 0)
(367.953 -1.8965 0)
(369.299 -1.86718 0)
(371.22 -1.88415 0)
(371.394 -1.58903 0)
(372.237 -1.47057 0)
(373.449 -1.40654 0)
(375.388 -1.52778 0)
(375.368 -1.26139 0)
(376.039 -1.0985 0)
(377.032 -1.06895 0)
(378.174 -1.15205 0)
(379.903 -1.23972 0)
(379.923 -0.993336 0)
(380.541 -0.880004 0)
(381.471 -0.819794 0)
(382.939 -1.01022 0)
(383.039 -0.775913 0)
(383.606 -0.689928 0)
(384.41 -0.666706 0)
(385.676 -0.822612 0)
(385.749 -0.628128 0)
(386.216 -0.550256 0)
(386.85 -0.523065 0)
(387.583 -0.565619 0)
(388.155 -0.523766 0)
(388.777 -0.481604 0)
(389.429 -0.464764 0)
(390.096 -0.416117 0)
(390.788 -0.381719 0)
(391.474 -0.333642 0)
(392.248 -0.247516 0)
(392.624 -0.230317 0)
(393.052 -0.190191 0)
(393.515 -0.198177 0)
(393.871 -0.202819 0)
(394.304 -0.188921 0)
(394.822 -0.225525 0)
(395.419 -0.179355 0)
(396.092 -0.170115 0)
(396.641 -0.135242 0)
(397.32 -0.144502 0)
(397.488 -0.136766 0)
(397.83 -0.140873 0)
(397.705 -0.133109 0)
(397.739 -0.154004 0)
(397.701 -0.17364 0)
(397.722 -0.163707 0)
(397.794 -0.151366 0)
(397.919 -0.133273 0)
(398.102 -0.101339 0)
(398.335 -0.100507 0)
(398.606 -0.0754222 0)
(398.957 -0.0808992 0)
(399.264 -0.0444659 0)
(399.593 -0.0362544 0)
(399.861 -0.0134915 0)
(400.16 -0.0233615 0)
(400.315 0.00287741 0)
(400.505 0.00992407 0)
(400.605 0.00483749 0)
(400.729 0.00871978 0)
(400.781 0.00273577 0)
(400.845 0.00466152 0)
(400.919 0.0018234 0)
(400.997 0.00706656 0)
(401.081 0.00655781 0)
(401.18 0.01168 0)
(401.32 0.00754507 0)
(401.42 0.00926686 0)
(401.535 0.0182176 0)
(401.668 0.0222569 0)
(401.807 0.0239174 0)
(401.95 0.0312712 0)
(402.105 0.0332557 0)
(402.225 0.0418095 0)
(402.356 0.0478471 0)
(402.437 0.0525157 0)
(402.53 0.0567063 0)
(402.551 0.0628621 0)
(402.564 0.0664612 0)
(402.549 0.0709043 0)
(402.516 0.0717512 0)
(402.456 0.0705833 0)
(402.378 0.0742822 0)
(402.283 0.0666342 0)
(402.184 0.0670405 0)
(402.087 0.0662609 0)
(401.998 0.0601312 0)
(401.897 0.0732717 0)
(401.864 0.0483745 0)
(401.84 0.0566052 0)
(401.82 0.0565722 0)
(401.813 0.0598042 0)
(401.809 0.0607125 0)
(401.804 0.0643064 0)
(401.793 0.0673054 0)
(401.771 0.0723648 0)
(401.733 0.075831 0)
(401.676 0.0818714 0)
(401.602 0.0832653 0)
(401.508 0.0870189 0)
(401.395 0.0866922 0)
(401.267 0.0889351 0)
(401.119 0.0863541 0)
(400.957 0.0897669 0)
(400.775 0.0860479 0)
(400.572 0.0934775 0)
(400.417 0.0784901 0)
(400.238 0.0808773 0)
(400.045 0.0714454 0)
(399.843 0.0878635 0)
(399.728 0.064267 0)
(399.576 0.0614069 0)
(399.423 0.0646492 0)
(399.272 0.0650182 0)
(399.143 0.0651626 0)
(399 0.0621487 0)
(398.857 0.0646057 0)
(398.71 0.0618813 0)
(398.561 0.0645424 0)
(398.402 0.0626524 0)
(398.234 0.0662959 0)
(398.043 0.0644709 0)
(397.829 0.0728021 0)
(397.679 0.05501 0)
(397.497 0.0562855 0)
(397.304 0.0483033 0)
(397.088 0.0574564 0)
(397.019 0.0306833 0)
(396.906 0.0346844 0)
(396.813 0.0320481 0)
(396.707 0.0346662 0)
(396.651 0.0299558 0)
(396.584 0.0311078 0)
(396.519 0.0322764 0)
(396.452 0.0352532 0)
(396.379 0.0334081 0)
(396.304 0.0350052 0)
(396.237 0.0322521 0)
(396.155 0.0340313 0)
(396.106 0.0278568 0)
(396.031 0.0299379 0)
(396.01 0.0216738 0)
(395.963 0.0206402 0)
(395.965 0.0169155 0)
(395.948 0.0163236 0)
(395.949 0.0165361 0)
(395.936 0.0177846 0)
(395.912 0.0191897 0)
(395.87 0.021695 0)
(395.809 0.022305 0)
(395.729 0.0235753 0)
(395.635 0.022408 0)
(395.528 0.0242168 0)
(395.412 0.0198696 0)
(395.296 0.0224378 0)
(395.125 0.0183078 0)
(395.188 0.0215492 0)
(-6.38409 4.91159 0)
(-19.3991 19.8368 0)
(-39.3087 30.8053 0)
(-59.7935 40.0334 0)
(-80.2359 43.4901 0)
(-98.4858 41.8827 0)
(-114.153 36.9809 0)
(-127.84 31.5924 0)
(-139.812 25.8384 0)
(-149.481 20.5715 0)
(-156.95 16.4115 0)
(-162.609 13.4426 0)
(-166.254 11.2092 0)
(-168.113 9.53091 0)
(-169.056 8.37513 0)
(-169.259 7.50986 0)
(-168.527 6.77081 0)
(-166.814 6.05983 0)
(-163.944 5.31589 0)
(-159.9 4.51533 0)
(-154.602 3.57512 0)
(-147.956 2.23054 0)
(-140.035 0.875155 0)
(-130.718 -0.721859 0)
(-119.893 -2.54556 0)
(-107.626 -4.4849 0)
(-93.9865 -6.8236 0)
(-78.8681 -8.97349 0)
(-62.3243 -11.7844 0)
(-44.3264 -14.2148 0)
(-25.2385 -17.5894 0)
(-4.73903 -19.9222 0)
(16.529 -23.1538 0)
(38.6599 -25.2114 0)
(60.6555 -28.3213 0)
(82.9167 -28.8711 0)
(104.22 -31.0717 0)
(125.211 -31.5023 0)
(145.101 -30.5744 0)
(164.131 -31.0664 0)
(182.628 -30.6661 0)
(199.638 -30.1287 0)
(215.565 -28.9019 0)
(229.804 -28.1812 0)
(243.458 -27.3416 0)
(255.576 -26.245 0)
(267.406 -25.4107 0)
(277.893 -24.2704 0)
(288.356 -23.4036 0)
(297.041 -21.672 0)
(305.469 -20.4629 0)
(312.373 -18.8811 0)
(319.223 -17.9237 0)
(324.975 -16.7068 0)
(330.789 -15.8857 0)
(335.728 -14.7207 0)
(340.65 -13.989 0)
(345.026 -12.743 0)
(348.919 -12.0841 0)
(352.597 -10.8581 0)
(355.632 -10.4481 0)
(358.789 -9.87803 0)
(361.901 -9.02288 0)
(364.534 -8.57908 0)
(367.254 -7.85983 0)
(369.759 -7.44364 0)
(372.247 -6.72662 0)
(374.405 -6.37464 0)
(376.567 -5.79492 0)
(378.466 -5.50409 0)
(380.364 -5.08681 0)
(382.124 -4.81281 0)
(383.948 -4.59628 0)
(385.864 -4.45764 0)
(388.572 -4.43654 0)
(388.327 -3.67941 0)
(389.207 -3.10496 0)
(390.593 -3.01447 0)
(392.797 -3.33315 0)
(392.621 -2.82569 0)
(393.239 -2.40628 0)
(394.155 -2.3502 0)
(395.174 -2.5283 0)
(396.219 -2.56185 0)
(397.725 -2.5952 0)
(397.693 -2.26524 0)
(398.265 -1.98838 0)
(399.15 -1.92942 0)
(400.58 -2.13681 0)
(400.515 -1.80202 0)
(400.992 -1.52561 0)
(401.715 -1.48047 0)
(402.581 -1.56188 0)
(403.925 -1.71704 0)
(403.883 -1.42116 0)
(404.331 -1.21317 0)
(405.032 -1.16899 0)
(406.181 -1.35269 0)
(406.206 -1.14478 0)
(406.623 -0.980669 0)
(407.241 -0.96605 0)
(408.247 -1.12201 0)
(408.261 -0.939051 0)
(408.609 -0.804676 0)
(409.1 -0.768077 0)
(409.67 -0.825092 0)
(410.138 -0.77615 0)
(410.638 -0.713273 0)
(411.167 -0.676146 0)
(411.71 -0.607005 0)
(412.275 -0.536659 0)
(412.838 -0.476149 0)
(413.489 -0.405514 0)
(413.762 -0.352246 0)
(414.096 -0.310219 0)
(414.449 -0.348923 0)
(414.745 -0.347212 0)
(415.109 -0.321418 0)
(415.549 -0.32725 0)
(416.068 -0.262904 0)
(416.644 -0.262731 0)
(417.116 -0.229784 0)
(417.702 -0.261984 0)
(417.833 -0.25515 0)
(418.113 -0.280121 0)
(417.987 -0.26829 0)
(418.006 -0.304757 0)
(417.968 -0.331107 0)
(417.981 -0.311884 0)
(418.035 -0.280317 0)
(418.136 -0.244558 0)
(418.286 -0.196215 0)
(418.482 -0.172368 0)
(418.712 -0.128817 0)
(419.012 -0.132886 0)
(419.278 -0.0939836 0)
(419.563 -0.0782028 0)
(419.79 -0.0502127 0)
(420.043 -0.0600216 0)
(420.178 -0.0297717 0)
(420.339 -0.0243047 0)
(420.419 -0.0332996 0)
(420.523 -0.0353182 0)
(420.56 -0.0360488 0)
(420.609 -0.0354146 0)
(420.666 -0.0308525 0)
(420.727 -0.0231342 0)
(420.795 -0.0214775 0)
(420.874 -0.0044965 0)
(420.987 -0.0163875 0)
(421.072 -0.00896565 0)
(421.168 0.00738156 0)
(421.279 0.00893015 0)
(421.396 0.0162907 0)
(421.518 0.0274656 0)
(421.65 0.0301089 0)
(421.753 0.041613 0)
(421.865 0.0480801 0)
(421.932 0.0554955 0)
(422.01 0.0574612 0)
(422.023 0.069611 0)
(422.025 0.0734606 0)
(422.01 0.0756565 0)
(421.973 0.0770547 0)
(421.912 0.0750933 0)
(421.834 0.0781774 0)
(421.738 0.0684722 0)
(421.64 0.0722841 0)
(421.543 0.0700339 0)
(421.452 0.0649879 0)
(421.351 0.0803649 0)
(421.311 0.0565743 0)
(421.282 0.0674557 0)
(421.251 0.0689483 0)
(421.236 0.0747139 0)
(421.22 0.0779805 0)
(421.203 0.0844924 0)
(421.179 0.0894205 0)
(421.145 0.0967357 0)
(421.096 0.101193 0)
(421.029 0.109256 0)
(420.946 0.109935 0)
(420.844 0.114352 0)
(420.725 0.113034 0)
(420.591 0.11583 0)
(420.438 0.111667 0)
(420.274 0.116133 0)
(420.091 0.110234 0)
(419.889 0.121032 0)
(419.728 0.104357 0)
(419.544 0.105999 0)
(419.347 0.0913037 0)
(419.142 0.118934 0)
(419.011 0.0896337 0)
(418.848 0.0835749 0)
(418.683 0.0882463 0)
(418.516 0.0903903 0)
(418.371 0.0904535 0)
(418.215 0.0856553 0)
(418.059 0.0888809 0)
(417.9 0.0850597 0)
(417.74 0.0887591 0)
(417.571 0.0855092 0)
(417.393 0.0910892 0)
(417.195 0.0874306 0)
(416.975 0.0993911 0)
(416.81 0.0781105 0)
(416.616 0.0778132 0)
(416.411 0.0659726 0)
(416.184 0.0811594 0)
(416.089 0.0485201 0)
(415.954 0.0529439 0)
(415.838 0.0487988 0)
(415.71 0.0528812 0)
(415.63 0.046723 0)
(415.54 0.0480657 0)
(415.454 0.0490536 0)
(415.368 0.0530701 0)
(415.278 0.050286 0)
(415.186 0.0527421 0)
(415.104 0.0482267 0)
(415.009 0.0508221 0)
(414.945 0.0423956 0)
(414.858 0.0452659 0)
(414.82 0.0349757 0)
(414.756 0.0347825 0)
(414.74 0.0282428 0)
(414.706 0.0275461 0)
(414.691 0.0275221 0)
(414.665 0.0289536 0)
(414.629 0.0303893 0)
(414.578 0.033043 0)
(414.511 0.0329056 0)
(414.429 0.0339616 0)
(414.334 0.0311762 0)
(414.23 0.0328715 0)
(414.118 0.0265246 0)
(414.006 0.029324 0)
(413.842 0.0265065 0)
(413.898 0.0292449 0)
(-7.90802 13.3047 0)
(-24.6856 30.7283 0)
(-45.347 43.2026 0)
(-64.3994 51.4907 0)
(-82.1533 53.824 0)
(-97.3275 50.5971 0)
(-109.668 43.9466 0)
(-120.586 36.3417 0)
(-130.123 29.5862 0)
(-137.655 23.9228 0)
(-143.105 19.0748 0)
(-147.099 15.3454 0)
(-149.416 12.6102 0)
(-150.137 10.5172 0)
(-150.222 9.01247 0)
(-149.418 7.84474 0)
(-147.785 6.87754 0)
(-145.15 5.87554 0)
(-141.413 4.75763 0)
(-136.483 3.43165 0)
(-130.226 1.8537 0)
(-122.45 -0.0296127 0)
(-113.139 -1.9852 0)
(-102.277 -4.3077 0)
(-89.7082 -6.97018 0)
(-75.3921 -9.694 0)
(-59.4814 -12.9748 0)
(-41.7558 -15.964 0)
(-22.3793 -19.9043 0)
(-1.11495 -23.2706 0)
(21.4477 -27.9044 0)
(45.714 -31.0687 0)
(70.7683 -35.5935 0)
(96.5991 -37.9396 0)
(121.8 -41.9262 0)
(147.372 -42.2902 0)
(170.914 -44.721 0)
(193.613 -44.8791 0)
(215.684 -43.7002 0)
(234.607 -43.4728 0)
(253.746 -42.9451 0)
(270.132 -41.5658 0)
(286.734 -40.08 0)
(299.881 -38.528 0)
(313.414 -37.3253 0)
(324.352 -35.4555 0)
(335.591 -34.2964 0)
(344.849 -32.4677 0)
(354.109 -30.9882 0)
(361.365 -28.5167 0)
(368.112 -26.7288 0)
(373.099 -24.4844 0)
(378.235 -23.1542 0)
(382.073 -21.3226 0)
(386.186 -20.1917 0)
(389.396 -18.5554 0)
(392.618 -17.5083 0)
(395.348 -15.8582 0)
(397.582 -14.9246 0)
(399.723 -13.4737 0)
(401.112 -12.7707 0)
(402.801 -11.9683 0)
(404.505 -10.9839 0)
(405.792 -10.364 0)
(407.263 -9.48203 0)
(408.553 -8.94384 0)
(409.913 -8.09834 0)
(411.006 -7.64924 0)
(412.177 -6.96712 0)
(413.158 -6.61921 0)
(414.18 -6.11179 0)
(415.119 -5.79251 0)
(416.138 -5.49388 0)
(417.257 -5.278 0)
(418.873 -5.31543 0)
(418.444 -4.63071 0)
(418.776 -3.86891 0)
(419.492 -3.68744 0)
(420.689 -3.99659 0)
(420.414 -3.55305 0)
(420.621 -3.06716 0)
(421.033 -2.94137 0)
(421.546 -3.06015 0)
(422.147 -3.10902 0)
(423.063 -3.21238 0)
(422.875 -2.85987 0)
(423.132 -2.4986 0)
(423.621 -2.39539 0)
(424.432 -2.6232 0)
(424.291 -2.3096 0)
(424.497 -1.96631 0)
(424.887 -1.86782 0)
(425.403 -1.9297 0)
(426.252 -2.12312 0)
(426.124 -1.82829 0)
(426.352 -1.5853 0)
(426.775 -1.49317 0)
(427.474 -1.70443 0)
(427.439 -1.4691 0)
(427.667 -1.29688 0)
(428.045 -1.24149 0)
(428.668 -1.43322 0)
(428.628 -1.22121 0)
(428.819 -1.07495 0)
(429.114 -1.00671 0)
(429.467 -1.03516 0)
(429.779 -0.998324 0)
(430.105 -0.918811 0)
(430.461 -0.861862 0)
(430.831 -0.771411 0)
(431.224 -0.682675 0)
(431.615 -0.588919 0)
(432.094 -0.554548 0)
(432.222 -0.471859 0)
(432.42 -0.421024 0)
(432.619 -0.460135 0)
(432.822 -0.494377 0)
(433.072 -0.451909 0)
(433.392 -0.414552 0)
(433.787 -0.33391 0)
(434.227 -0.336175 0)
(434.588 -0.298971 0)
(435.038 -0.378132 0)
(435.094 -0.363329 0)
(435.253 -0.421684 0)
(435.107 -0.411911 0)
(435.073 -0.482797 0)
(434.998 -0.504446 0)
(434.961 -0.466856 0)
(434.966 -0.413424 0)
(435.013 -0.359039 0)
(435.099 -0.287945 0)
(435.23 -0.244077 0)
(435.391 -0.18602 0)
(435.615 -0.177568 0)
(435.814 -0.138761 0)
(436.028 -0.115428 0)
(436.189 -0.0843072 0)
(436.371 -0.0963129 0)
(436.457 -0.0675562 0)
(436.557 -0.0677479 0)
(436.593 -0.0702022 0)
(436.65 -0.0759648 0)
(436.649 -0.0771559 0)
(436.661 -0.0776708 0)
(436.678 -0.0692914 0)
(436.701 -0.0608242 0)
(436.731 -0.0543266 0)
(436.768 -0.0286897 0)
(436.833 -0.0360595 0)
(436.889 -0.0332504 0)
(436.946 -0.00577337 0)
(437.02 -0.00340654 0)
(437.1 0.00752615 0)
(437.183 0.0225977 0)
(437.277 0.0264534 0)
(437.345 0.0402352 0)
(437.422 0.0442544 0)
(437.459 0.0551696 0)
(437.5 0.0597025 0)
(437.492 0.0705344 0)
(437.473 0.0756826 0)
(437.436 0.0760692 0)
(437.378 0.0782043 0)
(437.298 0.0741464 0)
(437.201 0.0772984 0)
(437.09 0.0681983 0)
(436.976 0.072908 0)
(436.862 0.0699411 0)
(436.758 0.0663237 0)
(436.642 0.0845957 0)
(436.583 0.0666171 0)
(436.537 0.0780511 0)
(436.488 0.0796019 0)
(436.453 0.088293 0)
(436.418 0.0950376 0)
(436.381 0.10415 0)
(436.337 0.110884 0)
(436.283 0.120503 0)
(436.214 0.126195 0)
(436.128 0.135638 0)
(436.027 0.136489 0)
(435.909 0.141691 0)
(435.774 0.13918 0)
(435.625 0.142298 0)
(435.46 0.136393 0)
(435.283 0.141608 0)
(435.09 0.133559 0)
(434.88 0.14671 0)
(434.706 0.130591 0)
(434.511 0.131106 0)
(434.304 0.111901 0)
(434.092 0.147543 0)
(433.94 0.116547 0)
(433.763 0.107146 0)
(433.582 0.112682 0)
(433.397 0.116431 0)
(433.233 0.116942 0)
(433.059 0.110323 0)
(432.888 0.114282 0)
(432.713 0.10923 0)
(432.538 0.113969 0)
(432.353 0.109147 0)
(432.162 0.116612 0)
(431.952 0.110794 0)
(431.721 0.126506 0)
(431.538 0.1035 0)
(431.329 0.101065 0)
(431.109 0.0848919 0)
(430.87 0.106019 0)
(430.748 0.0698811 0)
(430.592 0.0736865 0)
(430.452 0.068242 0)
(430.301 0.0738552 0)
(430.196 0.0661642 0)
(430.082 0.0677299 0)
(429.973 0.0682341 0)
(429.865 0.0729239 0)
(429.754 0.0690596 0)
(429.641 0.0723683 0)
(429.539 0.0656592 0)
(429.426 0.0694189 0)
(429.344 0.0586118 0)
(429.24 0.0625391 0)
(429.182 0.0501033 0)
(429.1 0.05025 0)
(429.061 0.0422151 0)
(429.007 0.0410274 0)
(428.972 0.0408545 0)
(428.927 0.0421359 0)
(428.875 0.0433005 0)
(428.809 0.0456062 0)
(428.731 0.0445075 0)
(428.639 0.0449064 0)
(428.537 0.0405192 0)
(428.427 0.0422675 0)
(428.313 0.0336049 0)
(428.2 0.0366426 0)
(428.035 0.0353486 0)
(428.083 0.0379518 0)
(-10.9767 23.3735 0)
(-27.3753 42.6062 0)
(-48.0459 54.3174 0)
(-64.9142 61.6888 0)
(-80.0747 62.3704 0)
(-92.4279 57.1167 0)
(-102.211 48.7963 0)
(-111.086 40.6562 0)
(-118.308 32.9144 0)
(-123.856 26.1833 0)
(-127.768 20.6451 0)
(-130.565 16.4459 0)
(-131.902 13.2955 0)
(-131.686 10.8261 0)
(-130.941 8.91472 0)
(-129.226 7.53342 0)
(-126.731 6.26073 0)
(-123.196 4.89112 0)
(-118.494 3.34569 0)
(-112.482 1.54763 0)
(-104.984 -0.632622 0)
(-95.7766 -3.26931 0)
(-84.7482 -5.96542 0)
(-71.9356 -9.14008 0)
(-57.2183 -12.814 0)
(-40.2937 -16.5043 0)
(-21.4247 -21.1018 0)
(-0.0951165 -25.2308 0)
(23.2442 -30.7915 0)
(48.9884 -35.2006 0)
(76.2337 -41.4523 0)
(105.607 -45.4333 0)
(135.639 -51.7374 0)
(166.683 -54.2098 0)
(195.585 -58.8407 0)
(225.45 -59.0267 0)
(251.075 -61.3181 0)
(275.04 -60.3784 0)
(300.223 -59.4115 0)
(317.794 -57.4028 0)
(337.116 -56.6708 0)
(351.928 -53.7867 0)
(367.716 -52.226 0)
(378.784 -49.2475 0)
(390.71 -47.7343 0)
(399.739 -44.7633 0)
(409.036 -43.2978 0)
(416.505 -40.5593 0)
(423.474 -38.2923 0)
(429.252 -34.912 0)
(433.64 -32.5027 0)
(437.103 -29.4701 0)
(440.053 -27.7085 0)
(442.385 -25.2291 0)
(444.423 -23.7746 0)
(446.105 -21.6944 0)
(447.265 -20.2165 0)
(448.424 -18.2661 0)
(448.642 -17.061 0)
(449.4 -15.4676 0)
(448.844 -14.489 0)
(449.238 -13.4288 0)
(449.369 -12.3624 0)
(449.056 -11.5614 0)
(449.42 -10.5047 0)
(449.096 -9.80345 0)
(449.401 -8.92188 0)
(449.069 -8.36799 0)
(449.26 -7.67237 0)
(448.971 -7.24768 0)
(449.077 -6.72707 0)
(448.905 -6.37205 0)
(448.964 -6.02004 0)
(449.188 -5.78206 0)
(449.614 -5.8226 0)
(449.054 -5.311 0)
(448.655 -4.44364 0)
(448.595 -4.16539 0)
(448.832 -4.29815 0)
(448.441 -4.06041 0)
(448.148 -3.58383 0)
(447.92 -3.37065 0)
(447.957 -3.41986 0)
(448.075 -3.47953 0)
(448.344 -3.61652 0)
(448.031 -3.34896 0)
(447.862 -2.90517 0)
(447.916 -2.75998 0)
(448.089 -2.86395 0)
(447.862 -2.67282 0)
(447.709 -2.31617 0)
(447.72 -2.14667 0)
(447.832 -2.15771 0)
(448.141 -2.31697 0)
(447.949 -2.13542 0)
(447.872 -1.8645 0)
(447.991 -1.74153 0)
(448.212 -1.85157 0)
(448.102 -1.71329 0)
(448.077 -1.52635 0)
(448.179 -1.45794 0)
(448.39 -1.57112 0)
(448.291 -1.44324 0)
(448.263 -1.28198 0)
(448.334 -1.17123 0)
(448.44 -1.17746 0)
(448.553 -1.14882 0)
(448.665 -1.05869 0)
(448.816 -0.980184 0)
(448.978 -0.8662 0)
(449.173 -0.750307 0)
(449.351 -0.646183 0)
(449.602 -0.618163 0)
(449.578 -0.537931 0)
(449.623 -0.510473 0)
(449.648 -0.545581 0)
(449.713 -0.590361 0)
(449.819 -0.535306 0)
(449.993 -0.458802 0)
(450.233 -0.366233 0)
(450.509 -0.364663 0)
(450.729 -0.355296 0)
(450.996 -0.459191 0)
(450.965 -0.457462 0)
(450.986 -0.533509 0)
(450.811 -0.562342 0)
(450.681 -0.655049 0)
(450.545 -0.66024 0)
(450.432 -0.60898 0)
(450.348 -0.537974 0)
(450.311 -0.45994 0)
(450.309 -0.366789 0)
(450.355 -0.302908 0)
(450.419 -0.225731 0)
(450.546 -0.206843 0)
(450.654 -0.160064 0)
(450.776 -0.138853 0)
(450.848 -0.104151 0)
(450.935 -0.111583 0)
(450.958 -0.0943195 0)
(450.967 -0.100177 0)
(450.947 -0.100501 0)
(450.929 -0.111871 0)
(450.881 -0.112801 0)
(450.832 -0.113979 0)
(450.794 -0.100074 0)
(450.756 -0.0896422 0)
(450.726 -0.0791335 0)
(450.705 -0.0482724 0)
(450.714 -0.0502891 0)
(450.717 -0.0447596 0)