/*--------------------------------*- C++ -*----------------------------------*\
| =========                 |                                                 |
| \\      /  F ield         | OpenFOAM: The Open Source CFD Toolbox           |
|  \\    /   O peration     | Version:  2312                                  |
|   \\  /    A nd           | Website:  www.openfoam.com                      |
|    \\/     M anipulation  |                                                 |
\*---------------------------------------------------------------------------*/
FoamFile
{
    version     2.0;
    format      ascii;
    arch        "LSB;label=32;scalar=64";
    class       volScalarField;
    location    "0.25";
    object      p_rgh;
}
// * * * * * * * * * * * * * * * * * * * * * * * * * * * * * * * * * * * * * //

dimensions      [1 -1 -2 0 0 0 0];

internalField   nonuniform List<scalar> 
800
(
1
1
1
1
1
1
1
1
1
1
1
1
1
1
1
1
1
1
1
1
1
1
1
1
1
1
1
1
1
1
1
1
1
1
1
1
1
1
1
1
1
1
1
1
1
1
1
1
1
1
1
1
1
1
1
1
1
1
1
1
1
1
1
1
1
1
1
1
1
1
1
1
1
1
1
1
1
1
1
1
1
1
1
1
1
1
1
1
1
1
1
1
1
1
1
1
1
1
1
1
1
1
1
1
1
1
1
1
1
1
1
1
1
1
1
1
1
1
1
1
1
1
1
0.999999
0.999999
0.999999
0.999998
0.999997
0.999995
0.999993
0.99999
0.999985
0.999978
0.999969
0.999955
0.999936
0.99991
0.999874
0.999826
0.999762
0.999677
0.999566
0.999423
0.999239
0.999006
0.998715
0.998354
0.997914
0.997381
0.996745
0.995993
0.995115
0.994099
0.992939
0.991625
0.990153
0.98852
0.986723
0.984762
0.982641
0.980363
0.977932
0.975356
0.97264
0.969794
0.966824
0.96374
0.960549
0.957261
0.953882
0.950421
0.946885
0.943281
0.939616
0.935896
0.932126
0.928312
0.924458
0.92057
0.916651
0.912705
0.908736
0.904746
0.900739
0.896718
0.892684
0.88864
0.884587
0.880529
0.876466
0.872401
0.868333
0.864266
0.860199
0.856134
0.852073
0.848016
0.843963
0.839916
0.835875
0.831842
0.827816
0.823798
0.819789
0.815789
0.811798
0.807818
0.803848
0.799888
0.79594
0.792003
0.788078
0.784164
0.780262
0.776373
0.772496
0.768632
0.764781
0.760942
0.757117
0.753305
0.749506
0.745721
0.741949
0.738191
0.734446
0.730716
0.726999
0.723296
0.719608
0.715933
0.712272
0.708626
0.704994
0.701376
0.697772
0.694182
0.690607
0.687046
0.683499
0.679967
0.676449
0.672945
0.669455
0.66598
0.66252
0.659073
0.655641
0.652223
0.648819
0.64543
0.642055
0.638694
0.635347
0.632015
0.628697
0.625392
0.622102
0.618826
0.615564
0.612315
0.609081
0.60586
0.602654
0.599461
0.596282
0.593117
0.589966
0.586828
0.583705
0.580596
0.5775
0.574419
0.571353
0.5683
0.565262
0.562238
0.559228
0.556232
0.553251
0.550283
0.547329
0.54439
0.541464
0.538552
0.535654
0.53277
0.529899
0.527042
0.524198
0.521368
0.518551
0.515748
0.512958
0.510181
0.507417
0.504667
0.501929
0.499204
0.496492
0.493793
0.491107
0.488433
0.485771
0.483122
0.480484
0.477859
0.475246
0.472644
0.470054
0.467475
0.464909
0.462354
0.459811
0.457279
0.454759
0.45225
0.449754
0.447269
0.444797
0.442336
0.439888
0.437452
0.435027
0.432615
0.430214
0.427826
0.425448
0.423082
0.420727
0.418384
0.416051
0.413728
0.411417
0.409115
0.406825
0.404545
0.402277
0.400019
0.397772
0.395536
0.39331
0.391093
0.388885
0.386685
0.384493
0.382309
0.380132
0.377963
0.3758
0.373645
0.371498
0.369358
0.367227
0.365103
0.362987
0.360876
0.358773
0.356676
0.354587
0.352507
0.350438
0.348382
0.346338
0.344308
0.342294
0.340298
0.338322
0.336371
0.334448
0.332556
0.3307
0.328885
0.327116
0.325396
0.323729
0.32212
0.320573
0.319091
0.317679
0.316339
0.315074
0.313885
0.312774
0.311742
0.310786
0.309906
0.3091
0.308366
0.307701
0.307101
0.306565
0.306086
0.305661
0.305285
0.304953
0.30466
0.304404
0.304178
0.30398
0.303807
0.303654
0.303521
0.303404
0.303303
0.303217
0.303144
0.303084
0.30304
0.303014
0.303006
0.303015
0.303037
0.303062
0.303088
0.303111
0.303131
0.30315
0.303166
0.303179
0.30319
0.303198
0.303203
0.303205
0.303206
0.303205
0.303205
0.303206
0.303207
0.303209
0.303212
0.303214
0.303216
0.303218
0.30322
0.303221
0.303222
0.303223
0.303224
0.303225
0.303225
0.303225
0.303225
0.303226
0.303226
0.303227
0.303228
0.303229
0.30323
0.303231
0.303231
0.303232
0.303233
0.303233
0.303233
0.303234
0.303234
0.303234
0.303234
0.303234
0.303234
0.303234
0.303235
0.303235
0.303236
0.303236
0.303236
0.303237
0.303237
0.303237
0.303238
0.303238
0.303238
0.303239
0.303239
0.303239
0.30324
0.30324
0.30324
0.30324
0.30324
0.30324
0.30324
0.30324
0.30324
0.30324
0.30324
0.30324
0.30324
0.30324
0.30324
0.30324
0.30324
0.30324
0.30324
0.303241
0.303241
0.303241
0.303241
0.303241
0.303241
0.303241
0.303241
0.303242
0.303242
0.303242
0.303242
0.303242
0.303242
0.303242
0.303242
0.303242
0.303242
0.303242
0.303243
0.303243
0.303243
0.303243
0.303243
0.303243
0.303243
0.303243
0.303243
0.303244
0.303244
0.303244
0.303244
0.303244
0.303244
0.303244
0.303245
0.303245
0.303245
0.303245
0.303245
0.303245
0.303244
0.303244
0.303244
0.303244
0.303244
0.303244
0.303244
0.303244
0.303243
0.303243
0.303243
0.303243
0.303243
0.303243
0.303243
0.303243
0.303244
0.303244
0.303244
0.303244
0.303244
0.303244
0.303244
0.303245
0.303245
0.303245
0.303245
0.303245
0.303245
0.303245
0.303245
0.303245
0.303245
0.303245
0.303245
0.303245
0.303245
0.303245
0.303244
0.303244
0.303245
0.303245
0.303246
0.303247
0.303248
0.303246
0.303244
0.303243
0.303243
0.303244
0.303252
0.30321
0.303245
0.303258
0.303255
0.303253
0.303253
0.303253
0.303253
0.303253
0.303253
0.303253
0.303253
0.303253
0.303253
0.303253
0.303253
0.303253
0.303253
0.303253
0.303253
0.303252
0.303252
0.303252
0.303252
0.303252
0.303252
0.303252
0.303252
0.303252
0.303252
0.303252
0.303252
0.303252
0.303252
0.303252
0.303253
0.303253
0.303253
0.303253
0.303253
0.303253
0.303253
0.303253
0.303252
0.303253
0.303253
0.303253
0.303253
0.303253
0.303253
0.303252
0.303252
0.303251
0.303251
0.303251
0.303251
0.303251
0.303251
0.303251
0.303251
0.303251
0.303251
0.303251
0.303251
0.303251
0.30325
0.30325
0.303251
0.303251
0.303251
0.303251
0.30325
0.30325
0.303249
0.303249
0.303249
0.303249
0.30325
0.303251
0.303253
0.303253
0.303253
0.303253
0.303253
0.303252
0.30325
0.30325
0.30325
0.30325
0.30325
0.303251
0.303252
0.303252
0.303252
0.303252
0.303251
0.303249
0.303248
0.303248
0.303248
0.30325
0.303253
0.303255
0.303255
0.303255
0.303254
0.303252
0.303248
0.303246
0.303245
0.303245
0.303247
0.303251
0.303254
0.303254
0.303254
0.303252
0.303248
0.303243
0.303241
0.303241
0.303241
0.303245
0.303252
0.303259
0.303259
0.303259
0.303257
0.303251
0.303242
0.303236
0.303234
0.303234
0.303239
0.303249
0.30326
0.303267
0.303271
0.30327
0.303259
0.303241
0.303228
0.303224
0.303234
0.303255
0.303274
0.303289
0.3033
0.303306
0.303299
0.303281
0.303274
0.303293
0.303324
0.30335
0.30337
0.303396
0.303409
0.303301
0.302742
0.300483
0.292981
0.271246
0.223842
0.159436
0.117804
0.10406
0.100833
0.100166
0.100033
0.100006
0.100001
0.1
0.1
0.1
0.1
0.1
0.1
0.1
0.1
0.1
0.1
0.1
0.1
0.1
0.1
0.1
0.1
0.1
0.1
0.1
0.1
0.1
0.1
0.1
0.1
0.1
0.1
0.1
0.1
0.1
0.1
0.1
0.1
0.1
0.1
0.1
0.1
0.1
0.1
0.1
0.1
0.1
)
;

boundaryField
{
    sides
    {
        type            zeroGradient;
    }
    empty1
    {
        type            empty;
    }
    empty2
    {
        type            empty;
    }
}


// ************************************************************************* //
