/*--------------------------------*- C++ -*----------------------------------*\
| =========                 |                                                 |
| \\      /  F ield         | OpenFOAM: The Open Source CFD Toolbox           |
|  \\    /   O peration     | Version:  2312                                  |
|   \\  /    A nd           | Website:  www.openfoam.com                      |
|    \\/     M anipulation  |                                                 |
\*---------------------------------------------------------------------------*/
FoamFile
{
    version     2.0;
    format      ascii;
    arch        "LSB;label=32;scalar=64";
    class       surfaceScalarField;
    location    "0.25";
    object      phi;
}
// * * * * * * * * * * * * * * * * * * * * * * * * * * * * * * * * * * * * * //

dimensions      [0 3 -1 0 0 0 0];

oriented        oriented;

internalField   nonuniform List<scalar> 
799
(
-3.35798e-19
-7.85537e-19
-1.13942e-18
-1.74921e-18
-3.71466e-18
-2.18722e-19
-1.61747e-18
-1.52004e-18
-1.84185e-18
1.01055e-18
-2.65817e-18
3.14511e-19
-9.3184e-20
-1.5397e-18
-8.82001e-19
-1.23478e-18
-1.22956e-18
-9.8198e-21
-1.9493e-18
-4.0821e-19
1.68194e-18
-1.4724e-18
-1.35714e-18
1.14512e-18
5.96188e-19
1.93135e-18
2.31397e-18
-3.59846e-18
3.89357e-18
-1.03379e-18
2.64001e-18
-1.09314e-20
9.14074e-20
5.30329e-19
5.75784e-19
4.93868e-19
1.98021e-19
2.49609e-19
-2.38403e-19
-6.05714e-19
-1.23873e-18
-5.27629e-19
-2.29152e-18
-5.91214e-19
-2.41423e-18
4.25181e-19
-2.31982e-18
-8.33233e-19
-1.35715e-18
-1.21313e-18
-3.03706e-18
-2.91232e-18
-1.95327e-18
-1.33937e-18
-7.15423e-19
-1.56109e-19
-4.55047e-19
-3.83251e-19
-5.32057e-19
-1.53081e-18
3.9751e-19
-1.02258e-18
-1.38449e-18
-1.92293e-18
-1.31817e-18
-1.98503e-18
-1.86628e-20
-4.68225e-19
-1.27269e-18
-8.7685e-20
-5.05368e-21
3.17261e-18
-2.67797e-18
1.38782e-19
-7.70483e-19
-1.07088e-18
-5.33502e-19
-1.35343e-18
-2.44543e-18
-3.22962e-18
-3.23799e-18
-3.96151e-18
-1.46337e-18
-1.38929e-18
-4.04587e-18
-2.28849e-18
-1.35816e-18
-8.88838e-19
-9.68235e-19
-4.12336e-19
2.10264e-18
2.03587e-18
3.76485e-18
1.20651e-17
2.15876e-17
5.52999e-17
1.13404e-16
2.29078e-16
4.42577e-16
8.45901e-16
1.58159e-15
2.90028e-15
5.2447e-15
9.36611e-15
1.65787e-14
2.91072e-14
5.07198e-14
8.77909e-14
1.50973e-13
2.57972e-13
4.38041e-13
7.39108e-13
1.2392e-12
2.06439e-12
3.41691e-12
5.61865e-12
9.17816e-12
1.48926e-11
2.40014e-11
3.84166e-11
6.1063e-11
9.63768e-11
1.51029e-10
2.34963e-10
3.62865e-10
5.56225e-10
8.46191e-10
1.27747e-09
1.91358e-09
2.84383e-09
4.19247e-09
6.13039e-09
8.89004e-09
1.27837e-08
1.8226e-08
2.576e-08
3.60878e-08
5.01043e-08
6.89335e-08
9.39655e-08
1.26892e-07
1.69737e-07
2.24878e-07
2.95059e-07
3.8338e-07
4.93272e-07
6.28449e-07
7.92837e-07
9.90479e-07
1.22543e-06
1.50162e-06
1.82276e-06
2.1922e-06
2.61281e-06
3.08694e-06
3.61632e-06
4.20203e-06
4.84456e-06
5.54374e-06
6.29887e-06
7.10876e-06
7.97177e-06
8.88595e-06
9.84908e-06
1.08587e-05
1.19124e-05
1.30076e-05
1.41416e-05
1.53119e-05
1.65161e-05
1.77518e-05
1.90167e-05
2.03087e-05
2.16257e-05
2.2966e-05
2.43277e-05
2.57093e-05
2.71091e-05
2.8526e-05
2.99584e-05
3.14054e-05
3.28659e-05
3.43387e-05
3.58231e-05
3.73182e-05
3.88232e-05
4.03375e-05
4.18604e-05
4.33914e-05
4.49298e-05
4.64752e-05
4.80271e-05
4.95852e-05
5.1149e-05
5.27182e-05
5.42924e-05
5.58713e-05
5.74546e-05
5.90422e-05
6.06336e-05
6.22288e-05
6.38275e-05
6.54296e-05
6.70347e-05
6.86429e-05
7.02538e-05
7.18675e-05
7.34836e-05
7.51022e-05
7.67231e-05
7.83461e-05
7.99712e-05
8.15983e-05
8.32273e-05
8.48581e-05
8.64906e-05
8.81247e-05
8.97604e-05
9.13976e-05
9.30363e-05
9.46763e-05
9.63177e-05
9.79603e-05
9.96041e-05
0.000101249
0.000102895
0.000104542
0.000106191
0.00010784
0.00010949
0.000111141
0.000112793
0.000114446
0.0001161
0.000117754
0.00011941
0.000121066
0.000122722
0.00012438
0.000126038
0.000127697
0.000129356
0.000131016
0.000132676
0.000134337
0.000135999
0.000137661
0.000139324
0.000140987
0.000142651
0.000144315
0.00014598
0.000147645
0.00014931
0.000150976
0.000152643
0.000154309
0.000155977
0.000157644
0.000159312
0.000160981
0.00016265
0.000164319
0.000165989
0.000167659
0.000169329
0.000171
0.000172671
0.000174342
0.000176014
0.000177685
0.000179357
0.000181028
0.000182699
0.00018437
0.000186041
0.000187712
0.000189383
0.000191054
0.000192724
0.000194394
0.000196064
0.000197734
0.000199403
0.000201073
0.000202742
0.000204411
0.00020608
0.000207748
0.000209417
0.000211085
0.000212753
0.000214421
0.000216088
0.000217756
0.000219423
0.000221091
0.000222758
0.000224425
0.000226092
0.000227759
0.000229426
0.000231093
0.00023276
0.000234427
0.000236095
0.000237762
0.000239431
0.000241099
0.000242768
0.000244437
0.000246106
0.000247776
0.000249445
0.000251116
0.000252786
0.000254456
0.000256127
0.000257797
0.000259467
0.000261137
0.000262806
0.000264475
0.000266144
0.000267813
0.000269481
0.000271149
0.000272818
0.000274486
0.000276154
0.000277823
0.000279492
0.000281161
0.000282831
0.000284501
0.000286171
0.000287842
0.000289512
0.000291182
0.000292853
0.000294523
0.000296195
0.000297867
0.000299541
0.000301218
0.000302897
0.000304578
0.000306262
0.000307948
0.000309637
0.000311329
0.000313022
0.000314718
0.000316416
0.000318116
0.00031982
0.000321527
0.000323238
0.000324951
0.000326666
0.000328381
0.000330096
0.000331809
0.00033352
0.000335228
0.000336931
0.000338626
0.000340311
0.000341983
0.000343638
0.000345271
0.00034688
0.000348458
0.000350003
0.000351509
0.000352973
0.000354389
0.000355755
0.000357064
0.000358314
0.000359501
0.000360622
0.000361676
0.000362661
0.000363575
0.000364421
0.000365198
0.000365909
0.000366555
0.000367139
0.000367662
0.000368129
0.000368544
0.000368912
0.000369235
0.000369519
0.000369768
0.000369986
0.000370176
0.000370341
0.000370485
0.00037061
0.000370719
0.000370812
0.000370892
0.000370959
0.000371013
0.000371055
0.000371083
0.000371095
0.000371094
0.000371078
0.000371055
0.000371031
0.000371009
0.000370989
0.000370971
0.000370956
0.000370942
0.000370931
0.000370923
0.000370917
0.000370913
0.000370912
0.000370912
0.000370912
0.000370912
0.000370911
0.000370909
0.000370906
0.000370904
0.000370902
0.0003709
0.000370899
0.000370897
0.000370896
0.000370895
0.000370895
0.000370894
0.000370894
0.000370893
0.000370893
0.000370893
0.000370892
0.000370891
0.000370891
0.00037089
0.000370889
0.000370888
0.000370887
0.000370887
0.000370886
0.000370886
0.000370885
0.000370885
0.000370885
0.000370885
0.000370885
0.000370884
0.000370884
0.000370884
0.000370884
0.000370883
0.000370883
0.000370883
0.000370882
0.000370882
0.000370881
0.000370881
0.000370881
0.00037088
0.00037088
0.00037088
0.000370879
0.000370879
0.000370879
0.000370878
0.000370878
0.000370878
0.000370878
0.000370878
0.000370878
0.000370878
0.000370878
0.000370878
0.000370878
0.000370878
0.000370878
0.000370878
0.000370878
0.000370877
0.000370877
0.000370877
0.000370877
0.000370877
0.000370877
0.000370877
0.000370876
0.000370876
0.000370876
0.000370876
0.000370876
0.000370876
0.000370875
0.000370875
0.000370875
0.000370875
0.000370875
0.000370875
0.000370875
0.000370875
0.000370875
0.000370874
0.000370874
0.000370874
0.000370874
0.000370874
0.000370874
0.000370874
0.000370874
0.000370873
0.000370873
0.000370873
0.000370873
0.000370873
0.000370872
0.000370872
0.000370872
0.000370872
0.000370872
0.000370872
0.000370872
0.000370871
0.000370871
0.000370871
0.000370871
0.000370872
0.000370872
0.000370872
0.000370872
0.000370872
0.000370872
0.000370872
0.000370872
0.000370872
0.000370872
0.000370872
0.000370872
0.000370872
0.000370872
0.000370872
0.000370872
0.000370872
0.000370872
0.000370872
0.000370872
0.000370872
0.000370872
0.000370873
0.000370873
0.000370875
0.000370876
0.000370879
0.000370883
0.000370888
0.000370894
0.000370903
0.000370914
0.000370928
0.000370944
0.000370964
0.000370986
0.000371011
0.000371038
0.000371067
0.000371095
0.000371123
0.000371147
0.000371166
0.00037118
0.000371184
0.000371178
0.000371162
0.000371134
0.000371093
0.00037105
0.000370971
0.000370849
0.00037083
0.000370832
0.000370839
0.000370847
0.000370852
0.000370857
0.00037086
0.000370863
0.000370864
0.000370866
0.000370866
0.000370867
0.000370867
0.000370867
0.000370867
0.000370867
0.000370868
0.000370868
0.000370868
0.000370868
0.000370868
0.000370868
0.000370868
0.000370868
0.000370868
0.000370868
0.000370869
0.000370869
0.000370869
0.000370869
0.000370869
0.000370868
0.000370868
0.000370867
0.000370867
0.000370867
0.000370866
0.000370867
0.000370867
0.000370867
0.000370867
0.000370867
0.000370866
0.000370866
0.000370866
0.000370866
0.000370865
0.000370865
0.000370866
0.000370866
0.000370866
0.000370867
0.000370867
0.000370867
0.000370867
0.000370866
0.000370866
0.000370866
0.000370866
0.000370866
0.000370866
0.000370866
0.000370867
0.000370867
0.000370867
0.000370867
0.000370866
0.000370866
0.000370866
0.000370866
0.000370867
0.000370868
0.000370868
0.000370868
0.000370868
0.000370868
0.000370867
0.000370865
0.000370863
0.000370862
0.000370863
0.000370863
0.000370864
0.000370866
0.000370868
0.000370868
0.000370868
0.000370867
0.000370866
0.000370864
0.000370864
0.000370864
0.000370864
0.000370865
0.000370867
0.000370868
0.000370869
0.000370868
0.000370867
0.000370864
0.00037086
0.000370859
0.000370859
0.00037086
0.000370861
0.000370866
0.00037087
0.000370871
0.00037087
0.000370869
0.000370865
0.000370859
0.000370858
0.000370858
0.000370859
0.000370862
0.00037087
0.000370873
0.000370874
0.000370873
0.00037087
0.000370863
0.000370852
0.000370848
0.000370848
0.00037085
0.000370855
0.000370867
0.000370878
0.000370882
0.000370882
0.000370878
0.000370868
0.000370855
0.000370844
0.000370839
0.000370839
0.000370848
0.000370869
0.000370888
0.000370899
0.000370897
0.000370881
0.000370864
0.000370853
0.000370847
0.000370848
0.00037086
0.000370886
0.000370924
0.00037095
0.000370953
0.000370952
0.000370954
0.000370968
0.000370992
0.000370954
0.000370623
0.000369331
0.000364445
0.000348643
0.00030449
0.000211536
9.68601e-05
2.81591e-05
6.28752e-06
1.27432e-06
2.52504e-07
4.98145e-08
9.8196e-09
1.93536e-09
3.81424e-10
7.51701e-11
1.4814e-11
2.91928e-12
5.75125e-13
1.13148e-13
2.21047e-14
4.1776e-15
6.98425e-16
9.73204e-17
1.43436e-17
1.14931e-18
1.66852e-20
9.3294e-20
1.30395e-19
-5.89867e-20
9.69829e-20
2.17414e-19
2.12917e-19
-4.03158e-19
-7.50943e-20
3.66592e-20
2.56e-20
4.50558e-20
-2.42089e-21
9.06697e-19
-2.7922e-19
1.62562e-19
2.52765e-20
1.14991e-19
3.20326e-19
1.67419e-19
8.50421e-20
1.13849e-19
-1.9576e-20
1.37277e-20
6.25315e-20
1.23395e-19
6.84598e-19
-1.72197e-19
)
;

boundaryField
{
    sides
    {
        type            calculated;
        value           uniform 0;
    }
    empty1
    {
        type            empty;
        value           nonuniform List<scalar> 0();
    }
    empty2
    {
        type            empty;
        value           nonuniform List<scalar> 0();
    }
}


// ************************************************************************* //
