/*--------------------------------*- C++ -*----------------------------------*\
| =========                 |                                                 |
| \\      /  F ield         | OpenFOAM: The Open Source CFD Toolbox           |
|  \\    /   O peration     | Version:  2312                                  |
|   \\  /    A nd           | Website:  www.openfoam.com                      |
|    \\/     M anipulation  |                                                 |
\*---------------------------------------------------------------------------*/
FoamFile
{
    version     2.0;
    format      ascii;
    arch        "LSB;label=32;scalar=64";
    class       volScalarField;
    location    "0.25";
    object      rho;
}
// * * * * * * * * * * * * * * * * * * * * * * * * * * * * * * * * * * * * * //

dimensions      [1 -3 0 0 0 0 0];

internalField   nonuniform List<scalar> 
800
(
0.999943
0.999943
0.999943
0.999943
0.999943
0.999943
0.999943
0.999943
0.999943
0.999943
0.999943
0.999943
0.999943
0.999943
0.999943
0.999943
0.999943
0.999943
0.999943
0.999943
0.999943
0.999943
0.999943
0.999943
0.999943
0.999943
0.999943
0.999943
0.999943
0.999943
0.999943
0.999943
0.999943
0.999943
0.999943
0.999943
0.999943
0.999943
0.999943
0.999943
0.999943
0.999943
0.999943
0.999943
0.999943
0.999943
0.999943
0.999943
0.999943
0.999943
0.999943
0.999943
0.999943
0.999943
0.999943
0.999943
0.999943
0.999943
0.999943
0.999943
0.999943
0.999943
0.999943
0.999943
0.999943
0.999943
0.999943
0.999943
0.999943
0.999943
0.999943
0.999943
0.999943
0.999943
0.999943
0.999943
0.999943
0.999943
0.999943
0.999943
0.999943
0.999943
0.999943
0.999943
0.999943
0.999943
0.999943
0.999943
0.999943
0.999943
0.999943
0.999943
0.999943
0.999943
0.999943
0.999943
0.999943
0.999943
0.999943
0.999943
0.999943
0.999943
0.999943
0.999943
0.999943
0.999943
0.999943
0.999943
0.999943
0.999943
0.999943
0.999943
0.999943
0.999943
0.999943
0.999943
0.999943
0.999943
0.999943
0.999943
0.999943
0.999943
0.999943
0.999943
0.999943
0.999943
0.999942
0.999941
0.99994
0.999939
0.999936
0.999933
0.999928
0.999921
0.999911
0.999898
0.999879
0.999854
0.999819
0.999774
0.999713
0.999634
0.999531
0.9994
0.999233
0.999025
0.998768
0.998453
0.998072
0.997618
0.99708
0.996452
0.995725
0.994895
0.993955
0.9929
0.99173
0.990442
0.989036
0.987514
0.985877
0.984131
0.982278
0.980323
0.978273
0.976132
0.973906
0.971601
0.969224
0.966778
0.964271
0.961706
0.95909
0.956426
0.953719
0.950973
0.948191
0.945377
0.942534
0.939666
0.936774
0.933862
0.93093
0.927983
0.925021
0.922046
0.919059
0.916063
0.913058
0.910046
0.907028
0.904005
0.900977
0.897946
0.894913
0.891877
0.888841
0.885804
0.882767
0.879731
0.876696
0.873662
0.87063
0.867601
0.864574
0.86155
0.85853
0.855513
0.852501
0.849492
0.846488
0.843488
0.840493
0.837503
0.834518
0.831539
0.828565
0.825597
0.822634
0.819677
0.816726
0.813782
0.810843
0.807911
0.804985
0.802066
0.799153
0.796247
0.793347
0.790454
0.787568
0.784689
0.781817
0.778952
0.776094
0.773242
0.770398
0.767561
0.764732
0.761909
0.759094
0.756286
0.753485
0.750691
0.747905
0.745126
0.742355
0.739591
0.736834
0.734085
0.731343
0.728609
0.725882
0.723163
0.72045
0.717746
0.715049
0.712359
0.709677
0.707002
0.704334
0.701674
0.699022
0.696376
0.693739
0.691108
0.688485
0.68587
0.683262
0.680662
0.67807
0.675485
0.672908
0.67034
0.667779
0.665227
0.662682
0.660146
0.657617
0.655097
0.652584
0.65008
0.647584
0.645095
0.642615
0.640142
0.637678
0.635221
0.632772
0.630331
0.627898
0.625472
0.623055
0.620644
0.618243
0.615848
0.613461
0.611081
0.60871
0.606345
0.603989
0.601639
0.599297
0.596962
0.594634
0.592313
0.589999
0.587692
0.585391
0.583098
0.580811
0.578531
0.576258
0.573991
0.571732
0.569479
0.567233
0.564994
0.562763
0.560538
0.558321
0.556111
0.553909
0.551714
0.549527
0.547347
0.545173
0.543007
0.540848
0.538696
0.53655
0.534411
0.532278
0.530151
0.528031
0.525917
0.52381
0.52171
0.519616
0.517529
0.515449
0.513375
0.511306
0.509242
0.507182
0.505127
0.503075
0.501027
0.498982
0.496941
0.494903
0.492869
0.49084
0.488814
0.486793
0.484775
0.48276
0.480747
0.478738
0.476733
0.474733
0.472743
0.470757
0.468786
0.466818
0.464868
0.462927
0.461008
0.459104
0.457229
0.455378
0.453561
0.451782
0.450043
0.448352
0.446708
0.445122
0.443591
0.442127
0.440725
0.439398
0.438138
0.43696
0.43585
0.434825
0.433867
0.432993
0.432184
0.431453
0.430783
0.430186
0.429645
0.429168
0.428739
0.428364
0.428029
0.427737
0.427478
0.427251
0.427053
0.426877
0.426725
0.426588
0.426472
0.426369
0.426283
0.426207
0.426149
0.426101
0.426077
0.426064
0.426072
0.426094
0.426121
0.426146
0.426169
0.426189
0.426206
0.426222
0.426235
0.426245
0.426252
0.426257
0.426258
0.426257
0.426256
0.426255
0.426254
0.426255
0.426256
0.426258
0.42626
0.426261
0.426263
0.426263
0.426264
0.426264
0.426264
0.426264
0.426264
0.426263
0.426262
0.426262
0.426261
0.42626
0.42626
0.42626
0.42626
0.426259
0.426259
0.426259
0.426258
0.426258
0.426257
0.426256
0.426255
0.426254
0.426253
0.426251
0.42625
0.426249
0.426248
0.426247
0.426246
0.426245
0.426244
0.426242
0.426241
0.42624
0.426239
0.426238
0.426237
0.426236
0.426235
0.426234
0.426233
0.426231
0.42623
0.426228
0.426227
0.426225
0.426223
0.426221
0.426219
0.426217
0.426214
0.426212
0.42621
0.426208
0.426206
0.426203
0.426201
0.426199
0.426196
0.426194
0.426192
0.426189
0.426187
0.426184
0.426181
0.426178
0.426176
0.426173
0.42617
0.426166
0.426163
0.42616
0.426156
0.426153
0.426149
0.426145
0.426141
0.426137
0.426133
0.426129
0.426125
0.42612
0.426116
0.426111
0.426107
0.426102
0.426098
0.426093
0.426088
0.426083
0.426077
0.426072
0.426066
0.426059
0.426053
0.426045
0.426038
0.42603
0.426021
0.426013
0.426003
0.425994
0.425984
0.425973
0.425963
0.425952
0.42594
0.425928
0.425915
0.425902
0.425888
0.425874
0.425858
0.425842
0.425824
0.425806
0.425786
0.425764
0.425741
0.425715
0.425687
0.425655
0.425618
0.425575
0.425524
0.425462
0.425383
0.425282
0.42515
0.424973
0.424737
0.42442
0.423993
0.423423
0.422665
0.421669
0.420375
0.418715
0.416615
0.413998
0.410788
0.406916
0.402321
0.396963
0.390827
0.38392
0.376286
0.368006
0.359192
0.34998
0.340534
0.33102
0.321588
0.312684
0.304684
0.297662
0.291605
0.286458
0.282143
0.278574
0.27566
0.27331
0.271437
0.269962
0.268815
0.267931
0.267259
0.266753
0.266377
0.2661
0.265898
0.265753
0.265649
0.265577
0.265526
0.265491
0.265468
0.265452
0.265442
0.265435
0.265431
0.265428
0.265427
0.265426
0.265426
0.265425
0.265426
0.265426
0.265426
0.265427
0.265427
0.265427
0.265427
0.265427
0.265427
0.265427
0.265427
0.265428
0.265428
0.265428
0.265428
0.265428
0.265428
0.265428
0.265428
0.265427
0.265427
0.265428
0.265428
0.265428
0.265428
0.265428
0.265428
0.265428
0.265428
0.265428
0.265428
0.265428
0.265428
0.265428
0.265429
0.265429
0.265429
0.265429
0.265429
0.265428
0.265428
0.265428
0.265428
0.265429
0.265429
0.265431
0.265431
0.265431
0.265431
0.265431
0.265431
0.26543
0.265429
0.265429
0.265429
0.26543
0.26543
0.265431
0.265431
0.265431
0.265431
0.26543
0.265429
0.265429
0.265429
0.265429
0.26543
0.265432
0.265433
0.265433
0.265433
0.265433
0.265431
0.265429
0.265427
0.265427
0.265427
0.265428
0.265431
0.265432
0.265433
0.265433
0.265432
0.265429
0.265426
0.265425
0.265424
0.265424
0.265426
0.265431
0.265436
0.265436
0.265436
0.265435
0.265432
0.265425
0.265421
0.26542
0.26542
0.265422
0.265429
0.265436
0.265441
0.265443
0.265444
0.265437
0.265425
0.265418
0.265413
0.265418
0.265433
0.265445
0.265454
0.265461
0.265469
0.265465
0.265449
0.265441
0.265455
0.265478
0.265496
0.265507
0.265521
0.265524
0.265428
0.264982
0.263226
0.257541
0.242294
0.210756
0.169277
0.13982
0.128559
0.125735
0.125141
0.125022
0.124999
0.124994
0.124993
0.124993
0.124993
0.124993
0.124993
0.124993
0.124993
0.124993
0.124993
0.124993
0.124993
0.124993
0.124993
0.124993
0.124993
0.124993
0.124993
0.124993
0.124993
0.124993
0.124993
0.124993
0.124993
0.124993
0.124993
0.124993
0.124993
0.124993
0.124993
0.124993
0.124993
0.124993
0.124993
0.124993
0.124993
0.124993
0.124993
0.124993
0.124993
0.124993
0.124993
)
;

boundaryField
{
    sides
    {
        type            calculated;
        value           nonuniform List<scalar> 2(0.124993 0.999943);
    }
    empty1
    {
        type            empty;
    }
    empty2
    {
        type            empty;
    }
}


// ************************************************************************* //
