/*--------------------------------*- C++ -*----------------------------------*\
| =========                 |                                                 |
| \\      /  F ield         | OpenFOAM: The Open Source CFD Toolbox           |
|  \\    /   O peration     | Version:  2312                                  |
|   \\  /    A nd           | Website:  www.openfoam.com                      |
|    \\/     M anipulation  |                                                 |
\*---------------------------------------------------------------------------*/
FoamFile
{
    version     2.0;
    format      ascii;
    arch        "LSB;label=32;scalar=64";
    class       volScalarField;
    location    "0.25";
    object      T;
}
// * * * * * * * * * * * * * * * * * * * * * * * * * * * * * * * * * * * * * //

dimensions      [0 0 0 1 0 0 0];

internalField   nonuniform List<scalar> 
800
(
2.5
2.5
2.5
2.5
2.5
2.5
2.5
2.5
2.5
2.5
2.5
2.5
2.5
2.5
2.5
2.5
2.5
2.5
2.5
2.5
2.5
2.5
2.5
2.5
2.5
2.5
2.5
2.5
2.5
2.5
2.5
2.5
2.5
2.5
2.5
2.5
2.5
2.5
2.5
2.5
2.5
2.5
2.5
2.5
2.5
2.5
2.5
2.5
2.5
2.5
2.5
2.5
2.5
2.5
2.5
2.5
2.5
2.5
2.5
2.5
2.5
2.5
2.5
2.5
2.5
2.5
2.5
2.5
2.5
2.5
2.5
2.5
2.5
2.5
2.5
2.5
2.5
2.5
2.5
2.5
2.5
2.5
2.5
2.5
2.5
2.5
2.5
2.5
2.5
2.5
2.5
2.5
2.5
2.5
2.5
2.5
2.5
2.5
2.5
2.5
2.5
2.5
2.5
2.5
2.5
2.5
2.5
2.5
2.5
2.5
2.5
2.5
2.5
2.5
2.5
2.5
2.5
2.5
2.5
2.5
2.5
2.5
2.5
2.5
2.5
2.5
2.5
2.5
2.5
2.5
2.49999
2.49999
2.49998
2.49998
2.49997
2.49995
2.49994
2.49991
2.49988
2.49983
2.49977
2.49969
2.49959
2.49946
2.49929
2.49908
2.49882
2.49851
2.49813
2.49767
2.49713
2.4965
2.49578
2.49494
2.494
2.49294
2.49177
2.49047
2.48906
2.48752
2.48588
2.48411
2.48224
2.48027
2.47819
2.47602
2.47376
2.47142
2.469
2.46651
2.46395
2.46133
2.45865
2.45592
2.45314
2.45032
2.44745
2.44454
2.4416
2.43863
2.43563
2.4326
2.42955
2.42647
2.42337
2.42025
2.41712
2.41396
2.4108
2.40762
2.40442
2.40122
2.398
2.39477
2.39154
2.38829
2.38504
2.38178
2.37851
2.37524
2.37196
2.36868
2.36539
2.3621
2.3588
2.3555
2.3522
2.34889
2.34558
2.34227
2.33895
2.33564
2.33232
2.329
2.32568
2.32236
2.31904
2.31571
2.31239
2.30906
2.30574
2.30241
2.29908
2.29576
2.29243
2.2891
2.28578
2.28245
2.27913
2.2758
2.27248
2.26915
2.26583
2.26251
2.25919
2.25587
2.25255
2.24923
2.24591
2.24259
2.23928
2.23596
2.23265
2.22934
2.22603
2.22272
2.21941
2.2161
2.2128
2.20949
2.20619
2.20289
2.19959
2.1963
2.193
2.18971
2.18641
2.18312
2.17983
2.17655
2.17326
2.16998
2.16669
2.16341
2.16013
2.15686
2.15358
2.15031
2.14704
2.14377
2.1405
2.13723
2.13397
2.13071
2.12746
2.1242
2.12095
2.1177
2.11446
2.11121
2.10797
2.10474
2.1015
2.09827
2.09504
2.09182
2.08859
2.08537
2.08216
2.07894
2.07573
2.07252
2.06932
2.06611
2.06291
2.05972
2.05652
2.05333
2.05014
2.04695
2.04377
2.04059
2.03741
2.03423
2.03106
2.02789
2.02472
2.02155
2.01838
2.01522
2.01205
2.00889
2.00573
2.00258
1.99942
1.99627
1.99312
1.98997
1.98682
1.98368
1.98054
1.97741
1.97427
1.97114
1.96801
1.96489
1.96177
1.95865
1.95553
1.95242
1.94931
1.9462
1.94309
1.93998
1.93688
1.93377
1.93067
1.92757
1.92448
1.92139
1.9183
1.91521
1.91212
1.90903
1.90594
1.90285
1.89975
1.89666
1.89356
1.89046
1.88736
1.88426
1.88115
1.87805
1.87494
1.87183
1.86871
1.8656
1.86248
1.85936
1.85624
1.85311
1.85001
1.84689
1.84381
1.84071
1.83765
1.83459
1.83157
1.82856
1.82561
1.82269
1.81983
1.81704
1.8143
1.81165
1.80907
1.80659
1.80419
1.80192
1.79974
1.7977
1.79575
1.79395
1.79224
1.79069
1.78922
1.78791
1.78669
1.7856
1.7846
1.78372
1.78292
1.78222
1.78159
1.78104
1.78055
1.78013
1.77975
1.77942
1.77914
1.77888
1.77867
1.77847
1.77831
1.77816
1.77805
1.77794
1.77788
1.77783
1.77784
1.77786
1.77789
1.77793
1.77797
1.77801
1.77805
1.77808
1.77811
1.77814
1.77816
1.77818
1.77819
1.7782
1.7782
1.7782
1.77821
1.77821
1.77822
1.77823
1.77823
1.77824
1.77825
1.77825
1.77826
1.77826
1.77827
1.77827
1.77828
1.77828
1.77829
1.77829
1.7783
1.7783
1.77831
1.77832
1.77832
1.77833
1.77833
1.77834
1.77835
1.77835
1.77836
1.77836
1.77837
1.77837
1.77838
1.77839
1.77839
1.7784
1.7784
1.77841
1.77842
1.77842
1.77843
1.77844
1.77844
1.77845
1.77846
1.77846
1.77847
1.77848
1.77848
1.77849
1.77849
1.7785
1.77851
1.77852
1.77852
1.77853
1.77854
1.77855
1.77855
1.77856
1.77857
1.77858
1.77859
1.7786
1.77861
1.77862
1.77863
1.77864
1.77865
1.77866
1.77867
1.77868
1.77869
1.7787
1.77871
1.77873
1.77874
1.77875
1.77876
1.77878
1.77879
1.77881
1.77882
1.77884
1.77885
1.77887
1.77888
1.7789
1.77892
1.77893
1.77895
1.77897
1.77899
1.77901
1.77903
1.77905
1.77907
1.77909
1.77911
1.77913
1.77915
1.77918
1.7792
1.77923
1.77925
1.77928
1.77931
1.77935
1.77938
1.77941
1.77945
1.77949
1.77953
1.77957
1.77961
1.77966
1.7797
1.77975
1.7798
1.77985
1.77991
1.77996
1.78002
1.78009
1.78016
1.78023
1.78031
1.78039
1.78048
1.78058
1.78069
1.78081
1.78094
1.7811
1.78128
1.78149
1.78175
1.78209
1.78251
1.78307
1.78381
1.7848
1.78613
1.78793
1.79034
1.79355
1.79778
1.80332
1.81046
1.81959
1.83109
1.8454
1.86296
1.88424
1.90968
1.93967
1.97457
2.01461
2.05993
2.11047
2.16603
2.22611
2.29016
2.357
2.4244
2.48816
2.54683
2.59971
2.64642
2.68689
2.72132
2.75009
2.77374
2.79287
2.80813
2.82012
2.82942
2.83653
2.84191
2.84593
2.84889
2.85105
2.85261
2.85372
2.8545
2.85504
2.85541
2.85567
2.85583
2.85594
2.85602
2.85606
2.85609
2.8561
2.85611
2.85612
2.85612
2.85612
2.85612
2.85612
2.85612
2.85612
2.85611
2.85611
2.85611
2.85611
2.85611
2.8561
2.8561
2.8561
2.8561
2.8561
2.8561
2.8561
2.8561
2.85609
2.85609
2.85609
2.85609
2.85609
2.85609
2.85609
2.85609
2.85608
2.85608
2.85608
2.85608
2.85608
2.85608
2.85608
2.85607
2.85607
2.85607
2.85607
2.85607
2.85607
2.85607
2.85606
2.85606
2.85606
2.85606
2.85607
2.85607
2.85607
2.85607
2.85607
2.85607
2.85606
2.85606
2.85606
2.85606
2.85606
2.85606
2.85606
2.85606
2.85606
2.85606
2.85606
2.85606
2.85605
2.85605
2.85605
2.85605
2.85606
2.85606
2.85607
2.85607
2.85606
2.85606
2.85605
2.85605
2.85604
2.85604
2.85604
2.85605
2.85605
2.85606
2.85606
2.85606
2.85605
2.85604
2.85603
2.85603
2.85603
2.85603
2.85604
2.85606
2.85607
2.85608
2.85608
2.85607
2.85605
2.85603
2.85601
2.85601
2.85601
2.85603
2.85605
2.85607
2.8561
2.85611
2.85609
2.85606
2.85603
2.85598
2.85599
2.85603
2.85607
2.85612
2.85616
2.85618
2.85617
2.85614
2.85614
2.85616
2.85619
2.85623
2.85628
2.85635
2.85646
2.85654
2.85656
2.85609
2.85369
2.84386
2.79856
2.65507
2.35453
2.10623
2.02348
2.00476
2.00095
2.00019
2.00004
2.00001
2
2
2
2
2
2
2
2
2
2
2
2
2
2
2
2
2
2
2
2
2
2
2
2
2
2
2
2
2
2
2
2
2
2
2
2
2
2
2
2
2
)
;

boundaryField
{
    sides
    {
        type            zeroGradient;
    }
    empty1
    {
        type            empty;
    }
    empty2
    {
        type            empty;
    }
}


// ************************************************************************* //
