/*--------------------------------*- C++ -*----------------------------------*\
| =========                 |                                                 |
| \\      /  F ield         | OpenFOAM: The Open Source CFD Toolbox           |
|  \\    /   O peration     | Version:  2312                                  |
|   \\  /    A nd           | Website:  www.openfoam.com                      |
|    \\/     M anipulation  |                                                 |
\*---------------------------------------------------------------------------*/
FoamFile
{
    version     2.0;
    format      ascii;
    arch        "LSB;label=32;scalar=64";
    class       volVectorField;
    location    "0.25";
    object      U;
}
// * * * * * * * * * * * * * * * * * * * * * * * * * * * * * * * * * * * * * //

dimensions      [0 1 -1 0 0 0 0];

internalField   nonuniform List<vector> 
800
(
(-4.1785e-16 0 0)
(-1.40041e-15 0 0)
(-2.40557e-15 0 0)
(-3.60836e-15 0 0)
(-6.87791e-15 0 0)
(-4.91279e-15 0 0)
(-2.25311e-15 0 0)
(-3.9387e-15 0 0)
(-4.18434e-15 0 0)
(-1.07573e-15 0 0)
(-2.0837e-15 0 0)
(-2.89685e-15 0 0)
(2.71051e-16 0 0)
(-2.02441e-15 0 0)
(-3.03238e-15 0 0)
(-2.66815e-15 0 0)
(-3.10014e-15 0 0)
(-1.55854e-15 0 0)
(-2.43945e-15 0 0)
(-2.94767e-15 0 0)
(1.55854e-15 0 0)
(2.5411e-16 0 0)
(-3.50672e-15 0 0)
(-2.87991e-16 0 0)
(2.17264e-15 0 0)
(3.18061e-15 0 0)
(5.27702e-15 0 0)
(-1.60936e-15 0 0)
(4.27752e-16 0 0)
(3.5406e-15 0 0)
(1.99476e-15 0 0)
(3.32037e-15 0 0)
(8.47033e-17 0 0)
(7.7927e-16 0 0)
(1.38913e-15 0 0)
(1.34255e-15 0 0)
(8.51268e-16 0 0)
(5.59042e-16 0 0)
(2.5411e-17 0 0)
(-1.05456e-15 0 0)
(-2.29969e-15 0 0)
(-2.21923e-15 0 0)
(-3.52366e-15 0 0)
(-3.59142e-15 0 0)
(-3.76083e-15 0 0)
(-2.50722e-15 0 0)
(-2.36322e-15 0 0)
(-3.91329e-15 0 0)
(-2.74015e-15 0 0)
(-3.20814e-15 0 0)
(-5.30454e-15 0 0)
(-7.43695e-15 0 0)
(-6.0817e-15 0 0)
(-4.11023e-15 0 0)
(-2.59827e-15 0 0)
(-1.09055e-15 0 0)
(-7.39036e-16 0 0)
(-1.04397e-15 0 0)
(-1.13502e-15 0 0)
(-2.58133e-15 0 0)
(-1.40607e-15 0 0)
(-7.7927e-16 0 0)
(-3.02179e-15 0 0)
(-4.12717e-15 0 0)
(-4.04246e-15 0 0)
(-4.13564e-15 0 0)
(-2.50722e-15 0 0)
(-6.01393e-16 0 0)
(-2.15993e-15 0 0)
(-1.71101e-15 0 0)
(-1.2282e-16 0 0)
(3.94717e-15 0 0)
(5.88688e-16 0 0)
(-3.16367e-15 0 0)
(-7.75035e-16 0 0)
(-2.29969e-15 0 0)
(-2.00323e-15 0 0)
(-2.35263e-15 0 0)
(-4.76456e-15 0 0)
(-7.08755e-15 0 0)
(-8.05528e-15 0 0)
(-9.03361e-15 0 0)
(-6.77626e-15 0 0)
(-3.55754e-15 0 0)
(-6.81438e-15 0 0)
(-7.89011e-15 0 0)
(-4.54433e-15 0 0)
(-2.81215e-15 0 0)
(-2.32934e-15 0 0)
(-1.74489e-15 0 0)
(2.13452e-15 0 0)
(5.18384e-15 0 0)
(7.22943e-15 0 0)
(1.9774e-14 0 0)
(4.19451e-14 0 0)
(9.5863e-14 0 0)
(2.10128e-13 0 0)
(4.25871e-13 0 0)
(8.33072e-13 0 0)
(1.59221e-12 0 0)
(2.99066e-12 0 0)
(5.50829e-12 0 0)
(9.99182e-12 0 0)
(1.79039e-11 0 0)
(3.17769e-11 0 0)
(5.59516e-11 0 0)
(9.77801e-11 0 0)
(1.69718e-10 0 0)
(2.92683e-10 0 0)
(5.0153e-10 0 0)
(8.54016e-10 0 0)
(1.44512e-09 0 0)
(2.42992e-09 0 0)
(4.05988e-09 0 0)
(6.73966e-09 0 0)
(1.11157e-08 0 0)
(1.82128e-08 0 0)
(2.96431e-08 0 0)
(4.79226e-08 0 0)
(7.69468e-08 0 0)
(1.22697e-07 0 0)
(1.94283e-07 0 0)
(3.05455e-07 0 0)
(4.76793e-07 0 0)
(7.38822e-07 0 0)
(1.1364e-06 0 0)
(1.73484e-06 0 0)
(2.62829e-06 0 0)
(3.95115e-06 0 0)
(5.89333e-06 0 0)
(8.7203e-06 0 0)
(1.27992e-05 0 0)
(1.86318e-05 0 0)
(2.68964e-05 0 0)
(3.84982e-05 0 0)
(5.46307e-05 0 0)
(7.68461e-05 0 0)
(0.000107136 0 0)
(0.00014802 0 0)
(0.000202635 0 0)
(0.00027483 0 0)
(0.000369245 0 0)
(0.000491382 0 0)
(0.000647641 0 0)
(0.000845328 0 0)
(0.00109261 0 0)
(0.00139843 0 0)
(0.00177234 0 0)
(0.0022243 0 0)
(0.00276447 0 0)
(0.00340282 0 0)
(0.00414893 0 0)
(0.00501162 0 0)
(0.00599868 0 0)
(0.00711665 0 0)
(0.0083706 0 0)
(0.00976408 0 0)
(0.011299 0 0)
(0.0129759 0 0)
(0.0147935 0 0)
(0.0167496 0 0)
(0.0188405 0 0)
(0.0210618 0 0)
(0.0234083 0 0)
(0.0258741 0 0)
(0.0284532 0 0)
(0.0311391 0 0)
(0.0339254 0 0)
(0.0368057 0 0)
(0.0397737 0 0)
(0.0428234 0 0)
(0.0459491 0 0)
(0.0491451 0 0)
(0.0524063 0 0)
(0.0557278 0 0)
(0.0591052 0 0)
(0.0625342 0 0)
(0.0660108 0 0)
(0.0695316 0 0)
(0.0730931 0 0)
(0.0766924 0 0)
(0.0803265 0 0)
(0.083993 0 0)
(0.0876895 0 0)
(0.0914137 0 0)
(0.0951638 0 0)
(0.0989379 0 0)
(0.102734 0 0)
(0.106551 0 0)
(0.110388 0 0)
(0.114243 0 0)
(0.118114 0 0)
(0.122002 0 0)
(0.125904 0 0)
(0.12982 0 0)
(0.133749 0 0)
(0.13769 0 0)
(0.141643 0 0)
(0.145607 0 0)
(0.14958 0 0)
(0.153564 0 0)
(0.157556 0 0)
(0.161557 0 0)
(0.165566 0 0)
(0.169582 0 0)
(0.173606 0 0)
(0.177636 0 0)
(0.181674 0 0)
(0.185717 0 0)
(0.189766 0 0)
(0.193821 0 0)
(0.197881 0 0)
(0.201946 0 0)
(0.206016 0 0)
(0.210091 0 0)
(0.21417 0 0)
(0.218253 0 0)
(0.22234 0 0)
(0.226431 0 0)
(0.230526 0 0)
(0.234624 0 0)
(0.238726 0 0)
(0.24283 0 0)
(0.246938 0 0)
(0.251049 0 0)
(0.255163 0 0)
(0.25928 0 0)
(0.263399 0 0)
(0.26752 0 0)
(0.271645 0 0)
(0.275771 0 0)
(0.2799 0 0)
(0.284031 0 0)
(0.288164 0 0)
(0.292299 0 0)
(0.296436 0 0)
(0.300575 0 0)
(0.304716 0 0)
(0.308858 0 0)
(0.313003 0 0)
(0.317148 0 0)
(0.321296 0 0)
(0.325445 0 0)
(0.329595 0 0)
(0.333747 0 0)
(0.3379 0 0)
(0.342055 0 0)
(0.346211 0 0)
(0.350368 0 0)
(0.354526 0 0)
(0.358686 0 0)
(0.362847 0 0)
(0.367009 0 0)
(0.371172 0 0)
(0.375336 0 0)
(0.379501 0 0)
(0.383667 0 0)
(0.387835 0 0)
(0.392003 0 0)
(0.396173 0 0)
(0.400343 0 0)
(0.404515 0 0)
(0.408687 0 0)
(0.412861 0 0)
(0.417035 0 0)
(0.421211 0 0)
(0.425387 0 0)
(0.429564 0 0)
(0.433741 0 0)
(0.437919 0 0)
(0.442097 0 0)
(0.446276 0 0)
(0.450454 0 0)
(0.454632 0 0)
(0.45881 0 0)
(0.462987 0 0)
(0.467164 0 0)
(0.471341 0 0)
(0.475517 0 0)
(0.479693 0 0)
(0.483868 0 0)
(0.488043 0 0)
(0.492217 0 0)
(0.496391 0 0)
(0.500564 0 0)
(0.504737 0 0)
(0.508909 0 0)
(0.513081 0 0)
(0.517252 0 0)
(0.521423 0 0)
(0.525594 0 0)
(0.529764 0 0)
(0.533933 0 0)
(0.538102 0 0)
(0.542271 0 0)
(0.546439 0 0)
(0.550607 0 0)
(0.554774 0 0)
(0.558942 0 0)
(0.563109 0 0)
(0.567276 0 0)
(0.571443 0 0)
(0.575609 0 0)
(0.579777 0 0)
(0.583944 0 0)
(0.588112 0 0)
(0.592281 0 0)
(0.59645 0 0)
(0.60062 0 0)
(0.604791 0 0)
(0.608962 0 0)
(0.613134 0 0)
(0.617307 0 0)
(0.621481 0 0)
(0.625655 0 0)
(0.62983 0 0)
(0.634005 0 0)
(0.63818 0 0)
(0.642355 0 0)
(0.646529 0 0)
(0.650703 0 0)
(0.654876 0 0)
(0.659048 0 0)
(0.66322 0 0)
(0.667391 0 0)
(0.671561 0 0)
(0.675731 0 0)
(0.679901 0 0)
(0.68407 0 0)
(0.68824 0 0)
(0.69241 0 0)
(0.696581 0 0)
(0.700752 0 0)
(0.704925 0 0)
(0.709098 0 0)
(0.713272 0 0)
(0.717446 0 0)
(0.721621 0 0)
(0.725795 0 0)
(0.72997 0 0)
(0.734145 0 0)
(0.738321 0 0)
(0.7425 0 0)
(0.746683 0 0)
(0.75087 0 0)
(0.755063 0 0)
(0.759261 0 0)
(0.763466 0 0)
(0.767677 0 0)
(0.771895 0 0)
(0.776118 0 0)
(0.780348 0 0)
(0.784582 0 0)
(0.788822 0 0)
(0.793069 0 0)
(0.797322 0 0)
(0.801582 0 0)
(0.805851 0 0)
(0.810125 0 0)
(0.814404 0 0)
(0.818685 0 0)
(0.822966 0 0)
(0.827239 0 0)
(0.831514 0 0)
(0.835769 0 0)
(0.840025 0 0)
(0.844248 0 0)
(0.848455 0 0)
(0.852633 0 0)
(0.856757 0 0)
(0.860849 0 0)
(0.864863 0 0)
(0.868824 0 0)
(0.87268 0 0)
(0.876475 0 0)
(0.880132 0 0)
(0.883713 0 0)
(0.887131 0 0)
(0.890464 0 0)
(0.893603 0 0)
(0.896642 0 0)
(0.899474 0 0)
(0.902195 0 0)
(0.9047 0 0)
(0.907079 0 0)
(0.909251 0 0)
(0.911295 0 0)
(0.913142 0 0)
(0.914858 0 0)
(0.916396 0 0)
(0.917805 0 0)
(0.919062 0 0)
(0.920191 0 0)
(0.9212 0 0)
(0.922095 0 0)
(0.922892 0 0)
(0.923591 0 0)
(0.924218 0 0)
(0.924763 0 0)
(0.925255 0 0)
(0.925675 0 0)
(0.926069 0 0)
(0.926393 0 0)
(0.926704 0 0)
(0.926948 0 0)
(0.92719 0 0)
(0.927367 0 0)
(0.927545 0 0)
(0.927644 0 0)
(0.927744 0 0)
(0.92775 0 0)
(0.927727 0 0)
(0.927682 0 0)
(0.927626 0 0)
(0.927567 0 0)
(0.927512 0 0)
(0.92746 0 0)
(0.927416 0 0)
(0.927376 0 0)
(0.927343 0 0)
(0.927315 0 0)
(0.927295 0 0)
(0.927283 0 0)
(0.927279 0 0)
(0.927279 0 0)
(0.92728 0 0)
(0.92728 0 0)
(0.927279 0 0)
(0.927275 0 0)
(0.92727 0 0)
(0.927265 0 0)
(0.927259 0 0)
(0.927254 0 0)
(0.927249 0 0)
(0.927245 0 0)
(0.927242 0 0)
(0.927239 0 0)
(0.927237 0 0)
(0.927235 0 0)
(0.927234 0 0)
(0.927233 0 0)
(0.927233 0 0)
(0.927232 0 0)
(0.927231 0 0)
(0.92723 0 0)
(0.927228 0 0)
(0.927226 0 0)
(0.927224 0 0)
(0.927221 0 0)
(0.927219 0 0)
(0.927217 0 0)
(0.927215 0 0)
(0.927214 0 0)
(0.927213 0 0)
(0.927212 0 0)
(0.927212 0 0)
(0.927212 0 0)
(0.927212 0 0)
(0.927211 0 0)
(0.927211 0 0)
(0.92721 0 0)
(0.92721 0 0)
(0.927209 0 0)
(0.927208 0 0)
(0.927207 0 0)
(0.927206 0 0)
(0.927205 0 0)
(0.927204 0 0)
(0.927203 0 0)
(0.927202 0 0)
(0.927201 0 0)
(0.927201 0 0)
(0.9272 0 0)
(0.927199 0 0)
(0.927198 0 0)
(0.927197 0 0)
(0.927196 0 0)
(0.927196 0 0)
(0.927196 0 0)
(0.927195 0 0)
(0.927195 0 0)
(0.927195 0 0)
(0.927195 0 0)
(0.927195 0 0)
(0.927195 0 0)
(0.927195 0 0)
(0.927195 0 0)
(0.927194 0 0)
(0.927194 0 0)
(0.927194 0 0)
(0.927194 0 0)
(0.927193 0 0)
(0.927193 0 0)
(0.927193 0 0)
(0.927192 0 0)
(0.927192 0 0)
(0.927192 0 0)
(0.927191 0 0)
(0.927191 0 0)
(0.92719 0 0)
(0.92719 0 0)
(0.92719 0 0)
(0.927189 0 0)
(0.927189 0 0)
(0.927188 0 0)
(0.927188 0 0)
(0.927188 0 0)
(0.927187 0 0)
(0.927187 0 0)
(0.927187 0 0)
(0.927187 0 0)
(0.927186 0 0)
(0.927186 0 0)
(0.927186 0 0)
(0.927186 0 0)
(0.927186 0 0)
(0.927185 0 0)
(0.927185 0 0)
(0.927185 0 0)
(0.927184 0 0)
(0.927184 0 0)
(0.927183 0 0)
(0.927183 0 0)
(0.927182 0 0)
(0.927182 0 0)
(0.927181 0 0)
(0.927181 0 0)
(0.92718 0 0)
(0.92718 0 0)
(0.92718 0 0)
(0.927179 0 0)
(0.927179 0 0)
(0.927179 0 0)
(0.927179 0 0)
(0.927179 0 0)
(0.927179 0 0)
(0.927179 0 0)
(0.927179 0 0)
(0.927179 0 0)
(0.927179 0 0)
(0.92718 0 0)
(0.92718 0 0)
(0.92718 0 0)
(0.92718 0 0)
(0.92718 0 0)
(0.92718 0 0)
(0.92718 0 0)
(0.92718 0 0)
(0.92718 0 0)
(0.92718 0 0)
(0.92718 0 0)
(0.92718 0 0)
(0.927179 0 0)
(0.927179 0 0)
(0.927179 0 0)
(0.927179 0 0)
(0.927179 0 0)
(0.92718 0 0)
(0.927181 0 0)
(0.927182 0 0)
(0.927185 0 0)
(0.927188 0 0)
(0.927194 0 0)
(0.927201 0 0)
(0.927212 0 0)
(0.927226 0 0)
(0.927245 0 0)
(0.927269 0 0)
(0.9273 0 0)
(0.927338 0 0)
(0.927383 0 0)
(0.927435 0 0)
(0.927495 0 0)
(0.927561 0 0)
(0.927631 0 0)
(0.927703 0 0)
(0.927774 0 0)
(0.927839 0 0)
(0.927895 0 0)
(0.927938 0 0)
(0.927959 0 0)
(0.927957 0 0)
(0.927933 0 0)
(0.92788 0 0)
(0.927793 0 0)
(0.927682 0 0)
(0.92755 0 0)
(0.927284 0 0)
(0.927054 0 0)
(0.927059 0 0)
(0.927089 0 0)
(0.927111 0 0)
(0.927125 0 0)
(0.927137 0 0)
(0.927147 0 0)
(0.927154 0 0)
(0.927159 0 0)
(0.927163 0 0)
(0.927165 0 0)
(0.927166 0 0)
(0.927167 0 0)
(0.927168 0 0)
(0.927168 0 0)
(0.927168 0 0)
(0.927169 0 0)
(0.927169 0 0)
(0.927169 0 0)
(0.927169 0 0)
(0.92717 0 0)
(0.92717 0 0)
(0.92717 0 0)
(0.92717 0 0)
(0.92717 0 0)
(0.927171 0 0)
(0.927171 0 0)
(0.927171 0 0)
(0.927172 0 0)
(0.927172 0 0)
(0.927172 0 0)
(0.927171 0 0)
(0.927171 0 0)
(0.927169 0 0)
(0.927168 0 0)
(0.927167 0 0)
(0.927167 0 0)
(0.927167 0 0)
(0.927167 0 0)
(0.927167 0 0)
(0.927167 0 0)
(0.927166 0 0)
(0.927166 0 0)
(0.927166 0 0)
(0.927165 0 0)
(0.927164 0 0)
(0.927164 0 0)
(0.927164 0 0)
(0.927164 0 0)
(0.927164 0 0)
(0.927165 0 0)
(0.927166 0 0)
(0.927167 0 0)
(0.927167 0 0)
(0.927167 0 0)
(0.927166 0 0)
(0.927166 0 0)
(0.927165 0 0)
(0.927165 0 0)
(0.927164 0 0)
(0.927165 0 0)
(0.927165 0 0)
(0.927166 0 0)
(0.927166 0 0)
(0.927166 0 0)
(0.927166 0 0)
(0.927166 0 0)
(0.927166 0 0)
(0.927166 0 0)
(0.927166 0 0)
(0.927166 0 0)
(0.927168 0 0)
(0.927169 0 0)
(0.92717 0 0)
(0.92717 0 0)
(0.92717 0 0)
(0.927168 0 0)
(0.927165 0 0)
(0.927161 0 0)
(0.927159 0 0)
(0.927158 0 0)
(0.927158 0 0)
(0.927159 0 0)
(0.927162 0 0)
(0.927165 0 0)
(0.927167 0 0)
(0.927168 0 0)
(0.927168 0 0)
(0.927167 0 0)
(0.927164 0 0)
(0.927161 0 0)
(0.92716 0 0)
(0.92716 0 0)
(0.927161 0 0)
(0.927164 0 0)
(0.927168 0 0)
(0.92717 0 0)
(0.92717 0 0)
(0.927169 0 0)
(0.927165 0 0)
(0.927158 0 0)
(0.927153 0 0)
(0.92715 0 0)
(0.92715 0 0)
(0.927152 0 0)
(0.927158 0 0)
(0.927166 0 0)
(0.927172 0 0)
(0.927174 0 0)
(0.927173 0 0)
(0.927168 0 0)
(0.927159 0 0)
(0.927152 0 0)
(0.927149 0 0)
(0.927148 0 0)
(0.927152 0 0)
(0.927162 0 0)
(0.927173 0 0)
(0.927179 0 0)
(0.927182 0 0)
(0.927178 0 0)
(0.927167 0 0)
(0.92715 0 0)
(0.927133 0 0)
(0.92713 0 0)
(0.927129 0 0)
(0.927134 0 0)
(0.92715 0 0)
(0.927172 0 0)
(0.927188 0 0)
(0.927196 0 0)
(0.9272 0 0)
(0.927189 0 0)
(0.927166 0 0)
(0.92714 0 0)
(0.927119 0 0)
(0.927096 0 0)
(0.927106 0 0)
(0.92714 0 0)
(0.92719 0 0)
(0.92724 0 0)
(0.927277 0 0)
(0.927255 0 0)
(0.927212 0 0)
(0.927157 0 0)
(0.927131 0 0)
(0.92714 0 0)
(0.927192 0 0)
(0.927309 0 0)
(0.927479 0 0)
(0.927513 0 0)
(0.927485 0 0)
(0.927481 0 0)
(0.927524 0 0)
(0.927615 0 0)
(0.927734 0 0)
(0.927789 0 0)
(0.927522 0 0)
(0.92584 0 0)
(0.918788 0 0)
(0.894412 0 0)
(0.822008 0 0)
(0.650243 0 0)
(0.371916 0 0)
(0.134792 0 0)
(0.0344209 0 0)
(0.00736606 0 0)
(0.00148372 0 0)
(0.000293773 0 0)
(5.79508e-05 0 0)
(1.14233e-05 0 0)
(2.25141e-06 0 0)
(4.43709e-07 0 0)
(8.74447e-08 0 0)
(1.72331e-08 0 0)
(3.39604e-09 0 0)
(6.69104e-10 0 0)
(1.31687e-10 0 0)
(2.57801e-11 0 0)
(4.93268e-12 0 0)
(8.74239e-13 0 0)
(1.33912e-13 0 0)
(1.92372e-14 0 0)
(1.44843e-15 0 0)
(1.36129e-16 0 0)
(2.82912e-16 0 0)
(8.58862e-17 0 0)
(4.50731e-17 0 0)
(3.85383e-16 0 0)
(5.60283e-16 0 0)
(-2.2367e-16 0 0)
(-6.15811e-16 0 0)
(-4.69011e-17 0 0)
(7.82678e-17 0 0)
(8.86159e-17 0 0)
(5.4321e-17 0 0)
(1.1251e-15 0 0)
(7.85284e-16 0 0)
(-1.40604e-16 0 0)
(2.38286e-16 0 0)
(1.72318e-16 0 0)
(5.45774e-16 0 0)
(6.14388e-16 0 0)
(3.17158e-16 0 0)
(2.45598e-16 0 0)
(1.11611e-16 0 0)
(3.04402e-18 0 0)
(9.95098e-17 0 0)
(2.26168e-16 0 0)
(1.01483e-15 0 0)
(6.4147e-16 0 0)
(-2.20899e-16 0 0)
)
;

boundaryField
{
    sides
    {
        type            fixedValue;
        value           uniform (0 0 0);
    }
    empty1
    {
        type            empty;
    }
    empty2
    {
        type            empty;
    }
}


// ************************************************************************* //
