/*--------------------------------*- C++ -*----------------------------------*\
| =========                 |                                                 |
| \\      /  F ield         | OpenFOAM: The Open Source CFD Toolbox           |
|  \\    /   O peration     | Version:  2312                                  |
|   \\  /    A nd           | Website:  www.openfoam.com                      |
|    \\/     M anipulation  |                                                 |
\*---------------------------------------------------------------------------*/
FoamFile
{
    version     2.0;
    format      ascii;
    arch        "LSB;label=32;scalar=64";
    class       volScalarField;
    location    "7e-05";
    object      alphat;
}
// * * * * * * * * * * * * * * * * * * * * * * * * * * * * * * * * * * * * * //

dimensions      [1 -1 -1 0 0 0 0];

internalField   nonuniform List<scalar> 
109340
(
0.47685267146945
0.32715528849703
0.17657684219243
0.14757685145229
0.14297010605324
0.14590685497795
0.15137090044041
0.16071138714969
0.14008393733849
0.12460645672124
0.11235552348573
0.10236164804927
0.094034674941741
0.086982192641211
0.08092915951398
0.075675654046258
0.071072289794978
0.06700494518005
0.06338481178802
0.060141668935891
0.057219201555102
0.05457165798943
0.052161415887219
0.049957180393399
0.047932628448941
0.046065365915025
0.044336099266449
0.042727951056485
0.041225852065922
0.039815936597398
0.038484836118936
0.037218674930816
0.036001326630359
0.034810884455342
0.033611506196737
0.032334402711509
0.47131165480169
0.2286501282361
0.16753224358792
0.15326675262529
0.15225172513063
0.15530540847091
0.13893916940186
0.12086501986703
0.10682244338034
0.09570511373158
0.086704296940666
0.079272722560088
0.073034733857812
0.067725240888457
0.063152057955894
0.059172483740375
0.055678343433947
0.052586131899908
0.049830344072783
0.047358823507829
0.04512943887128
0.043107712036942
0.041265111468398
0.039577804615711
0.03802570069977
0.036591693080437
0.035261045641396
0.034020863885562
0.032859602220215
0.031766563857577
0.030731293207267
0.02974267778349
0.028787367838358
0.027846598854424
0.026888661964164
0.025849445792414
0.27684267381499
0.19515293022175
0.16823149480093
0.15783048550572
0.12626964708854
0.10527085150383
0.090045260390846
0.078571058195939
0.069653687421795
0.062553938335675
0.056784551518415
0.052012576416248
0.048004864020668
0.044594327924624
0.041658564658462
0.03910607866131
0.036867208988723
0.034888015715893
0.033125956282749
0.031546718988501
0.030122192493418
0.028829249303371
0.027648892317549
0.026565515429558
0.025566150816065
0.024639947429248
0.023777734952993
0.022971520954576
0.022214232095302
0.021499309384379
0.020820289412356
0.020170249875394
0.019540680828617
0.018919646697537
0.018287426632552
0.017600220849451
0.15911103329206
0.16070295089855
0.10086239345903
0.073429606995648
0.057765265071723
0.047650432292007
0.040600939928396
0.035418382041613
0.031455842441581
0.028333657947639
0.025814451912356
0.023742041282752
0.022009473082186
0.020541145680931
0.019282250907943
0.018192155123576
0.017240046954508
0.016401804731873
0.015655883633352
0.014983767271252
0.014371620690027
0.013809603728076
0.013290579481206
0.012809238956717
0.012361454773312
0.011943847049835
0.011553282827936
0.01118729848246
0.010843610312438
0.010519953123602
0.010213761950142
0.0099212515966287
0.0096362660702853
0.0093510088900725
0.0090559889922803
0.0087296832647621
0.09583431157563
0.03132646436792
0.019049655194854
0.013815443566166
0.010931250815678
0.0091207671931802
0.0078892723585694
0.0070044305336287
0.006342703369256
0.0058329470171795
0.0054315930344448
0.0051110102752906
0.0048529010449214
0.0046449420007793
0.0044787498447199
0.0043484556226374
0.0042489210779018
0.0041717751269468
0.0041025776221224
0.0040335085033229
0.0039636661074128
0.0038952886500987
0.0038308323412858
0.003771982182516
0.0037196518629681
0.0036742640521049
0.0036358630789917
0.0036042300425516
0.0035794479702891
0.0035610504177932
0.0035479698480708
0.0035390102731957
0.0035324281718863
0.0035249691789173
0.0035083671764265
0.0034585147199431
0.00024124866351599
0.00036005475989643
0.00046324911772571
0.0005437688473644
0.0006013254137613
0.00063928199680419
0.00066210001793119
0.00067395773947856
0.00067818244003098
0.00067753049427817
0.00067359981804312
0.00066764856978906
0.00066054187621571
0.0006528634970043
0.00064500481491317
0.00063724417948375
0.00062976194613809
0.00062267803507059
0.00061611559698254
0.00061022358913598
0.0006048630845957
0.00059994223183939
0.00059540933871797
0.00059122846807377
0.00058736433058505
0.00058377644942811
0.00058041578887121
0.0005772211464122
0.00057411223962253
0.00057097846979986
0.00056766005726937
0.00056390223215241
0.0005592714982928
0.00055287391114358
0.00054208628864701
0.00051525191241669
0.028706899807327
0.015489349407554
0.0083632186816692
0.00514457141962
0.0034319357035678
0.0023244369079713
0.0015711512764712
0.0010493906232255
0.00070945158090638
0.00051778231209676
0.00042284950962055
0.00041898000821537
0.00038454456442218
0.00034532721201638
0.00029919995101375
0.00025209141043537
0.00021116016862311
0.00017597405039027
0.00014700501132529
0.00012417597242351
0.00010540343121005
8.9806564622724e-05
7.5406656829857e-05
6.1011285387124e-05
4.9859430284467e-05
4.1136748366541e-05
3.4446639281553e-05
2.8898921873383e-05
2.448977105487e-05
2.0986933186177e-05
1.7982660652153e-05
1.5663058003523e-05
1.3578393043373e-05
1.1965991588464e-05
1.0486607211943e-05
9.3311400189289e-06
8.2562732354797e-06
7.4086187213739e-06
6.611411929226e-06
5.9766062545626e-06
5.3767651326503e-06
4.8897921794183e-06
4.4348360957917e-06
4.0512497757164e-06
3.7052020380676e-06
3.3939806687116e-06
3.1249795418864e-06
2.8730162078018e-06
2.6584166872033e-06
2.457835346282e-06
2.2796816011654e-06
2.1178497832161e-06
1.9714303461289e-06
1.8384058220325e-06
1.717240109405e-06
1.6065640487392e-06
1.5052927065874e-06
1.4124726927576e-06
1.327279751123e-06
1.2489335049758e-06
1.1767272417949e-06
1.1100425031271e-06
1.0483572298172e-06
9.9121613819035e-07
9.3820697466636e-07
8.8896045025017e-07
8.4315982398025e-07
8.0052648846405e-07
7.6077272508533e-07
7.2375642536857e-07
1.9102795196429e-05
0.00053497341018364
0.00082914432444062
0.00073000159138467
0.00060784991848962
0.00046140639206834
0.00027522151147652
0.00012473262187065
0.00013195211079399
0.00012401416758767
0.00011803896537076
0.00011469206788128
0.00011300468877049
0.0001124155188348
0.00011404804847004
0.00011457935822918
0.00011483240385664
0.0001144927489317
0.00011337918607044
0.00011143800747762
0.00010867142451769
0.00010520120275018
0.00010125599528137
9.710170823465e-05
9.3011606986353e-05
8.9175725145002e-05
8.5780767302898e-05
8.293271019925e-05
8.0666764856647e-05
7.8986119798476e-05
7.7865280261963e-05
7.7250254532305e-05
7.7084573670575e-05
7.7349152871648e-05
7.8074131215258e-05
7.8931697716575e-05
7.9964357651952e-05
8.1137592759767e-05
8.2389032519343e-05
8.3390198404171e-05
8.3924040348512e-05
8.409567867077e-05
8.4019794650433e-05
8.3783096339741e-05
8.315991175291e-05
8.2110679719813e-05
8.0778495531344e-05
7.9153163915703e-05
7.7264201770549e-05
7.518801505774e-05
7.2937896589337e-05
7.0705449318243e-05
6.8445523579458e-05
6.6258219751528e-05
6.4138309298192e-05
6.2040431220231e-05
6.0196249408799e-05
5.838124306284e-05
5.6919428585736e-05
5.5508998015291e-05
5.4298226173941e-05
5.3126992994117e-05
5.1907436639683e-05
5.1265036567908e-05
5.0752369179925e-05
5.0426788994825e-05
5.1442255858428e-05
5.8392121165772e-05
6.3953859820727e-05
5.6648147074243e-05
0.022023255397476
0.011957765853906
0.0070130208879106
0.0045995821057976
0.0031024943702721
0.0020861077126207
0.0013940337678086
0.00092915970048611
0.00061878226170429
0.00042026197768974
0.00029718377403844
0.00022707219332998
0.00018631105543483
0.00015695680770287
0.00013623229856641
0.00012066268969533
0.00010829339211955
9.8248131450362e-05
8.9128791708292e-05
8.0848864229175e-05
7.3456362886461e-05
6.6889163744904e-05
6.0965945215776e-05
5.5693215741362e-05
4.6556958178248e-05
3.8546890926426e-05
3.2217683825862e-05
2.7176954377616e-05
2.3096548270081e-05
1.9785552579324e-05
1.7063767239584e-05
1.4815367802756e-05
1.2938784013576e-05
1.1360416713635e-05
1.0027610767192e-05
8.8911768064994e-06
7.9201582625366e-06
7.0835158435932e-06
6.3612540247089e-06
5.733422502637e-06
5.1856094465607e-06
4.7062078453419e-06
4.2834348697111e-06
3.9111999318529e-06
3.5798617382941e-06
3.2864284037752e-06
3.0233150127037e-06
2.788880019225e-06
2.5776102784013e-06
2.3879083562689e-06
2.2162091906297e-06
2.0608005519781e-06
1.9197655688701e-06
1.7914479742762e-06
1.6744953026074e-06
1.5675789696634e-06
1.4697140587033e-06
1.3799546858009e-06
1.2974907302773e-06
1.2215699607315e-06
1.1515461950087e-06
1.0868402629744e-06
1.0269488497833e-06
9.7142363220743e-07
9.1987560407529e-07
8.7196320721182e-07
8.2737786559556e-07
7.8584315639024e-07
7.471000952039e-07
7.3310969394666e-07
5.4191019274185e-05
0.00071095837343746
0.00080773705250517
0.00069887223324405
0.00057301281361628
0.00041855436886308
0.00022670575992278
0.00012933530088784
0.00014045144768353
0.00013426652081815
0.00013040001432828
0.00012857525006264
0.00012804150441327
0.00012825576994147
0.00012469114237023
0.00012568567197603
0.00012623080896898
0.00012609541609025
0.00012494985690403
0.00012271134130353
0.00011941307059958
0.00011515593360475
0.00011020138080059
0.00010488791475942
9.9578010003782e-05
9.4574294866493e-05
9.0124311133816e-05
8.6375824921683e-05
8.3376889226676e-05
8.111681156384e-05
7.954413816297e-05
7.8581060206675e-05
7.8147888258639e-05
7.8174769240363e-05
7.87406297972e-05
7.9462890217505e-05
8.0376061144992e-05
8.1435463816675e-05
8.2572825555034e-05
8.3446298669876e-05
8.3873207447289e-05
8.3935380829179e-05
8.377909046692e-05
8.3468562941472e-05
8.2734787732587e-05
8.1622306172968e-05
8.021873606286e-05
7.8537713707017e-05
7.6616189244125e-05
7.4508600061893e-05
7.2248766537091e-05
7.0013243260917e-05
6.7742927854473e-05
6.5565011866647e-05
6.3477833704318e-05
6.1435072603502e-05
5.9618206368478e-05
5.7863647413347e-05
5.6427339303242e-05
5.5027304006482e-05
5.3846885782312e-05
5.2582458706214e-05
5.1439360451606e-05
5.0819915312459e-05
5.0267487891942e-05
4.9935896467534e-05
5.0983367386884e-05
5.7100703763532e-05
6.621588531927e-05
5.912546368245e-05
0.016069270552716
0.0080047944577773
0.004827511051333
0.0032101200304848
0.0021434199742599
0.0014667403422585
0.0010062196783898
0.00069618443682607
0.00049108414274727
0.00035447316559639
0.00027300474404887
0.00021570125725465
0.0001767984705325
0.00014907256939131
0.00012767576940475
0.00011059334518533
9.6954333920094e-05
8.5534227949439e-05
7.5325385527415e-05
6.6613607387844e-05
5.9467263874798e-05
5.3411230737816e-05
4.8253502109129e-05
4.3972925291907e-05
4.0367154174659e-05
3.7208101932688e-05
3.1516991680999e-05
2.6582019334115e-05
2.2603991594607e-05
1.935934267249e-05
1.6703604680421e-05
1.4502013418506e-05
1.2670778586442e-05
1.1129489228779e-05
9.828912586029e-06
8.7204818784291e-06
7.7728916752584e-06
6.9557313030237e-06
6.2504799109713e-06
5.6360498315065e-06
5.1012224329457e-06
4.6309541973916e-06
4.2182195456044e-06
3.8524461132201e-06
3.5287076254553e-06
3.2399959006282e-06
2.9824657150852e-06
2.7518687744405e-06
2.5445670722255e-06
2.3580631939699e-06
2.1893525288021e-06
2.0367429332002e-06
1.8979485000536e-06
1.7716694404528e-06
1.6564566737906e-06
1.5511614305111e-06
1.4547569317099e-06
1.3663143362316e-06
1.2850216478094e-06
1.2101508010045e-06
1.1410762695215e-06
1.0772318058492e-06
1.0181188835297e-06
9.6329690161742e-07
9.1238800178783e-07
8.650580057984e-07
8.2100309687466e-07
7.7994996960655e-07
7.4165468998472e-07
7.2877034703257e-07
5.4411998220869e-05
0.00071128277300833
0.00080735385813109
0.0006986621772647
0.00057324152783787
0.00041963844259349
0.00023023485956819
0.00013881589745077
0.00015514311566377
0.00015129989088732
0.00014876089757889
0.00014797841534478
0.00014845654898208
0.00014962426627155
0.00014531810229237
0.00014710466855086
0.00014837332352722
0.00014897131966871
0.00014821763255615
0.0001459095171404
0.00014206355716657
0.0001367381114071
0.0001301997444974
0.00012288224652503
0.00011530549787255
0.00010795533322399
0.00010126847277302
9.5504401865625e-05
9.0795019764099e-05
8.7139855146936e-05
8.4462542933276e-05
8.2644226679312e-05
8.1556149887898e-05
8.1072358114822e-05
8.1200424083703e-05
8.1685176675853e-05
8.2380011127126e-05
8.3250058122833e-05
8.4210390827479e-05
8.4918107449218e-05
8.5190514625506e-05
8.5090694314632e-05
8.4871989921087e-05
8.4396652562169e-05
8.3514835810262e-05
8.2257243723011e-05
8.0683948072092e-05
7.885946851901e-05
7.6801171522168e-05
7.45582220431e-05
7.2190880004822e-05
6.9842002013762e-05
6.7456211287171e-05
6.5185700719287e-05
6.3074018778094e-05
6.1027331807966e-05
5.9186473706094e-05
5.7414843036994e-05
5.5930134383275e-05
5.4497530503633e-05
5.3287020241599e-05
5.1936977169228e-05
5.0815896242238e-05
5.026322868881e-05
4.9587105563448e-05
4.9158513525839e-05
4.9781723380782e-05
5.4319924649243e-05
6.2074546870307e-05
5.9520830038445e-05
0.0083321810234548
0.0044651134659095
0.0027327505232029
0.0017755169302006
0.0012216562727321
0.00088108654358181
0.00065584200126814
0.00050401348522235
0.00039634571523504
0.00032200338624878
0.00026265581813503
0.00021507048542731
0.00017755722028351
0.000148233524912
0.00012545801356275
0.00010802375844304
9.3809436568198e-05
8.2031901701472e-05
7.1939268958078e-05
6.3089526538981e-05
5.5324427253962e-05
4.8976515805055e-05
4.3770311063924e-05
3.93378946957e-05
3.5611358354953e-05
3.2574135997319e-05
2.9963098113694e-05
2.5998096708324e-05
2.2118853306185e-05
1.8956304534082e-05
1.6357725397886e-05
1.4206038719227e-05
1.2410378146448e-05
1.090309760358e-05
9.6269678027675e-06
8.5422654116932e-06
7.6128654513236e-06
6.8142936616163e-06
6.1235295805513e-06
5.5236820612527e-06
5.0000279900662e-06
4.5414112791453e-06
4.137989861908e-06
3.7813921340553e-06
3.4652241759224e-06
3.1831813590567e-06
2.9317090426659e-06
2.7060061975596e-06
2.5034596075726e-06
2.3206946018595e-06
2.1556649936913e-06
2.006133260184e-06
1.8702458213836e-06
1.7464674792734e-06
1.6334443664761e-06
1.5301439203036e-06
1.4355218637114e-06
1.3487003775977e-06
1.2688701131809e-06
1.1953250084106e-06
1.1274436599885e-06
1.0646765196082e-06
1.0065414354216e-06
9.5261267039408e-07
9.0251789200354e-07
8.5592736848141e-07
8.1254617254514e-07
7.7211055280409e-07
7.3438523679259e-07
7.228590975623e-07
5.4628138527891e-05
0.0007110869779811
0.00080671877398335
0.00069838185198457
0.00057360809446269
0.00042126466548869
0.00023530921053507
0.00015101772019284
0.00017356796674461
0.00017230290477307
0.00017099478893137
0.00017120625278526
0.00017268919107219
0.00017495159607795
0.00017101585785345
0.00017384634619724
0.0001762305479484
0.00017779792082665
0.0001778862120948
0.00017599921031204
0.0001720044353554
0.00016596183838337
0.00015804067301842
0.00014867011782854
0.00013846192609848
0.00012810465557408
0.00011829228401177
0.0001095719124408
0.00010222991202249
9.634590374853e-05
9.1861798949305e-05
8.863223290986e-05
8.6461121257961e-05
8.5159796399489e-05
8.4409815434613e-05
8.4570819592017e-05
8.4977960526303e-05
8.5542903764673e-05
8.619783723472e-05
8.6636891803017e-05
8.6650680604277e-05
8.6406392372331e-05
8.603930226424e-05
8.5295063852378e-05
8.4131646777984e-05
8.2629904896476e-05
8.0860561029195e-05
7.887938434092e-05
7.6680237825802e-05
7.4306984048436e-05
7.1829452346888e-05
6.9354962452762e-05
6.6844808307811e-05
6.4475106103785e-05
6.2316450115795e-05
6.0264161510038e-05
5.8407923309147e-05
5.6626496715649e-05
5.5103362130653e-05
5.3647802431561e-05
5.240371020273e-05
5.101810664856e-05
4.9927585253093e-05
4.9322603224144e-05
4.8555234473702e-05
4.8219372554289e-05
4.8371912439343e-05
5.2070412053012e-05
5.7701664750911e-05
5.5590896804993e-05
0.0032342497938905
0.0022813523720663
0.0016049023224904
0.0012154345788148
0.00094021598076014
0.00072498835137178
0.00057538741028576
0.00047210955954869
0.00039188076129807
0.0003183389146469
0.00026515582998532
0.00022048765407967
0.00018356799170153
0.00015352928253316
0.00012879009816257
0.00010891036305766
9.3566119206215e-05
8.0871796117441e-05
7.0104213958674e-05
6.1169746874764e-05
5.3777361715914e-05
4.7361111946628e-05
4.1954176230007e-05
3.752385835442e-05
3.3784089343599e-05
3.0574094318641e-05
2.7905442875763e-05
2.5376072968832e-05
2.1620444661707e-05
1.8550592908209e-05
1.6019752471801e-05
1.3921392818e-05
1.2166359931975e-05
1.0691248451277e-05
9.4425932648468e-06
8.3799280493408e-06
7.4690769226311e-06
6.686134244954e-06
6.0086734861386e-06
5.4204780179991e-06
4.9066237390877e-06
4.4568447923693e-06
4.0606165887584e-06
3.7107645660557e-06
3.4001125097585e-06
3.1237772950881e-06
2.8770889998434e-06
2.6560840561251e-06
2.4576482401281e-06
2.2788126628639e-06
2.1174346631695e-06
1.9711668231066e-06
1.838442644747e-06
1.717459397368e-06
1.6069390223227e-06
1.5058220391509e-06
1.4131759930017e-06
1.3281594010291e-06
1.2499743275015e-06
1.1779221052226e-06
1.1113879926392e-06
1.0498462503799e-06
9.9283237236436e-07
9.3992845065538e-07
8.9076586141879e-07
8.4502580946837e-07
8.0242451304826e-07
7.6270466357798e-07
7.2563610342963e-07
7.1580059046603e-07
5.487665249626e-05
0.00071079663996349
0.00080582617802524
0.00069803380470382
0.00057413013505435
0.00042344524619588
0.00024176522592254
0.00016474920315599
0.0001938626296093
0.00019520397310223
0.00019483573955497
0.00019580976031677
0.00019814146882297
0.00020141632860109
0.00019842011820702
0.00020240030418914
0.00020605810554624
0.00020873498087414
0.00021000224683372
0.00020892644155475
0.00020529270326764
0.00019908858910925
0.00019038837877593
0.00017954947677009
0.00016717556342488
0.00015402611048537
0.00014093394698558
0.00012871016970881
0.00011796660695335
0.00010904228365904
0.00010200024593721
9.6700157476084e-05
9.2896035718633e-05
9.0340867804018e-05
8.840529455204e-05
8.7788617187045e-05
8.7734996122651e-05
8.7984174295024e-05
8.8226670740652e-05
8.8233262309723e-05
8.7977138813205e-05
8.7509568062743e-05
8.6827521545281e-05
8.5728334647743e-05
8.4293224785975e-05
8.2581283014351e-05
8.0637207567184e-05
7.850286972594e-05
7.6170073241438e-05
7.3679443546331e-05
7.1102794867734e-05
6.8527159690412e-05
6.5915612413005e-05
6.3464057786725e-05
6.1243320348998e-05
5.9187768283271e-05
5.7324985166134e-05
5.5538277147122e-05
5.3992078452279e-05
5.2520142765971e-05
5.1250460619047e-05
4.9893417054204e-05
4.8739503450461e-05
4.8086773646926e-05
4.7230068962533e-05
4.6954223572825e-05
4.6756135752146e-05
5.0077651026281e-05
5.525359220615e-05
5.3291658101975e-05
0.0011007049677992
0.00096197767386951
0.00099494247486884
0.0010380121428691
0.0010862831125592
0.00093912517565947
0.00071708062915498
0.00054723433490054
0.00042538618223327
0.00034243498416866
0.00027934082150302
0.00023034200491393
0.0001914054829115
0.00015960852564301
0.00013370211209224
0.00011258608492635
9.5287935565085e-05
8.1151543488448e-05
6.9682490647369e-05
6.0310375284258e-05
5.2611029200892e-05
4.6334640493347e-05
4.1055114870554e-05
3.6581300812089e-05
3.2865313578231e-05
2.9687296780316e-05
2.6934097931208e-05
2.4602743426231e-05
2.1088537494581e-05
1.8124345382124e-05
1.5675787238874e-05
1.3634696666631e-05
1.1926861713609e-05
1.0487823688529e-05
9.2679028933767e-06
8.2275278393032e-06
7.3364882278838e-06
6.5686001859783e-06
5.9040702837295e-06
5.3264356386878e-06
4.8221551209152e-06
4.3799509047008e-06
3.990627068111e-06
3.6467362557548e-06
3.341480936237e-06
3.0698765976143e-06
2.8272299345283e-06
2.610176883165e-06
2.4151472158945e-06
2.2394738974391e-06
2.0807751972666e-06
1.9370622168444e-06
1.8066368693705e-06
1.687833722758e-06
1.5794083772968e-06
1.480216144148e-06
1.3893756926039e-06
1.3060355658378e-06
1.2294323079768e-06
1.1588584876915e-06
1.0937211390494e-06
1.0334888934913e-06
9.7767267380745e-07
9.2585117019243e-07
8.7767667831339e-07
8.3284789230512e-07
7.9108846850182e-07
7.521399650282e-07
7.1577875943794e-07
7.0793925111416e-07
5.5161329982483e-05
0.0007105887727615
0.00080475992312799
0.00069763790398651
0.00057482651992607
0.0004261944386022
0.00024941822847357
0.00017903996480082
0.00021460974706057
0.00021855520309556
0.00021880138794755
0.00022024597465803
0.00022320229319414
0.00022732405471
0.00022543844657841
0.0002305554285339
0.00023545824915635
0.00023937173342838
0.00024179346923239
0.00024172894177018
0.00023878725920454
0.00023284288871138
0.00022393592094625
0.0002123135514782
0.00019848407763623
0.00018320180266833
0.00016733475299111
0.00015186431559708
0.00013761865477281
0.00012522327556034
0.00011497663885715
0.00010691578745549
0.00010086910889031
9.654117432004e-05
9.2880808761945e-05
9.134318917138e-05
9.0493027071241e-05
8.9986697100951e-05
8.9639714649339e-05
8.9152786923699e-05
8.8500860941327e-05
8.7662272781245e-05
8.6636050991459e-05
8.5299592523233e-05
8.3679752239712e-05
8.1801953753435e-05
7.9711282968916e-05
7.7446116963014e-05
7.5003499693279e-05
7.2423444941838e-05
6.9785772206073e-05
6.7152847357071e-05
6.4501200522491e-05
6.2015341178878e-05
5.97584758858e-05
5.772288205968e-05
5.5860118782866e-05
5.4096648882553e-05
5.2538462803881e-05
5.1072996238827e-05
4.9786018597409e-05
4.8446128712913e-05
4.7267986838762e-05
4.6560154948739e-05
4.5564236244365e-05
4.5409661551816e-05
4.4914242512343e-05
4.7879643959126e-05
5.2835820599418e-05
5.1028815393069e-05
1.4947826105312e-05
0.00019828965443217
0.00028349886944218
0.00038110050498473
0.00046777466049861
0.00054426858613103
0.00061642231108769
0.00066707571123706
0.00051348644139728
0.00039871436977305
0.00031703274689087
0.00025762592267833
0.00021131282879991
0.00017471547993884
0.00014527966913765
0.00012130818759359
0.0001016558136043
8.573810128247e-05
7.289454618509e-05
6.2466726683359e-05
5.4039737107087e-05
4.7188512599996e-05
4.1610243609952e-05
3.7032745951074e-05
3.3033832593791e-05
2.980895932818e-05
2.7044640927667e-05
2.4654548518969e-05
2.1334248292134e-05
1.8336198862848e-05
1.5861551408556e-05
1.3801292405375e-05
1.2071377107478e-05
1.0611118261075e-05
9.3744025718936e-06
8.3196915042575e-06
7.4146746713572e-06
6.635036017197e-06
5.960726848612e-06
5.3742459688235e-06
4.8620373797297e-06
4.4131867604577e-06
4.0183914851209e-06
3.6695700339907e-06
3.3601342946927e-06
3.0849678764667e-06
2.8394122873612e-06
2.6197743932998e-06
2.4225009734815e-06
2.2450191652388e-06
2.0848058178818e-06
1.9398615219227e-06
1.808340967328e-06
1.6886742365589e-06
1.5795907008044e-06
1.4798807809745e-06
1.388599807757e-06
1.3048634313379e-06
1.2279345975135e-06
1.1571205188157e-06
1.0917997786841e-06
1.031429202961e-06
9.7553216154874e-07
9.236980933713e-07
8.7555051394183e-07
8.3076279165495e-07
7.890599410281e-07
7.5019921956423e-07
7.1392754462164e-07
6.8046989968993e-07
1.9770618169499e-05
0.00054217967537949
0.00082165216728257
0.00072548635584512
0.00060778938367161
0.00046919994472009
0.00030036340358068
0.00018755034390751
0.0002286469439397
0.00024101373226931
0.00024182450750329
0.0002430145207597
0.00024595334749983
0.00025037868965697
0.00025097851811176
0.00025715143470519
0.00026323239993633
0.00026835589493199
0.00027189177600476
0.00027296077022048
0.00027086816959633
0.00026540421036472
0.00025660603376931
0.00024462631784351
0.00022991914961468
0.00021319502357749
0.00019527199105752
0.00017713656785548
0.0001597737813909
0.00014402058780468
0.00013045441799689
0.0001192913780166
0.00011051299326766
0.00010393406848806
0.00010103729123709
9.7236422597411e-05
9.4385364375484e-05
9.2191116473238e-05
9.0519305247718e-05
8.908665689546e-05
8.7875844646311e-05
8.6626654121112e-05
8.5251244717012e-05
8.3556019376649e-05
8.1585752091446e-05
7.9384284933514e-05
7.700624295091e-05
7.4507836766728e-05
7.1910320582344e-05
6.9251657603977e-05
6.6593506739855e-05
6.3963931117615e-05
6.1366763593632e-05
5.8924194313747e-05
5.6672202662121e-05
5.4691104169092e-05
5.2862353474216e-05
5.1193741265126e-05
4.9638790037021e-05
4.8234219742236e-05
4.6918735941631e-05
4.5656775467397e-05
4.4463769022558e-05
4.3563811982291e-05
4.2472447064834e-05
4.238629433146e-05
4.1629961558295e-05
4.4033100342305e-05
4.8614582626389e-05
4.6971329314694e-05
3.3308682245383e-06
2.2964246946327e-05
4.8965406371021e-05
7.9045778316599e-05
0.00011472713530137
0.00015683969305856
0.00019958626537239
0.00024368234105884
0.00028467092038295
0.00031197559666197
0.00031892637284447
0.00026596607998918
0.00021477168533056
0.00017516751275548
0.00014442547351609
0.00012006452169854
0.00010020859837266
8.4149110265061e-05
7.1217968491529e-05
6.0795573035535e-05
5.2349556993732e-05
4.5488515321411e-05
3.9863830079285e-05
3.524325683519e-05
3.1464142741089e-05
2.8348019829152e-05
2.5571303805937e-05
2.2542671367895e-05
1.9367416139351e-05
1.6738563084003e-05
1.4551514028915e-05
1.2716050365221e-05
1.1170051066995e-05
9.8593930996397e-06
8.7413910486848e-06
7.780955282885e-06
6.9539836533803e-06
6.2387844749086e-06
5.6172447460989e-06
5.0742232604737e-06
4.5984071677104e-06
4.1803052087743e-06
3.8113622145175e-06
3.4844183888836e-06
3.1937504931728e-06
2.9347711325449e-06
2.7033144175046e-06
2.4957868226484e-06
2.3091976105386e-06
2.1410613759549e-06
1.9891719167371e-06
1.8515951677295e-06
1.7266466343651e-06
1.6129080936814e-06
1.5091501708243e-06
1.4143261115921e-06
1.3274830532206e-06
1.2477894035687e-06
1.1745223336073e-06
1.1070453408815e-06
1.0447998618574e-06
9.8728118559366e-07
9.3403782658756e-07
8.8466622570495e-07
8.3881088780163e-07
7.9616412757263e-07
7.5645405228053e-07
7.1942622667007e-07
6.8486924804217e-07
6.8447072254424e-07
5.6392399648871e-05
0.00071043318135502
0.00080102164183516
0.00069649200304201
0.00057826698489785
0.00043800757794049
0.00027776717788804
0.00021921171515651
0.00027090639461099
0.00028341175803279
0.00028406509144288
0.00028509930738253
0.00028846317933886
0.00029394396858534
0.00029540435131762
0.00030332624677767
0.00031145388020383
0.00031879606806014
0.00032442953833632
0.00032771532856516
0.00032746580462304
0.00032335029036204
0.00031533627156754
0.00030343754450683
0.00028798362775431
0.00026958902275081
0.00024899447275601
0.00022714791923452
0.00020514429108842
0.0001839735757201
0.00016450740269222
0.00014737594829727
0.00013289627804253
0.00012117985469489
0.00011269888497216
0.0001049030198628
9.8751261500336e-05
9.3943893171161e-05
9.040831036634e-05
8.7845750888745e-05
8.5651556258616e-05
8.3460949971879e-05
8.1188616049009e-05
7.8684674276779e-05
7.6044799635526e-05
7.3298626328687e-05
7.0486740689506e-05
6.7700844052725e-05
6.5005103462485e-05
6.2366035900681e-05
5.9790000960545e-05
5.7288627668771e-05
5.4937561301338e-05
5.2715193187765e-05
5.065653438502e-05
4.8833267076555e-05
4.7101855814347e-05
4.556265541169e-05
4.4084334149667e-05
4.2801212416593e-05
4.148508672066e-05
4.031402664337e-05
3.9160447674202e-05
3.806897832143e-05
3.6890202122171e-05
3.6704365697237e-05
3.5879581335841e-05
3.7536850269993e-05
4.1513226622595e-05
4.0335983044732e-05
3.0417592795356e-06
7.7100165990805e-06
1.4883370179071e-05
2.4898853640801e-05
3.8157757466966e-05
5.4644520979673e-05
7.4598803739683e-05
9.7028609173085e-05
0.0001216959606189
0.00014694426011246
0.00016777865912743
0.00017873639521283
0.00017831105147691
0.00016640489115607
0.0001444565959247
0.00011956740229591
0.00010016653869793
8.4438329167223e-05
7.1583254529855e-05
6.1066741644117e-05
5.254646708741e-05
4.5589077892457e-05
3.9869853580814e-05
3.5154676266014e-05
3.1245428300874e-05
2.7986674436674e-05
2.4374803219007e-05
2.1001100831404e-05
1.8175566571223e-05
1.5795627033596e-05
1.3787769720748e-05
1.2092018351589e-05
1.065202288369e-05
9.426008465881e-06
8.3738466950326e-06
7.4695895292023e-06
6.6900538437567e-06
6.0142544532197e-06
5.4246785610811e-06
4.90792345695e-06
4.4543151581309e-06
4.054325205789e-06
3.7003681314473e-06
3.3857677885566e-06
3.1058428084186e-06
2.8558626937031e-06
2.6320906218504e-06
2.4311010218724e-06
2.250161378459e-06
2.086954639887e-06
1.9393130990795e-06
1.8054420320088e-06
1.6837352154987e-06
1.5729111666527e-06
1.4717641692919e-06
1.3792601709168e-06
1.2945075819174e-06
1.2167039868273e-06
1.1451773203199e-06
1.0792798006553e-06
1.0184629518805e-06
9.6225935839387e-07
9.102392326562e-07
8.6202489301871e-07
8.1726222715729e-07
7.7564260866615e-07
7.3689580955994e-07
7.0076520335601e-07
6.6704038584081e-07
6.7301909875231e-07
5.7894587651205e-05
0.00071073083942159
0.00079854683492127
0.00069615112441201
0.00058204678870846
0.00044898818547773
0.00029981377913632
0.00024102730194715
0.00029871315890863
0.00031849643382572
0.00031900805516187
0.00031850407487517
0.00032088058717313
0.00032625063478893
0.00032940741289608
0.00033857047045343
0.00034827311039995
0.00035744064934406
0.00036499551236952
0.00037016539601829
0.00037174194428452
0.0003691737283462
0.00036235257723274
0.00035118498515876
0.00033588839707838
0.0003169619505033
0.00029504281195206
0.00027098042132032
0.00024584442777963
0.00022071294656612
0.00019657127661855
0.00017430077067788
0.00015453682328674
0.0001377669283355
0.00012255048242701
0.00011072271681034
0.00010132610272103
9.4422702324405e-05
8.94165952583e-05
8.5030038542593e-05
8.1174602491672e-05
7.7692204351792e-05
7.4399716436967e-05
7.1140873996304e-05
6.8000416705206e-05
6.4825168828012e-05
6.1773480881951e-05
5.8763372570169e-05
5.5956594029086e-05
5.3372259920594e-05
5.0875827821512e-05
4.8473561996225e-05
4.6329683315278e-05
4.4337266291712e-05
4.2475992089206e-05
4.0797173517634e-05
3.9272316663069e-05
3.7957245198536e-05
3.672674833234e-05
3.5688153145873e-05
3.4601824902683e-05
3.365683386784e-05
3.2764115868914e-05
3.1875755635993e-05
3.087358348671e-05
3.0659918498904e-05
3.003621195861e-05
3.1108117550977e-05
3.4385746531466e-05
3.3301991834425e-05
2.7219825332612e-06
4.868254317051e-06
6.8268614251006e-06
1.0918520921973e-05
1.6636049842588e-05
2.4138178165409e-05