/*--------------------------------*- C++ -*----------------------------------*\
| =========                 |                                                 |
| \\      /  F ield         | OpenFOAM: The Open Source CFD Toolbox           |
|  \\    /   O peration     | Version:  2312                                  |
|   \\  /    A nd           | Website:  www.openfoam.com                      |
|    \\/     M anipulation  |                                                 |
\*---------------------------------------------------------------------------*/
FoamFile
{
    version     2.0;
    format      ascii;
    arch        "LSB;label=32;scalar=64";
    class       volScalarField;
    location    "7e-05";
    object      cSound;
}
// * * * * * * * * * * * * * * * * * * * * * * * * * * * * * * * * * * * * * //

dimensions      [0 1 -1 0 0 0 0];

internalField   nonuniform List<scalar> 
109340
(
554.92479409549
553.89865606454
551.89883420856
549.45965330972
546.74815874919
543.9062647142
540.98870478644
538.01815830878
535.01998453803
531.91668785775
528.56914215287
524.85071951674
520.61847182954
515.71052233005
509.95104456298
503.15692695672
495.1436977272
485.73485178267
474.77169528812
462.12515471072
447.70631862366
431.48082761126
413.47912677579
393.80258336582
372.62158031499
350.16786312713
326.71829568899
302.57297096719
278.02930669702
253.35538505808
228.76495681456
204.39507134689
180.28990344686
156.40685905068
132.67430679483
109.12728937943
555.09631884175
553.76607267816
551.51574101879
548.90696466016
546.11300091383
543.25820121027
540.37793267527
537.46315496672
534.4629482663
531.30137037162
527.86870924412
524.03581903497
519.65367075406
514.55539512789
508.56166386202
501.48641083946
493.14658818375
483.36872140875
471.99965874294
458.91849173918
444.04840237068
427.3700238812
408.93104325277
388.85067905324
367.31616503549
344.57282322714
320.90635717896
296.61948990808
272.00545958056
247.32137337968
222.76311645665
198.44150446509
174.35979358215
150.41464213248
126.39904403891
102.34600002192
555.69279626572
554.14772206534
551.66770916113
548.99679576918
546.22712475535
543.41375908201
540.549523397
537.62758824461
534.6185159904
531.44939815144
528.01347558022
524.1807003944
519.80084573487
514.70627064529
508.71735721914
501.64869699402
493.31648852573
483.54699625078
472.18631327582
459.11285719529
444.24850897607
427.57293685532
409.13305451507
389.04748648628
367.50328516465
344.74593674215
321.06179817089
296.75471645256
272.11931594593
247.41369098645
222.83380172471
198.48638515434
174.35194863016
150.25927731588
125.83768991405
100.67354211108
556.52208109877
554.65341721122
552.04858494711
549.3029392422
546.48022712522
543.60825744654
540.69639520102
537.74238748033
534.71231665186
531.53193332417
528.09453770986
524.26874061985
519.90239451024
514.82611921468
508.85818879911
501.81091761953
493.49850863724
483.7451180389
472.39404864044
459.32185797165
444.44679995011
427.74670270164
409.26729016294
389.12680307225
367.51391040332
344.67654104727
320.90496309587
296.50785843362
271.78515389315
246.99973131208
222.35099716182
197.94621441512
173.73989362518
149.47818180642
124.53303607613
97.637993328086
557.82682166629
555.38981780543
552.40127872257
549.46660905268
546.56651934198
543.66626418154
540.74564525538
537.79644258931
534.77794666615
531.61274304726
528.19497806779
524.39194952557
520.04811618194
514.98931372607
509.02725642905
501.96594687157
493.61010760412
483.77368561364
472.28095718149
459.00489844248
443.85015184649
426.79093045888
407.87511044588
387.22932550058
365.06058830394
341.64110505312
317.29131076291
292.35286496187
267.15834642852
241.99998527293
217.09812672139
192.58894285713
168.41008796104
144.2509860288
119.21187431655
90.609742103008
560.2508846706
555.78082670297
552.48555772208
549.48888329274
546.58507830734
543.69084399701
540.77691905081
537.81845055861
534.75506650111
531.47922691078
527.84533262178
523.67119681001
518.74378195974
512.82587712946
505.66548661074
497.00892364455
486.61821550585
474.29846713851
459.93166162247
443.37074138097
424.62456268732
403.80592698368
381.14068604607
356.96053354176
331.67984356042
305.75905150981
279.66368279508
253.82358904201
228.59883947331
204.25492887916
180.93969853551
158.7288622728
137.45918709174
116.77606027133
95.754257465852
70.800690961548
86.772520989484
67.982247058161
54.093063101525
44.661213797082
38.483489459599
34.306874313404
31.501103519688
29.680283687246
28.603203098307
28.104220252682
28.029729208579
28.390722283862
29.003016756206
29.793769968071
30.706121961479
31.672332151006
32.651274005318
33.613218874607
34.539261282983
35.419949220934
36.249926733571
37.026666112786
37.751599155462
38.427369049703
39.056436524925
39.642437815289
40.19058951374
40.7003739118
41.177810035948
41.625833572083
42.044983413786
42.440834679432
42.811783787194
43.163548936307
43.494317375109
43.808992268412
44.105941447737
44.38926468791
44.657525875485
44.914143450318
45.157923728212
45.39158161594
45.614375236434
45.828148855813
46.032860630115
46.229256765858
46.418139570879
46.599415652053
46.774258743068
46.942426225601
47.104700344521
47.261276440932
47.412532409927
47.558739637726
47.700181628734
47.837104955411
47.9697481256
48.098326691703
48.223045191216
48.344090790815
48.461639584152
48.575856056859
48.68689651171
48.794908015977
48.900028608039
49.002387601526
49.102106922799
49.199299868178
49.294070991655
49.386514980903
49.505723650181
50.496579476721
51.133038180483
51.72501421873
52.442326759558
53.321689466447
54.359820964247
55.277003834327
55.411691031934
55.393233423239
55.37463977847
55.359381636482
55.346838250951
55.336774772209
55.327027553234
55.322384450173
55.319896725308
55.319308456657
55.320241200076
55.322244839903
55.324854795854
55.327611877184
55.330129184973
55.332097761256
55.333349206841
55.333741467942
55.333364164278
55.33225722277
55.330550432726
55.328380331217
55.325862131192
55.323079906564
55.320092462311
55.316959139714
55.312982460052
55.30989006349
55.307052597762
55.304404552377
55.301900218247
55.299385770848
55.296902332471
55.294217584739
55.291669888042
55.28904617574
55.286440973809
55.284249199721
55.282162901152
55.280072494545
55.277949003381
55.275821534609
55.273689297344
55.271866916103
55.270318045306
55.269180771224
55.268376430677
55.268091151562
55.268368668587
55.26917204123
55.270807796317
55.272807543022
55.275199172711
55.277457161104
55.279942223773
55.284306408449
55.289325375874
55.296057691098
55.305351198719
55.330706783125
55.603644668738
66.02097412136
79.388058283323
61.156685390527
48.754403948098
40.880784069819
35.739616593831
32.394765204224
30.216645709101
28.885860457267
28.185113252563
27.965471496077
28.124343129656
28.566996656454
29.259524390745
30.091708990935
31.008643828175
31.969472272375
32.934300818676
33.878875761146
34.787185924667
35.649453946094
36.461214493875
37.221529338219
37.931330479552
38.592911988956
39.209316368128
39.784072612186
40.320464187145
40.82185260821
41.290978330772
41.730900620939
42.143980614705
42.532668780094
42.898954165482
43.244734466719
43.571745736104
43.881468422794
44.175332243295
44.454526017465
44.72021027865
44.97336607182
45.214922835778
45.445725098831
45.666490880288
45.877962021087
46.080694962643
46.275335306986
46.462323980257
46.642215054657
46.815373981514
46.982256415142
47.143184210792
47.298525945985
47.448593230654
47.593679783309
47.734059332737
47.869975258302
48.001660947666
48.129327828702
48.253175586592
48.373389055497
48.490143292162
48.603601217938
48.713916554585
48.821233678767
48.925689113486
49.027410823869
49.126518176149
49.223121271266
49.317325432035
49.409187713282
49.639982131157
50.689546409235
51.271813715849
51.888948962748
52.64352930446
53.564452782017
54.626230752602
55.351591952823
55.400536614213
55.378585537996
55.359300274769
55.343356365358
55.330264186734
55.319883463293
55.316871063102
55.311689508268
55.308736359359
55.307790020497
55.308500973283
55.310461410236
55.313223899205
55.316344206529
55.31944209566
55.322161216416
55.324250899241
55.325502608715
55.325915956228
55.325479390725
55.324299962053
55.32252383697
55.320255764296
55.317609929327
55.314653834041
55.311469546476
55.307327098166
55.30403627374
55.300968655994
55.298065394416
55.295308617552
55.292545229646
55.289848708227
55.286972335573
55.284247183595
55.28138902468
55.278567394518
55.276248021988
55.274055794472
55.271883472569
55.269735341999
55.267605870144
55.265516142025
55.263761920551
55.262256645333
55.261147526734
55.260403014961
55.260190777879
55.260511084586
55.261374736133
55.263005169341
55.26497914796
55.267310951487
55.269437588403
55.271774499845
55.276134616694
55.280897860338
55.287552331747
55.296616044632
55.321741091887
55.587139955193
65.599319834584
75.51930835712
56.162251578221
44.651355689315
37.690524351443
33.343199032236
30.682716572122
29.092377776913
28.214126275622
27.849017303381
27.845342938462
28.189293664977
28.737486114827
29.455162083384
30.290401941609
31.195178395947
32.133449033526
33.07493851047
33.998002401956
34.886990947791
35.732387364893
36.530270274965
37.279360579567
37.979890545237
38.633925167532
39.244381423072
39.814145015412
40.346180130159
40.843868946236
41.310050948844
41.747272419194
42.15817538086
42.544871930961
42.909536560074
43.253879692784
43.579678187321
43.888331430823
44.181280915706
44.459662514019
44.724654893966
44.977184750404
45.218237467769
45.448555705593
45.668961591811
45.880063403396
46.082537931417
46.276896852949
46.463688675555
46.64337143299
46.816374945656
46.983110638485
47.143925361385
47.299175058013
47.449153914671
47.594168293411
47.73448209861
47.870345372645
48.001985739485
48.129614652182
48.253430163017
48.37361743625
48.49035074597
48.603792271558
48.714094572476
48.821401362178
48.925849022221
49.027565071095
49.12666810552
49.223267875549
49.317469640277
49.409329839089
49.640661336241
50.689397814589
51.270860683455
51.886795582968
52.639721881262
53.558957508894
54.617412150213
55.33634826619
55.38939834952
55.366326449156
55.345208240207
55.327666689466
55.313176293754
55.301553825771
55.2985551357
55.292496580967
55.288723268086
55.287114492503
55.287371715246
55.289130356076
55.291974934956
55.295474183102
55.299338664958
55.303160786732
55.306595001129
55.309356452508
55.311249836217
55.312157554608
55.312100655871
55.311175512345
55.309497985238
55.307204536787
55.304379132853
55.301161143337
55.296777013354
55.293190303739
55.289726182015
55.286380176893
55.283197336571
55.280018202717
55.276903775313
55.27367168159
55.270614312887
55.267313292357
55.264072905199
55.261385035999
55.259007066898
55.256694684003
55.254418142216
55.252175681735
55.250012996342
55.248239353956
55.246688541042
55.245549428274
55.244831560229
55.244601523794
55.244895258969
55.245679321093
55.247188142745
55.24902208468
55.25131196491
55.253093038307
55.254700734075
55.259876043052
55.26365198225
55.27039629849
55.2770798822
55.301072148008
55.522236913029
64.196236244884
68.406413537152
48.217300127515
38.442816575177
33.063555202781
30.257700373358
28.653194206132
27.859491084649
27.552428332447
27.584032110654
27.835210232503
28.366438759507
28.995362324271
29.732987695533
30.558044553421
31.436712311629
32.345896136107
33.258466176715
34.15343209239
35.017789713308
35.842954142712
36.623556913166
37.357616657135
38.046275138375
38.690667897597
39.292948638222
39.856017969759
40.382784668065
40.875818123424
41.338022595063
41.771954002767
42.179964667294
42.564227129569
42.926717293475
43.269242664957
43.593373798636
43.900628854347
44.192279630442
44.469558925117
44.733520305394
44.985178553368
45.225402190872
45.455018659329
45.674764877549
45.885300320351
46.087251066443
46.281146013927
46.467526761291
46.646823304859
46.819497848447
46.985918023093
47.146468624365
47.301472487294
47.451242236579
47.596064621549
47.736205019946
47.871913457199
48.003413270979
48.130916354347
48.254619103488
48.374706322018
48.491350209928
48.604712011183
48.714943518107
48.822187904239
48.926580143817
49.028246381143
49.12730417073
49.223863059128
49.318028107649
49.409852804691
49.641852690871
50.689360766265
51.269590852789
51.883641750733
52.634019604285
53.550574631385
54.60412360394
55.316353240825
55.375952974996
55.352426622537
55.329531741853
55.310381497171
55.294444773572
55.281481242296
55.277537906823
55.270416775801
55.265655236055
55.263196824117
55.262759045847
55.264023438346
55.266625547497
55.270167309288
55.274412806291
55.278996196993
55.283567890965
55.28779115678
55.291347803271
55.293963156617
55.295456124329
55.295835132213
55.295165627714
55.293561307234
55.291145020847
55.288063878567
55.283504464191
55.279641046532
55.275729394205
55.271816884578
55.26807236316
55.264324665081
55.260598785502
55.256845693333
55.253249784176
55.249379084466
55.245480454399
55.242054324669
55.239299619682
55.236692080307
55.23414210687
55.231657005556
55.229349410824
55.227407550356
55.22572949625
55.224452739513
55.223636553597
55.223292253538
55.223477138834
55.224156309945
55.22551768018
55.227202154173
55.229323828207
55.230915940155
55.232426052049
55.237222143425
55.240375742347
55.246983038849
55.253116066329
55.275374150012
55.481851719961
64.055031059488
53.580955766232
36.692373638209
30.673912078676
28.197052903799
27.284994596664
26.952821020562
26.974671026941
27.223674555825
27.607191974398
28.106723649187
28.691552087217
29.353962875166
30.092995805334
30.895499333813
31.741725800374
32.610248019928
33.483966260247
34.345202147198
35.179872130885
35.979251293536
36.738587101879
37.45560434717
38.129286532082
38.761438830564
39.353828125313
39.908705524586
40.428480261325
40.915852630734
41.37321071393
41.803058913801
42.20758047394
42.588889644673
42.948810951647
43.289097352741
43.611292719858
43.916838836042
44.206985371615
44.482932518646
44.74570836776
44.996302010171
45.235566110007
45.464328899713
45.683285960402
45.89312399648
46.094422216676
46.287744571365
46.473580527683
46.652392864393
46.824613989083
46.990625612718
47.150801853926
47.305460375424
47.454922100151
47.599461033011
47.739343926408
47.874811746929
48.00609054285
48.133391166977
48.256909031455
48.376827294797
48.493316485279
48.606537452505
48.716641304044
48.823769832696
48.928056257234
49.029625547227
49.128594249831
49.22507021399
49.319159200792
49.410911382681
49.643657531307
50.68944687985
51.267982885494
51.879433163316
52.62625976194
53.538952203914
54.58606019618
55.292967089783
55.361577323173
55.338612589609
55.314227290401
55.29360075813
55.276283271425
55.26201453209
55.256757951648
55.248501097263
55.242706242659
55.23932357043
55.238087763651
55.238705133454
55.24084450199
55.244155305474
55.248368413644
55.253231589706
55.258410430798
55.26360644219
55.26851426239
55.272752788399
55.275972466318
55.27793600723
55.278568012729
55.278046885035
55.276374199625
55.273702397509
55.269255063858
55.265233436175
55.260950051792
55.256535106345
55.2521702707
55.247741136739
55.243333229497
55.238877884158
55.23453260385
55.229848081154
55.225065011333
55.220589295592
55.217078267872
55.214061519198
55.211089236804
55.208213085181
55.20559408006
55.203376447712
55.201477976645
55.200010059749
55.199041476901
55.198546620622
55.19857992362
55.199133976056
55.200305136864
55.201849759159
55.203780137244
55.205233449546
55.206553441634
55.210837562354
55.213263494418
55.219797169445
55.22534100891
55.246191619549
55.446690548101
64.048831401432
26.704782150803
24.533617998637
24.766571344171
25.304594481463
25.858932801641
26.369171420303
26.872343749198
27.408361830489
27.950431163217
28.524515982646
29.141609217942
29.810967345956
30.530205356577
31.296016182704
32.098415317737
32.92189418872
33.751095831745
34.571441481392
35.371053551147
36.140934644007
36.875401557481
37.571520400747
38.228541945402
38.846383895577
39.426839129061
39.971803466952
40.483468011663
40.963889839013
41.415412237336
41.84034714357
42.240736208013
42.618450120288
42.975335061135
43.312976627198
43.632866055389
43.93637745262
44.224776494224
44.499160586385
44.760563655652
45.009925920907
45.248103973646
45.475871372854
45.693941308996
45.902971711476
46.103541288934
46.296196183103
46.481415943066
46.659672847348
46.831374417665
46.996916004724
47.156650008121
47.310908447857
47.459999048682
47.604196915262
47.74376446142
47.878937177096
48.009942815387
48.136988297553
48.260268951738
48.379966962617
48.496253082502
48.609287037529
48.719217824052
48.826186064278
48.930324396528
49.031756773823
49.130598098629
49.226953601844
49.320931061863
49.41257607416
49.646142896453
50.689700738338
51.266009622371
51.874082956177
52.616237715212
53.523685485793
54.562917936636
55.267102802347
55.347139386648
55.325862351612
55.300347079912
55.278387816646
55.259748735929
55.244185221032
55.23748137384
55.227984883526
55.22108718371
55.216698352812
55.214572602665
55.214435314977
55.215983750897
55.218915482138
55.222905765349
55.227791688126
55.23324533674
55.238989717163
55.244727990856
55.250110844334
55.254738438488
55.258257615452
55.260391724249
55.260992979527
55.260328598693
55.258355073946
55.254450612458
55.250323158155
55.24578710327
55.24100271698
55.236049716807
55.230899443774
55.225682195453
55.220256470009
55.214866627524
55.209069263387
55.203239750866
55.197723482476
55.193244832594
55.189722172212
55.186278111397
55.18297464938
55.180048536479
55.17759475868
55.175559915681
55.174000169857
55.172966824532
55.172378856062
55.172327331846
55.172802043932
55.173841557533
55.175312138059
55.177058213912
55.178419392801
55.179627894007
55.183235718041
55.184886389487
55.191379204505
55.196280225822
55.215726159408
55.410634063534
64.03615950624
26.014772801146
22.920759461625
24.121990637577
25.124769371937
25.946050108327
26.644456921561
27.24600652491
27.814825104135
28.378244297265
28.9502401699
29.549771420149
30.184626656288
30.856117958719
31.565593975571
32.3091355693
33.077261954409
33.856835333878
34.635621166117
35.401229525864
36.14448869017
36.858878511326
37.540286271782
38.186570275744
38.797483726991
39.373161649038
39.914894568868
40.424747694964
40.904551357005
41.356098220126
41.781431281901
42.182672530493
42.561567295754
42.919767574196
43.258835190146
43.580251916236
43.885319298938
44.175250521025
44.451166180485
44.71408658689
44.964919743877
45.204516044931
45.433656731442
45.653052317511
45.863342800106
46.065120274209
46.258932609431
46.445266979834
46.624584048924
46.797296294701
46.963806446309
47.124466066742
47.2796096911
47.429540170853
47.574542929684
47.714883297117
47.850797329243
47.982510496557
48.110230803373
48.234158923447
48.354479315163
48.471363597871
48.584972040155
48.695455537081
48.80295677847
48.907608603933
49.009535182243
49.108853166459
49.205676811076
49.30010147715
49.392217694247
49.509052850524
50.500700271636
51.126161877493
51.705954975424
52.405005894717
53.263433184568
54.274931576304
55.142282205784
55.330356117007
55.321158823645
55.294689025866
55.270694455736
55.249980872446
55.232334152108
55.220167277637
55.209307054744
55.201202292103
55.195701026841
55.192585134058
55.191601922329
55.192475645063
55.194925237096
55.198622799518
55.203412130369
55.208978848414
55.21504474646
55.221322262949
55.227482515238
55.233129791672
55.237837119519
55.241231382244
55.243032417769
55.24316964369
55.242004712174
55.229815849524
55.225948236679
55.221303716924
55.216057621217
55.210287745279
55.203999346392
55.197186595388
55.189953160159
55.182765986058
55.175395155153
55.168216937766
55.161775424566
55.156564309575
55.152496002954
55.148685100582
55.14517519098
55.142206195478
55.139813796139
55.137910576876
55.136496747779
55.135602794597
55.135123423419
55.135192804971
55.135758512608
55.136862288037
55.138360467694
55.139955978223
55.141466921356
55.142982754268
55.145617952161
55.146120446528
55.152759124869
55.15685340441
55.173993082765
55.357873597328
63.983301205003
34.307934125754
28.761209716664
28.470026734105
28.489673490163
28.661107484497
28.920114907874
29.255525125608
29.662905655967
30.080692011328
30.543260371659
31.046753543632
31.583295225794
32.153977569702
32.758549378683
33.394354040399
34.054996665327
34.731173707149
35.412723387635
36.090482766672
36.7550705307
37.399702493034
38.01996646552
38.613104907544
39.177711413884
39.713598345784
40.221175261305
40.701273424305
41.154938942519
41.583908730869
41.989592343325
42.373473311659
42.736966807565
43.081555974654
43.408575402011
43.719236066213
44.014643508721
44.295925842076
44.564079125135
44.819984463828
45.064458504198
45.298283250887
45.522179094998
45.73677991058
45.942672761064
46.140404763172
46.330490084584
46.513388987408
46.689526844759
46.859300830974
47.023079377094
47.181198290428
47.333966013303
47.481673339758
47.624592475465
47.762974597833
47.897051311488
48.027034729608
48.153126386969
48.275516165855
48.394382320551
48.509890597882
48.622195900107
48.731444739947
48.837774872568
48.941315029523
49.042185129563
49.140496156352
49.236350261878
49.329853293251
49.421049353293
49.658049151509
50.691718648072
51.257678551852
51.850247763751
52.570411891461
53.451870991913
54.459949374599
55.176875436487
55.306476086394
55.297058887023
55.270895207727
55.245740870581
55.223226138197
55.20346422504
55.191582424054
55.177713071949
55.166699382631
55.158480507771
55.152923319852
55.149856255759
55.149070244911
55.150327640664
55.15332352434
55.157838839172
55.163568697615
55.17016537073
55.17729375048
55.184596579456
55.191683397392
55.198067739719
55.203282710129
55.206887803001
55.208502885725
55.208275767684
55.196947873078
55.193200044838
55.188181272651
55.182040009721
55.174869741253
55.166670649112
55.157483424885
55.148002884688
55.138880829464
55.130507771924
55.12305599031
55.11689908934
55.112168825615
55.107911511834
55.104353425641
55.101465362198
55.099299002354
55.097745097386
55.096712762933
55.096094070592
55.095864548131
55.095993146809
55.096507762863
55.097365325072
55.098579147977
55.100067832086
55.101430508181
55.102970492424
55.104641157919
55.106070712704
55.105380836799
55.111603222512
55.114058205455
55.128677764543
55.294646838086
63.848922122402
37.76159622357
32.603580279385
31.928171181255
31.623298206221
31.474718904842
31.427555911425
31.48541344485
31.631591267723
31.860746123486
32.165071184371
32.504344761736
32.899149979286
33.345935597933
33.83313967585
34.353412327917
34.90342975306
35.475648991443
36.061431516133
36.652437761182
37.241202916712
37.82057217361
38.384714203666
38.929774996718
39.453311627762
39.95405590321
40.431636883805
40.886088796544
41.3180258773
41.728365137206
42.118005900196
42.488054888906
42.839675986651
43.173950956218
43.491992950536
43.794742001139
44.083227359466
44.358394367458
44.621110059153
44.872183323341
45.112351624249
45.342349619553
45.562810536151
45.774331445791
45.977447936889
46.172691729334
46.360524331046
46.541382770058
46.715668195931
46.883760332894
47.046011037637
47.202730981499
47.354214593672
47.50073765727
47.642566518353
47.77994253298
47.913087568664
48.042210187467
48.167505515455
48.289159847792
48.407342329792
48.522211172412
48.63391708288
48.742602760627
48.848404570934
48.951448835809
49.051853545953
49.149726483373
49.245169375149
49.338282184465
49.429108112715
49.670392034118
50.694591493562
51.250234655239
51.827304531985
52.524983980686
53.378785369583
54.359636287872
55.102026916259
55.280198584216
55.285671659384
55.262277901764
55.23587517681
55.210740688309
55.187625567819
55.171352880922
55.153596964517
55.138684391408
55.126748878142
55.117817955256
55.111861622964
55.108784322554
55.108429498496
55.110527422555
55.114785882712
55.120859978741
55.128284309226
55.136577819723
55.145254589491
55.153833949311
55.161748398939
55.168456019634
55.173427129425
55.176142416298
55.17633695206
55.165712792332
55.161380191073
55.155331154167
55.147582844451
55.138186426081
55.12748474845
55.116086082081
55.106182539522
55.097440616503
55.090001037317
55.084567979625
55.079831115642
55.076103084886
55.073484359376
55.071671082658
55.070232607224
55.069138968715
55.068388052714
55.068016098896
55.067954347569
55.068211680631
55.068808344651
55.069715275563
55.071166248798
55.07302639316
55.075438511609
55.077948989011
55.080996525681
55.084949855422
55.088657627744
55.091454457333
55.100971120163
55.108631916774
55.123371611303
55.276793028642
63.656688815314
40.286753973938
35.191476622428
34.401611268364
34.005155783484
33.747490183713
33.587016886335
33.498391405203
33.500975837839
33.584078286074
33.728902755808
33.947647548269
34.221066095489
34.538014965567
34.906366275838
35.320603321823
35.769904042536
36.245575905718
36.742204798579
37.251286860177
37.765575663554
38.27870891243
38.785304157971
39.280465893472
39.761004515269
40.224718903653
40.670307573759
41.097218290156
41.505403444219
41.895149402007
42.266961837523
42.621550303123
42.959685669023
43.282135514409
43.589762292313
43.883446655621
44.163961442384
44.432095044963
44.688535923166
44.934019706176
45.169238809649
45.394782583791
45.611241850197
45.81913317965
46.018996225025
46.211286277528
46.396439996405
46.574861370339
46.746927613047
46.913002772511
47.07340398749
47.228434970736
47.378366762701
47.523467497573
47.663989075005
47.800157958337
47.932188773896
48.060278414514
48.184620119161
48.305392529332
48.422758360839
48.536869490925
48.647867643447
48.755891283546
48.861072119455
48.963533465488
49.06339237875
49.160755093102
49.255720947267
49.348383245728
49.438780876004
49.687811987906
50.699847048475
51.241900404919
51.798912619079
52.467078689987
53.283611498214
54.229952735238
55.005887814795
55.250155567052
55.278630523595
55.261974831566
55.235832215047
55.20829352711
55.181335341454
55.159783631936
55.136924005159
55.116718187289
55.099616571236
55.085925367173
55.075854992818
55.069502636668
55.066849961025
55.067681128847
55.071635537634
55.078269762803
55.086974243342
55.097063969971
55.107806072275
55.118513405482
55.12844811165
55.136945121545
55.143386168392
55.14714652983
55.147686796126
55.137218655135
55.131740607531
55.123893209105
55.113636833153
55.101345861803
55.088870521162
55.078117038633
55.069690488393
55.063826593187
55.058878240516
55.055488047378
55.052951357982
55.051212296448
55.050607688453
55.051280270829
55.053280618174
55.056730402383
55.061397909955
55.067173619279
55.073800549206
55.081324548082
55.089715381052
55.098960269849
55.109200352933
55.120645488958
55.133643419509
55.148302957858
55.165205099908
55.184816299743
55.206704577641
55.232183162341
55.265150555904
55.30092003046
55.338924511732
55.498133124168
62.705195936677
42.529496296991
37.105148094949
36.268730844294
35.836004466566
35.545442868279
35.336874369602
35.192558093879
35.115773013221
35.107893273833
35.162904192047
35.273183675152
35.458456706248
35.683112384899
35.949547065036
36.265996794503
36.624273569167
37.015168822002
37.430417273622
37.864135489368
38.309560539168
38.760027994708
39.210080954965
39.655604780019
40.092566086703
40.518298307019
40.930946812323
41.329272563441
41.712578998559
42.080618651223
42.4334627573
42.771404709009
43.09489295986
43.404483283497
43.700799662063
43.984441260572
44.256020168909
44.516211923932
44.765630115923
45.004859472482
45.234492373873
45.455006633167
45.666927429757
45.870766002146
46.066958122917
46.255933513631
46.438054710446
46.613704563817
46.783251624649
46.947012956724
47.105293865757
47.258364076176
47.406498507402
47.549950340032
47.688946581619
47.823708483477
47.954433712092
48.081318766243
48.204545206505
48.324279722337
48.440681788411
48.553896584537
48.664064469572
48.771316159196
48.875774025006
48.97755772747
49.076780558789
49.173548968336
49.267958715898
49.360102897408
49.44999473463
49.712693647331
50.708924043816
51.233709501773
51.766078350222
52.39764483512
53.166737400203
54.068096455321
54.876662387033
55.208090853621
55.27231603516
55.268152930727
55.245151308903
55.21626278444
55.185323320027
55.15761349825
55.12823525017
55.100993925734
55.076835479102
55.056522350705
55.040663551303
55.029687497676
55.023750393755
55.022728254146
55.026207605488
55.033586958766
55.04406633698
55.056659412002
55.070315075272
55.08401358266
55.096713406305
55.107556015397
55.115798130821
55.120714062043
55.121568599942
55.110639683146
55.103477741595
55.093108043209
55.080039482511
55.066079423759
55.054830698453
55.047575437798
55.042281057993
55.038588962556
55.036457519412
55.036844508433
55.040521121363
55.047998960814
55.060025537458
55.076201767868
55.096586951178
55.120694269497
55.147801530747
55.178016874143
55.211319128065
55.247967306851
55.287846849274
55.33114860646
55.378197048842
55.429359782204
55.485696558898
55.548067259522
55.618116118571
55.697169835271
55.78601329401
55.889453510631
56.008348694042
56.142253343049
56.292326373588
56.423908401561
55.690234103821
44.859696975657
38.599064880797
37.754458934171
37.295963115954
36.99490366605
36.769568564277
36.604763229109
36.488299177412
36.427572269709
36.425574387679
36.470810295053
36.570200936245
36.736192297335
36.93755563364
37.169876337766
37.446697221146
37.764055242976
38.110104390348
38.476693976253
38.858528966033
39.251241195158
39.648866513455
40.0466554745
40.441237245871
40.829333769301
41.208691338579
41.577740735439
41.93544614051
42.281093204787
42.614269448443
42.934865846751
43.243027726683
43.539052470097
43.823311321691
44.09623858921
44.358306374508
44.609995602641
44.851776613758
45.084130153433
45.30758899654
45.522580539771
45.729527532769
45.928864839176
46.120961205928
46.306207508276
46.484978743657
46.657582528294
46.82433663545
46.985531309768
47.141443098359
47.292354133151
47.438501505519
47.580113962118
47.717404694789
47.850575166898
47.979833669617
48.105358773754
48.22731779446
48.345871293798
48.461168177987
48.57335817167
48.682573644197
48.788936915201
48.892566107271
48.993571718125
49.092064617874
49.188150315836
49.281924018914
49.373466354816
49.462757182357
49.749264683597
50.723738678917
51.227102093296