/*--------------------------------*- C++ -*----------------------------------*\
| =========                 |                                                 |
| \\      /  F ield         | OpenFOAM: The Open Source CFD Toolbox           |
|  \\    /   O peration     | Version:  2312                                  |
|   \\  /    A nd           | Website:  www.openfoam.com                      |
|    \\/     M anipulation  |                                                 |
\*---------------------------------------------------------------------------*/
FoamFile
{
    version     2.0;
    format      ascii;
    arch        "LSB;label=32;scalar=64";
    class       volScalarField;
    location    "7e-05";
    object      dydt;
}
// * * * * * * * * * * * * * * * * * * * * * * * * * * * * * * * * * * * * * //

dimensions      [0 0 -1 0 0 0 0];

internalField   nonuniform List<scalar> 
109340
(
0
0
0
0
0
0
6.0935200202894e-05
0.0028161920441576
0.012925013920325
0.033857991242094
0.069002878744023
0.12157224686331
0.19472779943295
0.29180199369737
0.41651791951523
0.57323237871628
0.76733893456921
1.0056995671759
1.2972305793612
1.6535683386042
2.0900962996977
2.6268766072538
3.2901387901558
4.1143971167712
5.1458098143844
6.4469170527951
8.1042939788282
10.240866102708
13.036965894118
16.767845101656
21.874223925829
29.103730043027
39.810579847564
56.613622968948
84.887128695388
136.30611984113
0
0
0
0
0
0
0.00023162221236411
0.0040237476904954
0.015835121481873
0.039301764277024
0.077761552303457
0.13440448814052
0.21242472220231
0.31523559311239
0.4467015210268
0.61145983768731
0.81518877702332
1.0651948708704
1.3710167204707
1.7451554395594
2.2040595286144
2.7691792958854
3.4685779835633
4.3392907836976
5.4309877115643
6.811310052397
8.5744008190379
10.854948021031
13.852416337901
17.874850833154
23.422991648178
31.364116025065
43.319004298102
62.558015086699
96.431719600659
161.60759215881
0
0
0
0
0
0
0.00016818492812581
0.003634118579122
0.014988899439435
0.037982802627869
0.076003596373102
0.13228366831994
0.2100574946009
0.31276516746287
0.44426937526433
0.60913588337596
0.81300940374199
1.0631302870319
1.3689965365973
1.7430630229978
2.2017844296886
2.766574224894
3.465455855888
4.3354206727939
5.4260973619066
6.8050993990731
8.566520068875
10.844974486629
13.839844543783
17.859367673004
23.405454576425
31.352722854599
43.368385574814
62.950049542475
98.5001121084
172.66883530826
0
0
0
0
0
0
0.00012268763314749
0.0033705108594759
0.014498631684331
0.037339231175634
0.075285410696011
0.13153981988546
0.20929937419614
0.31195964063443
0.44335207403095
0.60802588742071
0.81160038038728
1.0612976335821
1.3666567354793
1.7401159109349
2.1983123607839
2.762706080309
3.461409396606
4.3315998834589
5.4230561172124
6.8037534277514
8.5682610270305
10.851910288458
13.855246724049
17.888795550775
23.459230630567
31.453594683525
43.607932072264
63.73188468462
101.91325573056
192.49447458391
0
0
0
0
0
0
0.00010521691638887
0.0032174107842335
0.014093605940966
0.036599540447645
0.074152487256129
0.12997177189737
0.20727404832559
0.30947802896019
0.44044318454076
0.60475146427568
0.8080425970154
1.0575546723004
1.3635381177822
1.7383024749887
2.1995153694724
2.7693781857402
3.4771818168051
4.36194621731
5.4757507597803
6.8901044774304
8.7045495614577
11.061661492374
14.172886372923
18.366059908603
24.179897848853
32.543936555905
45.350103432542
66.894498757573
109.80375167612
231.75269447398
0
0
0
0
0
0
0.00040434156653435
0.0054212890769034
0.020069241103908
0.04843456913289
0.094165264830245
0.16076575180863
0.25186390662405
0.37151222470912
0.52453908458203
0.71695687001154
0.95641844418158
1.2523126596387
1.6156113765557
2.0694418681187
2.6364423266881
3.3476420263625
4.2441848806939
5.3804727379119
6.8293060080699
8.6894804784044
11.097779111562
14.248670725686
18.428520529581
24.078769536626
31.931798022625
43.193370061982
60.427800172261
89.45543002703
148.27443393088
346.87262726275
231.66300523786
388.19606618932
601.80290981784
854.78750181968
1130.6306423193
1449.1650625189
1814.4533055968
2229.2470930448
2689.7312967917
3186.0676260941
3728.9487072651
4201.5254245343
4634.2714063804
5005.8890286771
5280.5005121808
5470.8421490413
5580.4056695119
5621.19412266
5607.3667658362
5548.5122388688
5455.6455205428
5341.5945642306
5213.0656817367
5074.8318183625
4933.402648615
4791.9458606184
4645.707660183
4507.9180023809
4374.5063362186
4240.0519701244
4117.2849687903
3992.1676458906
3879.1626396105
3765.1098237351
3661.3794438543
3557.8166100166
3462.9963817046
3368.86339391
3282.3773577091
3196.6427732767
3117.6544164218
3039.51834277
2967.1678438099
2895.8969101644
2829.3117956961
2764.3490461711
2702.6096363345
2643.5259229286
2586.5059734204
2532.1738243789
2479.7106685019
2429.4401734343
2381.0450338702
2334.4743110706
2289.6298173921
2246.4294154423
2204.78697153
2164.6247379903
2125.8659849469
2088.4415590201
2052.2874626699
2017.3437169316
1983.5521036724
1950.8567508625
1919.2055748084
1888.5506863625
1858.8459132392
1830.0477488976
1802.1258293619
1775.0206641249
1760.9093209082
1605.1701786817
1272.4407448246
1112.6456595306
954.7921493295
794.51599459207
630.29188204163
478.31847247516
436.46740992431
437.21228149226
441.02545297933
444.19923663662
446.56665747189
448.06349889815
448.82283253762
448.16372290575
446.6830325837
444.46274651915
441.66236549186
438.47925591847
435.08905817706
431.67280212929
428.37317724965
425.29223029669
422.48754337762
420.019741196
417.83861368052
415.95773167165
414.33834362082
412.93224758987
411.69877733725
410.61543727641
409.66452234804
408.83308389145
407.91488188564
407.21657962318
406.53553869322
405.84109387252
405.1512653378
404.54064112023
404.14350485857
403.91673020868
403.910557431
404.10779889117
404.7044999851
405.56160859858
406.39191304228
407.28655308437
408.33490052106
409.44515219615
410.77103411444
411.95015370107
413.15236079825
414.25586326571
415.22956952386
416.14608627459
416.70056447048
417.19062120999
417.13623000375
417.01696507873
416.66299994685
416.23731523916
416.25953006552
414.50747776252
413.18790018374
410.25917014493
407.82858631399
399.7173957655
447.80634477451
37453.654501468
291.64022854441
497.73583882373
755.03731200729
1034.2253001071
1352.4996242593
1703.3749144403
2098.7392312638
2532.7528454775
2998.0766495722
3483.31507968
3968.0389253193
4438.6768427757
4817.8257819601
5130.2219539796
5368.4232330081
5522.7142488952
5605.1892668214
5624.9583855195
5593.0290383809
5521.9462032609
5422.3405897077
5302.694056964
5170.4839297859
5031.2960997955
4888.8535221193
4745.9362345688
4604.8944129463
4466.4899332836
4332.4910994725
4202.8695984172
4078.1803533622
3958.5459687326
3843.9080257127
3734.5015343299
3629.7924905975
3530.0168756953
3434.6041867897
3343.687453806
3256.7398532944
3173.8266401388
3094.5118740997
3018.758498218
2946.2892464247
2876.9457893995
2810.591252386
2746.9755509158
2686.0748114342
2627.5916869557
2571.5364617296
2517.655192118
2465.9261121698
2416.1877761177
2368.3532121128
2322.3045509791
2277.9511099003
2235.2127720476
2194.0046190102
2154.251197291
2115.8798414656
2078.8236155361
2043.0184803748
2008.4045683719
1974.924951266
1942.5260863536
1911.157138643
1880.7701890644
1851.3230440432
1822.7722059817
1795.0781002975
1768.1311461161
1792.5321933993
1473.6324556385
1231.7720500212
1074.7802631503
916.20273722474
755.1721712547
589.62827788216
459.55476398436
437.03856895956
439.60547697074
443.50715241556
446.69071188377
449.03371841356
450.4555779615
450.30796017059
449.80017187412
448.4569568166
446.36961510792
443.68961925386
440.59863385773
437.27189475785
433.88025666357
430.55820279687
427.41390685897
424.51395386505
421.91234708705
419.5886046415
417.55970583812
415.79545262585
414.25788589325
412.9058550902
411.72513208394
410.69670075822
409.80873146124
408.85008732035
408.13861284361
407.45719719416
406.7772677817
406.11316836273
405.53761280469
405.16193435111
404.95373893036
404.95540159318
405.2150235217
405.87161241029
406.71339398575
407.56219684165
408.47754249799
409.49957066446
410.59271908642
411.86504312128
412.97023129598
414.11984660369
415.14905470875
416.07795520689
416.89807284697
417.39556400329
417.77262809446
417.65717739635
417.48378492243
417.06451595849
416.76896940957
416.65993890227
414.77705339433
413.58946240773
410.66349400877
408.17164077865
399.73852279608
446.60641643698
35357.815452813
343.95087213224
629.34018943233
935.1727207037
1271.2374865519
1649.8620708782
2047.7669634436
2462.7824093054
2896.2355833885
3339.7855971297
3803.034282522
4205.1822550965
4591.1400037278
4926.1158357023
5197.2327950286
5402.2299274746
5538.1196247826
5607.9903883378
5618.7646301107
5582.0407769234
5509.8102201789
5410.091882129
5290.4969655066
5158.9610466454
5020.6053158438
4878.6868680095
4736.4563443717
4596.1913257021
4458.7686209255
4325.1154654985
4196.3112820143
4072.1204705471
3953.076724552
3838.9263570255
3729.8713162919
3625.6023947516
3526.0985392454
3431.0483098085
3340.3468811948
3253.6963414093
3170.9814146391
3091.883638805
3016.3332027175
2944.0165698828
2874.8711749244
2808.6135823306
2745.1894115144
2684.3612356829
2626.0455545168
2570.0676435392
2516.3189709708
2464.675063802
2415.0164365784
2367.2575885042
2321.2800668356
2276.9984969087
2234.320838767
2193.1684325212
2153.4659264819
2115.1425139056
2078.1309587996
2042.3670948948
2007.7911766043
1974.3469292762
1941.9811249792
1910.6428516507
1880.2843097115
1850.8634036088
1822.3370730663
1794.6627312711
1767.7388686638
1792.2576036193
1473.3033764968
1232.0208666931
1075.3297629246
917.01560918181
756.1817140718
591.06082458254
462.32436752359
439.02173341719
441.45532192127
445.62941310776
449.10330857536
451.71421835798
453.37503330781
453.16676497377
452.86550846333
451.68842481859
449.73972107356
447.1674478891
444.15480260805
440.87454002801
437.48370387716
434.10702546566
430.8485436855
427.78883044132
424.96184153906
422.39973998558
420.11193093649
418.09016909198
416.31342027918
414.75959869877
413.41247443488
412.24536763426
411.25123802044
410.19275933077
409.42400675017
408.70224226467
407.99932196765
407.32379117091
406.74788397935
406.34878808385
406.13799044201
406.1389546992
406.47580578144
407.10338307777
407.87033266114
408.70573576945
409.58355795477
410.55272288165
411.62663675325
412.79286365355
413.83140288444
414.90965147961
415.86940437812
416.71224805192
417.45297570055
417.89102632955
418.21531940708
418.08737434465
417.89417564395
417.42490563904
417.26254911208
416.87517133106
414.91361838421
413.75144087147
411.01097378438
408.47625970678
400.11932852489
437.66308104867
26554.175434425
465.66469241156
923.15809343782
1350.0278948618
1818.3922903933
2236.6237982643
2667.4625298805
3068.8666814036
3458.2252532537
3833.8308050075
4224.6445814622
4498.9404442487
4794.9059300909
5064.6189877523
5285.9164049527
5456.7389407028
5565.1268641798
5615.4912852646
5616.0901347796
5573.6097992455
5496.3352083322
5394.491507083
5276.1754814347
5145.014966688
5006.9445738525
4866.2694902273
4725.1981916609
4585.4544797247
4448.9447053281
4316.2988136574
4188.0697856635
4064.6899295063
3946.2264419571
3832.7579052824
3724.131821936
3620.4036937236
3521.2453463388
3426.6170601072
3336.2077816087
3249.90747585
3167.4182982589
3088.6249064032
3013.2681251008
2941.1971418895
2872.2184616197
2806.1681595595
2742.8979386869
2682.2281295092
2624.0552508752
2568.2049350479
2514.5853413819
2463.0458294079
2413.495612325
2365.8221964283
2319.9343843505
2275.7355545991
2233.1340100982
2192.0528111513
2152.4154306843
2114.1522823363
2077.196089666
2041.484027093
2006.9567790112
1973.5581056588
1941.2344812049
1909.9352863076
1879.6133556335
1850.2263128253
1821.7315769247
1794.0868046016
1767.188879098
1791.9749668678
1473.0192687207
1232.4019967413
1076.1401467746
918.23077675285
757.71481921754
593.24363287652
466.10084034516
441.65604580333
443.80790963957
448.26950684515
452.07503122903
454.99033439334
456.92402318262
456.81471858557
456.74976703331
455.77186493815
453.99703503708
451.5774806532
448.69142656014
445.5050599308
442.16814991203
438.8019568829
435.50442225883
432.35369729201
429.37409875386
426.60565094322
424.06742632167
421.76998961049
419.7174839537
417.9049048959
416.32425836575
414.96517479184
413.81788695249
412.61676554679
411.77294042735
411.00482749659
410.27709917215
409.59271784289
409.02321790742
408.60120169396
408.40497830197
408.40487290813
408.74887574747
409.35573248192
410.08669404734
410.86369762934
411.66173669318
412.54772984564
413.53118030153
414.56772092985
415.50883857599
416.46938463862
417.31130630581
418.03841439655
418.65843581143
419.00453534588
419.22012896578
419.03961743367
418.76318951049
418.2330597894
418.06748941207
417.3718191221
415.37719516528
414.23668280535
411.54612408416
408.93481591767
400.73134324676
434.77613655858
26327.008004301
886.19148323401
1721.1958961328
2406.5113849494
2960.4665226688
3332.0827031806
3654.9951372792
3926.0062552733
4155.0497416906
4379.0559820518
4591.2099251445
4809.3059593984
5026.8919894258
5224.8002713395
5389.9383526303
5514.0461093903
5594.337205808
5626.2078347791
5612.81219634
5562.3129996283
5482.0921745137
5378.5334354526
5258.0368737422
5128.2895365839
4991.6295605126
4851.7619138154
4711.5393443704
4573.2226773787
4437.6694055842
4305.9808091313
4178.6299763009
4056.0762499912
3938.3183194662
3825.5098029741
3717.5194654569
3614.2761294027
3515.6135881434
3421.4049531001
3331.3905869341
3245.4218489177
3163.2686569847
3084.7648393325
3009.6720015214
2937.8562691162
2869.0993667021
2803.2707854683
2740.1787228236
2679.7019706605
2621.6842196473
2565.9954293822
2512.5089026061
2461.1010316734
2411.6723233602
2364.1069064008
2318.3183161673
2274.209768005
2231.6983107978
2190.7002863479
2151.1398886693
2112.9470680908
2076.055937569
2040.404969361
2005.9350435247
1972.5896756755
1940.3154428066
1909.0625218179
1878.7840956843
1849.437674421
1820.9801901128
1793.3712148465
1766.5038461985
1791.6356305796
1472.6444867274
1232.9317402065
1077.2313814292
919.8811012042
759.83563950944
596.25764711221
470.72170636471
444.80008431945
446.49600996593
451.21076408864
455.35706851751
458.58622082229
460.79658339303
460.83381172894
460.99227889071
460.19791865399
458.57946617046
456.28988688886
453.50613939765
450.39345132441
447.10334339074
443.75875674858
440.45086778674
437.25410801223
434.18540024818
431.28236902998
428.56211770396
426.03840869674
423.72607117335
421.64640518423
419.81371080798
418.23456122976
416.90239461891
415.53364309437
414.6203906394
413.80259176081
413.03995912774
412.33447084944
411.74908742988
411.31894053534
411.11641423796
411.08753352056
411.39974078573
411.95680932378
412.62490442043
413.29713089397
413.96632873928
414.72290345681
415.57428724479
416.46737882735
417.27661387074
418.09699553561
418.80215549614
419.40076098816
419.89136587275
420.13925439656
420.24549807188
419.98786722737
419.62397730709
419.00282621372
418.6860704024
417.93575204216
415.88860117005
414.73374165834
411.9511657366
409.37200773155
401.42670875421
433.70136719232
26574.59375903
4224.86577967
5010.8889515973
5055.7334059369
4932.5972124946
4826.6263685426
4792.1464374432
4805.3344609921
4828.3972959119
4902.3013791022
5007.1285041707
5132.1597485313
5260.2904077132
5385.7883892529
5495.369434858
5576.5306206099
5623.3286326856
5633.4325307568
5607.4575027817
5549.0899908825
5464.2041920208
5358.9231353324
5238.8720846345
5108.3659628316
4973.0086432917
4834.7301840684
4696.0205366898
4558.6624992899
4424.5690110767
4294.1363891449
4167.8424195722
4046.1171490734
3929.3273879216
3817.2479849116
3709.940111106
3607.3144970008
3509.2359321353
3415.4734137811
3325.9152086806
3240.3444649624
3158.5638720188
3080.3689772615
3005.5966360938
2934.0533713263
2865.5591777969
2799.9568213158
2737.087093337
2676.8153717896
2618.9788288436
2563.4614657271
2510.128103487
2458.872125371
2409.5750929433
2362.1349037251
2316.4574054791
2272.45318412
2230.0410930038
2189.1349055242
2149.6606901825
2111.5478953827
2074.7321806208
2039.1511673963
2004.7453482195
1971.4595177155
1939.2415533482
1908.0417642952
1877.812942324
1848.5126731698
1820.0972789546
1792.5295312112
1765.6971500421
1791.2394971274
1472.1295463532
1233.5925903144
1078.6235844301
922.00970176805
762.61751447183
600.1773674235
476.06434173207
448.35143963625
449.41313811689
454.31896647615
458.80227017985
462.34662478347
464.83187200976
465.04484919955
465.42028345146
464.79644705668
463.31644038142
461.1377646771
458.43841526272
455.38291879457
452.12224956806
448.78164425857
445.4544046997
442.21140738243
439.07145363111
436.06714725545
433.21122538415
430.51596456707
427.9984445398
425.6938520565
423.6374409648
421.85092228363
420.3206508494
418.77464868029
417.78486972773
416.89376004763
416.07465589471
415.32603393691
414.71634870819
414.2731733392
414.03118060554
413.9300479167
414.17422728802
414.63424064771
415.18084846109
415.71328969541
416.22334894063
416.8261254617
417.52215666354
418.24608459143
418.90944184208
419.56941167553
420.12433005564
420.57431179106
420.90970633847
421.03190844264
421.00544453327
420.64416446981
420.16104102379
419.42385014556
418.9466746025
418.0609105397
416.03109382414
414.7836490306
411.7728446407
409.17374197438
401.58080767501
432.28828627022
26783.535295866
17973.706404966
10811.357129647
8413.3056344353
7120.4137531745
6343.1218323223
5878.5456657622
5628.5129354442
5488.2755599809
5420.3932612298
5406.6209427695
5426.6844070155
5469.3042568102
5525.0220422433
5581.3760337228
5625.7441319043
5648.0524669699
5644.0482598952
5611.2031972133
5550.989421364
5467.1050333249
5364.1109953895
5246.7229897435
5119.4846284557
4985.3429206208
4848.8538846556
4712.1231142731
4576.0385172329
4442.2621700388
4312.1730493249
4186.3126376021
4064.611912873
3947.4755782625
3835.1526851701
3727.5576632404
3624.4938881558
3525.9161302028
3431.7117909036
3341.6558040919
3255.5586566214
3173.2710524321
3094.6008909456
3019.3448302291
2947.3214514975
2878.3759103996
2812.3417600646
2749.0531741295
2688.3669946794
2630.1413362804
2574.253560567
2520.5632170107
2468.9604720037
2419.3305157575
2371.5774621362
2325.6002334438
2281.3050406903
2238.6100027895
2197.4356327169
2157.7087548073
2119.3542507825
2082.3048697134
2046.4984346026
2011.8769863798
1978.3853395088
1945.9694606173
1914.5790957855
1884.1676295188
1854.6910774337
1826.112578581
1798.3893639095
1771.4672417359
1753.2972373245
1598.8466748656
1275.8346534061
1118.7279202306
963.855586215
806.06011202494
645.1273399668
502.87252130965
454.88575358577
451.59444337826
456.2170823445
461.21061557619
465.32957203806
468.37814213005
469.35070260202
469.92516168275
469.45384209923
468.08784629579
465.99187516806
463.34657691859
460.31804413233
457.05967166705
453.6981728559
450.33126932776
447.0295711784
443.81600466194
440.72081233357
437.75608791479
434.92823802356
432.25301841728
429.76228240455
427.50691383731
425.53253865064
423.76179731485
423.8727352809
422.6736690846
421.62340086216
420.6973855741
419.86878944738
419.17755957519
418.61503652472
418.21131698185
417.91086478178
417.94849112142
418.17938593628
418.48570295954
418.8074307674
419.12740972248
419.53306499078
420.00334127458
420.47530783642
420.87681407161
421.26910212246
421.53443560786
421.73085637194
421.76497317074
421.6423178878
421.32758061054
420.76353295736
420.01027619217
419.07332850872
418.18353398152
417.04662641401
415.11534134013
413.63208227431
410.0402113518
407.2589525085
400.27890903303
428.42744981166
26994.710592858
11163.442559052
12585.325379281
10542.317568576
9132.7761809642
8139.3272405483
7422.890745461
6896.6203107799
6494.5006203799
6254.2464849577
6071.3841109566
5937.7068426064
5851.431982117
5794.7036796798
5756.1134707643
5722.9998224471
5684.6816098721
5634.4599632897
5569.262070914
5487.2248073689
5389.6285203507
5279.2606461578
5158.9954466724
5031.8516441559
4900.6382106696
4767.474339392
4633.9595227867
4502.068331655
4373.2177031741
4247.382236662
4125.3629763834
4007.4692780009
3894.163625891
3785.2248058728
3680.6828003055
3580.5018753241
3484.6842738228
3392.9487792947
3305.1579480455
3221.1621955505
3140.8376186677
3063.9715739321
2990.3768261614
2919.8976849637
2852.3892823948
2787.6923236806
2725.6422096967
2666.1069727819
2608.9578334478
2554.0704981981
2501.3160087898
2450.5852878841
2401.7761341299
2354.7915505449
2309.5377555806
2265.9230491549
2223.8661968891
2183.291762425
2144.1297943424
2106.3110389154
2069.7688570705
2034.4417333881
2000.2724339046
1967.2075607051
1935.1957163387
1904.188517137
1874.1405348646
1845.0090118914
1816.7537038475
1789.3343897625
1762.6447388839
1789.9083949792
1469.9959782119
1236.3354756665
1084.7786629719
931.68081269973
775.64260797182
617.97226251867
496.03094481352
461.05948341923
459.14025283305
464.10281845977
469.53861675986
474.05942424171
477.38626452621
478.16374723089
479.12440038715
478.93073673745
477.75286298818
475.76991219542
473.1700222732
470.1275523911
466.80121517882
463.32365818459
459.80410270019
456.31846400661
452.9013686131
449.58781447576
446.38733856736
443.30282242249
440.34435129695
437.54047824896
434.94160372783
432.60386465098
430.50060421948
430.09534707956
428.61694164842
427.35382495932
426.24866260762
425.23012596511
424.30529049066
423.42446359514
422.63510605036
421.97874443681
421.66211769861
421.496486889
421.39354443809
421.29447709448
421.19221901829
421.09889214425
421.00862870127
420.87659597048
420.67704265742
420.42382030849
420.05299827864
419.65443898708
419.0194202139
418.3415506807
417.40426812483
416.34958730842
414.93418359958
413.52286302055
411.90561186222
409.92743938548
407.86621686057
405.86293757977
401.3256834098
397.45029271775
390.92917490788
414.47535713962
26933.999039222
8617.3296746647
10999.996693765
10283.165489692
9356.8484623877
8585.0570475217
7971.2268628282
7471.4864170725
7066.4243741136
6721.8955158571
6448.4424519424
6258.1467894565
6091.3919883204
5956.4631876728
5851.8711307334
5765.6307542246
5686.5720868453
5606.4145747512
5520.7387006166
5426.5208960055
5322.7492300665
5210.0984216992
5090.5372477518
4965.9820612766
4838.4003148537
4709.5693360437
4580.867084835
4453.6126215053
4328.6263157596
4206.6300729185
4088.3827079322
3973.9846742642
3863.5789005271
3757.3193682199
3655.1588029497
3557.26854292
3463.4051433269
3373.4500580728
3287.2540583848
3204.7292451288
3125.7154846459
3050.0031345838
2977.4585663973
2907.9347653239
2841.3034887816
2777.3805215706
2716.0445731644
2657.1539282632
2600.5974487229
2546.2476472763
2493.9837057827
2443.7044865856
2395.3102524422
2348.7111849635
2303.8088413819
2260.5201271982
2218.7655233948
2178.4712548288
2139.5694083454
2101.9890204409
2065.6692797806
2030.5503707586
1996.5757008265
1963.692954799
1931.8504850855
1901.0014701865
1871.1016115634
1842.1065018464
1813.9821633511
1786.6860399443
1760.1115497354
1789.2788607615
1468.1370187677
1238.6825804232
1090.6123698541
941.17802907739
788.78170081247
635.35472013796
513.06468156677
471.39626018089
466.4494343298
470.91883385717
476.88703318128
482.11700756349
486.07628462463
487.27111354291
488.62184169614
488.69277866812
487.66329467249
485.73087596959
483.09678071851
479.9485348415
476.45814810856
472.76787248963
469.00068185141
465.2428242751
461.54286157754
457.94991153265
454.47517634592
451.11896099471
447.88304683826
444.78664744158
441.87555264962
439.21099839481
436.77701088005
435.85789277455
434.07632507745
432.53261847926
431.13400052898
429.76034665373
428.41354515897
427.06560234942
425.76714341535
424.63504273189
423.68228627643
422.6930885733
421.7522545106
420.79402111521
419.75294974539
418.64469096521
417.49370036886
416.29411693268
415.05710555426
413.70697777182
412.26071696674
410.71967801175
408.95954277254
407.10630548585
404.98251721005
402.68030040776
399.98249334084
397.29759513105
394.3176852999
390.7121748371
387.34792271808
383.95299241593
377.94620603311
372.69297968825
364.39135464419
382.70150795199
25923.135559533
7502.2438149232
9250.1618961031
9370.9939429398
8886.5569178203
8354.6340960979
7888.7328404229
7483.9006072887
7130.8759020747
6823.8249801767
6554.7054453748
6347.0231077532
6163.0864177208
6002.9725710138
5870.1894532107
5753.7324929081
5649.4249563725
5550.8383118516
5451.358821348
5348.7550609026
5241.3050950549
5128.5061019908
5010.9235957496
4889.9273111563
4766.76809787
4642.8055210215
4519.1907599748
4396.8544743725
4276.6639041896
4159.2628337077
4045.068254225
3934.3790096823
3827.4298329471
3724.3931813164
3625.2014138628
3529.8426011031
3438.2310694504
3350.3105511267
3266.0738948769
3185.2794837294
3107.7823064206
3033.4602129502
2962.1692748628
2893.8174331958
2828.2033620359
2765.2199124476
2704.7251511872
2646.6177470623
2590.7726112758
2537.0617289443
2485.3906720702
2435.6507032918
2387.7593844067
2341.6173655562
2297.1349624759
2254.2336254686
2212.8357764576
2172.8760111432
2134.280856497
2096.9843604635
2060.9262029141
2026.0490656883
1992.3014627907
1959.6301706791
1927.9848328488
1897.3206097233
1867.5934599991
1838.7587980348
1810.7851559871
1783.6317646931
1757.1870478378
1789.4067374702
1464.8855974428
1241.2258987794
1097.7250667865
953.19123206864
805.74104181124
657.49284210436
534.12368112616
483.87180063046
474.74975915479
478.10523245813
484.40458692508
490.38476900918
495.07830559365
496.7599947334
498.54546118584
498.89712160366
497.99382726994
496.05677245539
493.30897092835
489.95803661827
486.19536554668
482.18320512204
478.06109521134
473.92691153894
469.86307772111
465.92285127025
462.12624251885
458.47484274617
454.96237352163
451.59254939496
448.39626954774
445.4265336776
442.67223068838
441.19978203638
439.03531984852
437.08363323135
435.23865678792
433.36257465097
431.49824541132
429.43552687359
427.2473134131
425.11207065242
422.94481103735
420.57941064453
418.15755482894
415.66503553959
412.94565206037
409.99699622489
406.92338922652
403.59783816911
400.16033913782
396.51733293537
392.78352626591
388.89933362915
384.82660369409
380.66277078763
376.2662105024
371.64712147457
366.62787991353
361.41451293193
355.79324979556
349.65861307128
343.33993747807
336.74511196768
327.95451166038
319.24479030842
306.6769322611
317.58516251139
20034.814911615
7039.6223262212
7920.421588293
8367.2395675368
8239.3794998722
7909.0084793086
7573.1068786726
7260.7483974086
6978.7430837148
6717.4876879568
6487.6921593438
6281.8771917887
6096.0994303642
5948.586244686
5809.2710948224
5684.4415106204
5571.4617432318
5463.298580268
5358.2470652338
5253.2868105498
5145.8690478947
5035.1137889227
4921.3713315399
4804.976381943
4686.9495638148
4568.4006371032
4450.2838233596
4333.3752584019
4218.3417548318
4105.7712630408
3996.1082177101
3889.6393710232
3786.5519562335
3686.9416613262
3590.8871912918
3498.4240945233
3409.4859928953
3323.9732609354
3241.8431874286
3162.9351092049
3087.1580865231
3014.4498822314
2944.6177137037
2877.5386685394
2813.1025693093
2751.1762562908
2691.6828531823
2634.4724687637
2579.4356769242
2526.4774196588
2475.487466669
2426.3899999638
2379.0773992167
2333.4650387854
2289.472007424
2247.0190663214
2206.0438747525
2166.4689801748
2128.2282727241
2091.2608104975
2055.5065497712
2020.9144796893
1987.4290599392
1954.9996732541
1923.5814848723
1893.1290504763
1863.6017243457
1834.9576045481
1807.1559242393
1780.1642055872
1753.8650424635
1790.9434121616
1459.3770570742
1243.5970975045
1105.8235757973
967.50413782476
826.39742160353
684.47120152359
560.43373294521
499.60581529266
484.645020094
485.96231424463
492.18523876827
498.88224313235
504.42355574762
506.6974443876
509.01136266221
509.69522487806
508.91775056137
506.92871263189
503.98248880819
500.31931676522
496.15696614438
491.6919288235
487.08304851399
482.45696497911
477.92780047258
473.55757789218
469.37725052179
465.39114645738
461.58519511244
457.94605990453
454.48284109489
451.22772020613
448.14678833515
446.03564230151
443.39924949558
440.90452326392
438.51187317728
436.02540496705
433.22424036197
429.88939686032
426.26376017912
422.52792585319
418.48594665128
413.93339176545
408.97138475907
403.62689710458
397.56680308373
391.12606245206
384.28320352595
377.21698743243
369.95086586327
362.40341261093
354.73372103397
346.88154536442
338.94983041869
330.90563363602
322.6029676978
314.24910748531
305.5756377375
296.73438237346
287.3968255273
277.80455183197
267.7638423749
257.15890503745
245.69057415329
233.65540134178
220.37222548858
197.51478643548
32.8449314213
6959.4581070254
6953.3657760327
7454.6290375933
7566.2626153304
7406.7057927175
7176.4683224244
6942.7000880175
6722.2120413418
6513.3745687787
6314.836079444
6142.144021038
5976.9022628266
5826.5632829501
5693.8814474161
5571.9809422493
5460.3159420875
5352.3036255023
5246.9786562786
5142.7440711579
5038.0073248541
4931.3210481246
4822.5361346382
4711.9595932595
4600.0430547503
4487.5993682273
4375.477575028
4264.3977665257
4154.9080704752
4047.4878224397
3942.5770888531
3840.5008981598
3741.4716627411
3645.6084588394
3552.9615643747
3463.5710116413
3377.4283634403
3294.4881688609
3214.692871268
3137.9326253418
3064.1160776768
2993.1290083894
2924.854875508
2859.204505761
2796.1039173357
2735.3908076291
2676.9744246798
2620.7552753341
2566.6264468731
2514.5113852566
2464.3110892912
2415.9150748508
2369.2560694049
2324.2406779101
2280.8015789009
2238.8697468521
2198.3643558969
2159.2260256193
2121.3888450295
2084.7941064174
2049.391328742
2015.1208442096
1981.9338725443
1949.7825972892
1918.6212719252
1888.4124654905
1859.1143408721
1830.68547964
1803.0880464846
1776.2803203177
1750.1056502362
1795.0578878952
1450.7610640593
1245.2976792102
1114.426507667
983.59707722724
850.23359593339
715.99092965814
593.11570697806
520.37211130531
497.19254337139
495.07950491338
500.48346869774
507.67065150764
514.11735465912
517.11593123531
520.09012058296
521.19912893999
520.57429805629
518.4990293436
515.26899327089
511.16978861243
506.46374437445
501.39222160374
496.14196343128
490.89597650001
485.78633293037
480.89271100937
476.2554419571
471.87978687908