/*--------------------------------*- C++ -*----------------------------------*\
| =========                 |                                                 |
| \\      /  F ield         | OpenFOAM: The Open Source CFD Toolbox           |
|  \\    /   O peration     | Version:  2312                                  |
|   \\  /    A nd           | Website:  www.openfoam.com                      |
|    \\/     M anipulation  |                                                 |
\*---------------------------------------------------------------------------*/
FoamFile
{
    version     2.0;
    format      ascii;
    arch        "LSB;label=32;scalar=64";
    class       volScalarField;
    location    "7e-05";
    object      k;
}
// * * * * * * * * * * * * * * * * * * * * * * * * * * * * * * * * * * * * * //

dimensions      [0 2 -2 0 0 0 0];

internalField   nonuniform List<scalar> 
109340
(
6.9280338405298
6.9250148085412
6.9273353270901
6.9309673245493
6.9321120667186
6.9292659522958
6.9218935003348
6.9105229909168
6.8959921060438
6.8780245945125
6.8567482442736
6.832370028153
6.8050980688186
6.7751307655455
6.7426556250962
6.7078538479725
6.6709019575294
6.6319721475973
6.5912335779085
6.5488508686582
6.5049820052741
6.4597758591671
6.4133705010828
6.3658913022289
6.3174487221758
6.2681347653768
6.2180175339935
6.1671340705691
6.1154801650209
6.0629936145119
6.0095254620553
5.9547853262798
5.8982213511347
5.8387097009497
5.7736448409845
5.6964369738126
6.9236215390044
6.9231181868089
6.9252063329405
6.9261250215037
6.9237331544196
6.9173790384389
6.9069293396495
6.8920641553318
6.8730434384386
6.8502777771039
6.8240264194723
6.7945214754606
6.7619972514831
6.7266872386822
6.6888225210699
6.6486299046189
6.6063330540117
6.5621529405199
6.5163080511952
6.4690120907695
6.4204702872444
6.3708737540609
6.32039601502
6.2691905306481
6.217387534809
6.1650890364248
6.1123640705779
6.0592421213906
6.0057011983138
5.9516496870492
5.896891865704
5.8410605620688
5.783463327569
5.7226733256178
5.6553860389404
5.5732268104522
6.9182291129324
6.919113947105
6.9199662290794
6.9178501301805
6.9113036447627
6.8997765318203
6.883057964693
6.8612637617409
6.8346511923639
6.8036032235388
6.7685059630065
6.7297262335881
6.6876288755501
6.6425790975488
6.5949405740175
6.5450737797868
6.4933338152685
6.4400764065341
6.3856589257287
6.330422499696
6.2746836978326
6.218714481251
6.1627479825337
6.106981679475
6.05155752082
5.9965721324246
5.9420860829794
5.8880950681226
5.8345461258266
5.7813093936526
5.7281393741572
5.6746171785846
5.6199597020598
5.5625532022901
5.4986449917203
5.4181793502409
6.9071261453402
6.9133476540807
6.9124896949689
6.9038663873418
6.8872851028966
6.8627871528108
6.8306742631191
6.7914068618673
6.7456089642034
6.6940440892441
6.6375563716562
6.5770184864784
6.5133049234464
6.4472709826774
6.3797595583658
6.3115880295536
6.2435557931117
6.1766128338869
6.111478108526
6.0487722748503
5.9889753911374
5.932366737366
5.8790496383123
5.8290335400329
5.7822671000712
5.7386504118521
5.6979288150859
5.6599850708722
5.6246757084792
5.5918045068145
5.561053653346
5.5318862109825
5.5032295982192
5.4726684996855
5.433928549116
5.3676225859317
6.8947271536298
6.9225295807961
6.9302974083429
6.9176745403235
6.8841234196132
6.8310996312816
6.7618168125317
6.6803675854704
6.5911945933071
6.4987143272533
6.4070026411042
6.319942796378
6.2408949224267
6.172874369206
6.118647507692
6.0808275770507
6.0619845771594
6.0655872717012
6.091689625265
6.1378185008272
6.200310280599
6.2760675931226
6.362662933866
6.4582452691172
6.5613802287844
6.6709217965129
6.7859063512041
6.9054877089319
7.0297297684371
7.1578025873112
7.2878947338516
7.4176520527456
7.5437303968234
7.6590212903751
7.7435904607742
7.7238905311604
8.3579935037045
12.399894247512
15.846526845276
18.470526540557
20.281171618785
21.409582764965
22.01935816288
22.259898605452
22.248199960281
22.079432649328
21.80872119117
21.478807072727
21.118756980139
20.747960358721
20.379263167461
20.021672595136
19.680945170714
19.360848064725
19.065023551587
18.797043082378
18.552377454502
18.328145631545
18.122882252429
17.935780188721
17.766277850247
17.613952178722
17.478521270256
17.359884785777
17.258187085867
17.17392399479
17.108184856608
17.063185070302
17.042263346638
17.053186585901
17.104287018276
17.186627119
5.5934312983989
5.4542784790641
5.2775200500471
5.063426641027
4.8132485098971
4.5258333642479
4.2055472940747
3.8596711207742
3.4982232020774
3.1371346273156
2.7917779080447
2.5020413027736
2.254839787169
2.0251494464125
1.8158747678445
1.626170077544
1.4575282860509
1.3094045335429
1.1803525764138
1.0685337563732
0.9717224030258
0.88727529475856
0.8137142518984
0.74979028916561
0.69357755623518
0.64387050227246
0.60149345331563
0.56194906518941
0.52707263642334
0.49672626502023
0.46771094345552
0.44375440330979
0.41979519087678
0.40012457534313
0.38012326543936
0.36360567459902
0.3466836602358
0.33266600815328
0.31824793120724
0.30628495205241
0.29399164121511
0.28363323895465
0.27317915991082
0.2639966490425
0.2551774133732
0.24678331589006
0.23918330893363
0.2316268049489
0.22494723309213
0.21834298246023
0.21224206344789
0.2064264519496
0.20093533330837
0.19572125905978
0.19076349093545
0.18603778595997
0.18153401477396
0.17724421083946
0.17316298816897
0.16927837049371
0.16557460541539
0.16203480141818
0.15864478233176
0.15539265977141
0.15226817299407
0.14926308692237
0.14637278141897
0.14359588870235
0.14092958095216
0.1382736020501
76.053509408613
4085.6469028776
2706.6791449978
1687.3383567806
1048.3852443497
612.01025482262
281.79563561206
67.99789529655
35.792780612206
30.46981688169
28.14326969448
27.156839090944
26.88013466139
26.989639920096
27.736426631799
27.991362348856
28.007282005688
27.687199300824
27.001615396839
25.956861497858
24.610473539586
23.061337449196
21.422914417308
19.797610616456
18.273833522226
16.906266678982
15.726260388105
14.754655904096
13.983371033094
13.397158778672
12.97663604672
12.701230507796
12.554260729573
12.522039947997
12.599179169635
12.737979854607
12.924126981428
13.146194227382
13.391737023407
13.612253093669
13.752840172732
13.827404974145
13.852310962452
13.843147844071
13.78364738947
13.660078534307
13.470667959874
13.215624003638
12.909554265065
12.564376731226
12.19409862231
11.815042792846
11.427503550106
11.044537494015
10.665067123499
10.281804694225
9.9273776082975
9.5706742240476
9.2607806861509
8.9572130335114
8.6883931889292
8.43377966872
8.1871446491546
7.9639231157816
7.7867688230283
7.5619436948031
7.6305518314348
8.6394681286712
9.0583507410296
8.4895310602768
5.4588523320008
5.2988297726875
5.0878283887504
4.8322303285814
4.5346139488523
4.2022675948951
3.8437862644544
3.4712168366355
3.0957696414746
2.728818221839
2.3817252068081
2.0635474012641
1.7896476224249
1.5549893528137
1.3586247590915
1.1990915205048
1.0710635909271
0.96887770679411
0.88415062854171
0.81292152635422
0.75230621494087
0.69991618607894
0.65405006446821
0.61351573171701
0.57729512385771
0.54459343531591
0.51482214184934
0.48759863619403
0.46237251252034
0.43929543584852
0.41807335607901
0.39864039224537
0.38074629167833
0.36415854097528
0.34882162325525
0.33450746952214
0.32122385805963
0.3088171929484
0.2973003010762
0.28655247402696
0.27653231607944
0.26717425334751
0.25838215468527
0.25015478253678
0.24236597959881
0.23506094935868
0.22812254402098
0.22161569089691
0.21544024036464
0.20962339784015
0.20409124926555
0.19884051447668
0.19384400323407
0.1890818388743
0.18453766283923
0.18019349625593
0.17604517608467
0.17208661030728
0.16831164245734
0.16470867109517
0.16126461216
0.1579651536915
0.15479757256826
0.15175067692817
0.14881620057551
0.14598889435392
0.14326590179597
0.14064532162303
0.13812362448454
0.14070271355251
629.95802821587
3825.6542246549
2403.2124461448
1500.8885176631
925.67896492234
522.65219006846
213.50006969265
53.862318106134
37.193848842285
33.376713200066
31.834278368214
31.396098622422
31.541540086847
31.955431625474
31.077009114294
31.501858303422
31.621026191761
31.350397822796
30.619926255474
29.441032755422
27.871685835759
26.013962531674
23.998856753925
21.961780613781
20.025214188018
18.277238883662
16.767795704489
15.526612270817
14.544574748204
13.798369384256
13.258417859003
12.894247465456
12.680002842778
12.594183815669
12.6285007203
12.733053314465
12.889192084388
13.083717451995
13.303098557834
13.49597153056
13.615466373955
13.668512176126
13.675342605218
13.652344363212
13.580084223062
13.449682838321
13.255571363646
13.000071094754
12.695137520004
12.351668607421
11.98462140794
11.607822072076
11.223180243711
10.845682714092
10.476856832439
10.107083236282
9.7628020296634
9.4205335073501
9.1183318800512
8.82016971365
8.5606002597491
8.2947606320754
8.0696839183826
7.84934497886
7.6774636957881
7.4589201358122
7.5439525835675
8.3457097759489
9.6689439704956
8.815057171725
5.2986883356329
5.1203135463819
4.8843868214383
4.6023912212136
4.2851424714478
3.9447242007414
3.5927292155539
3.2374389636399
2.8887031907946
2.5500144494189
2.2406733078279
1.9560359633308
1.7038783445156
1.4851830820669
1.298767501926
1.1431133321513
1.0149378196957
0.90979529390957
0.82085726244367
0.7452663297179
0.68130381269247
0.62721811195133
0.58108172507545
0.54153358011577
0.50752692626512
0.47795934975729
0.45191422477628
0.42880294872737
0.40810211124298
0.38931985705951
0.37237262280757
0.35694634663241
0.34287607929409
0.3298239036126
0.3176807786718
0.30624962376636
0.29548604142164
0.28532430193372
0.27580346896361
0.26683241743044
0.25843344701888
0.25048717666145
0.2430232275948
0.23592812794887
0.22922641133888
0.22283797178769
0.21678833424352
0.21104594574713
0.20559759150878
0.20042799404084
0.19550099047017
0.19080919937848
0.18631649407277
0.18201828605558
0.17789650722326
0.17394490822253
0.17015988630597
0.16653876657975
0.16307645950123
0.15976367010059
0.15658940325968
0.15354127714572
0.1506079002931
0.14777943300055
0.14504899026039
0.14241244495316
0.13986798298506
0.1374145728878
0.13505022468999
0.13786979379444
635.58376794766
3827.9170876881
2403.465388951
1501.3326118125
926.70066680733
524.31870579049
216.46278731296
58.744800245115
42.082527123208
38.607194344173
37.373796325346
37.254073503857
37.761859519915
38.553154183628
37.522251345403
38.250973073244
38.631420569849
38.580117756209
37.920695129874
36.651246689247
34.820259167231
32.525531252892
29.913070438018
27.157257388609
24.436333410642
21.900142473711
19.665089893688
17.791313025065
16.288873638111
15.132618550594
14.279252618613
13.680446493645
13.291931322356
13.075169818103
13.004422592853
13.048452749744
13.153052235619
13.305394765067
13.48726451934
13.645735522039
13.736082835884
13.757896637783
13.746413028034
13.701345890493
13.607993725213
13.453587881613
13.234074083927
12.956847321166
12.630752696671
12.268671078988
11.882813978315
11.485970538995
11.081745252952
10.688429249285
10.314939648504
9.9459736469418
9.6008273728404
9.2601046185225
8.9527035967797
8.6538558080758
8.3899951292927
8.1213451819708
7.9088371061174
7.6916485401582
7.5145110736137
7.2862860903045
7.3125954706793
7.7495972012765
8.7289451318786
7.9454569205293
5.217474082437
4.9554162443818
4.6125935206267
4.2421264476674
3.8901467894508
3.5504212857281
3.2274171360173
2.9178626248452
2.6225836218188
2.3366523679401
2.083589787161
1.8419861559057
1.6208584044101
1.4248408535216
1.2533655707305
1.1071654950682
0.98478477678599
0.88222625385632
0.7943527792371
0.71918831238709
0.65455226804162
0.59884148410964
0.55117033786443
0.51018033549407
0.47472950656094
0.44401620529057
0.41735498145051
0.3939810040215
0.37335004264222
0.35502996911386
0.33868918894208
0.3240726891711
0.31089834811555
0.29897036977197
0.2880434983435
0.27800822817706
0.26870004086041
0.26008311480543
0.25206316110103
0.24460978178316
0.23764326516182
0.23111603113072
0.22495324354771
0.21909989209002
0.21351372956323
0.20815400846695
0.20304693575399
0.19816270679378
0.19351863204683
0.18907548315421
0.18483375696254
0.18076755694068
0.17686299620614
0.17310436025132
0.1694808703056
0.16599252356557
0.16263781133105
0.15941869635946
0.1563317237429
0.15336971107265
0.15052270022958
0.1477803212278
0.14513317913718
0.14257322442824
0.14009451933237
0.13769384055646
0.13537071477186
0.13312564596386
0.13095848482667
0.13405399079942
640.41574712883
3826.042312057
2402.8786400122
1501.8458421592
928.22947784096
526.84796747251
220.85999501019
65.297535422009
48.337315845282
45.102202061393
44.116132278348
44.296630917134
45.176114381998
46.400657712217
45.551892828439
46.687369004678
47.455625452159
47.705165058088
47.253861570564
46.015063897403
44.027264067711
41.373570567849
38.198617013392
34.69507470435
31.080480833154
27.567271280933
24.345784999294
21.547875137598
19.237306625525
17.414608674443
16.036766658286
15.038935517214
14.35202165296
13.915185181295
13.628211470964
13.587210424916
13.616291295818
13.697501572071
13.813976743142
13.916914586458
13.958433398483
13.949557348197
13.907049877053
13.818258332366
13.677308835251
13.479719537274
13.225439924572
12.919250199768
12.567876754598
12.182775464072
11.774347343346
11.354087456035
10.925318591333
10.511833491266
10.127111510239
9.7549968567963
9.4075631630867
9.0653098808989
8.7529015315669
8.4509707678725
8.1838532547621
7.9136844759772
7.7009181677202
7.4841357218254
7.3025367561265
7.0951466129975
7.042060379338
7.3259572175706
7.7884831474676
6.9999543758863
7.1577775189432
5.9448800573776
4.8440332091722
4.0847098402225
3.534098890232
3.0959342223821
2.7800692876323
2.5527573246337
2.3445996534672
2.1322111328419
1.9234646262106
1.7225596879171
1.5363579347347
1.3659161731951
1.2129676403698
1.0786959342599
0.96339138152903
0.86374537229076
0.77751941265024
0.70318713057446
0.63920214533918
0.58412684532272
0.53628430830918
0.4948710226438
0.45889432720744
0.42751069769389
0.39998594571649
0.37584157537927
0.35454331705422
0.33568539071958
0.31891539715863
0.30398891047616
0.29061643194318
0.27860278827349
0.26774427604958
0.25787615074658
0.24884372227509
0.24057364495146
0.23297070096141
0.22597672291271
0.21950604782546
0.21351721789131
0.20792692996469
0.20269558347529
0.19775455571364
0.19308630794725
0.1886630506491
0.18447377472069
0.18050369881097
0.1767277141673
0.1731279439163
0.1696722103168
0.16635117809045
0.16313737290538
0.16002289220454
0.15700722036301
0.15409617891642
0.15129483793167
0.14860148536145
0.14600973304156
0.1435106121161
0.14109579989118
0.13875763860733
0.13648904054901
0.13428468447373
0.13214245902337
0.13006323551105
0.1280486892195
0.12609994002289
0.12951487702563
645.85394337824
3821.9094014033
2401.5071042138
1502.4129544798
930.28631546808
530.28443943365
226.65934865019
73.076341090886
55.434165334419
52.277160667383
51.425393435193
51.83477905769
53.045148587814
54.686365839783
54.180746182875
55.769491413021
56.978257843448
57.573375481985
57.427915827434
56.328297481566
54.309561978584
51.43788652445
47.849270160555
43.736302936291
39.331371186366
34.879725963277
30.622777014248
26.76842818297
23.455979800158
20.747494036511
18.63293329131
17.051593951335
15.916711527196
15.145029803007
14.539017772957
14.320730166192
14.240885003942
14.236493609597
14.255958203563
14.261837310084
14.237912901723
14.172921268269
14.065533847494
13.914869415694
13.721555366444
13.480388428331
13.188691392007
12.850622388596
12.4724187142
12.064277298983
11.635440101895
11.195072725233
10.745299204825
10.313864656448
9.9142640811045
9.538735988796
9.1893571693003
8.8447865113876
8.5305133586803
8.2250219333661
7.955810788824
7.6899190823999
7.4688853806097
7.2522742452751
7.0673872112792
6.8720164172982
6.7722279622418
7.0199412465881
7.3905006072647
6.6029032677382
11.44994000628
7.623211867836
5.8421003877619
4.6061342794182
3.7623157320791
3.1564938424732
2.7037232195715
2.373746515077
2.1117995343853
1.9239152200534
1.7762106836095
1.6216795872512
1.4627589035679
1.3112755121811
1.1744684354758
1.0529726754925
0.94500923928511
0.84914914374324
0.76516007504498
0.69212251037962
0.62881786798571
0.57405639802045
0.52677337377575
0.48551921066862
0.44952447327162
0.4180075406268
0.39031771554065
0.36578361293412
0.34405464403831
0.32476599981022
0.30759293634703
0.29221736422947
0.27845738424801
0.26608435532392
0.25492205576371
0.24480898962198
0.23562856390552
0.22725409256763
0.21960869861122
0.2126125017021
0.20619530578986
0.20028499019069
0.19482402745458
0.18975614717962
0.185020043876
0.18058219859258
0.17641162958138
0.17250311064596
0.1688254261759
0.16535897434206
0.16207705966755
0.1589608038638
0.15599067035645
0.15314194978104
0.15040099681736
0.14775820124507
0.14521680923005
0.14277699858214
0.14043712187356
0.13818761366474
0.13601832385276
0.13392004176632
0.13188294459933
0.12989932025434
0.12796560622985
0.12608085609719
0.12424654758271
0.12246473100701
0.12073712707857
0.12450014868859
652.08222735953
3816.4883834561
2399.5716433714
1503.0964468431
932.92590996471
534.69345189937
233.83279764759
81.736687062211
63.003735079802
59.743673627511
58.898872090041
59.445876484301
60.923214657017
62.936925423551
62.839048792525
64.880958035908
66.5314644445
67.514254184935
67.674933896559
66.777378567124
64.811118972633
61.833982841788
57.97451520255
53.418111689849
48.389898296661
43.150118867403
37.964547595411
33.096409103019
28.746408158123
25.046619485749
22.04702079861
19.721902238471
17.99230923614
16.760285685724
15.720154573416
15.266043257244
14.998368827662
14.834185373762
14.718074369092
14.60392057084
14.475811063304
14.318525046063
14.138194785862
13.931644520157
13.688873573403
13.402124207917
13.070883145497
12.699730548141
12.295587881846
11.867690894192
11.424222836773
10.971473465862
10.51101884772
10.070310343937
9.660623169637
9.2861815123799
8.9357934497806
8.5938859050486
8.2788533003098
7.9734820648084
7.7033852199554
7.4398097912618
7.2123764034892
6.9982366311516
6.8020936566237
6.6265078200695
6.4888222097811
6.7119519692474
7.0607496981329
6.2892807739878
6.3798065850425
6.8455912176887
5.1580562191298
4.4283402407071
3.794059278267
3.2680443314837
2.8544665960879
2.5251953427582
2.2014039640777
1.9344309613108
1.7250365278155
1.5586365231948
1.4301978166535
1.3046085267922
1.1773229840244
1.058645670586
0.95174612384258
0.85717758683349
0.77387634582249
0.70040183958776
0.63598085484552
0.57982518422275
0.53102304467897
0.48872403351966
0.45168702691711
0.41911651613462
0.39052332391832
0.36526841255586
0.34278757004856
0.32270341893858
0.30481300271933
0.28880408325898
0.2743927484656
0.26138721612294
0.24965278179762
0.23902198668123
0.22935714850271
0.2205635033206
0.21255416198755
0.20523252591316
0.19852600712452
0.19237396487108
0.18671928067425
0.18149709101444
0.1766522488233
0.17214510496516
0.16794172097103
0.16402267814762
0.16035860401329
0.15693251305887
0.15371503040996
0.1506863664534
0.14782194241618
0.14510075007824
0.14250623049247
0.14002373580761
0.13765012809016
0.13538328726046
0.13322203529661
0.13115881758983
0.1291831421586
0.12728410545086
0.12545165419348
0.1236774704187
0.12195409180249
0.12027678767588
0.11864420950543
0.11705863678871
0.11552151468401
0.11407929019016
83.004512621185
4094.6019101156
2699.488555352
1688.5495424589
1057.603620841
628.40485403891
308.02025660303
109.26533703159
72.714252595706
67.817012909102
66.373925960176
66.611580318344
68.057907218805
70.263376218943
71.217513860846
73.695267811953
75.775973690037
77.144974635227
77.604239368359
76.946685383085
75.073756567491
72.049981876062
67.998864998228
63.103206468497
57.590711625508
51.725842550854
45.776134324235
40.021718718429
34.712179048791
30.036570549723
26.109404575078
22.954153267734
20.523574727598
18.722663302509
17.974209985988
16.983017892427
16.256353253668
15.706500396945
15.294076717682
14.944603550065
14.650842318911
14.36978442773
14.085800794301
13.785407960015
13.456550039809
13.092657341573
12.695599993488
12.273132019827
11.833946492452
11.385056603286
10.931600193593
10.474253087398
10.017881331405
9.5794855927951
9.1673685365289
8.7975796820105
8.452215239817
8.1261223743616
7.813125599682
7.5185263654958
7.2471282751318
6.9917842778989
6.7554591713605
6.5321159860984
6.3378795490916
6.176526486866
6.0068607646907
6.1894931488563
6.5169732412532
5.7832422012964
4.1743918349732
3.4324367030803
3.185044125391
2.9476987347723
2.8117330995247
2.6589668115514
2.4807023989696
2.3075935489736
2.1370907304094
1.9620633440063
1.7624475003864
1.5276699811752
1.3505078146462
1.2062412315601
1.0913688973473
0.99451991802843
0.90012064655513
0.81363785591353
0.73621688074792
0.66824886692712
0.60886558119866
0.55679829632298
0.5109676471531
0.47056366254193
0.43497999311562
0.40366099382504
0.37599082873308
0.35138691838791
0.32956398343216
0.31008285323126
0.29263826302456
0.27690104355664
0.26269382219256
0.24981408517121
0.23810045374399
0.22740503417723
0.21765907755523
0.20876271186997
0.20061904679557
0.19313539131863
0.18625521877301
0.17992763237292
0.17409544654389
0.16870408372276
0.16370844854111
0.15907532649404
0.1547716499472
0.15076925741366
0.14704342795853
0.14357171142147
0.14033053684512
0.1372971158212
0.13445004743879
0.13176970030624
0.12923908283781
0.12684668924781
0.12458434078474
0.1224462171625
0.12042564972267
0.11851395743319
0.11670137909707
0.11497778527242
0.11333325593793
0.11175820958605
0.11024437917874
0.10878636199791
0.10738211337317
0.106030876025
0.10473127137446
0.10952976017819
679.34521962514
3796.5665290432
2391.8261741076
1506.6443268731
945.08078181362
554.5173557967
263.3076489882
111.14024268303
86.540582767318
81.911056252097
80.358066505218
80.712979435224
82.555906896442
85.370867423131
86.528393500709
89.802759942091
92.687113565619
94.801078821824
95.844842838312
95.674461633868
94.046197233854
91.023983324929
86.726608067439
81.336026610305
75.083450181622
68.243019401068
61.093380464352
53.93092418863
47.052063403582
40.698240018479
35.059424574836
30.25836655908
26.332451224295
23.247323581502
21.156982029837
19.252267578567
17.773486936035
16.615445482658
15.758365906152
15.105955986233
14.554668831147
14.047741298922
13.572570374641
13.109364078496
12.644166757299
12.171220983758
11.690658325614
11.212915272521
10.750579284993
10.298039603019
9.8505605404485
9.4082549186811
8.9851375555117
8.5777789539123
8.1959307483478
7.8488322539175
7.518977279147
7.2165582357862
6.9207611508741
6.6520900755111
6.3826403581757
6.1444957703183
5.9032590272118
5.6820489910841
5.4817946025068
5.3289475060504
5.1505561718514
5.2760157296509
5.5716034691165
4.9296461926429
3.6737468911077
2.0423559543736
2.1000970893201
2.0332748947684
2.0093103684166
1.9950604981611
1.9815000636544
1.9384275698379
1.8888600399731
1.8109964546123
1.7164977464527
1.5937828507663
1.4148248520445
1.223726671705
1.0809290383689
0.96541266060125
0.87122395514357
0.79528436945924
0.72354339438322
0.65833909023343
0.60026702957842
0.54902072921138
0.50406848806339
0.46463547386991
0.42984543382379
0.39901544019687
0.37157527908572
0.34710830751062
0.3252674488787
0.3056835871116
0.28812315912849
0.27235538699956
0.25811686939582
0.24521253476542
0.23342433518359
0.22266810643406
0.21284400862686
0.20384770569451
0.19557286802814
0.18793957663828
0.18090361232029
0.17440152645049
0.16838281917446
0.16279469747702
0.15761008228617
0.15278683306544
0.14829725593418
0.14411118682699
0.14020722960179
0.13656432523589
0.13315759312571
0.12996692436391
0.12697250330708
0.12416014206515
0.12151338845403
0.11901990185202
0.11667085098204
0.11445817752315
0.1123747945366
0.11040962667179
0.10855270249009
0.10679543924098
0.10512925019031
0.10354618367442
0.10203780635919
0.10059773124994
0.099222277729263
0.09790891034271
0.096654299595324
0.10220754380544
712.04848066363
3779.2441336808
2384.8563728157
1510.6317757535
957.33220379148
573.88195519484
289.51046443331
133.1982653284
102.09365147631
95.700393777859
93.105466468456
92.831773010589
94.516173120368
97.581357115777
99.454758556586
103.41988849618
107.02031715134
109.81292359403
111.43183842851
111.68616511308
110.32336970222
107.3575989801
102.9114833242
97.169572864167
90.370787299505
82.796946005251
74.739998234412
66.500388535523
58.390004919323
50.684621970437
43.608477265818
37.339172440676
31.988519870272
27.602399653877
23.881108194656
21.017030412091
18.766911788724
17.086112823734
15.849296014766
14.795800879214
13.905974840295
13.152745197241
12.494246881302
11.895660287338
11.334656868635
10.777466056389
10.244361247985
9.7162414671957
9.2215928580992
8.763480118049
8.3157521160277
7.8797706134807
7.4826277506105
7.1100565308174
6.7590165599426
6.4378398289428
6.1477623849068
5.8858530800917
5.6383058687735
5.4203556380526
5.2010734693817
5.0076589692094
4.8119537371353
4.6386127963034
4.4677427371057
4.3468755148571
4.2004695331914
4.2766606645167
4.5355891840211
4.0414144957999
3.4154597111758
1.5583671256399
1.4808626833832
1.4888626296124
1.4964185303636
1.5186758557756
1.542108983104
1.5611008487246
1.5646278482304
1.5679045220053
1.5380951190529
1.4837775274158
1.4119987147952
1.2901543787998
1.1217259365128
0.97868688883731
0.86973995095102
0.7817955042681
0.70894368090095
0.64929604333546
0.59428866329253
0.54461024256965
0.50022862287338
0.46091550220136
0.42625489506537
0.39567849761424
0.36859871088275
0.34444679920694
0.32278193295691
0.30328658364079
0.28572531649883
0.26987824515077
0.25551666235325
0.24247510323765
0.23061893574376
0.21981924229983
0.20996191350812
0.20090783944029
0.19258412603421
0.18491752964213
0.17782820525167
0.17126120263367
0.16515188765902
0.15947992743758
0.15419776153217
0.14927327742729
0.14467142053919
0.14036963072923
0.13635115215139
0.13258714085856
0.12905776660301
0.12573920193114
0.12261918372791
0.11968398268867
0.11691837375212
0.11431136744258
0.11185212401922
0.10953541763361
0.10735231320446
0.10529204850139
0.10334455059774
0.10150051479324
0.099753524752179
0.09809665256084
0.096522429709219
0.095025018803338
0.093599952177446
0.09224348212504
0.090950926813475
0.097738709567846
768.96790456048
3756.375076871
2375.0163315958
1515.669041209
973.11787894187
598.49067898931
321.17519794639
158.08736700316
117.55960386808
108.60280878199
104.55702320037
103.24189367671
104.38010233821
107.41681491853
109.87594819453
114.37241489003
118.58060833194
121.96064386092
124.07229236361
124.67408809144
123.53353203093
120.61191335131
116.04553276332
110.02548272681
102.80436197571
94.664982551562
85.912658098769
76.856476318671
67.801405212579
59.047917267107
50.829873080363
43.345126138022
36.74673122733
31.13548252303
25.75904726864
22.002012347249
19.157329191772
16.981392409378
15.305181138627
13.900471857416
12.760653846033
11.843437042885
11.016246745136
10.286144137888
9.6150503103775
8.9416819508413
8.3165715062042
7.7566401564711
7.2604670619024
6.8189619788058
6.4337194549323
6.0887631218874
5.7837016058354
5.5089719866285
5.2607388623139
5.0294935014853
4.8234812776282
4.6400767506979
4.4756918208409
4.3320204781757
4.1957580532046
4.0748855887584
3.9607996645883
3.8611079594151
3.7570973739991
3.6917244543268
3.6204870523638
3.6830346439634
3.9702704118948
3.6470962451903
3.516333890085
1.3654951906201
1.1479623936849
1.143660333668
1.163634751534
1.1927541942506
1.2271984211396
1.2621820256588
1.2922933723629
1.311394825803
1.3319294274513
1.3276647329272
1.2910433266896
1.2455438838195
1.1597085843558
1.0346544732139
0.89512576620971
0.79135675794315
0.70979101459135
0.64316344864548
0.58726725275399
0.54047945604934
0.49781483853469
0.45931535090072
0.42487884781704
0.39424746244381
0.36704116813049
0.34281265451846
0.32115071330123
0.30172604219395
0.2842569736123
0.26847291145922
0.25413349256424
0.24105793275902
0.22911294028425
0.21819791873156
0.20823266051025
0.19910610833572
0.19072424360179
0.18300571031562
0.17585581283638
0.16923495068641
0.16309929675695
0.15739333515549
0.15207821450649
0.14710349939707
0.14245131079049
0.13809911168911
0.13401809399824
0.13018786880858
0.12657977851952
0.12318296214949
0.11998294224279
0.11696438600499
0.11411547921293
0.11142241584127
0.10888073947878
0.10648221381134
0.10421673750061
0.102074580122
0.10004475128706
0.098120726542363
0.096295141166158
0.0945605050703
0.09291147150397
0.091342423291463
0.089849323470255
0.088429515825664
0.087076388416534
0.096311312907769
866.9804353796
3724.0892496067
2360.3716774379
1521.0566275328
992.15653362997
628.22168378378
358.5829002317
187.30334447658
133.6323027157
120.9047487451
115.03909084588
112.27367328904
112.46009917189
115.13700643222
117.93609557718
122.79427690141
127.47547060644
131.31200431929
133.78314942595
134.59904742087
133.54768130343
130.57419760435
125.83431102794
119.53836961896
111.94767061514
103.34911876555
94.057418832335
84.38838271757
74.643302970254
65.128225899238
56.076183549612
47.681814803458
40.108862271686
33.484550847769
26.631465693527
22.227318917094
18.796960477135
16.194735552874
14.21140272237
12.631136992128
11.338230001857
10.248147156199
9.2138852036761
8.3158040191888
7.5633672991923
6.9068780559933
6.3533959178599
5.9001467942264
5.5272630901633
5.2148571467154
4.9516225331988
4.7333915740622
4.5520740318951
4.4010230251063
4.2700263615437
4.1479834903108
4.0376840772033
3.9418929372403
3.8661434427577
3.8009217240916
3.7396927682244
3.6801205964684
3.631078583849
3.5854114525566
3.53410337067
3.506592117301
3.5090136715178
3.580068530993
4.2118410306765
3.6328346007645
4.1752363758613
1.2329726510376
0.98447393546341
0.92100255228009
0.93718524499962
0.96604173120099
1.0016247848844
1.0384545480677
1.0744222652938
1.1062319734373
1.133620762116
1.1568745131645
1.1587762298797
1.1318627725323
1.1060500906903
1.0420640693217
0.94554873479904
0.82400246370932
0.72545997878124
0.64964971632704
0.58859191509311
0.53809851625017
0.49508525777446
0.45794915894521
0.42439210807053
0.3941191651404
0.3669124646058
0.34251534567377
0.3206494769832
0.30103421693604
0.28343090654795
0.26762016083075
0.25330766269446
0.24024670144065