/*--------------------------------*- C++ -*----------------------------------*\
| =========                 |                                                 |
| \\      /  F ield         | OpenFOAM: The Open Source CFD Toolbox           |
|  \\    /   O peration     | Version:  2312                                  |
|   \\  /    A nd           | Website:  www.openfoam.com                      |
|    \\/     M anipulation  |                                                 |
\*---------------------------------------------------------------------------*/
FoamFile
{
    version     2.0;
    format      ascii;
    arch        "LSB;label=32;scalar=64";
    class       volScalarField;
    location    "7e-05";
    object      nut;
}
// * * * * * * * * * * * * * * * * * * * * * * * * * * * * * * * * * * * * * //

dimensions      [0 2 -1 0 0 0 0];

internalField   nonuniform List<scalar> 
109340
(
0.00071980141224584
0.00049383925514095
0.00026654565381013
0.00022277354756844
0.00021582360181616
0.00022026123112889
0.00022851442141678
0.00024262013331688
0.00021148401167574
0.00018812176713903
0.00016963011781651
0.00015454572225973
0.00014197784361553
0.00013133424245469
0.00012219985276688
0.0001142730086312
0.00010732833896959
0.00010119372264628
9.5735274208993e-05
9.0847201025192e-05
8.6444748683001e-05
8.2459169201843e-05
7.8834065847753e-05
7.5522698534182e-05
7.2485973628857e-05
6.9690919536367e-05
6.7109510677791e-05
6.4717747078971e-05
6.2494916838353e-05
6.0422983205509e-05
5.8486044335766e-05
5.6669797621171e-05
5.4960849975247e-05
5.3345430118914e-05
5.1805855305643e-05
5.0311870522148e-05
0.00071143646135929
0.00034514654012462
0.00025289337210134
0.00023136360068379
0.00022983589711442
0.00023445036675348
0.00020974796917744
0.00018246622445731
0.00016126992293687
0.00014448923445129
0.00013090350041288
0.00011968671710079
0.00011027192271051
0.00010225905392554
9.5358097892975e-05
8.9353744258956e-05
8.4082809471921e-05
7.9419364966467e-05
7.5264675759721e-05
7.1540187074586e-05
6.8182517886955e-05
6.513989245572e-05
6.2369580568814e-05
5.9836036460552e-05
5.7509485565611e-05
5.536482526431e-05
5.3380764850831e-05
5.153912922788e-05
4.9824279493298e-05
4.8222635413407e-05
4.6722253443935e-05
4.5312416760978e-05
4.3983199278131e-05
4.2724926202601e-05
4.1527269788718e-05
4.0373762639676e-05
0.00041788724531825
0.00029458183663754
0.00025394863130406
0.00023825262524545
0.00019061376322541
0.00015891760043745
0.00013593566159988
0.00011861618852248
0.00010515611096874
9.443969136791e-05
8.5731496003635e-05
7.8529007153546e-05
7.2480350557328e-05
6.7333371186695e-05
6.2903363527357e-05
5.9052281204327e-05
5.5675044173621e-05
5.2690314225073e-05
5.0033973101681e-05
4.7654347579339e-05
4.5509151570522e-05
4.3563657615609e-05
4.1789420001062e-05
4.0163174014721e-05
3.866572117886e-05
3.7281172509114e-05
3.5996335617357e-05
3.480002486215e-05
3.3682783142269e-05
3.2636460456926e-05
3.1653920761275e-05
3.0728860149607e-05
2.9855500470654e-05
2.9029037811598e-05
2.8247694933642e-05
2.7513009321732e-05
0.00024017278153543
0.0002425789810205
0.00015225328227804
0.00011084524407115
8.7200963742998e-05
7.1933321736641e-05
6.129262048761e-05
5.3469944573129e-05
4.7488826861085e-05
4.2776209482199e-05
3.8973809876037e-05
3.5845902685646e-05
3.323107299857e-05
3.1015230247584e-05
2.9115672579614e-05
2.7471097013773e-05
2.6035031243734e-05
2.4771106904067e-05
2.3646851558569e-05
2.2634372472724e-05
2.1712857671515e-05
2.0867543565728e-05
2.0087771317333e-05
1.9365673354858e-05
1.8695208562056e-05
1.8071522760505e-05
1.7490215049859e-05
1.6948013186288e-05
1.6442091676361e-05
1.5969925771066e-05
1.5528984323322e-05
1.5115667530175e-05
1.4724299153725e-05
1.4350046807399e-05
1.3994368165485e-05
1.3670290796037e-05
0.00014465732677487
4.7286634210559e-05
2.8755665287708e-05
2.0854999671526e-05
1.6501525948635e-05
1.3768748325715e-05
1.1909921495042e-05
1.0574350031046e-05
9.5755630652288e-06
8.80617752362e-06
8.2004345854752e-06
7.7166328858555e-06
7.3271604196132e-06
7.0134244932861e-06
6.762781539432e-06
6.566385657002e-06
6.4164964382316e-06
6.3004940590233e-06
6.1965942821563e-06
6.0930096683567e-06
5.9884058679506e-06
5.8861986525786e-06
5.7901449770958e-06
5.702852701584e-06
5.6257852250419e-06
5.5596927185791e-06
5.5047933714764e-06
5.4609646346935e-06
5.4286277275842e-06
5.4075061605067e-06
5.3966301153762e-06
5.3952093330939e-06
5.4023772104143e-06
5.4166490002864e-06
5.4336624222886e-06
5.4453213216832e-06
3.6414697601224e-07
5.4349353984587e-07
6.9927933040244e-07
8.2084221129971e-07
9.0774495263889e-07
9.6506286034983e-07
9.9952942346466e-07
1.0174512091294e-06
1.0238508356271e-06
1.0228897680376e-06
1.0169810913518e-06
1.0080253929905e-06
9.9733026710001e-07
9.8577887283688e-07
9.7396430403582e-07
9.6230944225491e-07
9.5108975724486e-07
9.404901115966e-07
9.3070101611321e-07
9.2195408759684e-07
9.1404739482695e-07
9.0685232720769e-07
9.0030389616204e-07
8.9436487653801e-07
8.8900436107989e-07
8.8419091611624e-07
8.7989034198069e-07
8.7606456471499e-07
8.7266807317935e-07
8.6964248242503e-07
8.6690924126564e-07
8.6433479904651e-07
8.6170245664041e-07
8.5850536962204e-07
8.5279834636263e-07
8.3500248710426e-07
4.5410331891475e-05
2.5204017511464e-05
1.4234088641233e-05
9.3396490759553e-06
6.7788466590475e-06
5.1041077781462e-06
3.9243315230792e-06
3.0534261397162e-06
2.4631994891935e-06
2.1956022564226e-06
2.2448050077953e-06
2.8180210363212e-06
3.3108500191462e-06
3.8313115231605e-06
4.2694160345725e-06
4.6082860106387e-06
4.9088890773299e-06
5.1552815593112e-06
5.3741434388211e-06
5.602496807392e-06
5.8020482232348e-06
5.9701584962497e-06
5.9939589020961e-06
5.7419758943799e-06
5.5107222279513e-06
5.2979143042664e-06
5.1101226038956e-06
4.9287584412088e-06
4.7634452653678e-06
4.6158322842215e-06
4.470286588859e-06
4.3472434922395e-06
4.2204369354258e-06
4.1140694604705e-06
4.0030643089121e-06
3.9097718256382e-06
3.8118668614159e-06
3.7294664940377e-06
3.6426861868851e-06
3.5696001713738e-06
3.4927261370729e-06
3.4270147883753e-06
3.3593118118474e-06
3.2990354803328e-06
3.2401656086781e-06
3.1832787699246e-06
3.1311345193349e-06
3.0784313639655e-06
3.0313750420133e-06
2.9840486563804e-06
2.9397603642798e-06
2.8970271787962e-06
2.8561975399149e-06
2.8169912883357e-06
2.779303349692e-06
2.7429963511496e-06
2.7080419743114e-06
2.6744113909876e-06
2.6420785802264e-06
2.6109604622953e-06
2.5809576995334e-06
2.5519772800269e-06
2.523951641405e-06
2.4968233266918e-06
2.4705370743638e-06
2.4450476776905e-06
2.4203366794513e-06
2.3964140490434e-06
2.3732607778429e-06
2.3511557898613e-06
6.3106020840315e-05
0.0004865990855798
0.00044060039573636
0.00037591080333247
0.0003132522040635
0.00024127219265706
0.00014762521530269
6.8967770435945e-05
7.4136821583247e-05
7.0573349537917e-05
6.8068254205084e-05
6.6936650595218e-05
6.6556129815498e-05
6.6540091810187e-05
6.7464378140852e-05
6.7303039855235e-05
6.6700931649947e-05
6.5521037750093e-05
6.37590658863e-05
6.1498122506229e-05
5.8836403766946e-05
5.5919700410746e-05
5.291510304662e-05
4.9974935190931e-05
4.7225849861381e-05
4.4750578492568e-05
4.2600596358762e-05
4.0808327072245e-05
3.936432112706e-05
3.8247838076238e-05
3.7430614656105e-05
3.6877603796692e-05
3.6556349926786e-05
3.645395135295e-05
3.6522980418223e-05
3.6708148805917e-05
3.6973193257151e-05
3.7297203056455e-05
3.7661527785112e-05
3.7938306623533e-05
3.8055583838513e-05
3.8069506254956e-05
3.8025378916933e-05
3.7966984925458e-05
3.7831966414978e-05
3.75718434687e-05
3.7191071065522e-05
3.6696606765361e-05
3.6114286465786e-05
3.5462902522364e-05
3.4763913702839e-05
3.4043360477104e-05
3.3301252558109e-05
3.2563290696438e-05
3.1827035736385e-05
3.1069462743824e-05
3.037050583982e-05
2.9654104533981e-05
2.9019865699667e-05
2.8389897726937e-05
2.7820993333152e-05
2.7271673780405e-05
2.6735953483817e-05
2.6238777964698e-05
2.5828783597222e-05
2.5290172343339e-05
2.5367983293015e-05
2.7171859891656e-05
2.7780924379117e-05
2.6735133935545e-05
3.5121648533425e-05
1.9780555812649e-05
1.2279333382511e-05
8.7043456495165e-06
6.4827352021631e-06
4.9167511898687e-06
3.7894073651704e-06
2.9766655509227e-06
2.3852708139111e-06
1.9877496659894e-06
1.7549946523408e-06
1.6999060480995e-06
1.7750555675677e-06
1.9104546683117e-06
2.1193686070204e-06
2.3884326634421e-06
2.7099951299394e-06
3.0819458364164e-06
3.4700926422921e-06
3.8666649216303e-06
4.2708619712623e-06
4.6793891676771e-06
5.0821227002374e-06
5.4820842133536e-06
5.3648814913001e-06
5.1585803972427e-06
4.9708884860001e-06
4.7999900217551e-06
4.6420255985007e-06
4.4972589141209e-06
4.3635890121336e-06
4.2401372918019e-06
4.1253479922413e-06
4.0180905525654e-06
3.9181294792017e-06
3.8241000626081e-06
3.7360524060897e-06
3.6530615566534e-06
3.5751693051533e-06
3.5016065452024e-06
3.4321649514171e-06
3.3665606579199e-06
3.3042289221726e-06
3.2452716839228e-06
3.1888686665272e-06
3.13546399673e-06
3.0842598428696e-06
3.0357668359235e-06
2.9892387212971e-06
2.9449290886567e-06
2.9023469192804e-06
2.8615479197712e-06
2.8223768947165e-06
2.7847130854608e-06
2.7484672544728e-06
2.713535371602e-06
2.6799133488785e-06
2.6475574547536e-06
2.6164145292016e-06
2.5863969254057e-06
2.55742569288e-06
2.5294228641295e-06
2.5023205164816e-06
2.4760531878777e-06
2.4505738344896e-06
2.4258590998262e-06
2.4019001277675e-06
2.3786843498718e-06
2.3561683743533e-06
2.4070702748865e-06
0.0001643996240116
0.00048690787978581
0.00042382024231854
0.00036047213971741
0.00029682516642186
0.0002205598801894
0.00012273753400246
7.1964059835801e-05
7.9250013540717e-05
7.6729614865187e-05
7.5484744394293e-05
7.5268581642332e-05
7.5559451379908e-05
7.5960815804075e-05
7.3755650242053e-05
7.3837965585651e-05
7.334302221678e-05
7.2194051858172e-05
7.0311974451425e-05
6.7774725027805e-05
6.4713923709507e-05
6.1275103839608e-05
5.7650781603412e-05
5.4038250156036e-05
5.0611519754216e-05
4.7504192190872e-05
4.4797347131689e-05
4.2537884757225e-05
4.0717792657928e-05
3.9306080270261e-05
3.8260205133933e-05
3.7532302431301e-05
3.7078075744094e-05
3.6859844850996e-05
3.6853489490524e-05
3.6977214658473e-05
3.7189940336581e-05
3.7466728335223e-05
3.7786113661478e-05
3.8012805836088e-05
3.8087168832291e-05
3.8055723938897e-05
3.7977413856524e-05
3.7898735413973e-05
3.7725240091159e-05
3.7434890105183e-05
3.702663137141e-05
3.6510642966789e-05
3.5908587114217e-05
3.523831187719e-05
3.4523571319307e-05
3.3786924215433e-05
3.3029016989285e-05
3.2283105875568e-05
3.1552440336978e-05
3.0805641466841e-05
3.0110181713091e-05
2.940790893726e-05
2.877956477625e-05
2.8149786639357e-05
2.7591520174443e-05
2.7012630669214e-05
2.6509914472423e-05
2.601093448634e-05
2.5603569424678e-05
2.506705268714e-05
2.5171494523383e-05
2.658082519132e-05
2.873350231336e-05
2.7217586875289e-05
2.5741125439151e-05
1.3434256523843e-05
8.6957766556137e-06
6.354984488916e-06
4.7698710984196e-06
3.7421084198071e-06
2.9964431925535e-06
2.4610127900913e-06
2.0933786204837e-06
1.8529822786081e-06
1.7642004066744e-06
1.7435165092658e-06
1.8004857703564e-06
1.9197275577103e-06
2.081062267607e-06
2.2762133995349e-06
2.5063194372958e-06
2.7557114223983e-06
2.9979680265558e-06
3.2456848060882e-06
3.5128245030453e-06
3.7872370636693e-06
4.0695108672711e-06
4.372609142698e-06
4.6928489395438e-06
5.0179892600917e-06
4.8961104054709e-06
4.724288979177e-06
4.5669691550499e-06
4.4222393073358e-06
4.2898543079769e-06
4.1674401131197e-06
4.0545890535956e-06
3.9496401214919e-06
3.8521998590748e-06
3.7612734682216e-06
3.6759820553246e-06
3.5957364281114e-06
3.5204587186752e-06
3.4492745290425e-06
3.3823134846672e-06
3.3187368642151e-06
3.258775696747e-06
3.201571717388e-06
3.1473154342047e-06
3.0954475638811e-06
3.0461538220529e-06
2.9991373996194e-06
2.9542273823965e-06
2.9113176302387e-06
2.8701651205189e-06
2.8307648632552e-06
2.7928391771277e-06
2.756360046109e-06
2.7212002963985e-06
2.687334432336e-06
2.6547375791689e-06
2.6233654794476e-06
2.5931510233523e-06
2.5640125478319e-06
2.53587990676e-06
2.5086811163039e-06
2.4823465384217e-06
2.4568100579557e-06
2.4320280309078e-06
2.4079805237707e-06
2.3846616995027e-06
2.362058146127e-06
2.340135100999e-06
2.3939771639904e-06
0.00016514848497773
0.00048705055056705
0.00042383568027455
0.00036057518124162
0.00029712145808778
0.00022125625852321
0.00012471158860369
7.7278430272655e-05
8.7604826163558e-05
8.6520311159726e-05
8.6158092440825e-05
8.6664200491055e-05
8.7638770153246e-05
8.8643184637998e-05
8.5964710804752e-05
8.6435527303243e-05
8.6214556789541e-05
8.5285921066754e-05
8.3384784126974e-05
8.0552273573137e-05
7.694297229086e-05
7.2701605355781e-05
6.8044047801602e-05
6.3229885991068e-05
5.8522213342168e-05
5.413585596363e-05
5.0248796394726e-05
4.6947270210983e-05
4.4256175796833e-05
4.2142565539606e-05
4.0546804409963e-05
3.9396453787867e-05
3.8620808414657e-05
3.8153288809419e-05
3.7933614597835e-05
3.794132780588e-05
3.8048213102351e-05
3.8234891940181e-05
3.8471501111802e-05
3.8621601765161e-05
3.8624736487298e-05
3.8519501961256e-05
3.8412979291268e-05
3.8279250007165e-05
3.8040258795196e-05
3.7679588281706e-05
3.7199835078362e-05
3.6618890514634e-05
3.5953436261118e-05
3.5224515683408e-05
3.4451775820528e-05
3.3656122307499e-05
3.2838350629984e-05
3.2042169362099e-05
3.1289549727048e-05
3.0533822213741e-05
2.982204272383e-05
2.9110314559233e-05
2.8462643228775e-05
2.7821410450953e-05
2.7245057828693e-05
2.6650175831404e-05
2.6160982457183e-05
2.5655376252802e-05
2.5226736227609e-05
2.4659492158304e-05
2.4647423091716e-05
2.5386544927013e-05
2.700569771866e-05
2.5545929195329e-05
1.3482057649801e-05
7.7492965778663e-06
5.2498211504962e-06
3.8772502362177e-06
3.0776135390093e-06
2.5970430072898e-06
2.2804233830026e-06
2.0849692258132e-06
1.9675797620413e-06
1.9424629268367e-06
1.9210244941188e-06
1.9333589237289e-06
1.9793053244518e-06
2.0597986590555e-06
2.1801382634007e-06
2.3446778238974e-06
2.5338351980945e-06
2.7419793529151e-06
2.9536121251306e-06
3.1542072198965e-06
3.3391722071444e-06
3.5390637430694e-06
3.7520861749398e-06
3.966561316632e-06
4.1913162761068e-06
4.4416866912008e-06
4.6995694891054e-06
4.6604057987935e-06
4.5040449589208e-06
4.3601693454849e-06
4.2277883434837e-06
4.1057129130346e-06
3.992571313086e-06
3.8877464563934e-06
3.7901148150913e-06
3.6991788537331e-06
3.614012123836e-06
3.5345616785448e-06
3.4601288369809e-06
3.3901718675654e-06
3.3243902468658e-06
3.2626263435486e-06
3.2043653800901e-06
3.1493268692293e-06
3.0970365968262e-06
3.0470947590174e-06
2.9996488763075e-06
2.9543189072859e-06
2.9111314835403e-06
2.8697311094853e-06
2.8301454592489e-06
2.7921802233696e-06
2.7557012067177e-06
2.7205545854061e-06
2.68664977731e-06
2.654000372082e-06
2.6225727296152e-06
2.5923318002885e-06
2.563199170128e-06
2.5350959108511e-06
2.5079498069338e-06
2.4816949687908e-06
2.4562656807322e-06
2.4315985890086e-06
2.4076486183889e-06
2.3843966107618e-06
2.3618418624143e-06
2.3399766046376e-06
2.3187773763086e-06
2.376141668339e-06
0.00016582207615728
0.00048700894634096
0.00042384649730342
0.00036073707907596
0.00029757040701703
0.00022229775562471
0.00012755809183589
8.413826599384e-05
9.8122826924555e-05
9.8637978105259e-05
9.9129361942011e-05
0.00010035258561369
0.0001020230540065
0.0001037202295875
0.00010122670585908
0.00010221389933942
0.00010246215620256
0.00010184263560562
0.00010012230764549
9.7202822529675e-05
9.3189114379582e-05
8.8257787469069e-05
8.2599991024731e-05
7.6494701177873e-05
7.0263584026645e-05
6.4223058680998e-05
5.8676161748443e-05
5.3841489041771e-05
4.9808673077191e-05
4.6574045902554e-05
4.4078418521353e-05
4.2230317816918e-05
4.0922361365826e-05
4.0056000071377e-05
3.9415659721896e-05
3.9267418402801e-05
3.9238110430006e-05
3.9283415632313e-05
3.93802795199e-05
3.9409639322884e-05
3.9297425032724e-05
3.9129658093167e-05
3.895904116242e-05
3.8712624105289e-05
3.8350553670022e-05
3.7880986527522e-05
3.7313664255832e-05
3.6657839132032e-05
3.5923966435102e-05
3.5129899034102e-05
3.4292289061181e-05
3.3429948493361e-05
3.2541436747597e-05
3.1686967620166e-05
3.0899883951304e-05
3.0130564504567e-05
2.9403684269187e-05
2.8678393605611e-05
2.8011295170011e-05
2.7355837224255e-05
2.6763007578836e-05
2.615568955484e-05
2.5652948399351e-05
2.5134148584834e-05
2.4684210944581e-05
2.4178628223621e-05
2.3950315455012e-05
2.4400089249719e-05
2.5105009526093e-05
2.3587217096808e-05
5.4164570491377e-06
4.3845665297369e-06
3.6576577003366e-06
3.29902457797e-06
3.0059791280111e-06
2.7202378132686e-06
2.5261815699824e-06
2.423465515e-06
2.3636138681761e-06
2.2689324359412e-06
2.2548744725075e-06
2.2604606893126e-06
2.2894922239645e-06
2.3459307629906e-06
2.4217173302935e-06
2.5252502552098e-06
2.6711723222945e-06
2.8307837593391e-06
2.9917312924802e-06
3.1609655654784e-06
3.3388714048707e-06
3.5038314439237e-06
3.6715050142807e-06
3.8533840960044e-06
4.0399700983075e-06
4.2270135473359e-06
4.4316842178821e-06
4.5997217497266e-06
4.4466938069278e-06
4.3052722268155e-06
4.1744115102784e-06
4.0533052877079e-06
3.9407154506119e-06
3.8361458718981e-06
3.7388278203328e-06
3.6480341038376e-06
3.5630269307292e-06
3.483629680393e-06
3.4092662214026e-06
3.3395568735134e-06
3.2739572803986e-06
3.2123541437138e-06
3.1542251024756e-06
3.0993251250942e-06
3.0471638734719e-06
2.9977372879666e-06
2.9508894338237e-06
2.9063886772283e-06
2.8640398168341e-06
2.8237245200285e-06
2.7853442647926e-06
2.7486684317223e-06
2.7136280804175e-06
2.679858124749e-06
2.6472445933147e-06
2.6158030079422e-06
2.5855553860655e-06
2.5564682671692e-06
2.5284561751411e-06
2.5014312051612e-06
2.4753188385912e-06
2.450062288141e-06
2.4255998439979e-06
2.4018647273601e-06
2.3788074704306e-06
2.3564139119641e-06
2.3346893739715e-06
2.3136296299322e-06
2.2932169030348e-06
2.3550002942014e-06
0.00016659865984212
0.00048686753595353
0.000423845757452
0.0003609598414232
0.00029817967922913
0.00022369352709059
0.00013119594772129
9.1896623961918e-05
0.00010977655086637
0.00011192816333249
0.00011311670691449
0.00011493011918571
0.00011720929628112
0.00011955034590724
0.00011756525638895
0.00011911800165707
0.00011990797974854
0.00011965397946959
0.00011827435377068
0.00011544666283055
0.00011126307030281
0.00010589449448218
9.9509486718301e-05
9.2370873127074e-05
8.4811287975712e-05
7.7186372604181e-05
6.9870297222525e-05
6.3207105056655e-05
5.7437402525032e-05
5.2673401887745e-05
4.8904389682208e-05
4.6035542002898e-05
4.3929866435031e-05
4.2456930744007e-05
4.1252401514569e-05
4.0738481849236e-05
4.0495082712824e-05
4.0395267354591e-05
4.0304085389353e-05
4.0139541022881e-05
3.9908295838456e-05
3.9642713454959e-05
3.9331361013353e-05
3.8930785573381e-05
3.8450380793246e-05
3.7887314032111e-05
3.7236667158078e-05
3.6504833396735e-05
3.5701979183931e-05
3.4844730669757e-05
3.3948242223039e-05
3.302719458883e-05
3.2077362624e-05
3.1171118411579e-05
3.0341919002945e-05
2.9560023475682e-05
2.882346874318e-05
2.8087777593841e-05
2.7408684557938e-05
2.6742210000747e-05
2.6135773791843e-05
2.5533138206846e-05
2.4997128848683e-05
2.4471305689391e-05
2.4001157528007e-05
2.352803616307e-05
2.3154200918604e-05
2.3533244833283e-05
2.4056786103708e-05
2.2521979450811e-05
2.4521577126195e-06
2.9596557020302e-06
3.6480982656984e-06
4.3160288862501e-06
5.0599346062093e-06
4.9025719136967e-06
4.209651997716e-06
3.6214970733666e-06
3.2065096245651e-06
2.97251481392e-06
2.8252762724802e-06
2.7437645189321e-06
2.7150719415048e-06
2.7216320646222e-06
2.7587291958117e-06
2.8215056483186e-06
2.9033212165844e-06
3.0010284728385e-06
3.1151875298103e-06
3.2417696312182e-06
3.3784963851858e-06
3.5301831620916e-06
3.6834766438195e-06
3.8393977872485e-06
4.0067487878843e-06
4.1755166207165e-06
4.3420486341313e-06
4.5202481486298e-06
4.3906804828781e-06
4.2530572971247e-06
4.1253189211268e-06
4.0061706611203e-06
3.8952434360371e-06
3.7918006084724e-06
3.6952706858002e-06
3.6049474919087e-06
3.520423630928e-06
3.4411632827441e-06
3.3668726294802e-06
3.297113357377e-06
3.2315379590816e-06
3.1698077501749e-06
3.1116438475712e-06
3.0567076411694e-06
3.0046138005626e-06
2.9552497461745e-06
2.9084484418226e-06
2.8641572133918e-06
2.8220491477304e-06
2.7819697261238e-06
2.7437659614534e-06
2.7073428224419e-06
2.6725392327445e-06
2.6391348265372e-06
2.607043337947e-06
2.576208229492e-06
2.5466286114184e-06
2.5182702881961e-06
2.4910789042393e-06
2.4649310838199e-06
2.439761695889e-06
2.4154797411141e-06
2.3919684447098e-06
2.369132835472e-06
2.3469392460187e-06
2.3253882330514e-06
2.3044913493877e-06
2.2842367746968e-06
2.2646050528385e-06
2.3316827922242e-06
0.00016749219620394
0.00048667368163201
0.00042383600680019
0.00036124712464483
0.00029895929901516
0.00022545417959316
0.00013553181722267
0.00010002594190294
0.00012178588635175
0.00012558958374577
0.00012728945326229
0.00012952127984987
0.00013227458968743
0.00013515854064985
0.00013377955553612
0.00013589229039319
0.0001372068753875
0.00013738994583539
0.0001363357054651
0.00013370875236016
0.00012952908848279
0.00012393493045456
0.00011710225524764
0.00010925826309747
0.00010070201639872
9.1794819385117e-05
8.2932394335438e-05
7.4541907526463e-05
6.6964755791913e-05
6.0446004724851e-05
5.5082823501605e-05
5.0857177125517e-05
4.7661482690998e-05
4.5335504776677e-05
4.3313534755903e-05
4.2365884617334e-05
4.1751432438051e-05
4.1305558331914e-05
4.0950245118127e-05
4.0569505067661e-05
4.0165889720171e-05
3.9737591579396e-05
3.9272983655711e-05
3.8771579541693e-05
3.8209666371386e-05
3.7568858782669e-05
3.6845359431274e-05
3.6045519008554e-05
3.518142287616e-05
3.4270078364806e-05
3.3327242884554e-05
3.236423195476e-05
3.1377370477753e-05
3.0438774713817e-05
2.9577256184273e-05
2.8792430315703e-05
2.8047040619867e-05
2.731451125865e-05
2.6627383187172e-05
2.5959635940739e-05
2.5344320132871e-05
2.4742756437178e-05
2.4183074453446e-05
2.366300095101e-05
2.3145234761983e-05
2.272861002112e-05
2.2236106405566e-05
2.2566172089456e-05
2.304287955687e-05
2.1533546689259e-05
9.8330940504595e-07
1.9128184615722e-06
2.223509132561e-06
2.7912513301235e-06
3.3897478695228e-06
4.0617835372855e-06
4.8805327171228e-06
5.7101090144052e-06
4.8253688647462e-06
4.1729294689593e-06
3.7475698649878e-06
3.487720171525e-06
3.3201365612739e-06
3.2247108390677e-06
3.180839887047e-06
3.171938333838e-06
3.1869725042841e-06
3.2260033770154e-06
3.2868520568225e-06
3.3639476047268e-06
3.4591270983447e-06
3.5700160221685e-06
3.6979322482107e-06
3.8399770369924e-06
3.9723278343782e-06
4.1324449559218e-06
4.2948765362307e-06
4.4587633271556e-06
4.3705598787598e-06
4.2341646978846e-06
4.1076347983019e-06
3.9897701377626e-06
3.8793819019356e-06
3.7759910186534e-06
3.6794229871435e-06
3.5889402257876e-06
3.5038921967867e-06
3.4239965671216e-06
3.3489831048404e-06
3.2783749392482e-06
3.2118483669471e-06
3.1491800561323e-06
3.0901282086245e-06
3.0343039155631e-06
2.9813878896745e-06
2.9312342725341e-06
2.8837094540576e-06
2.8387075030934e-06
2.7959539723902e-06
2.7553241025246e-06
2.7166360563453e-06
2.6798068641083e-06
2.6446596556643e-06
2.6110200643184e-06
2.5787737256905e-06
2.5478362974938e-06
2.5182021009984e-06
2.4898151990811e-06
2.4626115976159e-06
2.4364966439881e-06
2.411385841762e-06
2.3872035568835e-06
2.3638766637851e-06
2.3413364735903e-06
2.3195051082514e-06
2.2983375740848e-06
2.2778416997418e-06
2.2580342480667e-06
2.2388864178326e-06
2.2218076221211e-06
6.5791245622307e-05
0.00048739472742577
0.00044041669955704
0.00037672952176061
0.00031586418976626
0.00024730282904382
0.00016226590794097
0.00010437568097519
0.00012965465017712
0.00013844210961056
0.00014063357178122
0.00014291907988478
0.00014588278474
0.00014915988801272
0.00014923868100668
0.00015186315686724
0.00015366501232037
0.00015427250573882
0.00015352457708169
0.00015117077240293
0.00014708393379537
0.00014138381530791
0.00013426811424451
0.00012593394739755
0.00011666710013008
0.0001068143687251
9.6750925139042e-05
8.6908053999895e-05
7.7700721002389e-05
6.9472746641588e-05
6.2450218103175e-05
5.6697568610113e-05
5.2175742804801e-05
4.8758812656981e-05
4.7073606416693e-05
4.5061968429709e-05
4.3523814971496e-05
4.2313607626862e-05
4.1369870734684e-05
4.0576107557085e-05
3.992955451372e-05
3.9320323937015e-05
3.8701784604363e-05
3.8042529916095e-05
3.7319896277054e-05
3.6523414543717e-05
3.5657664578787e-05
3.4738814040932e-05
3.3785648258085e-05
3.2813048211812e-05
3.183155724592e-05
3.0841825227255e-05
2.9853080104751e-05
2.8907722341073e-05
2.8026490104921e-05
2.7244075827179e-05
2.6498347562061e-05
2.579510267171e-05
2.5103684183462e-05
2.4456653990424e-05
2.3831863031747e-05
2.3241816884285e-05
2.2659135800278e-05
2.2113726189736e-05
2.1585115994546e-05
2.118889282886e-05
2.0605643184558e-05
2.086324306028e-05
2.1299899325644e-05
1.9864000635693e-05
4.9056631411537e-07
1.261874898857e-06
1.5070911013341e-06
1.780269521325e-06
2.1478509495465e-06
2.6364895786681e-06
3.1855882849252e-06
3.8398967127248e-06
4.6098585459874e-06
5.3085641374432e-06
5.8201512183825e-06
5.3091534237489e-06
4.7708237670327e-06
4.3994012661188e-06
4.1565440896374e-06
4.0006119405581e-06
3.8938893762888e-06
3.8303282063384e-06
3.8035530856204e-06
3.8072022444255e-06
3.8352650111062e-06
3.8852925070396e-06
3.9525879030336e-06
4.0376217151286e-06
4.1439619406786e-06
4.2694244478935e-06
4.3818649668043e-06
4.3753300381104e-06
4.2363327939957e-06
4.107067059319e-06
3.9873934789105e-06
3.8762315621058e-06
3.7728095828185e-06
3.6759529870087e-06
3.5849371631764e-06
3.4990333818636e-06
3.418107769157e-06
3.3417970111763e-06
3.2697556279386e-06
3.2015754374646e-06
3.1370932157181e-06
3.0761462328499e-06
3.0184497988992e-06
2.963686160754e-06
2.911627061711e-06
2.8621802082182e-06
2.8152230065582e-06
2.7705981394237e-06
2.7281309416939e-06
2.6876874087462e-06
2.6491587136529e-06
2.6124352962128e-06
2.5773763207604e-06
2.5438360213636e-06
2.5117082423799e-06
2.4809497580617e-06
2.4515188387412e-06
2.4233539681738e-06
2.3963714616358e-06
2.3704908111899e-06
2.3456507068661e-06
2.3217919974814e-06
2.2988419224508e-06
2.2767181002161e-06
2.2553539051051e-06
2.234717974329e-06
2.2148041932305e-06
2.1956004427794e-06
2.1770718923031e-06
2.2647868877835e-06
0.00017131257569748
0.00048598532577968
0.00042381267857918
0.00036256041328358
0.00030243340536815
0.00023300827891691
0.00015180806417149
0.000123325121473
0.00015517469370264
0.00016446666693806
0.00016684629964329
0.00016921606733078
0.00017247695545324
0.00017625158563481
0.00017665385400238
0.00018009746877077
0.00018271579887108
0.0001840892418139
0.00018392236437904
0.00018213547514939
0.00017836088557297
0.00017269488867178
0.00016533711449855
0.00015644644469542
0.0001462716318345
0.00013512898786868
0.00012336692063778
0.00011139879466287
9.9691119628953e-05
8.8656292512212e-05
7.8658022077974e-05
6.9952299103102e-05
6.2652263194165e-05
5.6765594509938e-05
5.2449359220418e-05
4.8573800403336e-05
4.5523080686508e-05
4.3134484744743e-05
4.1360478495273e-05
4.0070685259561e-05
3.8986005665851e-05
3.7951855745195e-05
3.6935770098204e-05
3.5909442708973e-05
3.4866489152188e-05
3.3801465951004e-05
3.2718414053072e-05
3.1646088815113e-05
3.0616654618157e-05
2.9615578998692e-05
2.8630160552536e-05
2.7660300391765e-05
2.6741793241783e-05
2.5858845842504e-05
2.5036257201663e-05
2.429211503504e-05
2.3571646177705e-05
2.2907617112914e-05
2.2246706541565e-05
2.164178162143e-05
2.1022355497285e-05
2.0452988218956e-05
1.9861658211939e-05
1.9303875162438e-05
1.8770465966247e-05
1.8361715047805e-05
1.7791292362535e-05
1.7947206038155e-05
1.8352333750714e-05
1.7110397197308e-05
5.6175119144407e-07
9.6347295040502e-07
1.1489949231615e-06
1.3139424158551e-06
1.5527495516889e-06
1.8595754609429e-06
2.2518894718106e-06
2.7185003407372e-06
3.276569839414e-06
3.9303890912014e-06
4.6029989269111e-06
5.124662688614e-06
5.4571609600215e-06
5.5440975272695e-06
5.3274697314474e-06
4.9485217798967e-06
4.70151005659e-06
4.5294623201286e-06
4.4099571331919e-06
4.3311121681386e-06
4.2921291032897e-06
4.2836157489106e-06
4.2994821331141e-06
4.3374836702893e-06
4.3952216460747e-06
4.4705585272043e-06
4.4034998502607e-06
4.2730617578702e-06
4.1478642443862e-06
4.0278850145411e-06
3.9137008157172e-06
3.8061476747124e-06
3.7047735501686e-06
3.6097239763977e-06
3.5202910273193e-06
3.4365576059506e-06
3.3583847813596e-06
3.2849925205534e-06
3.2155598441581e-06
3.1496410745682e-06
3.0871461211818e-06
3.0277888004887e-06
2.9713577519934e-06
2.9175682206774e-06
2.8663718055917e-06
2.8175744459912e-06
2.7711044227395e-06
2.7267992300007e-06
2.6845340538339e-06
2.6441917554481e-06
2.6056442234422e-06
2.5688097031153e-06
2.533567301113e-06
2.4998270337705e-06
2.4674775364385e-06
2.4364631537679e-06
2.4067508612784e-06
2.3782827120309e-06
2.3509958789428e-06
2.3247957917685e-06
2.299623564488e-06
2.275440796698e-06
2.2521934850797e-06
2.2298209444054e-06
2.2082551961072e-06
2.187455003322e-06
2.167403747302e-06
2.1480835995419e-06
2.1294554506098e-06
2.236183590522e-06
0.00017574576897217
0.00048545668032018
0.00042383708935724
0.00036388301373057
0.00030579643965885
0.00023995988419597
0.00016465580488746
0.0001364145197104
0.00017251213316221
0.00018650730703462
0.00018908818580535
0.00019075091652452
0.00019354994960981
0.00019727580431043
0.00019852924013671
0.00020249665051631
0.0002056879197107
0.00020764951468288
0.00020802775446865
0.0002066979931557
0.00020330743311321
0.0001978588753814
0.00019053979922604
0.00018147922917624
0.000170890294124
0.00015904935107215
0.0001462711264388
0.00013292283529334
0.00011945725034894
0.00010632480912943
9.3940077730792e-05
8.2678837291496e-05
7.2803514063769e-05
6.4492433940676e-05
5.7022798124499e-05
5.127732862851e-05
4.6740128428842e-05
4.3404898818443e-05
4.097133712028e-05
3.8859531079116e-05
3.7020876755512e-05
3.5398610749338e-05
3.3930222043387e-05
3.2549207519483e-05
3.1251830029911e-05
2.9964993301499e-05
2.8747744729096e-05
2.7544707656869e-05
2.6427472216751e-05
2.5406624065824e-05
2.4412965763079e-05
2.3447904952831e-05
2.2583237859057e-05
2.1772100519305e-05
2.1005044219979e-05
2.0299023642936e-05