/*--------------------------------*- C++ -*----------------------------------*\
| =========                 |                                                 |
| \\      /  F ield         | OpenFOAM: The Open Source CFD Toolbox           |
|  \\    /   O peration     | Version:  2312                                  |
|   \\  /    A nd           | Website:  www.openfoam.com                      |
|    \\/     M anipulation  |                                                 |
\*---------------------------------------------------------------------------*/
FoamFile
{
    version     2.0;
    format      ascii;
    arch        "LSB;label=32;scalar=64";
    class       volScalarField;
    location    "7e-05";
    object      omega;
}
// * * * * * * * * * * * * * * * * * * * * * * * * * * * * * * * * * * * * * //

dimensions      [0 0 -1 0 0 0 0];

internalField   nonuniform List<scalar> 
109340
(
9624.9239341081
9914.0564383847
10717.782427669
12451.791966015
15343.949713973
19281.317226347
23864.334941374
28482.891738796
32607.628592828
36561.556374438
40421.761963819
44209.376540818
47930.704506589
51586.932995659
55177.281088537
58700.247139037
62154.152589834
65537.386847398
68848.537097409
72086.435187389
75250.169667661
78339.084927656
81352.781086649
84291.099573829
87154.085209952
89941.915059764
92654.788735499
95292.780557451
97855.641297019
100342.50698763
102751.44319139
105078.64111474
107316.77828475
109450.98179796
111447.72742234
113222.52412192
9731.8902179627
10833.37342498
13686.563918923
17994.851703018
23007.286272775
28081.123350187
32929.660138004
37771.725566362
42618.259581664
47410.298788821
52130.205822983
56769.219175249
61321.114978971
65780.847567594
70144.252757402
74407.960849973
78569.366265263
82626.61056646
86578.570696275
90424.869647392
94165.931183261
97802.951676526
101337.79892982
104772.82422911
108110.64424695
111353.89675652
114504.99234431
117565.86135943
120537.64267924
123420.24935026
126211.63216753
128906.40092936
131492.55676007
133942.26355081
136184.87484763
138040.80784324
9974.9113245176
13983.59982099
21421.412689747
29035.77714224
36258.15643013
43417.321384337
50634.674401725
57844.244088495
64995.283007335
72041.77740304
78950.050780865
85697.329910584
92268.164048966
98652.109354972
104842.41547989
110835.24033797
116629.16323908
122225.05219886
127626.46117972
132840.39801734
137877.40446247
142750.05409607
147471.4887734
152054.25938788
156509.62496798
160847.19789751
165074.74944517
169198.01326139
173220.42840648
177142.65924403
180961.44921058
184667.35020294
188238.67004286
191620.30923628
194658.1837788
196931.54198008
11939.294174703
28499.368020251
45401.252383811
62283.830444815
78981.754412658
95404.841416006
111443.66497595
127013.538467
142046.23297888
156489.88468765
170308.12211503
183480.34206744
196000.43982109
207874.35499305
219117.71197869
229753.76725542
239813.64703046
249347.46992969
258447.85693305
267238.34655189
275826.21696979
284286.77858898
292668.08873116
300998.23709826
309291.39307956
317552.12263539
325778.08785329
333961.56874905
342090.03447937
350145.9297291
358108.00871209
365970.35492739
373751.54774867
381369.38319001
388293.95402917
392648.74946828
46744.772785759
146395.05848463
241006.33176118
331703.41161733
417181.01956398
496130.76437191
567746.54772886
631752.07609519
688334.93638002
737972.21437138
781300.37796441
819002.65178642
851748.09408036
880151.2549419
904753.09190691
926053.9807872
944749.93253952
962716.13223956
983070.59456943
1007354.1377594
1035385.7800091
1066234.417755
1098878.0002979
1132458.7197077
1166304.7852552
1199872.3911882
1232726.8061261
1264517.9324293
1294936.7908794
1323679.0444341
1350452.8896814
1374858.9896681
1396372.3936717
1413977.7729682
1425114.381234
1418445.317525
4718193.627329
5541834.1388499
6157753.2693156
6588173.7428838
6869472.7220221
7039100.0197813
7129087.5900896
7164278.7717647
7162578.7148502
7137912.4069571
7098163.0522442
7049416.2672278
6995828.5478008
6940208.8827692
6884458.9313655
6829954.3338491
6777613.1907914
6728071.4849919
6681961.4937712
6639917.4055363
6601300.0375603
6565711.6214757
6532967.7850426
6502982.5390609
6475704.5900207
6451101.1229823
6429158.8979265
6409891.4893172
6393350.3658269
6379643.3435168
6368975.725371
6361739.6945892
6358519.2175621
6360643.4822843
6369593.5189989
6384406.7993434
114584.51691412
114791.93683548
114053.7763954
113477.6412845
113955.99932788
115909.42367961
119977.2379218
126388.01819044
134439.56810576
144908.72173431
157876.34318244
170074.82486494
179481.78859525
183103.40834291
182109.89614302
178436.06149051
173082.5570969
166867.55265055
160341.58630891
153830.25709617
147502.22667804
141444.54257453
135755.72758996
130580.53585692
125859.64734663
121532.82693794
117706.26654967
114014.32468084
110649.45791555
107613.58611712
104626.61266979
102077.19077663
99467.23462518
97257.612976076
94958.07114392
92999.205788606
90948.522820924
89199.355641113
87366.277214061
85803.71395896
84172.543073041
82763.937849571
81319.977189192
80022.373392563
78754.435480016
77524.883532556
76388.704304035
75241.828568993
74206.33540043
73170.047677801
72197.062735719
71254.578990651
70350.6429441
69478.830080233
68637.160803835
67822.83391737
67035.155472478
66274.101073885
65540.4382992
64833.754833994
64152.390194278
63493.826017318
62855.713924632
62236.145469412
61633.632044675
61047.106886423
60476.206744986
59921.151255006
59382.256795331
58810.905957983
1205170.416323
8396330.8274807
6143160.9485377
4488666.837511
3346776.9125008
2536596.7295391
1908858.4225552
985937.26992674
482793.56799799
431746.78658718
413456.61091419
405709.56044944
403871.66044518
405614.70815349
411126.98873309
415900.41711435
419893.41547241
422569.60896174
423494.52617437
422075.67385865
418286.50229999
412400.94778414
404854.4401101
396150.80121301
386945.572729
377788.78504978
369155.8741494
361559.93059885
355229.5742116
350272.31478986
346685.09095945
344415.82966775
343422.16207898
343502.9532672
344965.8003088
347006.87092546
349553.98338303
352471.31554296
355581.35346546
358799.7015456
361388.23230492
363214.71787791
364291.20121886
364610.14408307
364338.64521548
363572.21986425
362201.66760299
360132.04403718
357463.9160404
354296.34456183
350768.86700803
347058.65188579
343155.36720926
339171.41842251
335094.5784532
330929.59408412
326875.60953566
322743.65975477
319118.66105766
315507.05534993
312296.29671691
309250.5335987
306222.28057474
303517.30276831
301476.40494637
299007.20296178
300794.57808283
317956.45064857
326063.69094899
317542.11820087
139059.95566492
137879.39873986
134879.45439656
131038.67831939
126829.63815568
122838.54423076
119444.44067973
116863.52285032
115109.81001133
114311.94023046
114242.53217706
114842.30975966
115549.13880639
115972.92234004
116327.45101669
116787.92164565
117326.13432653
117688.84979922
117371.36952326
116520.34019466
115239.88554815
113623.15425549
111759.055586
109706.14391821
107606.31428558
105570.40762745
103567.42930349
101583.26037847
99605.765351591
97680.708235227
95809.517100831
94015.916186516
92294.345202978
90629.74968117
89027.589595206
87473.513779866
85979.483996544
84536.542338288
83156.985222397
81834.572310693
80570.811716164
79361.188018097
78197.413306152
77082.847570529
76003.75084207
74968.473439283
73963.464702358
73001.552120026
72071.942207132
71181.135955898
70319.384602081
69487.046889147
68681.118952238
67899.935494796
67142.027083977
66405.434821935
65690.622481636
64998.253389478
64329.119326783
63682.673559217
63057.398934001
62451.065787241
61861.608674301
61287.325196047
60727.082971775
60180.285971422
59646.902108763
59127.358209848
58622.136680897
58453.928420991
3831870.2491158
7857039.0488193
5670357.8691707
4163674.1159517
3118600.0030965
2369661.1986715
1739484.7584958
748461.36014325
469322.93359389
434991.27760134
421731.28654883
417120.90140893
417440.03577076
420683.10203376
421350.89328486
426634.97096057
431138.84915049
434251.8118305
435486.65066472
434395.45853331
430690.7113355
424543.75270856
416279.81592715
406411.76482152
395665.14274352
384750.01975033
374303.31879245
365006.68426349
357204.40128946
351049.23435207
346532.848232
343550.66516523
341981.14622488
341677.61331009
342667.70650165
344348.63285593
346577.38000483
349208.96575041
352063.15941922
355037.49943518
357481.71343237
359170.99351657
360091.4653347
360232.18754098
359973.43397279
359282.01740491
358001.00826567
356062.50776189
353540.43531771
350518.17040692
347143.15321248
343559.59714064
339797.58608474
335955.36798397
332045.84876943
328091.95832398
324235.90540534
320340.13460284
316833.55710702
313329.89576974
310262.00099255
307069.70874662
304402.4878608
301770.97185733
299859.11606481
297558.7209596
299702.21182376
313974.81891098
336504.19169403
323873.57527747
197185.37725125
192970.05447612
184543.1636838
174108.66297368
163487.68937712
153630.40659234
145203.816444
138101.34412123
132493.5297415
127850.05388754
124334.5889653
121308.92921071
118998.48873589
117177.25752669
115618.72223915
114209.21163521
112699.71806134
110997.42525785
108877.19167995
106565.18327019
104227.49650212
101964.47041383
99806.83167773
97758.337814167
95828.800841565
94002.789418897
92300.660596075
90765.605283118
89359.506794944
88036.81347902
86803.093082938
85651.223999282
84564.939815546
83507.330659791
82467.366775746
81421.791410227
80382.884620894
79350.727629272
78343.048734115
77358.996851003
76407.301744921
75476.660823089
74575.009208948
73691.345618629
72832.360191059
71988.934455827
71167.88806726
70368.881990507
69594.369321022
68844.426990403
68114.893137169
67405.527691573
66712.217301532
66035.743883506
65374.278938123
64727.674430654
64096.687989494
63482.868812779
62887.374484813
62310.018816284
61749.534290742
61203.983299374
60671.585518783
60150.939435471
59641.167131717
59141.859141847
58653.176261533
58175.779081948
57710.439295722
57590.271063669
3848559.4829003
7859383.5552212
5670748.1243534
4163715.8903802
3118928.7800733
2369735.0271133
1735707.0801242
760170.72341986
480367.6802536
446221.16849418
433781.61315509
429866.9265137
430880.75578747
434925.19296404
436484.35496544
442537.62621298
448084.66236337
452362.09298849
454767.56373357
454999.53090672
452546.32269213
447383.94831478
439613.32995997
429500.33774291
417556.54844713
404540.430439
391354.44636743
378963.73836242
368058.77021295
359081.5688801
352167.15167583
347250.70858682
344165.0205673
342700.98924932
342820.54928653
343911.3363798
345694.34838468
347990.90803979
350578.06764922
353318.73610556
355629.16630902
357167.0436347
357858.54889832
357931.4089991
357726.10797621
357052.41206536
355756.25687719
353829.59830495
351308.63723118
348299.2126636
344911.50877727
341274.32845808
337463.51568685
333573.83292306
329660.85285615
325736.27950404
321937.28182035
318103.90092763
314542.24138005
311050.21879936
307945.57978353
304738.89678434
302314.22382786
299806.49920573
297878.84591228
295475.91830073
296688.03280036
305263.95866617
323226.05484276
311026.34238813
386993.90092831
364673.82110457
326340.21024089
284765.31246298
248185.51166208
217839.91619169
194202.68302991
176013.02733833
161871.80047785
150242.72017269
141727.86798323
134574.85242012
128663.81700397
123789.3200729
119719.26424392
116324.36791062
113557.29909945
110974.2811567
108093.91561019
104971.69716265
101783.15514147
98688.261353513
95803.552157805
93140.942407963
90690.894102539
88448.88414136
86400.559493547
84537.918162297
82892.166052374
81425.729365651
80110.251844586
78932.135791143
77869.20351217
76900.686072343
75998.620726894
75154.038009409
74349.512855315
73582.848018798
72847.912021958
72152.619789987
71484.767886644
70837.41954935
70202.12019061
69570.387955202
68941.300138989
68312.285940879
67690.234466353
67075.597798558
66475.400764616
65886.132163834
65308.924796958
64740.647981
64180.759428851
63628.335626828
63082.606351203
62544.272906545
62014.604778917
61496.254585051
60990.860782425
60498.583274968
60018.226765713
59548.140720858
59086.922182589
58633.536420321
58187.277936808
57747.876311763
57315.740281392
56891.870499909
56477.385955505
56416.665969724
3862065.666826
7856205.3958211
5669219.0576063
4163269.9527484
3119360.8502469
2370010.2863925
1731446.3695046
776074.17565261
492620.49780168
457249.86387356
445035.97535667
441409.96115095
442802.99998784
447363.62324645
449998.76704328
456761.45129386
463152.71131268
468420.37005819
471961.37086532
473392.26063477
472450.71874358
468780.96261306
462453.04072678
453561.80454478
442341.23925942
429242.57808806
414917.81796618
400209.49496551
386224.03362788
373912.30108887
363823.54894419
356117.03379579
350713.42840313
347393.27832282
345756.26964309
346017.4103003
347016.99818363
348684.07829597
350784.12117826
353134.78696001
355199.69531997
356495.76377547
356965.91759212
356944.50199976
356639.1492789
355843.94106211
354439.59172423
352428.03464863
349846.57880978
346792.21401251
343352.62141116
339638.19771633
335735.59385451
331739.96380064
327739.46744263
323757.52055086
319945.04759886
316102.42908185
312477.57300911
308927.51329794
305789.74469348
302560.72811174
300196.22102834
297767.62465474
295838.37103489
293447.02881307
294027.87585682
300243.05003946
310236.21557971
296768.98072192
1321486.9893749
1072308.9893108
804466.45082704
595044.45307743
448186.72770433
348239.53206542
281332.37467147
235822.97052726
204080.92964816
181289.2869472
164717.90276826
152046.0382632
142016.07187697
133852.7539235
127145.94798448
121613.24804477
117003.19759487
112804.92364804
108869.71908087
105160.78297262
101616.91384714
98186.622885984
94882.65663114
91795.893850699
88943.040415808
86320.665896347
83911.869551537
81709.632849336
79731.893502956
77970.770031393
76397.690159051
74997.783018722
73747.124243152
72625.702352564
71611.822987276
70689.073458854
69840.539269841
69058.329105844
68334.558181133
67666.678985158
67046.094076932
66467.521431017
65920.130367836
65399.909752652
64897.906356551
64410.683592033
63934.300108505
63471.81853757
63024.158306047
62586.740637685
62156.748845979
61728.875101346
61302.128796092
60875.376721914
60448.850328623
60022.570463561
59598.869839301
59181.191440798
58771.627850406
58370.477165349
57976.61694272
57588.658286003
57205.494529811
56826.281261486
56450.421542278
56077.77918491
55709.010783649
55345.37056532
54988.230662354
54995.694626676
3876705.5148601
7849998.4475615
5665993.022204
4162271.760083
3119885.0232622
2370584.6402024
1727639.8592104
795201.5856553
504972.73686343
467059.9347913
454622.44117543
451011.27036972
452567.75930629
457433.77340135
460856.78581454
468186.92923993
475183.20267708
481165.5720704
485548.33737479
487916.20390312
488118.49098515
485746.56100846
480851.34129985
473485.86687195
463751.60813063
451889.68967546
438280.33129328
423503.4678297
408374.66126598
393889.38805827
381007.37811863
370400.63415049
362320.96336409
356715.13549398
352440.51834953
351528.32202214
351669.48799521
352429.74095527
353710.0039821
355306.43716017
356765.7451312
357516.42693107
357616.25036871
357425.85747379
356863.96554112
355802.1668389
354185.6024874
352025.23043825
349348.10336267
346229.60393417
342740.57624104
338965.29404346
334980.75670304
330878.87705102
326751.38576905
322690.40640793
318815.10345539
314898.05421014
311233.9572754
307567.02356074
304403.10863523
301174.06721036
298789.73004547
296358.28742964
294460.2652198
292077.77349836
292483.76940533
298298.90847266
307210.63800478
293175.97425924
4669332.6238173
2575709.01325
1601409.8202049
1067215.8136134
743550.26791496
538642.03725422
405862.33772514
318680.77853603
260400.4215008
220956.7762945
193302.08856761
173301.29873781
158173.8511863
146232.99694578
136621.91131836
128795.23717617
122155.19925891
116300.05542543
111078.67547516
106407.12128415
102199.78823544
98379.358600305
94881.341235652
91615.628228155
88540.31674054
85673.44077107
83027.697578805
80584.470967148
78360.209853571
76360.598299434
74562.219849664
72941.816249973
71486.516522138
70173.614807008
68986.030372091
67909.169321178
66931.877696608
66039.903920634
65226.316163059
64484.437948244
63807.174293091
63185.216888829
62611.287473227
62078.605301951
61578.644097739
61105.562677516
60654.89318794
60228.226942082
59823.701621806
59439.530484201
59071.022071319
58714.693442637
58367.962739414
58027.330866599
57690.25571159
57354.913920993
57023.159395499
56696.455202357
56376.023109731
56061.451199109
55750.65961645
55442.419775604
55135.737635255
54829.90160341
54524.464767005
54219.271562986
53914.95507923
53612.975836654
53314.871362331
53394.976839806
3893209.6070049
7841986.3812195
5661556.8400792
4160853.7322502
3120578.3296856
2371628.0304239
1725298.1804517
817154.88509496
517331.99114576
475705.64250337
462716.04269267
458966.09849134
460581.39209489
465652.59672785
469720.86684469
477443.99515368
484898.91090808
491406.07614641
496384.52132323
499424.13932077
500359.5696672
498922.96396986
495075.99217409
488915.98836964
480525.61435377
470071.39571102
457777.05924967
443997.34593952
429276.68171373
414363.52327603
400252.19110214
387789.95125501
377502.0880653
369694.4760687
362938.62096474
360338.12099366
359230.04198518
359132.91026259
359413.5841345
359972.85514044
360400.60768364
360326.9467767
359997.98003139
359326.20452504
358256.82015518
356734.92999737
354749.77981629
352324.80756145
349490.92096493
346298.91323445
342789.31732658
338999.96394779
334987.24359875
330838.22981106
326623.37268369
322521.62844744
318600.22491823
314627.11610214
310915.0171504
307149.22516674
303949.17597196
300686.37704742
298240.67313581
295745.94725497
293887.4341338
291549.18905784
291814.6770586
297434.22777421
306417.85375422
292068.96870012
6488096.7804273
3578798.1741154
2319781.890524
1586507.1672034
1119274.7733185
804583.57799828
584867.83339723
442232.42260135
346702.1562745
281320.74390932
236225.59344883
204426.37259668
181322.50538679
163956.41765733
150413.46116841
139413.10027714
130236.62941684
122484.79017919
115816.21777944
109986.14345284
104844.01539519
100293.96654415
96252.040541163
92640.042485312
89352.470584864
86323.215629881
83500.760532236
80865.607411977
78431.043060284
76214.186731992
74206.451568027
72386.145889833
70731.048244747
69223.474005021
67851.068678415
66599.600897164
65457.821080525
64416.97560054
63468.269421946
62601.907870924
61810.516700456
61087.000883446
60424.444575834
59815.066672635
59251.682558685
58727.856240686
58238.086619554
57780.760423144
57353.806821147
56956.099253469
56582.857335975
56230.308411998
55894.505026223
55572.437784432
55261.238732493
54957.901316246
54662.06546154
54374.833646458
54097.867250194
53830.90426718
53572.157520923
53319.334701825
53070.304434838
52823.450116524
52577.634499987
52332.080818796
52086.240022243
51840.948333239
51597.755814624
51345.260073078
1261634.6116578
8400997.5482126
6129396.451286
4482126.9503053
3348285.9251112
2541033.8266998
1898243.8178886
1046846.6984907
560830.27100357
489858.27433482
471963.59389514
466078.98939769
466524.59603167
471060.80029337
477205.46295673
485274.17269732
493124.4435269
500056.53480363
505484.14360434
509005.04217833
510414.39149935
509605.58476335
506440.90282224
501081.77955619
493632.83703202
484259.21688473
473133.81508703
460506.44188256
446742.04564618
432350.41079753
418083.4810207
404852.51537999
393354.72049494
383985.21789739
381832.01488498
376881.403193
373504.78730585
371192.65592882
369691.18941094
368310.42822527
366917.24957454
365454.37547127
363957.39726982
362368.32803758
360573.08251638
358472.9824727
356041.26471706
353297.38100345
350265.48557109
346967.35669891
343420.21375639
339611.9720613
335572.78834391
331381.5415746
327096.5612251
322917.16326946
318971.40831221
315025.78135786
311234.22134307
307422.52674629
304094.07210329
300827.78436424
298134.01671204
295387.39559551
293622.67734365
291498.31172177
291515.32475299
296669.75220358
305962.63116639
291141.86549636
5650405.8785425
2720108.5513227
2113371.9936185
1655759.8158387
1309091.3501789
1008525.4396851
778726.62035729
600951.98428818
463591.38986372
369603.39805772
302818.16300921
252509.61986353
216397.81141665
189778.09246681
169706.4029985
154074.51302897
141433.91817881
130973.2768135
122176.14911234
114709.63235101
108282.24261201
102683.33688806
97774.791999271
93446.330110313
89604.828027293
86181.103691704
83099.877820786
80310.951477311
77794.639717462
75499.827188767
73390.866633136
71435.629972069
69628.168723086
67958.998946418
66416.911344972
64990.81585101
63678.237274804
62470.195278701
61355.975682516
60325.110274952
59371.91086315
58491.248059499
57677.10518405
56923.734353788
56225.7614287
55578.375546475
54976.692640921
54417.584155679
53898.962733524
53418.307112006
52971.736318365
52555.221566728
52165.470116184
51799.604691345
51454.655702907
51128.278126403
50819.246752645
50527.582338608
50253.331610145
49995.535470436
49752.240926352
49521.139446231
49300.151885653
49087.41647701
48881.188415352
48680.130221163
48483.795407909
48292.42787489
48106.4827233
48362.060363825
3965530.3579394
7812101.1636562
5643592.7828448
4155567.6562367
3124921.9333531
2379818.2552751
1734477.3508919
901197.1069281
557697.78371952
498040.4709177
481629.30000258
476981.7707526
478648.9109777
484369.35824236
489818.88331486
498634.21487835
507274.76298324
514973.48724845
521115.76078257
525292.84344741
527280.3895974
527079.77650645
524544.10088426
519896.93194151
513315.18791407
505021.31687236
495216.87133399
484124.84490377
471978.48292515
459056.41737582
445719.63098795
432557.14175288
420295.29153142
409531.9318365
403379.22796968
396350.86031368
390428.03492213
385200.97274798
381000.57057979
376982.72161762
373330.59857158
370146.36104325
367464.12322133
365067.32183902
362645.25235417
360079.67824238
357311.27757753
354322.30940231
351135.00867652
347723.73025272
344062.35767952
340135.67406818
335996.0745442
331715.46039433
327362.46006465
323102.05359212
318983.97008262
315028.76096693
311091.49293374
307372.57180916
303612.0457101
300420.44245757
297218.84065366
294347.5827144
292043.6078872
290220.57537526
289498.70908184
293974.2107175
303591.00617924
288108.22658276
5223647.4913167
2119785.4631156
1827768.8151499
1547461.190257
1294033.7778434
1072858.0474758
879927.76220106
713050.3317547
576474.82963798
460767.72873872
372908.56976248
311002.48886769
259260.23850301
220726.03623691
192663.80029534
171430.09221822
154994.18172115
141857.85809289
130964.74981025
121790.95322207
113992.65175569
107291.15052742
101478.3309887
96392.567016522
91907.339382233
87927.056972574
84381.808043828
81231.755396773
78418.055585818
75891.83554348
73619.10700261
71556.705171755
69671.429549067
67931.103976023
66308.249338504
64793.939740309
63376.89767064
62054.237389914
60820.783162673
59670.156753987
58598.979516733
57600.294453279
56668.645524591
55798.077427381
54985.917032364
54226.369522491
53515.578379966
52849.944081492
52227.77092418
51646.906830606
51103.520552705
50594.22043069
50116.096482338
49667.493145668
49245.995823498
48849.456913791
48476.497031382
48126.396808988
47798.805409703
47492.182781267
47204.553026165
46933.956443058
46678.605051817
46436.994833249
46207.434058828
45988.480264582
45779.323696738
45579.655448974
45389.209512528
45706.239970029
4051582.492301
7784925.5904526
5626823.2127406
4151421.524919
3130619.1951074
2391574.5630472
1758276.6950195
976422.93218621
591805.62900065
513118.73673718
492391.76986075
486664.88582064
488329.61884469
494644.32527278
500957.73543534
510723.94645784
520304.33922356
528837.85334983
535658.51687981
540335.02409941
542643.07021569
542596.83207615
540104.92160808
535430.82205734
528823.40546461
520573.93159492
510968.91132291
500293.18430326
488794.1481054
476696.10117744
464215.89506013
451617.04813327
439381.53647711
427994.38581071
418799.30449073
409869.83866404
401516.05097309
393644.8025188
386838.63229158
380750.885776
375625.21633756
371561.05617753
368233.57257508
365466.97120714
362687.78045275
359668.56217686
356353.56249762
352744.40332544
348939.6481989
344928.94826737
340628.50850363
336054.35664005
331335.47090589
326567.3206181
321780.63941012
317150.22072913
312836.68027782
308588.53908548
304495.74072734
300788.64774865
297042.63171655
293685.61783508
290298.38936973
287284.77630012
284349.31843657
282578.19005122
280688.72854711
283871.28504132
292918.79145842
278708.86831934
5207551.0610447
1816207.9738694
1559346.1097067
1386785.5852331
1213416.992887
1048422.7964793
895586.53668765
756350.76686513
632976.8937875
528672.5695842
434192.26617158
357886.77440993
303549.09701005
258323.31567997
219469.48398065
190820.39063613
169426.02959682
152978.12777964
139915.83196226
129196.15008509
120162.14686683
112427.72443491
105747.81121782
99947.887070479
94878.56927018
90422.832138509
86480.374449155
82968.457148003
79824.587779144
77005.188631903
74471.259035173
72186.491183675
70117.274656616
68231.88214965
66501.98602195
64910.857553303
63439.768688422
62072.353713401
60797.520200117
59600.270868503
58470.990783306
57402.07103732
56391.108053969
55441.206350979
54548.813214657
53710.572735775
52921.591814181
52179.005140341
51481.384638149
50825.001858133
50206.710950084
49622.325031041
49070.15793804
48548.833618134
48056.541291039
47591.733832048
47152.769016052
46739.341548326
46350.620750743
45985.08771943
45640.8196229
45315.794831278
45008.695149551
44718.296981807
44443.258543723
44182.446451143
43934.991899421
43700.28695283
43477.564919224
43868.130264954
4198291.1160788
7747658.6074683
5603054.4185624
4145668.0027584
3138593.2997664
2409433.784974
1796590.8376137
1071230.8366113
637395.53954703
531331.94896536
503443.59421266
495836.06259358
497315.52631206
504317.46868843
511607.33026342
522573.69654822
533307.9628983
542819.3712803
550368.96571509
555498.35087669
557984.89689266
557858.65504604
555069.5439653
549919.33719868
542730.19616227
533852.59709571
523666.4137768
512547.90778925
500822.71404113
488750.39460959
476518.9998494
464264.00207982
452163.74865532
440464.66479108
428586.33970481
417586.46613014
406728.30482955
396856.0162898
388126.72010124
379650.81453017
372435.69606571
367193.36270354
362755.46347115
358895.83955267
354985.39179614
350756.81664684
346042.87040838
340855.89808508
335338.56480764
329619.92329995
323867.51237035
318246.60225083
312940.80676305
307913.20188931
303209.40103617
298589.3066224
294259.80734611
290324.07889052
286753.37678004
283609.49479391
280641.96078483
277890.02518779
275254.99440939
272955.9503163
270561.50738129
269171.21390729
267645.56993468
269886.54648855
279244.95031447
269236.77284755
5852212.2821199
1661198.664525
1371002.7293114
1237065.6235454
1116972.7102712
993967.7172761
874594.65049842
761116.13655468
655978.34573067
560616.45708521
477824.98599377
401985.01158791
336380.07522528
289817.40606411
251282.03254968
215434.93516521
187470.03440342
166339.40671968
150071.10453271
137213.28017779
126752.11688785
117989.87089032
110497.0133921
104015.03159095
98374.970023074
93439.840610663
89088.939221827
85223.009348766
81766.58196668
78663.784445582
75871.762653624
73352.998043464
71071.026896958
68992.651797993
67094.89531771
65361.109839141
63773.460689921
62313.197233298
60963.912648341
59708.417072206
58534.109642068
57433.442679094
56397.14925658
55419.402000536
54493.584354718
53612.338304528
52773.672409721
51978.128452278
51224.727722019
50512.215837877
49836.528712521
49195.924501045
48588.344858095
48012.002347817
47465.669609847
46947.271585395
46456.243981139
45991.546752454
45551.94545591
45136.054227422
44741.805014043
44367.780072224
44012.51767102
43674.729401607
43353.631175037
43048.343029336
42758.252440688
42483.046316997
42221.536008463
42768.747306787
4439869.3355962
7694005.9029443
5568399.4020533
4136595.8663483
3147995.1048106
2433070.483164
1847030.7822804
1185976.6010215
702221.14968971
556443.17464148
516517.01078201
505452.96679035
506257.35201539
513902.080332
522264.57292196
534677.20825681
546789.1135167
557421.71674567
565741.91420227
571267.40493978
573793.7292486
573373.16027181
570022.57499944
564080.47604518
555919.65850913
545949.05071924
534632.60715036
522442.48062484
509805.16966411
497059.97500136
484443.50905676
472032.39971951
459798.76559008
447705.94265355
433179.35737039
420606.41672528
407939.60947058
394830.00502936
382239.01923118
371244.23379812
362673.16719168
355804.0695833
349073.84871361
342135.06507454
334811.22498914
327302.16445495
319515.08691206
312304.38736434
306102.03266029
300522.00017294
295444.06453596
291009.25334906
287229.92474762
283947.03947683
280975.74499626
278112.18863577
275536.0451577
273288.55195312
271274.53003719
269402.35097824
267611.15943779
265971.03048186
264322.38578179
262890.15026782
261380.82360945
260446.10080754
259575.27133584
261270.97388656
278248.34126746
259047.35235691
7383109.0363539
1546277.4729522
1258715.8100382
1116176.4834339
1024636.2472846
931185.78458679
838026.39992827
746216.61718221
657348.91960667
574404.318974
498933.17877507
431187.16634745
368640.75552567
313281.74165536
273951.4194001
240813.58587676
209551.15242118
183052.92520063
162685.42243294
146901.77892245
134404.73250167
124261.61026343
115796.85176677
108573.32612953
102326.98077545
96877.436122305
92085.0210198
87839.578016633
84057.605918803
80674.252195983
77636.0227125
74894.952739873
72408.820767842
70144.061225964
68075.115664001
66182.976366094
64450.998350572
62862.600714658
61400.775147808
60048.71743349
58794.438096249
57627.145543312
56536.537013863
55514.266749473
54554.147470815
53647.823611751
52790.482630812
51977.06578915
51202.247559781
50462.985994128
49755.471070267
49077.323839861
48429.553839273
47811.505075506
47222.580741502
46663.065241288
46131.323535498
45626.30489059
45146.74094387
44690.798799483
44257.353070582
43844.36311795
43450.191134291
43073.73766818
42713.96270755
42370.671537266
42043.52138429
41731.956663184
41435.113863985
42351.489395037
4816106.0852571
7610762.6945908
5519443.4449828
4122032.1844064
3157057.2298111
2460894.408733