/*--------------------------------*- C++ -*----------------------------------*\
| =========                 |                                                 |
| \\      /  F ield         | OpenFOAM: The Open Source CFD Toolbox           |
|  \\    /   O peration     | Version:  2312                                  |
|   \\  /    A nd           | Website:  www.openfoam.com                      |
|    \\/     M anipulation  |                                                 |
\*---------------------------------------------------------------------------*/
FoamFile
{
    version     2.0;
    format      ascii;
    arch        "LSB;label=32;scalar=64";
    class       volScalarField;
    location    "7e-05";
    object      p;
}
// * * * * * * * * * * * * * * * * * * * * * * * * * * * * * * * * * * * * * //

dimensions      [1 -1 -2 0 0 0 0];

internalField   nonuniform List<scalar> 
109340
(
387969.78974396
386473.45495514
383583.22408565
380102.90537516
376290.4374798
372356.54065709
368383.22082892
364420.68864459
360557.10038633
356781.65578546
353040.47103933
349329.95565697
345653.66154962
342014.04226087
338412.81458697
334851.50285411
331329.51699393
327844.46527438
324391.54390816
320963.99467573
317551.74647079
314143.83801433
310727.81102718
307288.70868153
303806.65551314
300255.82886226
296601.78710282
292798.23579082
288781.62771176
284462.80447652
279713.44529332
274343.14595847
268064.0478113
260449.67049511
250909.85135086
238705.58333443
388220.71060835
386280.85009473
383033.39790948
379321.04805648
375405.78412236
371468.14512221
367560.12694595
363692.38543872
359861.4137802
356070.2933981
352313.44551214
348591.80055164
344907.80934672
341263.00062663
337658.36578312
334093.51464837
330568.47048051
327080.27990336
323623.32458519
320189.75671011
316769.28169372
313350.68983624
309921.15806033
306464.90362794
302960.90594825
299381.48922795
295689.72636628
291835.6045645
287749.9628247
283334.9463178
278447.95064273
272872.92219121
266270.73493585
258117.04916315
247554.94248802
233664.08558736
389095.51569615
386835.89405216
383251.39204197
379447.96895982
375564.50438145
371681.05385477
367790.32965683
363904.69295218
360049.01147246
356230.88037307
352449.29913129
348704.8347327
344999.32045623
341334.26837724
337711.22823747
334131.28406117
330594.14881067
327096.96689521
323633.63635644
320195.93665735
316772.78584784
313352.79098005
309922.95866153
306467.35023958
302964.75627645
299387.26671946
295697.82184686
291846.30192638
287763.39213514
283350.59887691
278463.78276694
272880.65909251
266234.06239682
257911.9023648
246817.50306525
231195.53688789
390316.91172965
387573.24344577
383798.57208125
379880.99856161
375916.88856872
371947.5541744
367987.52453029
364051.05726641
360154.50565884
356303.4993035
352497.55845046
348736.13051309
345019.36851098
341347.57148359
337720.97491373
334139.54033741
330602.51355526
327106.63899782
323644.90170633
320209.29507071
316787.29729717
313368.0687835
309938.95007
306484.01756749
302982.59008299
299406.658856
295719.24983787
291870.26838511
287790.22929949
283379.73654
278492.72459464
272901.46011996
266201.97762899
257669.90904643
245811.10457584
227265.3372856
392250.80213095
388650.93474863
384306.39255174
380112.85852774
376037.17194566
372027.0955011
368053.54098924
364118.50323653
360225.47692334
356374.87508924
352568.28721712
348806.1478959
345088.79209577
341416.65929369
337790.23182222
334209.94877998
330676.0686386
327186.52871197
323727.57224477
320297.87316638
316879.66006862
313463.63678975
310037.63162636
306585.33329093
303087.06739782
299514.62964934
295831.12434887
291986.43145541
287910.73801743
283503.53076026
278612.94763651
273019.08750393
266270.34625362
257533.76983288
244815.87219043
221817.65363396
395883.93483095
389223.97134294
384426.43344611
380143.03403769
376062.10923996
372060.69246158
368097.59751296
364165.38862963
360270.28860687
356413.78236006
352598.56641707
348825.49102529
345095.09700464
341407.88736414
337764.4369898
334165.44756614
330611.93387716
327110.32946619
323675.52956562
320240.34080903
316814.50856187
313391.43437712
309959.12661796
306501.80612207
302998.75176965
299422.02115322
295734.48552484
291886.01309662
287806.83734474
283396.01827273
278490.66894597
272900.16884165
266126.80570217
257291.63699475
244106.8104045
216272.14294871
223981.80464343
209257.06422538
196942.37614915
186942.21007374
178160.86264105
168629.30640423
158073.98959305
146406.43644943
133766.30401791
120411.21214597
106258.22847773
93206.22875804
80765.944450346
69265.631923854
59190.347606748
50419.901971074
42936.732073193
36619.984773018
31314.436172868
26898.328391175
23233.614301244
20166.905529969
17598.149413951
15445.986673722
13619.581413456
12063.437001353
10779.578349394
9632.0516713471
8649.9499946768
7826.9790304452
7069.3761271297
6456.0567349442
5869.6642904839
5395.9741204012
4937.4546929968
4564.5362836799
4200.6871050029
3903.0020214453
3610.297655873
3369.5307805631
3132.1807297469
2934.0272299787
2741.190741672
2574.7825626757
2418.5618565664
2275.3719012459
2147.1326014383
2024.0969871318
1916.2518828762
1812.8357773288
1718.7542427425
1631.1585583783
1550.0683764364
1474.7226769264
1404.5961921161
1339.1790925363
1278.0724519294
1220.9108383118
1167.3855432892
1117.194912715
1070.0601544776
1025.731664514
983.99912084242
944.67689747197
907.59076084856
872.57805568179
839.49580400688
808.21123264012
778.57510985019
750.4770689598
741.68946659874
2802.4653093427
4907.5011278061
5181.4065381189
5322.0061897131
5422.6621132981
5494.632612021
5512.041336411
5451.1575252354
5378.4750921387
5304.3199498006
5238.3037604183
5188.5165804
5160.9231678863
5162.384219153
5197.9618987563
5255.9034049785
5334.4600779806
5428.5347651249
5531.9061726492
5638.8886345314
5743.858669696
5842.6560415212
5932.7772016242
6013.7366772486
6084.514720967
6147.9694408441
6204.4416959378
6255.7105694506
6303.4870022597
6348.9400776121
6392.4236560085
6433.9068892395
6473.2308919593
6520.4114562515
6557.8773414388
6595.197020161
6633.024925618
6669.4501339453
6700.5789129176
6722.0789055772
6732.73788076
6733.8872057492
6724.6933290017
6698.0065306348
6658.9088414178
6617.624865382
6571.5465798615
6517.8570390251
6458.9183971642
6391.3338766102
6326.6227695086
6260.7337452312
6197.9495189263
6138.4209056306
6082.5035760041
6037.6847150621
5997.3169733922
5975.2885828312
5956.9484431167
5946.6586587922
5936.0437042263
5916.5510269508
5954.8654896092
5989.8628990908
6079.3789883964
6184.4784852241
6558.6852606286
7094.0137221956
9208.2997559242
216422.53721748
200872.52815104
189242.35016062
180206.58362509
170867.30309732
161036.25592914
150136.66399175
138355.15892785
125881.36921483
112971.61871563
100007.39298576
87258.48742651
75793.399821589
65294.87601396
55903.125529745
47763.910701823
40779.265723508
34865.2730081
29904.251969549
25754.464070791
22286.672070798
19388.212500846
16956.131339011
14905.890442418
13172.009758201
11697.980898395
10437.11020208
9357.138095138
8421.5936808905
7612.3712498512
6906.0739863726
6288.7143327266
5745.7800240854
5265.6479499366
4840.8131533915
4461.9337551299
4124.2925631142
3821.1958750729
3549.2751920731
3303.8781584724
3082.1407382141
2881.3137119881
2698.427621733
2532.275980572
2379.9552859958
2241.1209827158
2113.1069270899
1995.9328947315
1887.5283484086
1787.7459839088
1695.2064026807
1609.4693809546
1529.8761641429
1455.8696210362
1386.9840919816
1322.7007463867
1262.6533993718
1206.4672976975
1153.8298554494
1104.4424924603
1058.0491539285
1014.4123542542
973.32383167497
934.59381663637
898.05428110213
863.55092883434
830.93659558448
800.07940310517
770.86042170474
743.20101179939
812.40134952562
3746.5637466774
4996.7356460866
5205.7701469588
5335.4306036788
5430.2160658007
5497.426016085
5492.3279071346
5425.786430079
5353.1270566544
5281.1737038729
5219.3529734314
5175.3424447066
5154.7552145869
5160.8080471928
5195.1624815483
5252.254069807
5329.7859175658
5422.6675811882
5525.0382858493
5631.1358743945
5735.5330251146
5834.2347018033
5924.5055088846
6005.6331750448
6077.0156744348
6140.8807600935
6197.7768737373
6249.5443781688
6297.9082673447
6343.9165367475
6387.8628643058
6429.6235881342
6469.0145152542
6515.7910193912
6552.6165088425
6589.1081568897
6625.7838981856
6660.7589832827
6690.3499346529
6710.78561295
6720.6406581075
6721.3360569674
6709.7342032884
6680.7952957565
6641.6750618671
6599.0938881933
6551.7840847994
6498.344186021
6439.4951000442
6373.1774281373
6310.4117019388
6245.7313058178
6184.5336115394
6126.2784740822
6072.9466293677
6029.6208743607
5992.1627639833
5971.3705433738
5953.9257841349
5944.5740617073
5929.8386828372
5911.4552276689
5953.1104700907
5983.0191228502
6071.9305763636
6175.2398759073
6554.1280459738
7097.1870851155
9319.7270856567
209901.89922873
191561.14176629
181010.31605444
171696.7471713
161704.38440804
151482.39215087
140804.36687215
129564.9257977
117945.46365507
105836.71188112
94513.171595276
83297.802268095
72724.341069231
63014.118532643
54261.887436045
46553.655607503
39894.809623025
34230.911174793
29446.526636454
25412.440349038
22028.009163607
19193.562388682
16806.357650159
14788.905109908
13081.117331256
11626.536492095
10380.056101385
9309.4584286333
8385.4616879452
7581.0356356486
6881.1989751749
6266.9190841814
5727.7897122596
5250.3925150289
4827.8422383034
4450.8776646917
4114.8342704718
3813.0542718968
3542.3423487099
3297.6709187674
3077.0922397245
2876.4939160722
2694.6750388724
2528.5230144749
2377.1051808235
2238.1699821237
2110.7740610131
1993.5929676594
1885.5160364247
1785.8422682798
1693.5022723491
1608.0193514285
1528.5246108386
1454.6374766945
1385.8160063475
1321.6302173743
1261.673464458
1205.5725810632
1153.0057509011
1103.6811053194
1057.3467063124
1013.7656781979
972.72691609488
934.04104851193
897.54304945899
863.07896969227
830.50025649657
799.67392824202
770.48956881682
742.84726103604
812.03578338081
3747.1405757487
4994.0035214344
5202.2939317988
5331.475581102
5426.0407135184
5492.8628622067
5486.5207479983
5419.5884560361
5347.2637568937
5275.7470495299
5214.1752778066
5170.2561269107
5149.7936512665
5156.8996465919
5190.6973070213
5248.0755162439
5326.1416763298
5419.8589253247
5523.1791893681
5630.1727338401
5735.7335041182
5835.8723243789
5927.825132611
6010.291631282
6083.4953883125
6148.3340043038
6206.137639562
6258.6581171256
6307.549349538
6353.7931325789
6397.8329532476
6439.5802900768
6478.9124778363
6525.5000587659
6562.1132977423
6598.3501033917
6634.5276749601
6668.905806405
6697.9880368414
6718.1673102158
6727.8742092681
6728.4884271108
6713.4918757217
6684.4260834164
6646.2953311969
6602.8443730069
6555.5342451112
6502.2563809648
6442.6537107898
6377.6947303133
6315.8240466691
6251.8059100689
6191.4036154329
6134.8914367371
6082.8033668076
6040.2720797999
6002.9702861289
5981.1648347562
5962.7015245437
5954.0770389341
5933.1642066884
5914.0034110468
5965.9506021827
5986.4514380448
6072.428316903
6153.6323953986
6523.4475085146
7062.5065588599
9570.7991535253
197659.58022904
176294.79118859
166058.87950314
155501.58806478
146414.7704663
136512.64465884
126828.14970903
116974.49112485
107016.11131823
96581.906430808
87541.6494938
78001.731296031
68707.131419809
60007.677202904
52011.16802542
44910.909898544
38707.940397425
33354.362747629
28793.755222423
24939.487412205
21681.282106492
18920.810971473
16597.232549633
14630.314380823
12954.914942256
11524.779730081
10300.551490254
9244.9362677381
8331.8103628435
7538.1537054925
6844.9489923642
6237.1601887567
5701.9384437315
5229.2751236704
4809.2295511452
4435.6304980982
4101.3267306208
3801.8905083108
3532.3382315531
3289.458155711
3069.5887854476
2870.2277196423
2688.9927541625
2523.6612526316
2372.7152527448
2234.24680172
2107.3597169171
1990.4129782769
1882.7657247928
1783.2287301962
1691.2078605308
1605.8964846115
1526.6512124731
1452.933478684
1384.239473915
1320.1848624633
1260.3367325268
1204.3431276011
1151.8750328639
1102.6450486272
1056.3932792263
1012.8844023215
971.91118490232
933.28891683846
896.85087944519
862.44019891569
829.90895114464
799.12634436218
769.98247256637
742.36833147813
811.98789301963
3746.4095815234
4989.7095752947
5197.2516547731
5325.6951936285
5419.8638497768
5485.9875254919
5478.1903410865
5410.6759525941
5338.783738777
5267.7663303954
5206.5165809126
5162.7623735417
5142.4818649374
5149.9161438037
5183.2285074659
5240.5925103903
5318.7424946296
5412.5256659085
5515.9582594953
5623.2109782871
5729.293996209
5830.1926577361
5922.9896495289
6006.2592774018
6080.3501836882
6145.9659700624
6204.4578824439
6257.5406941876
6306.8444890952
6353.4310742409
6397.7843340258
6439.8193541559
6479.2153592895
6525.2284179949
6561.2886940267
6596.7109008874
6631.8236963831
6665.1483875449
6693.1448304456
6712.4192364911
6721.3151265775
6721.2373710989
6704.688069908
6674.8558148162
6636.2993849097
6592.4199308216
6545.4820822357
6492.5665142715
6433.4399783837
6370.4784259491
6309.4192251417
6246.8806636385
6187.7781186254
6132.8725695511
6082.372279666
6040.8725797019
6004.9637624572
5982.9409555409
5964.8644357848
5956.0620726475
5933.582823804
5920.8740297823
5970.7854557062
5985.6576334375
6069.7428387778
6148.0852550472
6500.1024979734
7051.7246918857
9638.2737056123
171176.10225029
151350.93390334
140133.21502904
130599.79494456
123409.96305395
116146.55225773
109119.37473109
102240.85165086
95011.540099993
87594.383379439
79810.056566614
71825.664803056
63942.647990413
56392.653450726
49353.293205171
42933.255659193
37237.623770117
32277.42469995
27998.603633279
24336.909563367
21224.402566672
18586.83319527
16334.612622867
14422.011628449
12792.698302433
11398.309216587
10197.283255797
9161.5426681389
8263.7781266167
7482.4074854209
6798.4816926055
6198.5921300535
5669.4148689452
5201.5216785497
4785.8845025517
4415.6584205206
4084.2385778606
3787.2333994278
3519.7652828063
3278.5575010261
3060.0599971017
2862.0413480854
2681.6826927149
2517.3439881093
2366.9849741781
2229.2967860671
2102.8220231897
1986.3969731743
1879.1133284462
1779.9416537299
1688.244955719
1603.1596777218
1524.196121097
1450.7075784423
1382.2325120948
1318.3327615649
1258.6231675853
1202.7633968832
1150.4238233532
1101.3125948358
1055.1635648399
1011.7475995883
970.86236204923
932.32293392532
895.95935475345
861.61586525169
829.14668177182
798.42032010293
769.32502485373
741.75062443591
811.93814939487
3745.9570202832
4983.8971659987
5190.62808276
5318.0985482057
5411.5923327323
5476.6002524019
5467.1381290486
5398.9896258441
5327.5528404217
5257.1301804871
5196.2996738907
5152.8113922509
5132.8331042335
5140.903187414
5174.098668045
5231.7173304479
5310.1334796136
5404.24178472
5508.1248296305
5616.0057298676
5722.8204642248
5824.5235927996
5918.2366426316
6002.4301685368
6077.535689078
6144.1059052773
6203.4642687077
6257.3103518654
6307.3061989712
6354.6350298588
6399.5754994819
6441.9576971268
6481.3443878954
6526.4543407161
6561.5900499106
6595.8233972905
6629.6963217548
6661.8504254928
6688.5383832287
6706.6979490425
6714.6957721261
6714.0817087732
6696.2788604111
6665.4102284641
6626.1456025551
6582.4974170517
6536.161922143
6484.0223877844
6425.8186583717
6364.4177648162
6304.594885978
6243.6248414851
6186.0060807185
6132.5783874311
6083.5232927831
6042.710826156
6007.9036323856
5985.6426625108
5967.9368251306
5959.2116794533
5938.6923583594
5926.0229554818
5973.1253902714
5982.1252839161
6067.9642823469
6140.8953576742
6474.8107538161
7037.8460879788
9674.6613724189
103614.42953174
99975.801848097
98725.042142771
98391.912250928
97325.206588024
94956.305483697
91632.763705552
87854.559801672
83092.521953336
77612.902248238
71586.548688643
65279.170679569
58820.516460908
52435.885365632
46344.948050935
40693.180556233
35572.490145207
31028.962442163
27062.774202569
23634.603093829
20690.411734438
18170.869629697
16022.439984505
14177.342182404
12597.584605042
11241.725422664
10074.261467961
9060.7355926517
8180.6877450351
7413.9503006649
6742.6308207115
6151.1805766488
5629.8419110659
5168.0882274858
4757.5313952658
4391.1754877145
4063.6221907676
3769.3834779936
3504.4075530555
3265.1610001507
3048.5773263505
2851.8825241669
2672.7961299941
2509.4863893757
2360.0629198167
2223.1448200368
2097.2536772903
1981.4704706868
1874.641966302
1775.9500538234
1684.5770836516
1599.8437205749
1521.1823428542
1447.9741802631
1379.7581073958
1316.0613263955
1256.544064504
1200.8492596352
1148.6570034344
1099.676817089
1053.6527737051
1010.358747874
969.58365783482
931.14061357584
894.86472174544
860.60448581462
828.21290047985
797.55401127129
768.51775132946
740.99068503284
811.87736351821
3746.3616984523
4977.0487149742
5182.5071978257
5308.6613461173
5401.1300289458
5464.5889753653
5453.4125239556
5384.6289286366
5313.5868019879
5243.8256407381
5183.5001819025
5140.3742480195
5120.7818271276
5129.4280251923
5162.4993022711
5220.3766161831
5299.0805228129
5393.461554916
5497.6846855664
5606.0719744508
5713.6008946252
5816.244185881
5911.0735381149
5996.5198040555
6072.9199026765
6140.7675833316
6201.3389404354
6256.3257816276
6307.3531098026
6355.4131983255
6400.8525896962
6443.4474444645
6482.7906743778
6527.0750297632
6561.4833604515
6594.8513743368
6627.4614268511
6657.9042095391
6682.5947782305
6699.1245418668
6705.8744619023
6704.5010660109
6685.1542121899
6653.3580775526
6613.7890088301
6570.3420333671
6524.5740009313
6473.3419372487
6416.2880880098
6356.9945524472
6298.7718416037
6240.0265453102
6184.33342062
6132.7386498374
6085.2968413966
6045.489243914
6011.822497295
5989.5879613805
5972.6437511154
5963.8792662264
5944.8040316116
5934.7283950096
5975.0570355402
5978.3999990218
6068.5140893068
6136.0911568485
6448.8569503999
7016.9009171802
9685.2373883967
10054.756796495
46000.82613713
60017.033960564
68564.577023536
73709.935589251
76059.779661533
76056.947523134
74609.852632359
72086.774145817
68670.615171421
64560.032439299
59903.275261124
54864.967292679
49642.692099889
44449.355362219
39474.126226573
34839.270688017
30631.800339067
26885.350185977
23596.426125897
20736.723180459
18266.275615114
16137.526790929
14311.542874344
12734.997452404
11371.234696355
10195.647923972
9177.1917139306
8289.3449915942
7512.115394677
6832.455774807
6234.7501867252
5706.1451091367
5237.2832521322
4820.9930480562
4449.5794467593
4116.8696546906
3818.1891369517
3549.4126108266
3306.5648752941
3086.5781941891
2886.8974874677
2705.2107179158
2539.3940775387
2387.6898830492
2248.7077188281
2121.0202407262
2003.5341043837
1895.1110019822
1795.0060894417
1702.3483966649
1616.457700006
1536.6765793123
1462.4556748051
1393.3434426341
1328.8398619179
1268.5571326501
1212.1250069294
1159.2559032924
1109.6640955001
1063.080043669
1019.2623860521
977.99779548159
939.10488655579
902.41239050653
867.76226501852
835.01018455513
804.02767415449
774.67696968947
746.8451264716
736.40180460391
2835.9130191476
4863.9809492566
5134.48918355
5270.082047853
5368.1589657906
5438.5930333246
5449.8295714351
5385.3778536093
5314.7127395383
5244.6019387098
5181.7554273497
5134.1379760284
5108.5038692058
5115.8182548265
5149.010703484
5207.351344314
5286.5987613154
5381.5361477404
5486.3740478196
5595.4965200661
5703.8993542029
5807.593113362
5903.6348995507
5990.4052719959
6068.1441190121
6137.2865049573
6198.9970121508
6255.0070323155
6306.9231074566
6355.8362673155
6401.9083109973
6444.6882442304
6485.3768173506
6527.3017476261
6561.1321275505
6592.5994522987
6622.1452521489
6648.9163629389
6670.133231023
6684.3546232368
6689.6822405204
6686.9855402023
6665.9106317922
6633.1297289674
6593.4531974877
6550.0875868708
6504.3614955986
6453.9617971839
6398.9124581375
6342.4898181179
6287.1406734118
6231.3516796507
6178.8177266345
6129.4407555101
6085.0522932472
6047.1876035722
6016.1659063911
5994.3772240193
5979.2309061321
5969.0045386629
5956.2800468088
5950.1538224872
5974.0461489719
5967.1338793004
6067.5731607414
6128.6855279093
6405.2749490983
6971.3985019654
9648.5058182113
7911.8079828582
14646.657147602
25061.495547156
33656.544265821
40388.252311859
45347.153494063
48622.229664752
50564.98245761
50744.50241556
50035.227670625
48519.796214845
46255.627288152
43436.2786064
40207.882826594
36756.7555507
33262.040692737
29863.645691417
26658.427744255
23716.201250621
21065.963927571
18709.383384865
16633.294148281
14814.995175656
13226.497373196
11842.159060863
10637.29829864
9585.0997528707
8660.9409389969
7852.9300541933
7143.1083541267
6517.7473462507
5963.1538056983
5471.4625172546
5034.3000609581
4644.1605462284
4294.1631597669
3980.112216713
3697.5653188257
3442.4860333551
3211.2867853383
3001.4007475899
2810.5761082039
2636.5529239745
2477.3928649413
2331.5344715131
2197.7094664699
2074.6257067869
1961.1491663784
1856.3481806586
1759.4455881559
1669.6850950418
1586.3714294079
1508.9016336376
1436.7747881612
1369.5333718597
1306.7575884684
1248.0415107441
1193.0368216192
1141.4498087635
1093.0181397387
1047.5003220349
1004.6693422481
964.32238385207
926.27804374583
890.37003927776
856.44454591331
824.35704847444
793.96713251994
765.1743426882
737.84182056916
811.87654035272
3751.0577617415
4952.6377289012
5150.5819055264
5269.9691213822
5356.548093959
5412.7801676624
5397.9656192205
5326.8614338198
5256.2568300292
5188.4463386387
5129.8581410478
5088.207134781
5070.2835164248
5081.6950739413
5115.6037042053
5175.2505215854
5256.0123842048
5352.4579420075
5458.8512127715
5569.6945438161
5680.1127436351
5786.1964000726
5884.9787029296
5974.7696001438
6055.5565932883
6127.5589028466
6191.9048921129
6250.2266226662
6304.1319346986
6354.6441468414
6402.0487950102
6445.9448924064
6487.0108682685
6526.688144603
6558.9400543168
6586.7914818074
6611.5687810008
6633.849417586
6651.2722067128
6663.3279058859
6667.5321420806
6662.2723934703
6639.4104085387
6606.8868678042
6567.5762808544
6523.6704255589
6477.2589811591
6427.7541660068
6374.7221374951
6321.3945938246
6269.0878772821
6218.1954278281
6170.3619124454
6124.2621520844
6084.8112383514
6048.6499377678
6020.8585930885
5998.8839345218
5987.4396447576
5974.6544577904
5967.9841591077
5970.2171800378
5971.8498438573
5951.2642001849
6054.1946561707
6108.281055674
6337.2508450832
6893.5741042995
9578.5920299908
7659.783049067
8405.7510690012
12951.525383771
18418.301341831
23457.97078937
27759.140895873
31226.75706426
33821.759024512
35626.269771424
36536.561172915
36430.810265413
35800.406984492
34576.394299604
32832.905761792
30718.993901592
28386.283873954
25971.025230134
23577.159073041
21285.741174834
19149.716196782
17197.045041271
15436.132134916
13862.929419827
12466.165611875
11230.331565522
10140.169231414
9178.5542698424
8330.3082896771
7581.3601560257
6916.8981221827
6327.192781798
5803.6018259891
5337.0186719493
4920.6846875675
4546.6493540559
4210.6711110448
3908.3866217173
3635.6094471061
3388.5354441337
3164.0950019898
2960.2394986608
2774.4363647713
2604.6785261664
2449.0604747492
2306.4268496382
2175.3293152564
2054.6283590906
1943.2043772459
1840.2075539773
1744.912999751
1656.5457382927
1574.4593809764
1498.0579780545
1426.8995331278
1360.5223784554
1298.5034010059
1240.4679465738
1186.0751964413
1135.0577542174
1087.1356809478
1042.0655680637
999.63866576526
959.65905560396
921.95837259809
886.36854246108
852.73510396093
820.91548580867
790.76504338574
762.18103365342
735.01828396275
812.88350755375
3757.0741416463
4935.6398867805
5124.8567220777
5237.067169387
5317.2419292103
5366.7456855532
5351.1810528174
5278.3917181879
5206.8395975553
5139.792229804
5082.1965665966
5041.5791152959
5024.9968274366
5038.6216348139
5074.0186069583
5135.5786966614
5218.5552820882
5317.2290470691
5425.8037730139
5538.8775659842
5651.7153315212
5760.5198991725
5862.3468997517
5955.4812915287
6039.6796435698
6114.7598595574
6181.7665215719
6242.272675826
6297.9481022095
6349.9209707993
6398.4068177214
6442.8901615624
6483.8591229883
6520.6516503794
6550.3173073165
6574.7898536142
6595.6978031518
6614.6664305008
6629.375712506
6640.3317011225
6644.3221641954
6636.0552898145
6612.8898817914
6582.141715828
6543.23255077
6498.4472557979
6451.2840870513
6402.5431114384
6351.998146931
6301.2058726032
6250.7289358547
6203.056175359
6157.5669389795
6114.6450724405
6077.4739736724
6043.3245841175
6018.4031167369
5998.7983499638
5990.2679370146
5978.0058597389
5971.7637598248
5980.9038643537
5974.3756579221
5947.1264926653
6034.220819112
6078.188990088
6255.5320811704
6763.7114653922
9276.6185845357
6983.0581804867
6967.8368530752
8417.3841341921
11583.489566132
15057.405815229
18335.436240882
21243.153492237
23689.093722019
25633.970264374
27009.480959479
27613.40166515
27764.242438226
27449.094963776
26631.801910825
25444.937294367
23981.567751799
22332.8178896
20611.789190363
18887.973325427
17219.265942373
15644.900389113
14186.906345186
12854.513835316
11649.418009785
10566.481994266
9597.2092671001
8732.4146922354
7961.5019488204
7274.0638403294
6660.6951946855
6113.074798547
5623.3405477251
5183.8194979145
4789.0168329088
4434.1696419587
4114.4035581278
3825.6082724866
3563.3690377368
3325.279222458
3109.0197877146
2911.9088468446
2731.9400472044
2566.8713625759
2415.6570212015
2276.7341570547
2148.8996241041
2030.9357606629
1921.9024768167
1821.1059952381
1727.67024482
1640.9580147846
1560.2734643864
1485.1496808635
1415.144613356
1349.7830762502
1288.6739777508
1231.4228044287
1177.7569557495
1127.4025123393
1080.0860420203
1035.5708144484
993.63339750391
954.10085396707
916.80911872662
881.58950380698
848.29574371146
816.78930999059
786.92333899723
758.58304313193
731.61806168454
816.19600152828
3775.5418956772
4920.584503709
5098.2359856625
5201.0816354574
5273.0726687195
5314.7556651653
5299.2178652516
5225.0499089459
5150.8762918593
5083.5930152937
5026.4961975934
4986.6869502364
4971.3944091679
4987.2795090126
5024.7910155834
5088.7960443832
5174.6114020467
5276.1768224713
5387.5360361231
5503.3121754153
5618.8997385956
5730.6357398904
5835.6701060899
5932.4539881741
6020.0748539068
6098.2955864059
6167.9255488378
6230.3913382875
6287.401010495
6340.2907979536
6389.4278980563
6434.2727125202
6474.9718294374
6508.9962402191
6536.9406572783
6558.8329420954
6576.1918383669
6591.8605505575
6604.2665282205
6614.8431633986
6618.7365974132
6607.0707610217
6583.927697828
6554.8293887179
6516.7372632194
6470.7879662147
6423.5959655377
6375.7601201623
6325.2928019074
6278.1429782001
6231.8754104329
6189.2372889001
6146.9531878079
6107.5265104797
6071.916431435
6038.5157073896
6012.4591545669
5992.48772574
5982.5039319116
5973.5772846677
5970.2796993859
5972.5642387031
5968.0683467645
5948.6512441327
6012.964868944
6058.7882352379
6194.6650681686
6629.8685283208
8843.5218463766
6340.9454120363
6341.1538118103
6571.6766744926
8156.2899091713
10468.42125676
12866.514564372
15154.287423616
17218.478995745
18969.774336052
20351.962759229
21336.50402524
21889.478427402
21908.253582792
21671.65762217
21089.160174843
20199.949029551
19126.435462183
17922.652714589
16651.114643766
15371.072428155
14125.787714551
12940.954030508
11833.611209908
10811.755064197
9877.1353843049
9027.9111639849
8259.9406097781
7567.6275554154
6944.304893526
6383.2941094476
5878.3805630865
5423.6840854573
5013.9287463677
4644.1502090441
4309.6413532685
4006.3844036662
3731.4671407474
3481.6362897475
3254.2196852863
3046.9317173883
2857.0581358968
2683.1824565171
2523.8964129315
2377.5286474148
2242.8959760014
2118.5395351165
2003.6845365383
1897.5244170992
1799.1359524662
1707.8685250035
1622.9337841805
1543.8916873905
1470.2717849124
1401.5686966963
1337.381258219
1277.2641455249
1220.9485912975
1168.1439856339
1118.5516770373
1071.9287981773
1028.0250451454
986.66469731309
947.66986984134
910.85308831057
876.06383078164
843.15302622446
811.99061495807
782.45544520224
754.41489648926
727.63352454166
824.13913626193
3814.7863216306
4910.6066881776
5073.7694446643
5165.271945547
5227.6697045044
5260.7533729803
5244.3824598496
5170.5050454265
5091.6364212623
5022.4876943899
4965.0281918808
4925.565171004
4911.3310305435
4929.292836996
4969.298295106
5036.1547171711
5125.3198097626
5230.3325198191
5344.9921379019
5463.8521151488
5582.4101403115
5697.0969143467
5805.3377504525
5905.6296088919
5996.5024509578
6077.6653733191
6149.6393649044
6213.6833063204
6271.5311710835
6324.7184990767
6373.8809211925
6418.6792749482
6459.3634853517
6491.2524425781
6517.9258973682
6537.4823671516
6551.5556158563
6564.1092191828
6575.0521967047
6585.7081244947
6588.6586541544
6575.1499636255
6549.8578813906
6520.8628676004
6483.4235448564
6437.3255768857
6395.488349264
6348.4140461028
6302.6999726014
6255.9592806468
6208.6670194804
6165.7950820519
6125.5053205261
6092.5349631421
6063.7283698813
6040.0811286089
6025.3731714888
6009.9901582667
6001.6222158268
5992.475415678
5991.5726785096
5985.3672703515
5984.1886522528
5982.4158460352
6002.0417641753
6036.1054172934
6133.8290067372
6464.1224927067
8266.5917538293
5815.700425148
5801.1137753764
5761.3689026686
6349.512822319
7788.0519441106
9518.6012232957
11278.472839129
12949.815524768
14429.132855774
15693.802979562
16662.18507045
17354.91479339
17718.265904257
17734.800577472
17527.728260235
17043.908526569
16363.096754199
15539.132795081
14623.687262654
13662.03906423
12691.629688908
11742.452162599
10834.000778018
9978.4715427612
9182.1749039043
8447.2739818188
7773.0886849983
7157.8609597384
6598.3388575828
6090.2174918063
5629.1223525675
5210.8344588288
4831.331126422
4486.835121642
4173.6967742201
3888.7940969616
3629.3056844914
3392.4132506115
3175.7149336633
2977.5648605741
2796.0378118924
2629.450652478
2476.3997016484
2335.1490107015
2204.8141702175
2084.5519624816
1973.2822872577
1870.231539065
1774.5067803519
1685.42478123
1602.6244623045
1525.4714889317
1453.5174797294
1386.273266507
1323.3092415045
1264.3860626578
1209.1437394243
1157.2927011668
1108.5677528746
1062.6907047327
1019.5017136577
978.79867939995
940.39170376004
904.1184477317
869.79933272497
837.31347775532
806.55073058555
777.38720391605
749.68692925962
723.08741034972
841.23769058411
3882.285149467
4909.2786325266
5054.7669345383