/*--------------------------------*- C++ -*----------------------------------*\
| =========                 |                                                 |
| \\      /  F ield         | OpenFOAM: The Open Source CFD Toolbox           |
|  \\    /   O peration     | Version:  2312                                  |
|   \\  /    A nd           | Website:  www.openfoam.com                      |
|    \\/     M anipulation  |                                                 |
\*---------------------------------------------------------------------------*/
FoamFile
{
    version     2.0;
    format      ascii;
    arch        "LSB;label=32;scalar=64";
    class       volScalarField;
    location    "7e-05";
    object      pTsat;
}
// * * * * * * * * * * * * * * * * * * * * * * * * * * * * * * * * * * * * * //

dimensions      [1 -1 -2 0 0 0 0];

internalField   nonuniform List<scalar> 
109340
(
387969.7241594
386473.52423097
383583.24333679
380102.91037897
376290.43789966
372356.53904251
368383.2179861
364420.69087677
360557.10466875
356781.65923734
353040.47375964
349329.95779828
345653.66317983
342014.04353389
338412.8155682
334851.50359578
331329.51752329
327844.46561387
324391.54409569
320963.99472887
317551.74641819
314143.83787941
310727.81081716
307288.70842023
303806.65520255
300255.8285333
296601.78676992
292798.23546641
288781.62740074
284462.80418177
279713.44501642
274343.14569481
268064.0475653
260449.67026734
250909.85115027
238705.58316385
388220.72185325
386280.87992981
383033.40570356
379321.05044463
375405.78431558
371468.14537096
367560.12975177
363692.38828011
359861.41596118
356070.29505623
352313.44673461
348591.80143931
344907.81010153
341263.00117446
337658.36612329
334093.51483174
330568.47053813
327080.27985848
323623.32443634
320189.75648617
316769.28139815
313350.68948626
309921.15765828
306464.90319261
302960.90549269
299381.48876621
295689.72589408
291835.60410617
287749.96238653
283334.94590667
278447.95025729
272872.92184745
266270.73460621
258117.04887366
247554.9423282
233664.08548959
389095.51585338
386835.90689725
383251.39768206
379447.97281404
375564.50804632
371681.05676446
367790.33186888
363904.69460671
360049.01268338
356230.88132445
352449.29992558
348704.83542965
344999.32105203
341334.26891373
337711.2287119
334131.28447209
330594.1491466
327096.967163
323633.63655371
320195.93679229
316772.78594061
313352.7910284
309922.95867104
306467.35022011
302964.75623647
299387.26666401
295697.82177544
291846.30184294
287763.39204214
283350.59877353
278463.78265493
272880.65896728
266234.0622555
257911.90220345
246817.50288577
231195.53667308
390316.89557367
387573.25071723
383798.57901465
379881.00195269
375916.89065561
371947.55568405
367987.5257619
364051.05833009
360154.50649436
356303.49991392
352497.55885319
348736.13075712
345019.36864741
341347.57155498
337720.97495407
334139.54034804
330602.51355302
327106.63899073
323644.90168646
320209.29504139
316787.29727165
313368.06874781
309938.95003374
306484.01752896
302982.59003368
299406.65880324
295719.24978013
291870.26832229
287790.22923457
283379.73646917
278492.72452203
272901.4600331
266201.97752557
257669.90891733
245811.10441642
227265.33707561
392250.78843194
388650.9392429
384306.39392279
380112.85876318
376037.17187575
372027.09543409
368053.54104405
364118.50329288
360225.47698792
356374.87512145
352568.28723469
348806.14791261
345088.79210221
341416.65930492
337790.23183324
334209.94878708
330676.06864847
327186.52872708
323727.57226468
320297.87318892
316879.66009457
313463.63681479
310037.63165472
306585.33332903
303087.06743523
299514.62963058
295831.12433092
291986.43144264
287910.73801253
283503.53075607
278612.94749818
273019.08751068
266270.34620411
257533.76974401
244815.87203378
221817.65341039
395883.92322125
389223.97230853
384426.43369136
380143.03412203
376062.10927777
372060.6924737
368097.59715224
364165.38871819
360270.2886652
356413.78236847
352598.56640657
348825.49100005
345095.09697303
341407.88731982
337764.43693501
334165.44750689
330611.93380651
327110.3294002
323675.52949909
320240.34073799
316814.50848964
313391.43429943
309959.12653858
306501.80603461
302998.75168393
299422.0210597
295734.48542516
291886.0129902
287806.83723116
283396.01814958
278490.66711332
272900.16909817
266126.80553714
257291.63674596
244106.81007466
216272.14253417
223981.80487715
209257.064126
196942.37592594
186942.21156164
178160.86286164
168629.30653239
158073.98955948
146406.43641242
133766.30397764
120411.2123242
106258.2230472
93206.228319418
80765.944243627
69265.631660252
59190.347370251
50419.901762909
42936.731911025
36619.984564184
31314.435934915
26898.328190068
23233.614248052
20166.90601027
17598.150529031
15445.986432757
13619.576197781
12063.439246404
10779.578982357
9632.0387435223
8649.9881192358
7826.9690626233
7069.3804718714
6456.0583931754
5869.6649877921
5395.9786587217
4937.4540511186
4564.5425532761
4200.6866063841
3903.002044052
3610.2982650766
3369.525337688
3132.182406736
2934.0240643836
2741.2023517914
2574.779973245
2418.5653963424
2275.3687842833
2147.1358936228
2024.0951192224
1916.250963688
1812.8360357892
1718.7538046911
1631.1586209695
1550.068274835
1474.7226390721
1404.596121211
1339.1790460721
1278.0723964746
1220.9107948539
1167.3855014957
1117.1948802794
1070.0601265952
1025.7316425676
983.9991011411
944.67687920275
907.59074212352
872.57803714135
839.49578712499
808.21121417826
778.57509074242
750.47706229253
741.68995472124
2802.4599252275
4907.5002293361
5181.4064823215
5322.0060918436
5422.661980243
5494.6325196683
5512.0417201871
5451.1575240154
5378.4750945382
5304.3199694472
5238.3037899031
5188.5166132229
5160.9231826677
5162.3842736306
5197.9619097204
5255.903400049
5334.4600670916
5428.5347555885
5531.9061703796
5638.888639646
5743.858677337
5842.6560500959
5932.7772090914
6013.7366774759
6084.5147272826
6147.9694430555
6204.4416899213
6255.710557141
6303.4869875342
6348.9400639264
6392.4236463346
6433.9068847097
6473.2308913668
6520.4115144972
6557.8773884813
6595.1970908614
6633.0250321031
6669.4502625008
6700.579049553
6722.0790417147
6732.7380019063
6733.8873127015
6724.6934068389
6698.0065719505
6658.9088528675
6617.6248145762
6571.5464580685
6517.8568481979
6458.918156052
6391.3335888273
6326.6224534273
6260.7333967691
6197.9491200145
6138.4204985509
6082.5031668936
6037.6843407273
5997.3167565799
5975.2885073222
5956.9485227113
5946.6588737182
5936.0440661125
5916.5514762831
5954.8659905116
5989.8634190418
6079.3795961808
6184.4792610288
6558.6863578335
7094.0139956939
9208.2992793398
216422.5374318
200872.52804069
189242.35300015
180206.60809396
170867.29080888
161036.24400568
150136.66505795
138355.15886113
125881.36916034
112971.61873672
100007.39275081
87258.487271365
75793.39965193
65294.875807715
55903.125284011
47763.910499862
40779.26554699
34865.272824753
29904.251766608
25754.463861521
22286.671856002
19388.212270337
16956.131056484
14905.890293335
13172.010026555
11697.980754812
10437.108715863
9357.1395816229
8421.5920316751
7612.3721423599
6906.0740650019
6288.7142838826
5745.7808587891
5265.6473816001
4840.8140062574
4461.9333203936
4124.293288973
3821.1959079741
3549.275550583
3303.8785130724
3082.1406627966
2881.313935811
2698.4270189386
2532.2760264617
2379.9546985963
2241.1210644014
2113.1066157476
1995.9329964802
1887.5283936332
1787.7458816791
1695.2063962721
1609.4692789031
1529.8761218282
1455.8695604155
1386.9840371985
1322.700694185
1262.6533506146
1206.4672538889
1153.8298170761
1104.4424606834
1058.0491273609
1014.4123323931
973.32381162833
934.5937970445
898.05426056944
863.55090616451
830.9365705135
800.07937913807
770.86039460959
743.20100497117
812.39991251496
3746.559772028
4996.7354659396
5205.7701080573
5335.4305464648
5430.2159544124
5497.42611431
5492.3280325769
5425.7864407547
5353.1270799606
5281.1737420136
5219.3530157514
5175.3424824565
5154.7552544064
5160.8080929689
5195.1624853963
5252.2540623607
5329.7859081556
5422.6675751893
5525.0382848658
5631.1358776471
5735.5330296347
5834.2347062814
5924.505511133
6005.6331698849
6077.0156720147
6140.8807523686
6197.7768577451
6249.5443565535
6297.9082431262
6343.9165121347
6387.8628424853
6429.6235704452
6469.0145014215
6515.7910634845
6552.6165390219
6589.1082133135
6625.7839854771
6660.759089265
6690.3500515904
6710.7857263174
6720.64075425
6721.3361397253
6709.734240926
6680.7953078866
6641.6750398796
6599.0938078486
6551.7839477235
6498.3439785542
6439.4948438289
6373.1771471708
6310.411402452
6245.7309992583
6184.533285669
6126.2782033694
6072.9463937034
6029.6207193752
5992.1626958227
5971.3705584612
5953.9259070016
5944.5742823588
5929.8390341214
5911.4556851435
5953.1109693403
5983.0196341621
6071.9311840523
6175.2406490957
6554.1291914685
7097.1873741882
9319.7272178632
209901.8992695
191561.14155972
181010.31545407
171696.75491976
161704.39886203
151482.38697074
140804.36720188
129564.92583565
117945.46358831
105836.71187385
94513.171608713
83297.802209284
72724.340866943
63014.118352981
54261.887234093
46553.655413884
39894.809486629
34230.911057309
29446.526518331
25412.44018563
22028.008974248
19193.562173593
16806.357431246
14788.904957083
13081.117266424
11626.536367072
10380.055637658
9309.4585774322
8385.4613583862
7581.0355347157
6881.1989962545
6266.9188061545
5727.7898723503
5250.3922052639
4827.8423999908
4450.8773763592
4114.8343982538
3813.0540240268
3542.3424059262
3297.6707288434
3077.0922280298
2876.4938367043
2694.6749472239
2528.5230503077
2377.1050123594
2238.1700442927
2110.7738609608
1993.5929925689
1885.5158704359
1785.8422609517
1693.5021882496
1608.0193016623
1528.5245660523
1454.6374102076
1385.8159593029
1321.6301635827
1261.6734188836
1205.5725372093
1153.0057136364
1103.6810729463
1057.3466792757
1013.7656551548
972.72689499903
934.04102772341
897.54302765783
863.07894568532
830.50023003722
799.67390317828
770.48954093433
742.84724730644
812.03431747627
3747.1364253967
4994.0033428189
5202.2938967466
5331.4755250947
5426.0406071788
5492.8629827993
5486.5208679783
5419.5884631547
5347.2637758956
5275.7470806867
5214.1753149438
5170.2561613805
5149.7937014248
5156.8996978047
5190.6973142646
5248.0755144632
5326.1416686441
5419.8589194174
5523.1791892603
5630.1727400042
5735.7335143476
5835.8723370191
5927.8251448166
6010.2916419076
6083.4954004241
6148.3340110036
6206.1376383188
6258.6581101004
6307.5493406715
6353.7931250533
6397.8329504555
6439.5802911525
6478.9124828861
6525.5001205696
6562.1133480094
6598.350178968
6634.5277745367
6668.9059287455
6697.9881657166
6718.1674316778
6727.8743080185
6728.4884985006
6713.4919198637
6684.4260927111
6646.2953047291
6602.8443130349
6555.5341475136
6502.2562288141
6442.6535260301
6377.6945349289
6315.8238359904
6251.8057107987
6191.4034089816
6134.8912957457
6082.8032817614
6040.2720424735
6002.9703269199
5981.1649343375
5962.7017083348
5954.0773124932
5933.1646056072
5914.0039106351
5965.9510599478
5986.4519150207
6072.4289031368
6153.6331264092
6523.4487173975
7062.5071717716
9570.7985999773
197659.58012423
176294.79137484
166058.87966109
155501.44375325
146414.76636515
136512.64797771
126828.14996003
116974.49108987
107016.11129001
96581.906429862
87541.649440397
78001.73117313
68707.131233999
60007.677014235
52011.167859498
44910.90973512
38707.940250223
33354.362579533
28793.755075744
24939.487225744
21681.28194453
18920.810752494
16597.232370389
14630.314218251
12954.914786232
11524.77964262
10300.551282116
9244.9360466137
8331.8104652292
7538.1533364892
6844.9490952164
6237.1598763577
5701.9384869299
5229.2748917339
4809.2295729368
4435.6303063746
4101.3267629203
3801.8903196168
3532.3382762699
3289.4579570381
3069.5888270414
2870.227519365
2688.9927772732
2523.6610873228
2372.7152444683
2234.2467141005
2107.3596654971
1990.4129572145
1882.7656319932
1783.2287240022
1691.2077664706
1605.896462308
1526.6511402288
1452.9334324141
1384.2394224568
1320.1848116679
1260.33668834
1204.3430844322
1151.8749962151
1102.6450155893
1056.393251447
1012.8843777307
971.9111623396
933.28889442947
896.85085613824
862.44017343095
829.90892333085
799.12631800415
769.98244356084
742.36831777789
811.98631681362
3746.4053369658
4989.7093970207
5197.2516187848
5325.6951356901
5419.8637465373
5485.987674607
5478.1904572608
5410.6759623317
5338.7837607471
5267.7663635373
5206.5166195059
5162.7624108452
5142.4819117806
5149.9162019371
5183.2285140501
5240.592506447
5318.7424858458
5412.5256596841
5515.9582596122
5623.2109843958
5729.2940072514
5830.192670787
5922.9896618749
6006.2592895948
6080.3501968451
6145.9659763357
6204.4578802462
6257.5406857034
6306.8444760903
6353.4310644703
6397.7843278679
6439.8193552623
6479.2153619468
6525.2284776815
6561.2887274327
6596.7109606713
6631.8237832559
6665.1484943385
6693.1449412882
6712.4193310368
6721.3152009656
6721.2374253454
6704.6880755274
6674.8557970881
6636.2993355073
6592.4198595262
6545.4819916319
6492.5663810663
6433.4398202278
6370.4782725302
6309.4190622295
6246.8805238199
6187.7779883826
6132.8725275895
6082.3722756917
6040.8726647621
6004.9639111638
5982.9411649735
5964.8646947886
5956.062395795
5933.5832518271
5920.8745653861
5970.7859255642
5985.6581257365
6069.7434004341
6148.0859573607
6500.1037815611
7051.7253717044
9638.2732029699
171176.10205497
151350.93393623
140133.21511192
130599.79329727
123409.95569587
116146.55066603
109119.37501559
102240.85123851
95011.540111125
87594.383319363
79810.056508832
71825.664682215
63942.647829666
56392.653287931
49353.293042584
42933.255483939
37237.623609982
32277.424530891
27998.603466384
24336.909384296
21224.402275164
18586.832978121
16334.612438798
14422.011495366
12792.698147454
11398.309076594
10197.283139907
9161.5424805144
8263.7780558633
7482.4073540621
6798.4815232592
6198.5920774885
5669.4146722681
5201.5216718771
4785.8843263416
4415.658415683
4084.238424508
3787.2333845988
3519.765160425
3278.5574578981
3060.0599083058
2862.0412707125
2681.6826423705
2517.3438819665
2366.9849551115
2229.2966753868
2102.8220155264
1986.3968810598
1879.1133023889
1779.9415916562
1688.2449019812
1603.1596371574
1524.1960579099
1450.7075398861
1382.2324538199
1318.3327173682
1258.6231215594
1202.7633557918
1150.4237863551
1101.3125613517
1055.16353587
1011.747573258
970.86233770237
932.3229096697
895.95932977806
861.61583827208
829.14665265123
798.4202926476
769.32499348409
741.75061096565
811.93647018703
3745.9529894575
4983.8970078699
5190.6280478591
5318.0984879135
5411.5922308119
5476.6004324148
5467.1382450269
5398.9896366224
5327.5528643507
5257.1302150286
5196.299713839
5152.8114319274
5132.8331508069
5140.9032597662
5174.0986753056
5231.7173266834
5310.1334705525
5404.2417772796
5508.1248281172
5616.005734625
5722.8204734223
5824.5236040608
5918.2366529373
6002.4301817469
6077.5357031632
6144.1059116055
6203.4642669772
6257.3103444496
6307.3061911437
6354.6350206774
6399.5754937567
6441.9576970954
6481.3443897484
6526.454397848
6561.5900869413
6595.823457199
6629.6964081465
6661.8505271753
6688.5384851798
6706.6980341405
6714.6958322494
6714.0817449631
6696.2788517163
6665.4101958731
6626.1455467881
6582.4973598723
6536.1618618338
6484.0222998174
6425.818554034
6364.4176733663
6304.594792559
6243.6247749722
6186.0060283176
6132.5784217103
6083.5233712114
6042.7109833434
6007.9038521282
5985.6429555993
5967.9371683879
5959.212077203
5938.6928256222
5926.0235366537
5973.125864703
5982.1257579111
6067.9647853101
6140.8960076908
6474.8120791848
7037.8468185251
9674.6608955949
103614.42960342
99975.801844907
98725.042255481
98391.911720556
97325.206446527
94956.306461545
91632.763666017
87854.559698961
83092.521997517
77612.902228048
71586.548666348
65279.170588533
58820.516307261
52435.88524307
46344.947918103
40693.180396756
35572.489974133
31028.962271661
27062.77403323
23634.602927267
20690.411540714
18170.869459403
16022.439836718
14177.342017137
12597.584470519
11241.725257056
10074.261339465
9060.7354596804
8180.6875899413
7413.95022873
6742.6306328936
6151.1805219269
5629.8417570695
5168.0881832889
4757.5312689473
4391.1754483948
4063.6220752061
3769.3834471063
3504.4074332937
3265.1609697431
3048.5772069749
2851.8824920244
2672.7960183978
2509.4863455222
2360.0628379535
2223.144765113
2097.2536322302
1981.4704032726
1874.6419383875
1775.9499797976
1684.5770534165
1599.8436584907
1521.1822995034
1447.9741305845
1379.7580555564
1316.0612834541
1256.5440175542
1200.8492207877
1148.6569653595
1099.6767836499
1053.6527432433
1010.3587199774
969.5836316929
931.14058748248
894.86469502266
860.60445739149
828.21287005958
797.55398238759
768.51771910272
740.99067404389
811.87558831919
3746.3575858625
4977.0483842231
5182.507158765
5308.6612832787
5401.1299292946
5464.5891787393
5453.4126541655
5384.6289400101
5313.5868266038
5243.825675878
5183.5002229791
5140.3742897217
5120.7818732874
5129.4281034204
5162.499311544
5220.3766139077
5299.0805152832
5393.4615486208
5497.6846850906
5606.0719806293
5713.6009050814
5816.24419815
5911.0735488709
5996.5198211389
6072.9199190777
6140.7675903683
6201.3389394709
6256.3257754389
6307.353102561
6355.4131947323
6400.8525899746
6443.4474484117
6482.7906806675
6527.0750852793
6561.4833855089
6594.8514210541
6627.461495321
6657.9042870365
6682.5948511489
6699.1245946223
6705.8744935327
6704.5010668016
6685.1541786729
6653.3580118159
6613.7889376741
6570.3419833499
6524.5739633505
6473.3418883177
6416.288037669
6356.9945283089
6298.7718304215
6240.026566953
6184.3334675703
6132.7387573813
6085.2969862886
6045.4894825355
6011.82279943
5989.5883400232
5972.6441672812
5963.8797276486
5944.8045360207
5934.7289996409
5975.0575103226
5978.4004696667
6068.5145412374
6136.0917694911
6448.8583049841
7016.9016804986
9685.2368969868
10054.756887371
46000.826069105
60017.033854438
68564.576884198
73709.935487074
76059.779761523
76056.947818276
74609.852703493
72086.774337834
68670.615167451
64560.032435236
59903.275189288
54864.96717261
49642.691975884
44449.355242893
39474.126085383
34839.27052889
30631.800181742
26885.350030177
23596.425970967
20736.723014329
18266.275452396
16137.526624413
14311.542714328
12734.997266529
11371.234554492
10195.647774913
9177.1915962254
8289.3448552766
7512.1152808821
6832.4556343378
6234.7500815274
5706.1450088106
5237.2831585855
4820.9929695207
4449.5793711835
4116.8695892094
3818.1890693435
3549.4125299172
3306.5648170484
3086.5781059771
2886.8974349021
2705.2106209454
2539.3940293436
2387.6897921054
2248.7076728604
2121.0201747802
2003.5340533294
1895.1109548961
1795.0060272459
1702.3483582031
1616.4576378038
1536.6765389193
1462.4556207311
1393.3433955759
1328.839816325
1268.5570856658
1212.1249679212
1159.255863934
1109.6640613646
1063.080011272
1019.2623561852
977.99776732656
939.10485901715
902.41236285361
867.76223724466
835.01015881085
804.02765144834
774.67694660333
746.84509713239
736.40096473035
2835.9097530042
4863.9802932593
5134.4891512607
5270.08198327
5368.1588769072
5438.5930794766
5449.8298862869
5385.3778672308
5314.7127605086
5244.6019706995
5181.755467797
5134.1380195421
5108.503895775
5115.8183364214
5149.0107151216
5207.3513439235
5286.5987552329
5381.5361422324
5486.3740475812
5595.4965260804
5703.899364593
5807.5931254834
5903.6349090624
5990.4052888184
6068.1441362189
6137.2865127985
6198.9970118806
6255.0070271556
6306.9231007027
6355.8362641026
6401.9083147825
6444.6882512179
6485.3768166231
6527.3018371254
6561.132148072
6592.5994865997
6622.1453017572
6648.9164158205
6670.1332768186
6684.3546513297
6689.6822551295
6686.9855156132
6665.9105842485
6633.1296739867
6593.4531444879
6550.0875625975
6504.3614984719
6453.9618101783
6398.9124848106
6342.4898811791
6287.1407659176
6231.3518092781
6178.817887432
6129.4409838989
6085.0525690768
6047.1879764895
6016.1663162051
5994.3777041951
5979.2314001387
5969.0050716255
5956.2806031851
5950.1543778668
5974.0466063386
5967.1343500831
6067.5736054665
6128.6860849455
6405.2763495963
6971.3993886849
9648.5054347406
7911.8080103949
14646.657155753
25061.495451105
33656.544187441
40388.252390474
45347.153581874
48622.229607305
50564.982693126
50744.502484737
50035.227628097
48519.796545288
46255.627281697
43436.278513686
40207.882733143
36756.755439305
33262.040562294
29863.645553952
26658.427611016
23716.201123799
21065.96378251
18709.383254419
16633.293993526
14814.995042774
13226.497251237
11842.158952481
10637.298151501
9585.0996302053
8660.9408182635
7852.929924404
7143.1082294006
6517.7472350051
5963.1536988103
5471.4624015206
5034.2999653682
4644.160451893
4294.1630918351
3980.1121396473
3697.5652545809
3442.4859631916
3211.2867227831
3001.400682875
2810.5760369623
2636.5528631834
2477.3927896905
2331.534415111
2197.7093971298
2074.6256538384
1961.1491057869
1856.3481234052
1759.4455337084
1669.6850344653
1586.3713804902
1508.9015760118
1436.7747389571
1369.5333207909
1306.7575401595
1248.041468201
1193.036779397
1141.4497729105
1093.0181045545
1047.5002895811
1004.6693110603
964.32235322931
926.27801354534
890.3700088374
856.4445153526
824.35701607629
793.96709709996
765.17431309388
737.84179802089
811.87453675161
3751.053179932
4952.6373815236
5150.5818419885
5269.9690471641
5356.5480058898
5412.7803959639
5397.9657521501
5326.8614430996
5256.2568487895
5188.4463691771
5129.8581811304
5088.2071794574
5070.283559934
5081.6951606886
5115.6037211028
5175.2505260252
5256.0123822095
5352.4579392846
5458.8512135894
5569.6945500134
5680.1127540075
5786.1964118678
5884.9787090502
5974.7696212141
6055.5566142409
6127.55891421
6191.9048950422
6250.2266223446
6304.131934747
6354.6441509244
6402.0488042175
6445.944905825
6487.0108706419
6526.6882350143
6558.9400580989
6586.7915016409
6611.5688074886
6633.8494463129
6651.2722294425
6663.3279144965
6667.5321437832
6662.2723503967
6639.4103611047
6606.8868222794
6567.5762516446
6523.6704293774
6477.259017571
6427.754237269
6374.722244891
6321.3947482225
6269.0880756237
6218.1956733852
6170.362215621
6124.26252967
6084.8116665503
6048.6504454658
6020.8591208993
5998.8845181539
5987.4402309963
5974.6550666728
5967.9847653718
5970.217663279
5971.8502485985
5951.2646625519
6054.1950515164
6108.2814797034
6337.2522430442
6893.575151283
9578.5918197677
7659.7830606986
8405.7510743
12951.525422426
18418.301394333
23457.97079567
27759.141032198
31226.757098256
33821.759032967
35626.2698723
36536.561902668
36430.811012248
35800.408012714
34576.393870332
32832.904714618
30718.993443947
28386.283683143
25971.025178783
23577.159065447
21285.741109269
19149.716096452
17197.044911419
15436.131990139
13862.929283099
12466.165485706
11230.33144458
10140.169115242
9178.5541472373
8330.3081715489
7581.3600535203
6916.8980136293
6327.1926867966
5803.6017306225
5337.0185727803
4920.6845797925
4546.6492516097
4210.6710290951
3908.3865459174
3635.6093765873
3388.5353812709
3164.0949394932
2960.2394312911
2774.4363011258
2604.6784572829
2449.0604159863
2306.4267859477
2175.3292589531
2054.6282988368
1943.2043186299
1840.2074961786
1744.9129388856
1656.5456826721
1574.4593216855
1498.0579233584
1426.8994779838
1360.5223248329
1298.5033522392
1240.4678996383
1186.0751561725
1135.0577162428
1087.1356467689
1042.0655361217
999.63863399208
959.65902472486
921.95834133236
886.36851171487
852.73507414759
820.91545487471
790.7650057837
762.18100845127
735.01820105286
812.8813666546
3757.0695039344
4935.6395179495
5124.8566288792
5237.0670820852
5317.2418407441
5366.7458902393
5351.180840583
5278.3917199953
5206.8396090972
5139.7922522925
5082.1966011436
5041.5791582018
5024.9968784097
5038.6217249396
5074.0186287245
5135.5787060839
5218.5552840956
5317.2290464029
5425.8037732633
5538.8775692709
5651.7153380161
5760.5199070348
5862.3469087886
5955.4813213016
6039.6796677341
6114.759875601
6181.7665309775
6242.2726824758
6297.9481104161
6349.9209843619
6398.4068369605
6442.8901819982
6483.8591295111
6520.6517359248
6550.3172894409
6574.7898472967
6595.697802681
6614.6664339696
6629.3757157428
6640.3316919908
6644.3221486226
6636.0552297786
6612.8898260317
6582.1416767227
6543.2325292448
6498.4472611896
6451.2841298881
6402.5432039417
6351.9983109227
6301.2061039618
6250.7292120992
6203.0564941112
6157.5672819195
6114.6454974015
6077.4744183243
6043.3250604375
6018.403637845
5998.79890801
5990.2685294291
5978.0064393298
5971.7643346874
5980.9043304907
5974.37602092
5947.1268925308
6034.2212379184
6078.1893628666
6255.5335442707
6763.7125680105
9276.6180658067
6983.0582039898
6967.8368937245
8417.3841174197
11583.489589334
15057.40584308
18335.436363391
21243.153605015
23689.093767812
25633.970902577
27009.480092035
27613.405893588
27764.243411081
27449.093591813
26631.804187549
25444.937876367
23981.567449885
22332.818252229
20611.789086668
18887.973166478
17219.265749127
15644.900229665
14186.906246218
12854.513741309
11649.417924783
10566.481906417
9597.209163293
8732.4145691129
7961.5018133736
7274.0637182941
6660.6950805369
6113.0746988276
5623.340451357
5183.8193899791
4789.0167348481
4434.1695477274
4114.4034869506
3825.6082064714
3563.3689712631
3325.2791606713
3109.0197264773
2911.9087855626
2731.9399814951
2566.8713012692
2415.6569594044
2276.7341002532
2148.8995659156
2030.9357023753
1921.9024195154
1821.1059378022
1727.6701901639
1640.9579580693
1560.2734103326
1485.1496256733
1415.1445581284
1349.7830238053
1288.6739264326
1231.4227585405
1177.7569135884
1127.4024747879
1080.0860082081
1035.5707821383
993.63336654781
954.10082310272
916.80908806928
881.5894740443
848.29571573288
816.7892823912
786.92330243269
758.58301554535
731.61798042438
816.19366401258
3775.5371800159
4920.5840929561
5098.2358688656
5201.0815287327
5273.0725708421
5314.7558193143
5299.2181404521
5225.0499060203
5150.876296331
5083.5930276119
5026.4962226474
4986.6869865286
4971.3944522858
4987.2795999118
5024.7910399853
5088.7960564111
5174.6114056762
5276.1768210686
5387.5360322696
5503.3121712667
5618.8997357235
5730.6357354391
5835.6701211608
5932.4540187821
6020.074879517
6098.2956069428
6167.9255650766
6230.3913526803
6287.4010272531
6340.2908207002
6389.4279259794
6434.2727380045
6474.9718364116
6508.9963236896
6536.9406261138
6558.8329196487
6576.191822158
6591.860544762
6604.2665333391
6614.8431555747
6618.7365842105
6607.0707149892
6583.927657172
6554.8293597836
6516.737259708
6470.7879912271
6423.5960442697
6375.760241528
6325.292983691
6278.1431870722
6231.8756906059
6189.2375820666
6146.9534897458
6107.5269045412
6071.9168233463
6038.5162079943
6012.4596382471
5992.488154018
5982.5043799043
5973.5777090723
5970.2801445365
5972.5646508577
5968.068641466
5948.6514826537
6012.9650159644
6058.7882136874
6194.6662646505
6629.869711592
8843.5227672693
6340.9454344012
6341.1538343646
6571.6767004174
8156.289966665
10468.421259536
12866.51461832
15154.28745964
17218.478994209
18969.774580599
20351.964210832
21336.500519902
21889.473226984
21908.250839335
21671.662096764
21089.159011667
20199.95083824
19126.435363709
17922.652142275
16651.114715694
15371.072381495
14125.787617014
12940.953931881
11833.611071729
10811.75491753
9877.1352676555
9027.9110579738
8259.9405040857
7567.6274526593
6944.3047923107
6383.294007291
5878.380464406
5423.683990748
5013.9286633959
4644.1501302909
4309.64128045
4006.3843262879
3731.4670641142
3481.636223213
3254.2196161164
3046.9316525968
2857.0580683075
2683.1823982612
2523.8963494908
2377.528586569
2242.8959162798
2118.5394736319
2003.6844789167
1897.5243604276
1799.1359007152
1707.8684736033
1622.9337359843
1543.8916368383
1470.2717334311
1401.5686459927
1337.3812073347
1277.2640971198
1220.9485463324
1168.1439440385
1118.5516392047
1071.928763404
1028.025013075
986.66466621796
947.66983936784
910.85305866306
876.0638021884
843.15300059376
811.99059247046
782.45541560106
754.41486898759
727.63354264102
824.13643557474
3814.7815835783
4910.6061904643
5073.769300621
5165.2718173937
5227.6695907831
5260.7534648298
5244.3827480415
5170.5050472972
5091.6364240256
5022.487698234
4965.0282056915
4925.5651955275
4911.3310625188
4929.2929243051
4969.2983169542
5036.1547277907
5125.3198106497
5230.3325128892
5344.9921247575
5463.8520977812
5582.4101222256
5697.0969078109
5805.3377729478
5905.6296318099
5996.5024748025
6077.6653964448
6149.639386695
6213.6833278471
6271.5311952626
6324.7185287547
6373.8809553902
6418.6793055493
6459.3634946529
6491.2525254124
6517.9258573373
6537.4823348356
6551.5555936201
6564.1092200164
6575.0522213272
6585.7081386697
6588.6586816702
6575.1499656793
6549.8579137912
6520.8628854795
6483.4235832636
6437.3256573288
6395.4884475124
6348.4141703875
6302.7001713167
6255.9595465062
6208.6673117968
6165.7953093004
6125.5055295802
6092.5351678103
6063.7285711884
6040.081253738
6025.373416179
6009.9903952186
6001.6224722519
5992.4756195323
5991.5728984932
5985.3674678022
5984.1887923286
5982.4159166405
6002.0419641334
6036.1054170052
6133.8298819269
6464.1242008543
8266.5992151847
5815.7003687883
5801.1138048747
5761.3689507479
6349.5128698252
7788.051946339
9518.6012461253
11278.472865198
12949.815673084
14429.132674665
15693.802589441
16662.18440332
17354.91744438
17718.271385627
17734.805907103
17527.728855289
17043.908114615
16363.097071259
15539.132649603
14623.686990518
13662.039241534
12691.629658946
11742.452097052
10834.000675695
9978.471409963
9182.1747841057
8447.2738871342
7773.0886048461
7157.86087807
6598.3387718832
6090.217403181
5629.1222605218
5210.834367601
4831.331033525
4486.835035923
4173.6966979483
3888.794026987
3629.3056123292
3392.4131813988
3175.7148616673
2977.5647927129
2796.0377530405
2629.450600806
2476.3996417678
2335.1489587068
2204.8141028213
2084.5518997596
1973.2822298684
1870.2314889536
1774.5067315168
1685.4247322405
1602.6244150712
1525.4714413711
1453.5174354021
1386.2732183045
1323.3091957994
1264.386019338
1209.1436961548
1157.2926600103
1108.5677146351
1062.6906708671
1019.5016797488
978.79864699183
940.39167326303
904.11841872641
869.7993059101
837.3134539821
806.55071073804
777.38718510297
749.68689728903
723.08744720195
841.23417186277
3882.2804976969
4909.2780900146
5054.7667784507
5133.4184621336