/*--------------------------------*- C++ -*----------------------------------*\
| =========                 |                                                 |
| \\      /  F ield         | OpenFOAM: The Open Source CFD Toolbox           |
|  \\    /   O peration     | Version:  2312                                  |
|   \\  /    A nd           | Website:  www.openfoam.com                      |
|    \\/     M anipulation  |                                                 |
\*---------------------------------------------------------------------------*/
FoamFile
{
    version     2.0;
    format      ascii;
    arch        "LSB;label=32;scalar=64";
    class       volScalarField;
    location    "7e-05";
    object      rho;
}
// * * * * * * * * * * * * * * * * * * * * * * * * * * * * * * * * * * * * * //

dimensions      [1 -3 0 0 0 0 0];

internalField   nonuniform List<scalar> 
109340
(
662.4780995276
662.47323391014
662.46378303768
662.45231114366
662.43962592436
662.42640264543
662.41289938698
662.39922033887
662.38547408467
662.37128543825
662.35598330175
662.33892825536
662.31936298049
662.29637461457
662.26887906171
662.2355965973
662.19500345394
662.14527371484
662.08419322547
662.00904658726
661.91645446158
661.80218061455
661.6608610294
661.48563760439
661.26763633596
660.99523756664
660.652995661
660.22000123933
659.66728418533
658.95350552664
658.0174220412
656.76385823591
655.03584182039
652.55607421505
648.79743802656
642.67939903898
662.47891466578
662.47260690957
662.46197829996
662.44972057087
662.43666477602
662.42339741698
662.41008170207
662.39667217627
662.38292567919
662.36847398402
662.35277640801
662.33517369235
662.31486730455
662.29090030009
662.26213977746
662.22724331244
662.1846223213
662.13236434313
662.06814245595
661.98909234737
661.89164422132
661.77131112608
661.62239816552
661.43760444339
661.20745692566
660.91950811625
660.55714525926
660.09776252498
659.50983244844
658.74798391983
657.74424267614
656.39133619255
654.50827386918
651.76470341481
647.49409487191
640.25357316732
662.48175055809
662.47441606268
662.46269543606
662.45014232209
662.43719734296
662.42411924391
662.41087386438
662.39742798915
662.38363875949
662.36915251657
662.35344260998
662.33584634908
662.31556071867
662.29162655176
662.26291127008
662.22807762278
662.18553637144
662.13337743207
662.06927471777
661.99036585117
661.89307982814
661.7729291172
661.62421772845
661.43964169292
661.20972366708
660.92200891029
660.55987492075
660.10070526079
659.51296249801
658.75125805389
657.74756844308
656.3943399552
654.50856695344
651.74901147169
647.39536007042
639.70540786154
662.48570003289
662.47681566032
662.46449302307
662.45157931336
662.43837902171
662.42502280144
662.41155305631
662.39795691086
662.38407053988
662.36953415216
662.3538215633
662.33626450712
662.31605230128
662.29221956212
662.26362640937
662.22892789602
662.18652833936
662.13450999112
662.0705337692
661.99172472312
661.89448240505
661.77428524707
661.62538746821
661.44041170167
661.20978176206
660.92089793026
660.55693397755
660.09498337665
659.50309278725
658.73525490515
657.7224715737
656.35550509798
654.44650164501
651.63612465122
647.11667474282
638.58797118095
662.49192984882
662.48031584778
662.46616115829
662.45235117386
662.43878594589
662.42529657822
662.41178515263
662.39821010792
662.38437635894
662.36991038704
662.35429083958
662.33684443558
662.31674577866
662.29300753456
662.26445710271
662.22970288027
662.1870858654
662.13460212199
662.06974917384
661.98951304271
661.89002462627
661.76642685839
661.61250822503
661.42023648367
661.17914463007
660.87538252375
660.49038240609
659.99878842929
659.36515633642
658.53839313274
657.4417316429
655.95420950391
653.86551777407
650.76566319004
645.67264283463
635.13510327477
662.50354780101
662.48213363559
662.46648168185
662.45234452852
662.43873018776
662.42523991821
662.41173335013
662.39809184974
662.38402746889
662.3690210308
662.35235224206
662.33308647894
662.31006719164
662.28189200796
662.24687315553
662.20297910644
662.14775350137
662.07823707285
661.99089322515
661.88066992192
661.74148957575
661.56552047081
661.34262137058
661.0595782365
660.6990429964
660.23800831662
659.64559579644
658.87968725256
657.88156719346
656.56690115707
654.80909683997
652.41181167417
649.03087368917
643.99586853036
635.65588625741
617.06632062381
632.16670327234
614.55874639766
587.54858807557
550.83133946431
506.27132524976
455.40514298555
400.36150410702
343.67644052032
288.02034751982
235.82700879744
188.36796959364
148.67881114955
116.14678093675
90.13289769747
70.079830469292
54.70394085632
43.015876731192
34.134711916067
27.354128534143
22.164397871131
18.166587603556
15.042568919313
12.58041645136
10.625435286246
9.0477376275492
7.7648402536484
6.7406993324781
5.863279744863
5.14134504645
4.5466740960513
4.0228220851422
3.6029172498024
3.2173908186174
2.9084886690625
2.6197199418566
2.3865677750014
2.1659994048642
1.9864738359703
1.8150312107065
1.6742883376578
1.5394627683351
1.4268220961348
1.3202102855859
1.228005562173
1.143519378742
1.0661807781714
0.99801277257255
0.93327333806282
0.87696020748436
0.82366367754227
0.77546478702164
0.73104242881916
0.69022893973649
0.65261328725547
0.61786707135224
0.58569675736959
0.5558601671932
0.52814338195375
0.5023619376049
0.47834254887516
0.45592658176896
0.43497350245926
0.41536343783989
0.39699090134407
0.3797583083601
0.36357592024911
0.34836468686895
0.33405182270588
0.32056011910105
0.30783004632532
0.30270917605527
1.0994158703674
1.8818508013346
1.941954271807
1.9404490933659
1.912389473029
1.864325943306
1.8085638584137
1.7798457034972
1.7572378666122
1.7341264802294
1.7134419934896
1.6978855803099
1.6894405575106
1.6904932544607
1.7024398470534
1.7216014559176
1.747419900136
1.7782443349968
1.8120555169782
1.8470099345664
1.8812904517467
1.9135555818596
1.9430081949872
1.9695063157882
1.9927280657799
2.0136051361173
2.032250068027
2.0492359705199
2.0651138323105
2.0802570493593
2.0947747564787
2.1086512037109
2.121832263364
2.1376718344829
2.1502503750604
2.1627660722799
2.1754337816579
2.1876177168017
2.1980471196643
2.2053011699532
2.2090031453822
2.2095709688874
2.2067349162048
2.1981379688247
2.1854303777991
2.1719853624404
2.1569604519168
2.1394348845254
2.1201868089832
2.0980914286429
2.0769226588259
2.0553433563399
2.0347516536104
2.0152146528797
1.9968300122731
1.9820630794588
1.968740937533
1.9613953417371
1.9552376747088
1.9516997564515
1.9480649783176
1.9414846241792
1.9537894884545
1.9649545751021
1.9939290077266
2.0278425733827
2.1489931782154
2.3020790434619
2.1188671405412
627.05642576784
604.52122609052
571.12390844961
528.42363072763
478.57799777585
424.28577591068
367.87648231203
312.14782955597
259.41802928941
211.4260097834
169.33600165627
133.5792606475
104.96068657747
82.156782529583
64.279662398333
50.519610787405
39.960733125067
31.878604290021
25.68484516197
20.909198627412
17.199423528801
14.294422642252
11.99615901626
10.159132277651
8.6780928204673
7.4723821828845
6.4812799994518
5.6618652327735
4.9755395840151
4.3994666059261
3.9104878088278
3.4940802019623
3.1364072703351
2.827321496101
2.5592823381176
2.3250412101999
2.1199243392304
1.9390645170759
1.779285241014
1.6373687222989
1.5108847780953
1.3979261298184
1.2963501757
1.2051987701967
1.1226137965129
1.0481470759996
0.98024179929863
0.91867332176322
0.86229695034947
0.81085380667581
0.76359231038038
0.72016987703471
0.68019453674788
0.64331514876956
0.60924691988186
0.57768880282135
0.54841848048869
0.52121802968127
0.49590409968825
0.47230567596653
0.45027551747634
0.42967914821988
0.41039860533016
0.39232745204415
0.37537151258395
0.35944511616272
0.34446805753219
0.33036882989215
0.31708265488213
0.30456506516081
0.32962945139527
1.4601508596571
1.9058477544887
1.9387691674458
1.9304725567893
1.8976904270034
1.8470777081017
1.7972206522086
1.7722576428499
1.7498656126388
1.7275015248575
1.7082193969947
1.6945796700406
1.6884466277204
1.6905980903435
1.702182447467
1.7211020674327
1.7466180368953
1.7770780927784
1.810576828833
1.845245377892
1.8793265403988
1.911533078963
1.9409939070487
1.9674969844571
1.9908622624903
2.0118227798179
2.0305626529702
2.0476774730566
2.0637221859562
2.0790310926224
2.0936918883065
2.107658036673
2.1208658145566
2.1365858087019
2.1489693562634
2.1612314939216
2.173540864635
2.1852688817931
2.1952151119106
2.2021376903359
2.2055909445303
2.206023503923
2.202409575574
2.1930876650352
2.1803797403198
2.1665137569198
2.1510901753436
2.1336445173798
2.1144194747598
2.0927368092601
2.0721989378415
2.0510123130035
2.0309387173873
2.0118202795097
1.9942803291165
1.9800020717153
1.9676223556947
1.9606739993247
1.954803718318
1.9515738122438
1.9465879136763
1.9403822220417
1.9537908825059
1.9633005739556
1.9920933743376
2.0254413760288
2.1481922546503
2.3044844227641
2.1723270096923
624.26449031183
595.8494571892
555.15582358012
505.13419450181
449.36637009407
391.95532120029
335.80468357528
282.88533486895
234.58926294367
191.29873330008
154.74701570941
123.71621228207
98.19487425176
77.652981951117
61.351248755423
48.58654494522
38.683948758995
31.038891512129
25.125480079832
20.523745093932
16.928618013926
14.102954056852
11.857322465631
10.056450871199
8.6018440261263
7.4149402556475
6.4371509708277
5.6266732985172
4.9494471923023
4.3777277340326
3.8937425985938
3.479839978889
3.1250440505212
2.8178506366317
2.5515050137881
2.318493054603
2.1145064246891
1.9344397482081
1.7754721045918
1.6339825129446
1.5082040643156
1.3953978625557
1.2944175199641
1.203299121658
1.1211794516932
1.0466971899918
0.97909204846979
0.91755327782224
0.86133108745697
0.80996403067891
0.7627969032831
0.71950252865902
0.67957681376066
0.64275687294097
0.60872280185898
0.57721190499182
0.54798519934495
0.52082499972998
0.49554445817784
0.47197537765149
0.44997251359586
0.42940164823238
0.41014373655869
0.39209254493959
0.37515521744677
0.35924626308384
0.34428493681447
0.33019931426603
0.31692815833238
0.30441818303041
0.32947283058852
1.4603892554395
1.9048742065287
1.9376325687034
1.9293172492886
1.8966173050815
1.8461384771115
1.7963083592646
1.7709425072265
1.7487209857608
1.7266038480211
1.707491855967
1.6939598203794
1.6879389018471
1.6904392144158
1.7019007231243
1.720977866605
1.7467283922793
1.7775143161302
1.8113644330111
1.8463486893695
1.8808127512264
1.9134625826795
1.9434203202916
1.9702860575908
1.994156012287
2.0153415301934
2.0342911896679
2.0515789285466
2.0677401143235
2.0830879823357
2.0977584526055
2.1117156855593
2.1249118242134
2.1405931735719
2.1529343450976
2.1651481851142
2.1773321355783
2.1889030116298
2.1987201555908
2.2055942416443
2.2090283813689
2.2094606711681
2.2047618087336
2.1954322055836
2.1830709811785
2.1689323233845
2.1535181979836
2.1361282917701
2.1166566921955
2.0954180041319
2.0751646804733
2.0541899849775
2.0343723322844
2.0158175777254
1.9986800075896
1.9846554526443
1.9723198816177
1.9650368158503
1.9588343998745
1.9558418553818
1.9488419859268
1.9424310099591
1.9591698580188
1.9656573133002
1.9934931034841
2.0197543373453
2.1397138326539
2.2985728214662
2.3299542575586
618.01998178555
576.1959708478
520.541641865
457.93171228344
396.94913740259
339.26533769343
287.59660477573
241.73665146676
201.43819438923
165.77067257127
136.72694946899
111.24188270875
89.706837461949
71.965055076274
57.545897864178
46.071898344566
37.022706181912
29.917038474138
24.356369899136
20.001706752048
16.568306228753
13.838833944558
11.665592925847
9.9173796144846
8.4964623274265
7.3337310186195
6.3757098943682
5.5785070054101
4.9108853434227
4.3476074833082
3.8690982049983
3.4600651855258
3.1083685029054
2.8044763178201
2.5400212181711
2.30923183289
2.1064867167653
1.9279027151388
1.7697408600447
1.6293217442408
1.5040438032028
1.3919495264852
1.2913600409874
1.2006988390841
1.1188834892259
1.0446615522428
0.97735034865532
0.91594958557462
0.8599607517435
0.80868029286103
0.76167987632899
0.71848273002054
0.6786824088883
0.6419526993931
0.60798562259681
0.5765424492134
0.54737161283239
0.52026532909303
0.4950337506537
0.47151075964203
0.44954793327409
0.4290118384269
0.40978524667134
0.39176395369517
0.37485449014875
0.3589702162984
0.34403072914861
0.32996507829582
0.31671227032565
0.30421541600684
0.32943796035552
1.4601119862681
1.9033271908519
1.9359858798836
1.9276383344168
1.8950469121734
1.8447219737095
1.7948754867922
1.7688846472111
1.7468210521977
1.7249660563776
1.7060472611618
1.6926487764693
1.6867645897371
1.6894343329695
1.7008094544663
1.7199576689237
1.7458105122375
1.7766892685812
1.8106389667891
1.8457567253174
1.8804214051506
1.9133254723983
1.9435348246639
1.9706072678595
1.9946833527435
2.0160197166069
2.03508357757
2.0524524109594
2.068661213484
2.0840542894973
2.0987824445651
2.1128090692291
2.1260188196364
2.141530232006
2.1537149935547
2.1656997968256
2.177583180281
2.1888577754553
2.1983677002293
2.2049959084492
2.2082066579838
2.2084548976312
2.2032874571572
2.1937525158306
2.1813023063616
2.1670491060236
2.1517735307487
2.1345144327236
2.1152060496676
2.0946238940193
2.0746355954424
2.0541444186665
2.0347516612669
2.0167213823955
2.0001008828768
1.9864154290932
1.9745354519388
1.9671839510817
1.9611101593635
1.9580653218966
1.950555101749
1.9462711534349
1.9623744899447
1.967056759075
1.9942977479864
2.019678061092
2.1340260672153
2.2984127490706
2.356823143488
597.11537715995
520.31423300658
438.77870555504
368.42241606205
312.78185559755
266.5165117112
227.76962055803
194.8076219517
165.79728487356
140.30339108897
117.59227999909
97.541026157884
80.178473455523
65.444933274735
53.181309055883
43.128542475479
35.028110383103
28.568694434558
23.432657239827
19.351601869773
16.106449033446
13.516949273715
11.42696956179
9.737897135526
8.3624603199527
7.2330253022879
6.2968027842308
5.5168710178189
4.8621403917512
4.3088071395545
3.8376084986019
3.4345769993992
3.0873487359722
2.7869759421678
2.5255495808241
2.2971074737232
2.0962733861874
1.9193006698695
1.762454039507
1.6231125166204
1.4986833319431
1.3874072781215
1.2873582395279
1.1972811878617
1.1158287259532
1.0420449526329
0.97499041606772
0.91387789290267
0.85810533661957
0.80702387881699
0.76020559406588
0.71713527423579
0.67748506295893
0.64087701093342
0.60702325302109
0.57566338426429
0.54656574433731
0.51952899090501
0.49436266251089
0.4708992570343
0.44898781302693
0.42849778013955
0.40931416559979
0.39133280338044
0.37445899947038
0.35860669636384
0.34369647884345
0.32965720436341
0.31642715741792
0.30394918593909
0.32939404803798
1.4599396734122
1.9012245546859
1.9338268672485
1.9254503493344
1.8929705608506
1.8427797269864
1.7927665132673
1.7659748241897
1.7440111440166
1.7224311039581
1.7037288599003
1.6904928318344
1.6847826066185
1.6877446640045
1.6991581807608
1.7184688789264
1.7444886288964
1.7755520125477
1.8097227447358
1.8451108931139
1.8800654731458
1.9132685507368
1.9437888522614
1.9711476024915
1.9955092709701
2.0170797807686
2.0363247000888
2.0538294316377
2.0701587542084
2.0857077320906
2.1005546632432
2.1146444483232
2.1278240709977
2.1430341186912
2.1549312401497
2.1665594583937
2.1780812953911
2.1890253202315
2.198162860127
2.2044820290769
2.2074561255262
2.2075896376819
2.2020700320225
2.1922593512201
2.1796548500532
2.1655320054551
2.1504784115549
2.1334968760781
2.1145072347442
2.0944468651783
2.0748706522478
2.0548950149604
2.0359891664723
2.0184393686399
2.0022911094241
1.9888304102092
1.9773114265118
1.9698897332329
1.9639420537789
1.9609317459144
1.9540654997773
1.9498043636146
1.9650271457603
1.9678249022297
1.9956715690511
2.0193375440232
2.1279540444012
2.2967987932611
2.3662064473635
448.8720125732
325.0302628094
272.72907592439
240.50166471646
214.68322475584
191.55764549098
170.34202167522
151.10721082262
132.66331138236
115.20043012137
98.872037676023
83.951084220038
70.497388970793
58.644416761375
48.465109467201
39.902838756488
32.820321445588
27.041244133117
22.368634333733
18.604152144824
15.572320750996
13.125279244959
11.145751264679
9.5278745925068
8.2024891283071
7.1098500502991
6.2030854565552
5.4427857514796
4.803022820922
4.2614862957316
3.7998967657396
3.4034241908647
3.0619036423559
2.7659221468263
2.5080439488426
2.2822882057343
2.0839785016833
1.9088315693115
1.7535767773192
1.615484663196
1.4922167244777
1.3817717708124
1.2824820310215
1.19302736353
1.1121167725292
1.0387873554273
0.97207512126785
0.91132446631948
0.85581337536495
0.80499576292469
0.75836465921593
0.71548468968325
0.67600008359641
0.63954059100134
0.60582356932943
0.57457163737628
0.54557451817232
0.51862405987601
0.49353406975393
0.4701382890419
0.4482901527186
0.42786071734635
0.40873142820633
0.39079749433023
0.37396651151085
0.35815434141136
0.3432811628211
0.32927408841361
0.31607222282189
0.3036172367588
0.32933648117842
1.4600940414274
1.8987526573534
1.9311930627571
1.9227585739568
1.8903817111708
1.8402927706406
1.7899351668218
1.762188945812
1.7402334434912
1.7189278177717
1.700461691203
1.6874163035552
1.6819068072802
1.6851488461672
1.696604359806
1.7160821991977
1.7422800418522
1.7735155296512
1.8078768136654
1.8435029701023
1.8787510580349
1.9123108412657
1.9432264497553
1.9710040357497
1.995775097756
2.0177250683749
2.0373014543188
2.0550911440687
2.0716554633614
2.0873413598218
2.102275578143
2.1163655439395
2.1294829280102
2.1443832017541
2.156055601732
2.167423444879
2.1785614362454
2.1889907161098
2.1975317030269
2.2033831873023
2.2060285754771
2.2059957401697
2.2000543333097
2.1900149677026
2.1773870542563
2.1634007113458
2.1485640771663
2.1319061305078
2.1133140850386
2.0939556362156
2.0749092958191
2.0556598429121
2.0373797102092
2.0204197681958
2.0047936477858
1.9916583089748
1.9805096747547
1.9730992320655
1.9674005776014
1.964385911322
1.9579926620885
1.9545898721746
1.9676354584036
1.9686229853472
1.9979078242914
2.0198792692795
2.12174456208
2.292934933605
2.3697355839521
15.201549110838
103.66360573577
127.50065006771
136.53393193299
137.99688412299
133.99743847564
126.30226333995
116.82363605043
106.41392429911
95.54783365692
84.596888103373
73.866569196033
63.645824604808
54.180200290408
45.673367497128
38.244182342306
31.897298476969
26.577188910688
22.177617052487
18.569470814394
15.62236242452
13.218011530544
11.252300256866
9.64400190083
8.3159886280385
7.2133954134507
6.296954269063
5.5294587537794
4.8813536136133
4.330535228511
3.8614802204073
3.4591701423292
3.1116750196142
2.8101547988963
2.5477911940443
2.3181474217581
2.116124977807
1.9378047509474
1.7798615327008
1.6393019997553
1.5137815963859
1.4013765610279
1.3003963115795
1.209361417648
1.1270369674926
1.0524466476547
0.98463890506112
0.92287568547294
0.86643100240653
0.81479307877345
0.76742186104132
0.72388109304483
0.68377075306029
0.64674888356997
0.61253557060137
0.58083827273511
0.55142507282982
0.5240804381963
0.49863104645223
0.47491159901209
0.45276859721078
0.43206587912899
0.41268319203919
0.39451745113757
0.37747298592951
0.36146247944896
0.34640684041758
0.33223553203373
0.31887618951669
0.30626856009132
0.30050534673016
1.1124054996478
1.8656239531352
1.9257486356289
1.9242112624233
1.8972689071312
1.8510567573736
1.7968776971986
1.7635074624118
1.740898949142
1.71953607869
1.7003644202949
1.685965563138
1.6785927111977
1.6817257580211
1.6933103695444
1.7130277304633
1.7394928619677
1.7709985185717
1.8056452207606
1.8415891057269
1.8771894228445
1.9111464040926
1.9424969731887
1.970728265375
1.9959396649734
2.018296043495
2.0382068368284
2.05627182739
2.0730518759509
2.0889347913071
2.1039947838619
2.1180915771777
2.1315956756376
2.1463682939512
2.1578380122073
2.1685912640464
2.1787580131132
2.1880488392274
2.195544449975
2.2007717634707
2.2031011013126
2.2027727456192
2.1963842300869
2.1861194230489
2.1735176330424
2.1595985806406
2.1448007247289
2.1284279507757
2.1104914089547
2.0920593130089
2.0739346370881
2.0556258799046
2.0383548139193
2.022094146348
2.0074494495718
1.9949302724031
1.9846303795188
1.9773509365125
1.9722331552811
1.9687399396357
1.9644238469936
1.9622889630951
1.9699897548091
1.9676729742976
2.000401703462
2.0203186720505
2.110558976186
2.2823854824238
2.3646454220716
6.7898429082591
18.19851316241
32.490009183418
44.40101864786
53.414852298396
59.488073855788
62.652875709091
63.460649963809
61.752636855229
58.768358624601
54.796922512647
50.095760831952
45.017736016004
39.816216370402
34.746526963115
30.011539296417
25.734834348496
21.969164381288
18.724063246139
15.968569414686
13.649528034488
11.7078740844
10.085501194856
8.7287168450255
7.5927683009853
6.6397756463402
5.8357125476836
5.1522220064558
4.5717409907834
4.0755514358187
3.6493800876106
3.2805187184685
2.960671885813
2.6821324397624
2.438366643271
2.2237441576342
2.0344542506469
1.8668950369561
1.7179403178403
1.584914410909
1.4658178993638
1.35894224383
1.262688674254
1.175704217389
1.0968954673469
1.0253621169958
0.96024874381806
0.90081159058492
0.84643940576972
0.79661848031021
0.75086927166822
0.70876212293364
0.66992415391242
0.63404561185061
0.60084614164159
0.57007445434062
0.54149413346862
0.51490183054378
0.49012532141725
0.4670110271449
0.44542005229573
0.42522378975045
0.40630798404874
0.38857082409249
0.37191985158226
0.35627051556493
0.34154443379767
0.32766719759465
0.31458272820465
0.30222297600341
0.32917825706925
1.4618419149188
1.8900366165335
1.9210372506215
1.9120474716702
1.8797941621846
1.8297260836389
1.7775105982189
1.7458155606244
1.7232169680747
1.7025555039923
1.6848240847185
1.6724737625658
1.6677522152962
1.6722214346423
1.6842339279432
1.7045811356315
1.7317475459271
1.7639483958219
1.7992944051427
1.835973200437
1.8723789953541
1.9072321430846
1.93956171806
1.9688275997163
1.9950495825504
2.0183245794841
2.0390520296504
2.0577992356227
2.0751329114925
2.0914257474974
2.1068064126164
2.1211728108804
2.1347411803772
2.1487179595729
2.1596624935934
2.1692569026689
2.1779299962861
2.1858621500699
2.1922695999599
2.1969819761144
2.1991268993667
2.1981026219209
2.1911973154093
2.1810283237553
2.1685044586742
2.1543448083018
2.1393116736459
2.1231942671488
2.1058524269281
2.0883572849335
2.0711499356018
2.0543709488044
2.0385748869058
2.0233270124905
2.010251738997
1.9982420455435
1.9889740267651
1.981611744116
1.9777121322061
1.9733796318078
1.9710581034496
1.9716605958235
1.9720899936243
1.9653322748746
1.9989617540492
2.0166934390175
2.0915150476436
2.2620129268413
2.3573947084858
5.4147802954285
8.0023177336364
12.953382263174
18.949729434049
24.574316371542
29.385481087923
33.127204712177
35.691961851742
37.141269047874
37.386695362142
36.449868851072
34.877703764238
32.674682225112
30.014786342805
27.115424415471
24.162246936109
21.30518274104
18.642020518619
16.232188372228
14.099552279092
12.242517925365
10.642662830921
9.2731757818702
8.1048549906816
7.1089539440651
6.2602187900535
5.5353251535119
4.9147664654328
4.3819096646766
3.9215684936054
3.5229493378367
3.1769703771346
2.8752156585398
2.6112823606085
2.3787370407891
2.1735674029783
1.992045039828
1.8308274732776
1.687009026386
1.5582485289895
1.4428585306089
1.3390383365634
1.2453458688639
1.1604759684712
1.0835449956334
1.0135890743832
0.94983453186687
0.89155848515075
0.83819440607366
0.78925994093124
0.7442739498829
0.70283214930873
0.66457094077848
0.62920800858588
0.5964650657338
0.56609112924205
0.5378652160183
0.51158929575971
0.48710307534988
0.46424713787837
0.44288246672478
0.4228892085919
0.40415676488398
0.38658928899406
0.37009410338514
0.35458677080837
0.33999008917582
0.3262280903234
0.31324457484861
0.30096773839122
0.3294223046571
1.4640467586965
1.8840887858025
1.9131181536284
1.903380030593
1.8710969805883
1.8208515790139
1.7668743573432
1.7315487266239
1.707688755848
1.6870861104273
1.6697381040123
1.6578696632722
1.6537792943464
1.6592388026782
1.6719806739781
1.6932113885848
1.7213652960766
1.7545520827436
1.7908514859733
1.8284719934838
1.8658436304465
1.9017158971044
1.9351248870036
1.9655205796751
1.9928528379024
2.0170954148903
2.0386296381616
2.0580118616805
2.0758368103633
2.0925177030858
2.1081666031541
2.1226559482957
2.1361717688819
2.1491486504938
2.1592916901236
2.1678608989788
2.1753926405445
2.1824181703938
2.188138461445
2.1926709140069
2.1947811171671
2.1927270671727
2.1856407937161
2.1758858678232
2.1633634195567
2.1488115594319
2.1333818389303
2.1173647547824
2.1007224077103
2.0839677702216
2.0672878194476
2.0515077836928
2.0364258976025
2.0221806590281
2.0098097363937
1.9984216405786
1.9900549791509
1.9834217996848
1.9804220444704
1.976172310736
1.9738820797717
1.9766129423191
1.9741719449797
1.9649480372438
1.9931153423495
2.0071151670434
2.0648588932649
2.2207099603496
2.2966120046953
4.3298987976812
5.6737351917952
7.1886744586508
10.16994259874
13.489852753804
16.663869562967
19.492474250367
21.810500891605
23.547061596962
24.638719338645
24.876564842195
24.602325308147
23.850406389633
22.611015780886
21.049201223999
19.291313135103
17.447435397214
15.627211695658
13.895022759787
12.295041422171
10.849807023402
9.56490526682
8.4352165103437
7.4498091691052
6.5939699489402
5.8521328378928
5.2097881019038
4.6530585712126
4.1695809386077
3.7487879136084
3.3817381596281
3.0605948787549
2.7783442000856
2.5297204736836
2.3102891789458
2.1159378515973
1.9432528329107
1.7889283774414
1.6508760712498
1.5272018529924
1.4159695645216
1.3156846947479
1.2248344668095
1.1425520017568
1.0677855308255
0.99970438286027
0.93751571782302
0.88059211787027
0.828448378751
0.78054182643702
0.73645982399362
0.69578277003615
0.65820836861512
0.62345853757552
0.59125201150422
0.56135431283163
0.53353855160574
0.50763761447149
0.48349025133552
0.46094085209119
0.43985443522453
0.42010601281249
0.40159546038024
0.3842295406458
0.36791585927141
0.35257391989631
0.3381286333193
0.32450334234275
0.31163746077919
0.29945774408064
0.33053036567981
1.4709876004101
1.8789504805238
1.9052533006976
1.8944611989256
1.8621758342619
1.8118350132614
1.7558186825928
1.7158878602348
1.6897313497883
1.6686227632672
1.6514063095883
1.6399310566416
1.6364795116559
1.6429900661479
1.6567318147696
1.6790971400579
1.7085260388869
1.7429991367776
1.7805262940981
1.8193078198921
1.8578015557251
1.8947909180511
1.9293405246206
1.9609565125246
1.9893744157802
2.0145617319401
2.0368403618709
2.0567353415857
2.0748691354895
2.091734910899
2.1075017544994
2.1220424792825
2.1354532099345
2.1475131508344
2.1571834956846
2.1650476855667
2.1716111445339
2.1777842107931
2.1828928142539
2.1872527730678
2.1892128103839
2.1857998066777
2.178514780351
2.1691305982338
2.1566944052948
2.1415835128172
2.1259757105366
2.1100528729192
2.0931593873825
2.0772529413755
2.0615568782174
2.0469796068574
2.0324640233026
2.0188483072418
2.0064294456471
1.994696688615
1.9853228951872
1.9778811318247
1.9736415761745
1.9696346502194
1.9673341737801
1.9666815577428
1.9636232861562
1.9554018923527
1.974231779879
1.9867234900289
2.0287262742794
2.1592181796006
2.2563340004367
3.5237616470872
4.6373316161437
5.0331294875596
6.4116774539102
8.3890217662119
10.465328644086
12.464818563994
14.263250644456
15.756523886023
16.880601557349
17.605063905668
17.880347482814
17.665503851921
17.205259360161
16.431909474918
15.408718214787
14.258379534834
13.042206378168
11.819147855916
10.63941160347
9.5357155875366
8.5235824491683
7.609691336535
6.7935954073836
6.0700624425006
5.4317182379757
4.870280799875
4.3772549525436
3.9442389791422
3.5635505278313
3.2284309850786
2.9328844469187
2.6717434017561
2.4404276098862
2.2348616828135
2.0516299424776
1.8881237082919
1.7417605182659
1.6104201998737
1.4923120526421
1.3855568419052
1.2890041576209
1.2015777333123
1.1221445038447
1.0498582638876
0.98379183533034
0.9233762579592
0.86805705016126
0.81725542806398
0.77054021095046
0.7274391072382
0.6876527112294
0.65088218897195
0.6168256181504
0.58523771554831
0.55586374081845
0.52853371280299
0.50307477920623
0.47931673756117
0.45711862098242
0.43634099186655
0.41688007248995
0.39863459752577
0.38150231491564
0.36539917752667
0.35024419531422
0.33596632908591
0.32249998216969
0.30977715306003
0.29769138006887
0.33340447908083
1.4858450212209
1.8757450350368
1.8985087734542
1.8863991718841
1.8542616773768
1.8041746753782
1.7458276660349
1.7005403599211
1.6706463157564
1.6481599553056
1.6306232535788
1.619324903614
1.6164370853716
1.6239791223808
1.6389173960304
1.6626434859011
1.6936209011162
1.7296724759456
1.7687008795491
1.8088571876628
1.848614674231
1.886772637841
1.9224808256316
1.9552652916972
1.9846830714623
2.0107030150972
2.0335744447292
2.0537933403239
2.0720161686038
2.0888192019368
2.104471707199
2.1189214241187
2.1323141211673
2.1437107989879
2.1530982279203
2.1603932057337
2.1660973788478
2.1713785144939
2.1759124163148
2.1800245250625
2.1814230669218
2.1772258664508
2.1690014112294
2.1593362624575
2.1466186005673
2.1307389739761
2.1159224881814
2.0990662359456
2.0823720000448
2.0650847033473
2.0474117631209
2.0309871254987
2.0152327467218
2.0016877585742
1.9893135273722
1.9784227724273
1.9702358462508
1.9615511602945
1.954825582046
1.9474367487382
1.9422267370977
1.9346844375416
1.9281222457109
1.9203883660127
1.9185241741044
1.92019940942
1.9410371083673
2.0363773829208
2.6761038186573
2.9021525017264
3.91612790657
4.0661956995709
4.5957629759346
5.7388021589556
7.1147704338633
8.5241657861504
9.8697635308754
11.053523467631
12.041260954098
12.767340223254
13.23568030176
13.394117347248
13.257274977255
12.932314918712
12.379633323325
11.673852724412
10.872434805255
10.025100631558
9.1709946051369
8.3395674086638
7.5530143289691
6.8235035442763
6.1565230604797
5.5530634784937
5.0109738950978
4.5263061827421
4.0946424745135
3.7110068756769
3.3701890625727
3.0673159921701
2.7979584949683
2.5581272274609
2.3442661353839
2.1531461613596
1.9820384065146
1.8285578554913
1.6904852174723
1.5659469713738
1.4535537473334
1.351875812366
1.2596817492073
1.1759407527907
1.0995267825226
1.0297627875053
0.96603060092684
0.90763543884836
0.85405357605764
0.804732078778
0.75923617253509
0.71729328975855
0.6785230345552
0.64264214096362
0.60936017941302
0.57842420913704
0.54967200540229