/*--------------------------------*- C++ -*----------------------------------*\
| =========                 |                                                 |
| \\      /  F ield         | OpenFOAM: The Open Source CFD Toolbox           |
|  \\    /   O peration     | Version:  2312                                  |
|   \\  /    A nd           | Website:  www.openfoam.com                      |
|    \\/     M anipulation  |                                                 |
\*---------------------------------------------------------------------------*/
FoamFile
{
    version     2.0;
    format      ascii;
    arch        "LSB;label=32;scalar=64";
    class       volScalarField;
    location    "7e-05";
    object      rhoHat;
}
// * * * * * * * * * * * * * * * * * * * * * * * * * * * * * * * * * * * * * //

dimensions      [1 -3 0 0 0 0 0];

internalField   nonuniform List<scalar> 
109340
(
661.21821621631
661.21355504444
661.20444776256
661.1932980343
661.18084783358
661.16773377134
661.15419411902
661.14026667647
661.12586840372
661.11028328601
661.09234901718
661.07079547987
661.04409198466
661.01040000739
660.96754066742
660.91294418439
660.84355969454
660.75573817579
660.64506267882
660.50612135326
660.33218771206
660.11482834527
659.84336639824
659.50415782938
659.07956533073
658.54651839873
657.87438990731
657.02178189773
655.93144280866
654.52185809119
652.67258690221
650.19706688101
646.78884786957
641.9094453031
634.54320243622
622.63487699512
661.2189952878
661.21295301434
661.20270059078
661.19076579678
661.17792320778
661.16473397387
661.15134821396
661.13763835648
661.12312849378
661.10706940289
661.0883956178
661.06578184263
661.03761855065
661.00198207126
660.95659827467
660.89877840273
660.8253398515
660.73246245693
660.61550665327
660.46876681558
660.28513701642
660.05568459421
659.76907459374
659.41078445671
658.96199014463
658.39798473329
657.68583803366
656.78081233498
655.62063449894
654.11589559941
652.13302112625
649.46194060965
645.74975530433
640.35599844712
631.99936923151
617.94611556973
661.22170157871
661.21468921831
661.20339513546
661.19117840213
661.17844972147
661.16545530599
661.15215154834
661.1384296893
661.12391828794
661.10788196052
661.08926775873
661.06674472851
661.03869644876
661.00319483858
660.95796450374
660.90032201885
660.82708450983
660.73443622298
660.61774088692
660.47129798663
660.28800180558
660.05891907152
659.7727131196
659.41485563592
658.9665144234
658.40296863393
657.6912687519
656.78665587222
655.62683703595
654.12237012975
652.13958736404
649.46788131343
645.75046659306
640.32578783913
631.80865401529
616.89418328095
661.22545997213
661.21698806571
661.20513432365
661.19258318618
661.17961715429
661.16635755431
661.15283996592
661.13898994895
661.12442303095
661.10839822806
661.08986173951
661.06747523055
661.03961261611
661.0043374687
660.95936421815
660.90199781645
660.8290440409
660.73667311274
660.62022580187
660.47397564195
660.29076281949
660.06158400265
659.77500174072
659.41634092138
658.96657018801
658.40067997702
657.68531511288
656.77514085715
655.60704209138
654.09036079868
652.08952474907
649.39066111542
645.62764904723
640.10403594743
631.26656750345
614.74856938552
661.23136333662
661.22033309961
661.20674591859
661.19333701363
661.18001888059
661.1666308016
661.15307556865
661.13926302493
661.12478984971
661.10890528594
661.09055815805
661.06839668806
661.04076463492
661.00568104568
660.96079387086
660.90331287165
660.82991343059
660.73658897274
660.6183759099
660.46924668846
660.28152168506
660.04552138006
659.7488761089
659.3756049672
658.90489761404
658.30925696564
657.55186967936
656.58255133907
655.33130040732
653.69747453735
651.53034858026
648.59332088294
644.47722756886
638.38920195283
628.44601021616
608.1175421341
661.24229112493
661.22206801608
661.20705738516
661.19333249861
661.17996513108
661.16657428805
661.15301869702
661.13908570491
661.12417646669
661.10724454099
661.08683613407
661.06107414676
661.02763787253
660.98371438406
660.92591913191
660.85017924776
660.75157111277
660.62414756051
660.4607800646
660.25159053214
659.98439524085
659.64357103769
659.20891826012
658.65414786798
657.94479649425
657.03524245312
655.86439365187
654.34915355487
652.37408528963
649.77410408538
646.30275400812
641.58022865318
634.9463881884
625.12821410994
609.03248361541
573.92182493776
602.41936019397
569.28056268085
520.24226227807
457.10827569195
385.9719055377
312.12995314191
241.06405968239
177.4792195789
124.52055727988
83.378175480879
53.122568349204
33.043349445222
20.131373713888
12.10208558202
7.3028875452821
4.4417829617946
2.7415704441287
1.7233655568967
1.1048445494106
0.72421752146494
0.48577871991847
0.33258377138918
0.23229863914274
0.16550312646036
0.11986981394849
0.088162863199773
0.066357427593275
0.050193428837895
0.038514230995202
0.030116982484999
0.023546317852453
0.018876074859243
0.015039816647592
0.012280386135705
0.0099570041735979
0.0082564020697311
0.0067971690394049
0.005712839345124
0.0047663512018026
0.0040536404640485
0.0034243440100943
0.0029407762566815
0.0025150315595854
0.0021760996640314
0.001884723103555
0.0016388266582774
0.0014347492887142
0.0012544978247774
0.0011069945102099
0.00097604826432707
0.00086486174122902
0.00076827504703325
0.00068462764499033
0.00061180449004927
0.0005481912171893
0.00049241403287426
0.0004433678592185
0.00040011783340554
0.00036188696398942
0.00032800151269141
0.00029788563913075
0.00027105060612548
0.00024708685679797
0.00022564491833715
0.00020642073494376
0.00018914982743556
0.00017360547875456
0.00015958980003422
0.00014692001996292
0.00013544748915156
0.00013098369012327
0.0017282240561323
0.0050438867353904
0.0053614484371449
0.0053418542518144
0.0051747250969236
0.0049018166915673
0.004598176278364
0.0044504373879033
0.004338201024348
0.0042250185626593
0.004124983105827
0.0040505752900952
0.0040105419038534
0.0040157814208479
0.0040729059922722
0.0041652493853843
0.0042912332808953
0.0044440431799238
0.0046146980125188
0.0047944942450036
0.0049741548987214
0.0051462787353327
0.0053059538359124
0.0054516783400933
0.0055809857275531
0.0056985199440316
0.0058044985706336
0.0059018854317383
0.0059936484894987
0.006081835770285
0.0061670010272401
0.0062489805471979
0.0063273593436151
0.0064221791635322
0.0064979702223091
0.0065738084922384
0.0066510338145327
0.0067258153040366
0.0067902584423614
0.0068353412254942
0.0068585001576653
0.0068621679274448
0.0068447285162012
0.0067916511614721
0.006713423961747
0.0066311866103423
0.0065398677833728
0.0064340998090753
0.0063188728572072
0.0061878692196822
0.0060636067606237
0.0059382314448118
0.0058198271251508
0.005708541299597
0.0056047868354183
0.0055220987017244
0.0054479261837237
0.0054071671481339
0.0053730932433644
0.0053535042851083
0.005333419748611
0.0052973343008507
0.0053645920039356
0.005425967351659
0.0055870251113397
0.0057784693081966
0.0064890957057191
0.0074444639887496
0.0062225109910279
592.71708114643
550.81402073177
491.50978540783
420.59610502954
344.8068220231
270.8331140298
203.44148284129
146.33268181138
100.95726857216
66.973458550578
42.901012169754
26.65460415374
16.429505473963
10.048583259594
6.140380890545
3.7861271234332
2.3647199669505
1.5023437564089
0.97366434564942
0.64423716403748
0.43525846200621
0.30021646556443
0.21115428884122
0.15124254811896
0.11022672639338
0.081633309750353
0.061346715390876
0.046767896582703
0.036082438555078
0.028183632688644
0.022248500104172
0.017746708783371
0.014288706680024
0.01160184824115
0.0094998316327137
0.0078346499827449
0.0065091900265539
0.0054421886156606
0.0045796549822295
0.0038757693640181
0.0032983835473355
0.0028219584211395
0.0024255686651942
0.0020953216458726
0.0018171345314961
0.0015832741753929
0.0013841268282981
0.0012151764152301
0.0010701308816683
0.00094587052235839
0.00083846982327485
0.00074553002462652
0.000664799632764
0.00059444176109846
0.00053295285247368
0.0004789992533597
0.00043153864498369
0.0003896608476277
0.00035261370852246
0.00031974917453026
0.00029052427216836
0.00026447229167448
0.00024119730597216
0.00022035869908915
0.00020166495393742
0.00018486334206974
0.00016973210706639
0.00015607983632471
0.00014374048884364
0.00013258035873975
0.00015543131042733
0.0030438243850748
0.0051709295940843
0.0053413044256858
0.0052838890980431
0.0050916701701096
0.004807299390813
0.0045392097722534
0.0044126835962945
0.0043020701140497
0.0041930030064887
0.0041000950063137
0.0040350527219546
0.0040060746685284
0.0040164245948509
0.004071820534564
0.0041629865892847
0.0042874547554521
0.0044383830805379
0.0046073500658619
0.004785523794145
0.0049639684362777
0.0051355981639958
0.0052951418338978
0.0054407338138971
0.0055707042392426
0.0056885868351477
0.0057950007746759
0.0058930371951842
0.0059856909905913
0.0060747869688766
0.0061607491590232
0.0062432265181807
0.0063217378974856
0.006415813919797
0.0064904054834813
0.0065646726213089
0.0066396705958307
0.0067115990876312
0.0067729904574811
0.0068159649751252
0.0068375518980899
0.0068403769358394
0.0068181670050182
0.0067607112165291
0.0066826562292999
0.0065980309758444
0.0065044983335216
0.0063994887126646
0.0062847128508015
0.006156459621657
0.0060361776945022
0.0059133254242973
0.0057981061364805
0.0056893428977398
0.0055904762260943
0.0055105895369714
0.0054417475777933
0.0054032454172306
0.0053708040536944
0.0053529311606721
0.0053254689686817
0.0052914481341755
0.0053647288069547
0.0054169812987284
0.0055768780932326
0.0057649570003813
0.0064844218110736
0.0074603251166305
0.0065466199935513
587.46004891512
535.11735753668
464.36670143154
384.27114707316
303.91996902418
231.04982051832
169.44125122105
120.12294544956
82.513027952056
54.799175638303
35.80817749971
22.852325713689
14.373203127538
8.9734829354981
5.5917054389736
3.5008892450195
2.2154654655832
1.4239363042947
0.93154978305727
0.62060960509232
0.42160626334547
0.29219618876432
0.20627628066364
0.148189265657
0.10829055425371
0.080377237831259
0.060512203178757
0.046185805280592
0.035703279830059
0.027905476205548
0.022056999894731
0.017602479712078
0.014184544326282
0.011524404718301
0.009441714729383
0.0077907180258387
0.0064756788907165
0.0054163741340869
0.0045598633542359
0.0038598295786461
0.0032865672562754
0.0028117806201133
0.0024182733722933
0.0020887077314939
0.001812477548502
0.0015788793750677
0.0013808992837849
0.0012121995485974
0.001067751816745
0.00094378295428899
0.00083672771932697
0.00074414295267045
0.00066359127972682
0.00059340928113805
0.00053203475123476
0.00047820780640262
0.00043085608275195
0.00038907273149424
0.00035210183009299
0.00031930164928851
0.00029013300562591
0.00026413048189455
0.00024089754765566
0.00022009466891998
0.0002014324202716
0.00018465868948009
0.00016955154948278
0.00015591957608352
0.00014360032572114
0.00013245246107146
0.00015528255300146
0.0030447990570843
0.0051656574352219
0.0053350723920222
0.0052776249993538
0.0050859988316578
0.0048025477107212
0.00453485179462
0.0044063139759738
0.0042966258739772
0.004188851967448
0.0040968285307958
0.0040323440894718
0.0040039289679799
0.0040159224145633
0.0040707503730284
0.0041626879764114
0.0042883274847556
0.0044409192853041
0.0046117349267005
0.0047916413182387
0.0049722280099549
0.0051463825146376
0.005308795178897
0.0054565627416312
0.0055895260508021
0.0057088512781829
0.0058166250493228
0.005915815347115
0.0060093081765356
0.0060987960514005
0.0061849771412046
0.0062675591805741
0.0063461538784146
0.0064401913480254
0.0065146775616767
0.0065888013750857
0.006663188704596
0.0067342843740925
0.0067949866800832
0.0068377439019649
0.0068592584970308
0.0068620967656532
0.0068331333931058
0.0067755388466257
0.0066995411365744
0.0066131042873332
0.006519478190671
0.0064146680925647
0.0062982630408839
0.0061724658856162
0.0060536850683235
0.0059318608810242
0.0058179032155503
0.005712131771435
0.005615316768548
0.005536674572165
0.005467943953523
0.0054275279639993
0.0053931992700476
0.0053766098740444
0.0053380507037406
0.0053028509352098
0.0053945871316623
0.0054302760398366
0.005585020409751
0.0057329750590442
0.0064336398411466
0.00742295557927
0.0075516773126503
575.77996393076
500.36726792039
408.17647222645
315.6796255017
237.02831387596
172.9907667491
124.19017468217
87.647746938599
60.790204594732
41.116527277122
27.932967547054
18.463510186634
11.988391975942
7.7029379735697
4.9173022679092
3.1466534078194
2.0285969575088
1.3224937076314
0.87518396357706
0.58932095795243
0.40378044535172
0.28131263811982
0.19963377512556
0.14410321541732
0.10564360898243
0.078619465278888
0.059357773576762
0.045396105716724
0.035146496578532
0.027521634633197
0.021777552664856
0.01740226239692
0.014033081307423
0.011414818578217
0.0093566782847936
0.007728338206431
0.0064265152871523
0.0053796841484495
0.0045303783796191
0.0038377718513845
0.003268388706565
0.0027978780483382
0.0024068047696877
0.0020796893936545
0.0018050165639349
0.0015727440895184
0.0013759596589129
0.0012079606419764
0.0010643416292041
0.00094078661402142
0.00083427307041828
0.00074202803573686
0.00066184321210028
0.00059192066467839
0.00053074429450439
0.00047709659347894
0.00042988968162294
0.00038823526098919
0.0003513750052675
0.0003186721293148
0.0002895847504531
0.00026365033015113
0.00024047591913146
0.00021972533629339
0.00020110910236176
0.00018437457514336
0.000169300883333
0.00015569810936061
0.0001434044585924
0.00013227576404001
0.0001552487858017
0.0030436158722271
0.0051572811326881
0.0053260503281616
0.0052685303573832
0.0050777100793953
0.0047953864550472
0.0045279483786007
0.0043962958308637
0.0042875034953174
0.0041811400694862
0.004090150969182
0.0040263752041443
0.0039986505496494
0.0040114447819646
0.0040658512071174
0.0041581014707692
0.004284196458773
0.0044372000344315
0.0046084701365396
0.004789021089417
0.0049706310754838
0.0051461273905149
0.0053099063618305
0.0054588222993102
0.0055929489116797
0.0057131377860467
0.0058215740090826
0.0059212435956044
0.0060150286754976
0.0061048005774191
0.0061913508341838
0.0062743812608974
0.0063531134300892
0.0064461903277953
0.0065197791403495
0.0065925564346276
0.0066651394572128
0.0067344321329679
0.0067932479646182
0.006834488363034
0.0068546190654803
0.0068563178852621
0.006824465762683
0.0067656421238627
0.0066891547632899
0.0066020445786421
0.0065093115420369
0.0064053501040995
0.0062899866100921
0.0061681194786982
0.0060509233731816
0.0059319041834969
0.005820366265556
0.0057175328734047
0.0056235851056339
0.005546764992477
0.0054805068505024
0.0054396729721968
0.0054060388225203
0.0053891585165982
0.0053477636715986
0.0053241696897435
0.0054126135484134
0.0054383774756668
0.0055899349525759
0.0057329635748715
0.0063998974731203
0.0074225574710094
0.0077296469441399
537.49124160313
407.89683821666
289.84167528527
204.16125292715
147.01324681279
106.63557967571
77.80474341556
56.854698596022
41.135925131918
29.42275688001
20.641926430285
14.183316931968
9.569611579833
6.3661484248405
4.1972857178627
2.7561034144591
1.81515770969
1.2055516601457
0.80982051119518
0.55149553802383
0.38150129616648
0.26832887621327
0.19151968900428
0.13891526158451
0.10232527779784
0.07646711409138
0.057892038053063
0.044394808176907
0.034449894411129
0.027030587957873
0.021423451132663
0.017145727062912
0.013843395127477
0.011272191981452
0.0092500734823373
0.0076470431210209
0.0063641921028621
0.0053315673412158
0.0044930609274128
0.0038084404290206
0.0032450795780268
0.0027795630551579
0.0023918730069259
0.0020678191535874
0.0017951426167426
0.0015648520751104
0.0013692960264968
0.0012024918563507
0.001059732962078
0.00093692958932945
0.00083103362969572
0.0007392407404142
0.00065950263925718
0.00058993256085904
0.00052906104786654
0.00047563853175359
0.00042862155030565
0.00038713416515801
0.00035042059817514
0.00031784407403762
0.00028886188945326
0.00026301745686963
0.00023992213387014
0.00021924093461612
0.00020068406960411
0.00018400056324047
0.00016897139033334
0.0001554071044344
0.00014314587418957
0.00013204383186027
0.00015520641096278
0.003042855917438
0.005145906370962
0.0053142351146021
0.0052566941541163
0.0050667686189181
0.0047855746272079
0.0045176971110845
0.0043820785627882
0.0042739312890092
0.0041690883177772
0.0040792896163595
0.0040163906549251
0.003989544361767
0.0040037241588491
0.0040582864729528
0.0041512590706674
0.0042780925022037
0.0044319325493243
0.0046042473671046
0.004786136305879
0.0049692363914164
0.0051463251511421
0.0053118107280177
0.005462338358625
0.0055981015947999
0.0057196550518741
0.0058291641874226
0.0059296532683062
0.0060241742817007
0.0061149014170514
0.0062022063464253
0.0062856797271582
0.0063643068915797
0.0064556638782545
0.006527576224447
0.0065982326718803
0.0066686351200627
0.0067359237472635
0.0067924612573105
0.0068317950098762
0.0068504564199672
0.0068514415224339
0.0068174308887134
0.0067569313421512
0.0066795253945564
0.0065932432219777
0.0065018919576461
0.0063996368812207
0.0062862167799165
0.0061674535046596
0.0060526621226904
0.0059366049618195
0.0058278054979182
0.0057276429285471
0.0056362713264806
0.0055606217435478
0.0054962887616405
0.0054549967105542
0.0054220125751514
0.0054053058212966
0.0053674141425482
0.0053438990894532
0.0054276745658064
0.0054430676820274
0.0055981218775878
0.0057315152689852
0.0063640060959407
0.0074127530323342
0.0077917936316547
303.57987682783
158.92940829409
111.77727480069
86.842061070277
69.136612584544
54.994955575087
43.44857483015
34.157766979104
26.301634899059
19.811638814326
14.576567182062
10.495949993926
7.39164833437
5.1079100695079
3.4835294065499
2.3579016316011
1.5927795200974
1.0796405484198
0.73768705162622
0.50956284087902
0.35652577898107
0.25294784496237
0.18217421458441
0.13296581793388
0.098433538261649
0.073875603915821
0.056175334393008
0.043206105264902
0.033614360839294
0.026437976683012
0.021002986383887
0.016835020348503
0.013615330826023
0.011101954628983
0.0091218215988187
0.0075483720918927
0.0062894886916567
0.0052733681164963
0.0044477572126742
0.0037726034597052
0.0032170458379943
0.0027569428936181
0.0023737358960512
0.0020530924258779
0.001783187173525
0.0015550435727296
0.0013610969936806
0.0011957569652113
0.0010540614165685
0.00093221206921623
0.000826999077713
0.00073583262428678
0.00065660439857407
0.00058746794464459
0.00052696516319672
0.00047383071472007
0.00042706376219259
0.00038578270306378
0.00034924363854233
0.00031681479417461
0.00028796251083346
0.00026223392445268
0.00023923772386442
0.00021864003613087
0.00020015523622202
0.00018353551230654
0.00016856227733431
0.00015504524176579
0.00014282415679645
0.00013175483288841
0.00015515105916863
0.0030434494841516
0.0051325509045286
0.0052998423893693
0.0052421567788146
0.005053153618289
0.0047730228383902
0.0045038616969333
0.0043635480092894
0.0042556330849066
0.0041523558893983
0.0040638867708596
0.0040020305497392
0.0039762010398816
0.0039917018070519
0.0040464047734501
0.0041400703915209
0.0042676284451635
0.0044221622584657
0.0045952783453527
0.0047782427021508
0.004962757118333
0.0051416595706879
0.0053092373945689
0.0054620537135763
0.005600108939662
0.005723829058089
0.0058352625406242
0.0059374296390216
0.0060333564886408
0.0061249353334145
0.0062128120590406
0.0062963433690029
0.0063746579100235
0.0064642312405518
0.0065348275824859
0.0066039472657873
0.0066720520555665
0.0067362178171013
0.0067890837729121
0.0068255129880597
0.0068421186441983
0.0068420815479615
0.0068054784110352
0.0067436221972819
0.0066661283588791
0.0065807359727641
0.0064907628991189
0.0063905206108288
0.0062795303302932
0.0061649557141803
0.0060532661512886
0.0059413972703459
0.0058361298231664
0.0057392627164785
0.0056507491269449
0.0055768190150902
0.0055144559284335
0.0054731530776913
0.0054414992549745
0.0054247444066258
0.0053894048497061
0.0053705676764235
0.0054425215640193
0.0054479150697151
0.0056111465616719
0.0057350654086155
0.0063274157642588
0.0073884478417749
0.0078156159371137
0.34450201045913
16.103047777221
24.355523174205
27.917438310053
28.504490384591
26.860012997
23.847190913138
20.386648279259
16.90118425841
13.613339054066
10.660977965721
8.1191510014105
6.0206638460319
4.3575357216002
3.0925150336759
2.1653177713423
1.5041521918491
1.0427775223386
0.72510022789685
0.50766071860217
0.35883150984123
0.25654964486495
0.18568879957558
0.13623974595801
0.10118734954065
0.076051665698897
0.057895292908164
0.04459854142137
0.034724001679289
0.027305102156457
0.021691932039341
0.017393208405089
0.014063241720232
0.011461276843949
0.0094143214116018
0.007788347723821
0.0064857380356109
0.0054352783716898
0.0045825783261588
0.0038850807079229
0.0033110351752454
0.002836019310283
0.0024407514975908
0.0021098997814135
0.0018315280305794
0.0015963532708685
0.0013966356527249
0.0012263677557959
0.001080472523292
0.00095512040367196
0.0008469410367371
0.00075326476457471
0.00067183918262703
0.00060083181084924
0.00053874679662091
0.00048425876501956
0.00043630382065463
0.00039397091706117
0.00035651938841624
0.00032330279810555
0.00029376454273866
0.00026743157724385
0.0002439019943975
0.00022283645511778
0.00020393906190563
0.00018695309102673
0.00017165602700475
0.00015785583863964
0.00014537768870798
0.00013407450216163
0.00012908410118856
0.001769195139387
0.0049573277792061
0.0052725766172845
0.0052533718511434
0.0050941102767514
0.0048335824164709
0.0045410971567481
0.0043704450102615
0.0042590034910717
0.0041554039676548
0.0040635517700718
0.0039953012585257
0.0039607110611359
0.0039757613779683
0.0040309930747073
0.0041256576167181
0.0042543254139331
0.0044099886220867
0.0045843385126154
0.0047687486495844
0.0049549531000097
0.0051358599927518
0.0053057269626871
0.0054610128323844
0.0056015280489574
0.0057275687212996
0.0058409485236104
0.0059447454953219
0.0060419740956901
0.0061347542342025
0.0062234312384866
0.0063070678008663
0.0063877634170395
0.0064768964963675
0.0065463356410991
0.0066118017046408
0.0066740371621652
0.0067312188700011
0.0067776044735965
0.0068101283668001
0.0068247389104568
0.006822902509692
0.0067835662791711
0.0067203965328417
0.0066431652882768
0.0065583183036342
0.0064687145217048
0.0063703182641648
0.0062633726546357
0.0061543837585289
0.0060481412506439
0.0059417494771741
0.0058422498760677
0.0057493007224183
0.0056662338296767
0.005595646856043
0.0055379288400033
0.0054972665513318
0.0054687774282844
0.0054493319347664
0.0054253915593374
0.0054135396623627
0.0054561096725068
0.005443189313215
0.0056257106808253
0.0057381564591288
0.0062614865555353
0.0073213712534437
0.007783313033364
0.068011424198926
0.49232401026759
1.5706997468674
2.9348665014364
4.248270924094
5.2692400068254
5.8436485093594
5.993030376317
5.6719071954049
5.133726085783
4.4600152181412
3.7244268031311
3.0048120230582
2.3481390861233
1.7862665886068
1.3310463385525
0.97753816938673
0.71151050504845
0.51619656605926
0.37498309005457
0.27364580201808
0.20109314594475
0.14905242437892
0.11152325197337
0.084295326329401
0.064397330554804
0.049696331384867
0.038700759680362
0.030444214936226
0.024173619152801
0.019366461849094
0.015637069611437
0.012726922006971
0.010437307847654
0.0086203368535371
0.0071648190112521
0.0059931179312525
0.0050434531860448
0.0042682117299544
0.0036307132293867
0.0031038443071596
0.0026663050278999
0.0023007830162203
0.0019937129553036
0.0017345476661776
0.0015149811853123
0.0013280742385466
0.0011682392293715
0.0010310263830895
0.00091284776483513
0.00081068338298473
0.00072202576782232
0.00064481861633892
0.00057738498355853
0.00051831518185486
0.00046641999525432
0.00042067996664896
0.00038024842656637
0.00034442149659697
0.00031260169423825
0.00028427637157175
0.00025900235049009
0.00023640119720258
0.00021614866828323
0.00019796431571117
0.00018160449361021
0.0001668562848442
0.00015353161449283
0.00014147744504489
0.00013054405423168
0.00015499729287022
0.0030505908759446
0.0050856076063004
0.0052445697143884
0.0051845832003103
0.0049977795195058
0.0047199143376115
0.0044430283909085
0.0042835221535873
0.0041732777152854
0.0040740909630856
0.0039899907126471
0.0039320257691418
0.0039101786949525
0.0039313906757212
0.0039883855270444
0.0040856188939866
0.0042171290809294
0.0043756122852845
0.0045528685414085
0.0047404775040067
0.0049303983825009
0.0051156814049438
0.005290566326182
0.0054513668680871
0.005597433068786
0.0057286413381004
0.0058467103781616
0.0059544975418553
0.0060550220562501
0.0061502964899933
0.0062409625246005
0.0063263149351411
0.006407525344128
0.0064919850382621
0.0065583545075198
0.0066168470229773
0.0066699657125429
0.0067187695277187
0.0067583923366401
0.0067876823578064
0.0068011189668411
0.006795002291911
0.0067525180686294
0.0066900214969041
0.0066134067178587
0.0065272616943592
0.0064364248703064
0.0063397383437334
0.0062365173878525
0.0061332160104892
0.0060324573267754
0.0059350014434383
0.0058439652801088
0.0057567345645224
0.0056824586946846
0.0056146322108765
0.0055625772000787
0.0055213585357423
0.0054995696315505
0.0054754119511142
0.005462458786029
0.0054658051218581
0.0054681450440253
0.005430590936859
0.0056179650032095
0.0057179655281638
0.0061493326554323
0.0071917126795906
0.0077382252151863
0.04302066539851
0.094691768721289
0.24840452766299
0.53200425314868
0.89513141355297
1.2803381732201
1.6273704007544
1.889039342091
2.045158645496
2.0715197172918
1.9680679671756
1.8008895857361
1.5794973756039
1.3317216990636
1.0859059475536
0.86141843436451
0.66905800437394
0.51170090575548
0.38753544610512
0.29207244376328
0.21996104626527
0.16604865927701
0.1259307864987
0.096098780247255
0.073859282675282
0.057220779796324
0.044694826105625
0.035203697808821
0.027959889870638
0.022375310431419
0.018043341492106
0.01466219135699
0.01200037029813
0.0098913397246432
0.0082024803995822
0.0068440683274309
0.0057450366927876
0.0048498209365244
0.0041153927718531
0.0035091712753912
0.0030070580600288
0.00258851793033
0.0022378127141167
0.0019422327851004
0.0016924479350258
0.0014802792767596
0.0012993334658277
0.0011442866132275
0.0010109754528763
0.00089600930139055
0.00079645998424027
0.00070995791803363
0.00063452281939413
0.00056858155335315
0.00051076136246286
0.00045990508239024
0.00041504369363532
0.00037535699809121
0.00034017451252683
0.00030890156844171
0.00028103700436199
0.00025615792488287
0.00023389731937407
0.00021394346169612
0.00019601991795432
0.00017988708274941
0.00016533666126095
0.00015218219107632
0.00014027287966395
0.00012945888409233
0.00015522318295724
0.0030596840845065
0.0050537031051072
0.0052017248795209
0.0051383321506433
0.0049527022314197
0.0046757267525348
0.0043912150849399
0.0042142491949384
0.00409861156939
0.0040005525941622
0.0039190376599814
0.0038638763283505
0.0038451999211042
0.0038709158033272
0.0039309526058027
0.0040317515658832
0.0041672361755343
0.0043297073037223
0.0045108902236246
0.0047025194912735
0.0048967768224686
0.0050868936867607
0.0052671667917483
0.0054338588430816
0.0055859122873132
0.0057224726588068
0.0058451030772382
0.0059565468506406
0.0060599479462309
0.0061575360153743
0.0062498431494062
0.0063359886756769
0.0064169538482099
0.0064954437581517
0.0065569889956829
0.0066092269497626
0.0066553329461958
0.0066985174224934
0.0067338475088774
0.0067619778652883
0.0067751552542989
0.0067626596574351
0.0067190791151344
0.0066591893441812
0.0065827045006461
0.0064943448183032
0.0064012838507197
0.0063053748918707
0.00620646580041
0.0061076919122911
0.0060101600809297
0.0059186104666118
0.0058317769828138
0.005750293575109
0.0056800200670351
0.0056156852523228
0.0055686119993905
0.0055314026852311
0.0055145258140263
0.0054907549973238
0.0054778864009373
0.0054929592527282
0.0054792754389796
0.0054279592540234
0.0055844576665085
0.0056629600690963
0.0059925141496344
0.0069301612825163
0.0073472681139437
0.027389292519486
0.047417376778601
0.076216798713149
0.15265987872727
0.26875283209727
0.41027356851356
0.56154659501782
0.70314586831299
0.81956157789674
0.89722477648307
0.91424294490055
0.89394591339295
0.83975348318812
0.75429590463067
0.65321328325189
0.54823461808889
0.44805754629418
0.35911974596085
0.28365149292144
0.22187400263543
0.17260950681534
0.13401583370462
0.10412766920069
0.081142835217232
0.063511081231183
0.049979369922568
0.039575039177318
0.031542003066059
0.025306968039322
0.020440549939714
0.0166210495479
0.013604103949668
0.011202675694916
0.0092810475902532
0.0077356640643358
0.0064847549249594
0.0054661194612267
0.0046296538968496
0.0039404179954747
0.0033702757707779
0.0028956599506018
0.0024987235455982
0.0021644675211601
0.0018825082286604
0.0016434175077775
0.0014398735146514
0.0012657424877967
0.0011162217151003
0.0009875287312453
0.00087626221485593
0.00077977220895997
0.00069574371007075
0.00062239433615841
0.00055820666207584
0.00050184549861088
0.00045221787572935
0.00040837342372968
0.00036956371502883
0.00033513236052896
0.00030450456238484
0.00027719607759752
0.0002527875395722
0.00023093361972432
0.00021133213684577
0.00019371272177737
0.00017784475432742
0.00016352597015618
0.00015057275839764
0.00013883326662945
0.00012815942293209
0.00015626585636752
0.0030885757623278
0.0050262228057276
0.0051594149806979
0.00509109694306
0.0049069425983626
0.0046314157192742
0.0043379271024444
0.00413887295867
0.0040130213477318
0.003913523973827
0.0038335147833573
0.0037808097495782
0.0037653246029374
0.0037956967389463
0.0038598723843264
0.0039651888488557
0.0041057564556501
0.0042734095792352
0.0044596308770866
0.0046561660689415
0.0048553643771443
0.0050506460268835
0.0052364682248665
0.0054093993611288
0.0055671727413535
0.0057088461980821
0.0058355868807407
0.0059498984677107
0.0060550346783699
0.0061536585585547
0.0062466268420263
0.0063330554649244
0.0064133771920183
0.0064862901154426
0.0065449479968129
0.0065928645406177
0.006633012537522
0.0066709026405749
0.0067023781733613
0.0067293343516543
0.0067414963131815
0.0067205529138943
0.0066757801939428
0.0066182736726383
0.0065424355952932
0.0064508942507913
0.006356967643582
0.0062618480099945
0.0061616846458117
0.0060681120276227
0.0059764292260387
0.0058919147089935
0.0058083371194706