/*--------------------------------*- C++ -*----------------------------------*\
| =========                 |                                                 |
| \\      /  F ield         | OpenFOAM: The Open Source CFD Toolbox           |
|  \\    /   O peration     | Version:  2312                                  |
|   \\  /    A nd           | Website:  www.openfoam.com                      |
|    \\/     M anipulation  |                                                 |
\*---------------------------------------------------------------------------*/
FoamFile
{
    version     2.0;
    format      ascii;
    arch        "LSB;label=32;scalar=64";
    class       volScalarField;
    location    "7e-05";
    object      T;
}
// * * * * * * * * * * * * * * * * * * * * * * * * * * * * * * * * * * * * * //

dimensions      [0 0 0 1 0 0 0];

internalField   nonuniform List<scalar> 
109340
(
372.9999195154
372.99872869512
372.99659651912
372.99386367396
372.9909346273
372.98800402233
372.98514410721
372.98239013696
372.97970327129
372.97700632937
372.97430499087
372.97160174406
372.96889322636
372.96617159633
372.96342626168
372.96064362306
372.9578064287
372.95489313961
372.95187652034
372.94872243656
372.94538836577
372.94182243303
372.93796040621
372.93372095381
372.92900017969
372.92366339492
372.91753371757
372.91037523734
372.90186673824
372.89155946695
372.87880543682
372.86262906803
372.84148549951
372.81278763715
372.77189829288
372.7100807933
372.99973653359
372.99813675281
372.99566653526
372.99287618101
372.9900122376
372.9871710302
372.98437292514
372.98160804861
372.97887071181
372.97614871686
372.97343399723
372.97072157531
372.96800474195
372.9652744577
372.96251901885
372.95972392813
372.95687145754
372.95393873513
372.950896819
372.94770971118
372.94433293085
372.94071194671
372.93677904045
372.93244808685
372.92760859757
372.92211676245
372.91578305824
372.90835348027
372.89948015517
372.88867343804
372.87521923957
372.85802694109
372.83533237901
372.80409271014
372.75856830319
372.68733371924
372.99977794436
372.99787545499
372.9953061152
372.99256263226
372.98975303946
372.98693070068
372.9841077096
372.98130082663
372.97852285337
372.97577047091
372.97303473087
372.97030805334
372.96758221954
372.96484749992
372.96209218585
372.95930197637
372.95645911558
372.95354101305
372.95051890346
372.94735718444
372.94401137465
372.94042749083
372.93653835447
372.93225795832
372.92747574868
372.92204768844
372.91578417565
372.90843109474
372.89964040677
372.88892207389
372.87556112476
372.8584625663
372.83583518464
372.80452078807
372.75831064877
372.68356853858
372.99974046088
372.99752090008
372.99481797594
372.99198136967
372.98910737658
372.98622241516
372.98334277003
372.9804832136
372.9776550043
372.97486185455
372.97209966757
372.96936174974
372.96663948475
372.96392336501
372.96120360172
372.95846637588
372.95569487398
372.95286719507
372.94995512578
372.94692470542
372.9437318982
372.94032285746
372.93662939635
372.93256421713
372.92801465451
372.92283423859
372.91683030201
372.90974495087
372.90122528773
372.89077427045
372.87766620364
372.86078835775
372.8382908701
372.80682507128
372.75940538652
372.67825345827
372.9995276275
372.99655195272
372.99321887414
372.98996199589
372.98678567017
372.98368728516
372.98067840256
372.97778693037
372.97503185711
372.97240765212
372.9699178366
372.96756064289
372.96532910574
372.96321441939
372.96120686176
372.95929406473
372.95746052378
372.95568596182
372.95394000667
372.95219144079
372.95036131664
372.94837204878
372.94613711347
372.9435523748
372.94048944279
372.93678252012
372.93221499472
372.92649931301
372.91924157634
372.90988759854
372.89762620535
372.88122739458
372.85860659174
372.82592124088
372.77461350279
372.67831231685
373.00340182322
373.01774385852
373.03318417958
373.04851124006
373.06329305707
373.0772918572
373.09038018539
373.10250305559
373.11364898865
373.1238264746
373.13305835651
373.14137072513
373.14878940978
373.15533767348
373.16103413547
373.16589141303
373.16991612402
373.17311197685
373.1755297187
373.1772860912
373.17836990579
373.17872784981
373.17828092083
373.17689760169
373.17446069894
373.17075026351
373.16547431584
373.15823667995
373.14848233082
373.13541600317
373.11785312315
373.09399631805
373.06073053304
373.01223964611
372.93503976306
372.77923473876
372.61196932526
372.45739554105
372.22085205481
371.88252183569
371.43245997336
370.85975938426
370.14988714169
369.29001704574
368.26950918621
367.08280663508
365.72795303305
364.22157540072
362.6064495048
360.90786465069
359.16728985006
357.41862004428
355.69092896096
354.00627503565
352.37900990764
350.81869087706
349.33065765992
347.91555398658
346.57238222075
345.29913552032
344.09154766556
342.94523819
341.86056730892
340.82793583012
339.84329418292
338.9120088454
338.01662285725
337.16992371459
336.35283966584
335.57798834697
334.82878150394
334.11628466622
333.42565664055
332.76777529494
332.12802553171
331.5180917855
330.92318946832
330.35514021462
329.80050205207
329.26889050481
328.75103536046
328.25078758385
327.76586276807
327.29364805881
326.83725203513
326.39162566406
325.95948830905
325.53869965688
325.12930985329
324.73043328535
324.34170963849
323.96256303601
323.59261556802
323.23143842718
322.87868817443
322.53398995589
322.197003978
321.86740184504
321.54489841183
321.22922123123
320.92010901894
320.61731131956
320.32059585257
320.02974515395
319.74456053539
319.46468783312
319.32389085759
320.960160422
319.82253228587
318.29919802189
316.44968036862
314.21495639936
311.4337444835
308.21318066752
307.13539174549
307.08949370847
307.11785431839
307.13669814594
307.15002208786
307.16230766398
307.18393970359
307.20224978016
307.22099639543
307.24021443186
307.25868433821
307.2752100616
307.28876424586
307.29871665082
307.30501168981
307.30818171349
307.30948272031
307.30978665026
307.31054868188
307.31255215187
307.31648310644
307.32267673218
307.33115742213
307.3416834882
307.3537956279
307.36703012472
307.38485900035
307.3997014158
307.41473104013
307.429742468
307.44359350339
307.45492150307
307.46350702725
307.46725430069
307.46855438954
307.46631382607
307.45944898269
307.44853457055
307.43494367561
307.41877124482
307.39984024856
307.37774081725
307.35343505336
307.32750216999
307.30081447579
307.27399436382
307.24639719792
307.22022957686
307.19439043019
307.17061838682
307.1491202094
307.12918128331
307.11037803454
307.08944396413
307.07199792505
307.06063199638
307.05714613457
307.06027237137
307.08897499822
307.20048164334
308.80697515574
369.98819555508
372.56875626134
372.37606470451
372.08259368725
371.67557213501
371.1496603933
370.49556049594
369.70357757596
368.76747451557
367.68270338519
366.44855079909
365.06942492547
363.5615080339
361.95482194176
360.28126530945
358.57039169984
356.85332812395
355.15725049098
353.50290365627
351.90505465449
350.37259790156
348.91017029949
347.51918829245
346.19860227929
344.94592740123
343.75828384351
342.63133805589
341.56118261854
340.54443488801
339.57660824892
338.65497755254
337.77582084762
336.93628359639
336.13358153011
335.3648401634
334.62815753821
333.92086025783
333.2414844328
332.58776086514
331.95848126127
331.35174671132
330.76644138174
330.20113259662
329.65460741998
329.12594957057
328.61386002185
328.11781404173
327.63646356283
327.16955403153
326.71580385334
326.27501979151
325.84610596902
325.4287825438
325.02239216945
324.62644931164
324.24047444853
323.86397457683
323.49655104964
323.13779239743
322.78733510191
322.44481920636
322.1099207687
321.7823252587
321.46174560184
321.14790713802
320.84055694481
320.53945363991
320.24437602388
319.95508862714
319.67139883011
319.39258792093
319.71143428659
320.746058307
319.47056079745
317.87128653824
315.93554216752
313.58897496994
310.63677156376
307.74455627339
307.12795087862
307.1276935683
307.15992624885
307.18266535792
307.20064728869
307.21761314749
307.22031735798
307.24127178633
307.26273774935
307.28445990879
307.30503071809
307.32318689091
307.33778727593
307.34810212871
307.35397843042
307.35586738485
307.35504402166
307.35258073582
307.35013459184
307.34877339285
307.34946634744
307.35283151151
307.35878605813
307.36724898057
307.37765078655
307.38953528107
307.40604309884
307.42006050817
307.43443955516
307.44891574585
307.46226873804
307.47326075557
307.48155054779
307.48513861589
307.48628399436
307.48363377291
307.47637751922
307.46499750444
307.45071138229
307.43393110883
307.41444247536
307.39188091894
307.36716122369
307.34091392951
307.31382322749
307.2863992666
307.25867428008
307.23225538333
307.20623532462
307.18216518112
307.16023892333
307.1397487713
307.12014575488
307.09888480888
307.07908535446
307.06739519837
307.06281816434
307.06556210012
307.09121456726
307.19862143941
308.78393601021
369.09415634493
372.54929350773
372.31508893314
371.95709568986
371.47034467188
370.8574778415
370.11925183872
369.25632550776
368.26817367282
367.15342620347
365.91125297204
364.54968464302
363.08156473049
361.52276579057
359.89914635833
358.23891376527
356.56914348298
354.91538924704
353.29823107947
351.73210139151
350.22586564576
348.78490150717
347.41168457875
346.10557177401
344.86470989544
343.68652715763
342.56765060226
341.50457901749
340.49353812625
339.53120963043
338.61367864881
337.73843907376
336.90206378195
336.10223393123
335.33607771631
334.60157064641
333.896348343
333.21870855696
332.56666217957
331.93881116316
331.33338872755
330.74936090148
330.18502363381
329.63968128662
329.11174859661
328.60074143974
328.10524631233
327.62481477584
327.15839056674
326.70537015242
326.26506151941
325.83677307331
325.41998393864
325.0140261509
324.61850573413
324.23289506582
323.85677278386
323.48969923342
323.13127456032
322.7811225831
322.43889451829
322.10426810044
321.77693105682
321.45659274763
321.1429807755
320.83584595897
320.53494750269
320.24006100013
319.95095043471
319.66741831865
319.38876097215
319.70846172311
320.74372712126
319.47098568276
317.87501162257
315.94346420999
313.60189792847
310.66161660381
307.80745841567
307.17326010141
307.16999411392
307.20929439366
307.23931368493
307.26387156678
307.28677952894
307.28901512215
307.31463490812
307.34067877465
307.36662618262
307.39100606902
307.41238200558
307.42936967992
307.44115477529
307.4472950369
307.4480802957
307.44459766347
307.43814541158
307.43054774569
307.42339799855
307.41816581057
307.41586194033
307.41684515559
307.42112434192
307.42797296556
307.43711076385
307.45095223557
307.46337559113
307.47657471663
307.49012010808
307.50274991883
307.51337894998
307.52092427902
307.52438684566
307.52550282279
307.52201511071
307.5139303107
307.50150378354
307.48611039946
307.46833874477
307.44761617575
307.42388511945
307.3975952999
307.37040766603
307.34205713447
307.31354715887
307.2851558571
307.25782247611
307.23101970727
307.2057938888
307.18269908027
307.16083882687
307.14064249116
307.11731713051
307.0897948177
307.08524161426
307.07303156391
307.07796104642
307.08331120206
307.1855032468
308.55209205875
364.52464981265
372.51014207208
372.18083143812
371.68417658742
371.04554453605
370.2943263303
369.43981722544
368.49680620038
367.46548955892
366.34179475197
365.12159612153
363.81357058326
362.41446036511
360.9328772303
359.38657307531
357.79850335799
356.19408311441
354.59688823087
353.0278116505
351.5021455604
350.03019504979
348.61801716364
347.26771752252
345.98090963162
344.75628442994
343.59134508545
342.48334623881
341.42938991212
340.42623280547
339.47050914146
338.55903773131
337.68868051107
336.85683834292
336.0606883829
335.29808691784
334.5664297387
333.864040319
333.18866499434
332.53890677322
331.9128627312
331.30936764674
330.72676077846
330.16402545557
329.61985530203
329.09324395011
328.5832219298
328.08877332803
327.60926593444
327.14364599314
326.69147561351
326.25180781189
325.82425793615
325.40806195168
325.00275061355
324.60776808928
324.22266134392
323.84701496067
323.48038354547
323.12238186835
322.77262949795
322.43078273616
322.09651088007
321.76950576804
321.44948104391
321.13617046464
320.82932194215
320.52869209074
320.2340541441
319.94517843025
319.66186941429
319.38338673293
319.70606910101
320.7405679067
319.47151601768
317.88056439989
315.95540112304
313.62163270854
310.699409009
307.89218388249
307.23229956995
307.22231918618
307.26895225338
307.30717523553
307.33913402102
307.36875863194
307.3738600769
307.40490117371
307.43604634711
307.46669377272
307.49535009959
307.52048612001
307.5406107692
307.55479535895
307.56243836994
307.56349935072
307.55885928227
307.54967025997
307.53777477714
307.5250398148
307.51340577443
307.50451987473
307.49926527672
307.49791586297
307.50017266821
307.50553100904
307.51534962198
307.52548548933
307.53693239395
307.54908055877
307.56073123277
307.57074301622
307.5770645596
307.58031806446
307.58090482694
307.5763334139
307.56710361392
307.55343013615
307.53612612197
307.51657871123
307.49398130302
307.46828180669
307.4403295326
307.41130916662
307.38119029724
307.35077872776
307.32082399526
307.29181585118
307.26359044563
307.23685729712
307.21227328714
307.18869232386
307.16684400405
307.14208040108
307.11251114792
307.10538382126
307.08880635315
307.09344003428
307.09442066246
307.18567914282
308.48006121353
364.42542398509
372.40528748895
371.8003692521
371.00006060531
370.12317080505
369.22431304998
368.29705933029
367.33509244964
366.32591932571
365.25317444071
364.1096528583
362.88632441722
361.58156319091
360.19778279081
358.7474385322
357.24993315053
355.7270083569
354.20075226106
352.69188340419
351.21665108983
349.78651596951
348.40899093513
347.08854182195
345.82562987728
344.62080230389
343.47273627114
342.37905879603
341.33679245135
340.34344295405
339.39622511152
338.49205394542
337.62795340499
336.80151052759
336.01012029399
335.25156481829
334.52368386509
333.82449567663
333.15210063262
332.50491368316
331.88128844695
331.27986618062
330.69920382325
330.13823667231
329.59562182863
329.07051318699
328.56174441633
328.06860623202
327.59011866639
327.12559521151
326.67431604015
326.23556812129
325.80881745901
325.39336152172
324.98878259412
324.59446666837
324.20999999922
323.83491313455
323.46881492921
323.11131959016
322.7620527307
322.42066285417
322.08681628989
321.76021335369
321.44057302185
321.12762783514
320.82112292
320.52081778243
320.22648766919
319.93789628057
319.65485707764
319.37659119897
319.70317211371
320.73684183354
319.47235247941
317.88816039392
315.9717937559
313.64909899841
310.75142525419
307.99405983543
307.30108299832
307.28000621285
307.33304225585
307.37961810565
307.41915969555
307.45558623239
307.46500959061
307.50144330928
307.53751295679
307.5725768594
307.60518459391
307.63380453935
307.65693202134
307.67357071552
307.68310894634
307.68532994762
307.68090008455
307.67083691673
307.65676184701
307.64046772448
307.6239737508
307.60925392298
307.59798402543
307.59082164238
307.58785930407
307.58858651383
307.59347711727
307.6011629409
307.61045783725
307.62080305861
307.63108479765
307.63974635255
307.64506816522
307.64753081743
307.64704351685
307.64068591483
307.62936784173
307.61355912763
307.59380142174
307.57145526796
307.54619893468
307.51790439524
307.48761747076
307.45629303246
307.4239584813
307.39136024907
307.35944592954
307.32843817789
307.2983531695
307.2698509373
307.24313803193
307.21770745267
307.19367066417
307.16686369013
307.13599199374
307.12513500878
307.10308018477
307.1070047457
307.10415586268
307.1869021544
308.44842044793
364.59586202255
371.79816952099
370.25418529477
369.19975523288
368.32352872727
367.48881584575
366.65335781837
365.79524011548
364.90047606023
363.9455907376
362.91718590657
361.80748766914
360.6165940908
359.34594308817
358.00430220899
356.60792489969
355.17711187544
353.73228776126
352.29312665659
350.87690777767
349.49618951487
348.15983733813
346.87325046566
345.63962218088
344.4587529948
343.33050763182
342.25365006308
341.22598398053
340.24465934177
339.30767775887
338.41235048759
337.55603609365
336.73604123579
335.95043195027
335.19690256733
334.47345625113
333.77810671032
333.1092752789
332.46514307841
331.84431589915
331.24534628341
330.6670154517
330.10801056524
329.56728877733
329.04383032331
328.53664755184
328.04489977143
327.56768634157
327.10439328561
326.65418617892
326.21649785409
325.79063923244
325.37609264532
324.9723233949
324.57879132202
324.19505046946
323.82062847978
323.45516428436
323.09825358581
322.74953650905
322.40866291368
322.07531355271
321.74918628341
321.42999134926
321.11746312481
320.81135517448
320.51143082438
320.21746213429
319.92919729588
319.6464726285
319.36845767023
319.69974177447
320.73264877365
319.4737133164
317.89809849294
315.9931852229
313.68533708496
310.81881727573
308.10967533474
307.37684917973
307.3401983003
307.39802762711
307.45279433758
307.499912451
307.54307001651
307.55742298425
307.59902581025
307.6396664083
307.6787078996
307.7147444713
307.74631260288
307.77194308106
307.79062111704
307.80178302897
307.80517724522
307.80132360821
307.79118349638
307.77618449115
307.75795024624
307.73844946058
307.71968605773
307.70354203861
307.69131244179
307.68338630727
307.67914875728
307.67893755006
307.68418351893
307.69101313017
307.69899521626
307.70690129364
307.71342685962
307.71721016099
307.71778235523
307.71498435068
307.70571763797
307.69123817748
307.67215861582
307.64908714799
307.62318445818
307.59479682019
307.56353614153
307.53076005106
307.49710574522
307.46262426944
307.42788965525
307.39382680211
307.36032637753
307.3279645864
307.297137497
307.26785433958
307.24010955773
307.21313553798
307.18357239265
307.15161062353
307.13523770898
307.10586012447
307.10775064575
307.09970474167
307.17350233214
308.40271889186
364.73273326722
362.99355605766
366.59469423021
366.33683139081
365.9183023495
365.43263557896
364.86139481847
364.2101738177
363.4853188854
362.69058848421
361.82224852104
360.86887292786
359.82678132013
358.69966506846
357.49279003255
356.21852671104
354.89489251648
353.54181414592
352.17859568934
350.82316590528
349.49034180057
348.19079378589
346.93222468112
345.71900698494
344.55384019421
343.43704431193
342.36752897989
341.34494025246
340.36715879949
339.43210180371
338.5371638294
337.68062994451
336.86001302442
336.07305004797
335.31770290208
334.59234205706
333.89497184254
333.22383133031
332.57738829276
331.95425643369
331.35294152612
330.77221493893
330.21089726155
329.66793715096
329.14222331371
328.63285153875
328.13896630499
327.65973423613
327.19442233437
326.74225889339
326.30269230321
325.87502898963
325.45874397626
325.05325025842
324.65807845053
324.27277438895
323.89685442997
323.52991846011
323.17156268243
322.82145900098
322.47925647341
322.14462563706
321.81725330807
321.49685411837
321.18316664307
320.87593606449
320.57492185846
320.27989422509
319.99068044512
319.70701922471
319.42858094514
319.25297094923
320.94303418787
319.82112562415
318.33065709268
316.52626098896
314.34785141132
311.66435105956
308.73097078986
307.5382628349
307.3949224491
307.44535109905
307.50989769427
307.56637529814
307.61712792832
307.64896281274
307.6954886192
307.74042694575
307.78307872625
307.82211663458
307.85614521066
307.88374988259
307.90395298925
307.91623022443
307.92039691908
307.9168997174
307.90670315017
307.89111316026
307.87162739342
307.85009522816
307.82847302115
307.80864609924
307.79215476006
307.7798442711
307.77083486575
307.81183732354
307.81148454759
307.81287877356
307.81578479989
307.81880898284
307.82060635618
307.81974613028
307.81535302507
307.8067155387
307.7909569261
307.76997246209
307.74477169928
307.71647183168
307.68580028345
307.65310224254
307.6177980674
307.58106193739
307.54320439364
307.50446354756
307.46511813534
307.42655244349
307.3880987448
307.35124072682
307.3154655197
307.28143312702
307.24843506169
307.21507925225
307.18064990084
307.14575849383
307.11719754799
307.07263540019
307.06857026523
307.04997957476
307.10819552292
308.2790344429
364.85946406172
353.85095619931
359.05883333942
359.8880058321
360.28215431833
360.44573811767
360.42543865033
360.22059380054
359.86255674811
359.37313915593
358.76987710634
358.06021130726
357.25416940168
356.3554259691
355.36728478784
354.30041172516
353.1706243204
351.99604141099
350.79502775999
349.58463909942
348.38022307358
347.19401222146
346.03464343506
344.90824707941
343.81840548248
342.76739684561
341.75595987018
340.78415081977
339.85046147673
338.95449681805
338.09463162579
337.26913534588
336.47599307766
335.71369388532
334.98073356593
334.27539898982
333.59597285345
332.94117958899
332.30970627039
331.70016295553
331.11124336493
330.5418581956
329.99103961805
329.45770071909
328.94089594512
328.43975026968
327.95353996837
327.48145565462
327.02277171823
326.57683771372
326.1430684717
325.72089109264
325.30972338736
324.90906756428
324.5184546653
324.13744787964
323.76562398792
323.402556327
323.04787675641
322.70123912581
322.36232799007
322.03083262283
321.70645768684
321.3889292624
321.07798756898
320.77338544814
320.47488489935
320.18225509329
319.89525581737
319.61369586544
319.3367450843
319.68821773895
320.71795068031
319.48258978342
317.94506796512
316.09315701331
313.85699734544
311.12169526297
308.52676719744
307.63557220649
307.52580639027
307.5847736684
307.66213842741
307.73241022562
307.79610837632
307.8268612879
307.88324445941
307.9364316706
307.98575212348
308.02994335005
308.06774753997
308.09796558891
308.11978270492
308.13281790957
308.13709483718
308.13308361142
308.1217977218
308.10445805692
308.08246744837
308.0574942527
308.03135442748
308.00579205826
307.98244438452
307.96250309842
307.94595896889
307.97197835882
307.96364100877
307.95697870363
307.95171475967
307.94658645806
307.93978186249
307.92963004377
307.91507513576
307.89571563
307.86967618466
307.83892107101
307.80362189326
307.76411134883
307.72216188288
307.67750629825
307.62959429613
307.58006317867
307.52943993661
307.47843350044
307.42689624761
307.37595152441
307.32469142901
307.27505511676
307.22610403035
307.17916414034
307.13226068662
307.08414346236
307.03603937221
306.98644522786
306.93394122991
306.86295685959
306.83509224162
306.78027868747
306.80670396713
307.87525838185
364.81713102271
349.45648556712
354.04596382097
355.08036440028
355.72969009772
356.15508198737
356.4209877231
356.52203939244
356.47411009735
356.27339377092
355.93573766362
355.47597674884
354.90721634676
354.2279935924
353.45298844967
352.59227314619
351.65684567298
350.66173219499
349.62381368085
348.55910974201
347.48230333058
346.40639783907
345.34262613608
344.2986228352
343.2799609582
342.29014134122
341.33157525468
340.40538853863
339.51167322766
338.65025067406
337.8200688813
337.02014788275
336.24982065761
335.50765303351
334.79249796594
334.10268311274
333.43714668353
332.79487810452
332.1745109953
331.57487334096
330.99479298495
330.43351726102
329.88993979966
329.3631560991
328.85221128936
328.35649317175
327.87519474517
327.40760442136
326.95301660792
326.51083889422
326.08054977458
325.66155258987
325.25333369442
324.8553872565
324.46730716758
324.08865823206
323.71901298772
323.35798654996
323.005210872
322.66037387423
322.32314279246
321.99321117866
321.67030713388
321.35416678395
321.04454754034
320.74120056378
320.44388875397
320.15236743875
319.86643097844
319.58584444248
319.3097697353
319.6841412066
320.70673976333
319.49333457562
317.99299280568
316.19449088491
314.03215459913
311.41375066322
308.87071520532
307.83834807562
307.65490622306
307.70099404365
307.79023713358
307.87681759433
307.95567775926
307.99848276546
308.06542053682
308.12711428697
308.18290817033
308.23159372916
308.27205047333
308.3033652493
308.32506334739
308.33701197532
308.33952958783
308.33327367277
308.31938017564
308.2990638127
308.27371955401
308.24492007083
308.214348349
308.18361922726
308.15419786571
308.1273054445
308.10311419955
308.11403041648
308.0965095535
308.08052316549
308.06523345704
308.04908895732
308.03011718934
308.00796054357
307.98074692586
307.94696805586
307.90459872336
307.85434618151
307.79804723489
307.73589236331
307.66918972287
307.59904230274
307.52590766342
307.45099395561
307.37506713169
307.29836160305
307.22077789274
307.14264801457
307.0636284388
306.98451195446
306.90618333257
306.82753480779
306.74793181086
306.66485686076
306.57875552253
306.48902596305
306.39090831081
306.27241307197
306.18378323597
306.07522588683
305.99707823722
306.93135230136
364.09797072957
346.75329320842
350.4324367742
351.45744714055
352.15217296682
352.66666246222
353.05055334272
353.30267385258
353.42042417259
353.41386073555
353.27145986048
352.99492709484
352.6159113489
352.13364059638
351.54384040981
350.85963533358
350.09681217468
349.26424935309
348.37804512233
347.45277425874
346.50230530348
345.53907875338
344.57378252071
343.61581891479
342.67219914631
341.74799161993
340.8464495732
339.96990084034
339.11966827385
338.29621183864
337.49947496433
336.72925638589
335.9850412906
335.26578344961
334.57058566809
333.89894463808
333.24965275668
332.62185092069
332.01428701541
331.42607710871
330.85660582788
330.30479035597
329.7698326088
329.2507098534
328.74690984401
328.25766769586
327.78227690105
327.32005178354
326.8703709444
326.43277777164
326.00665387274
325.59150456376
325.18679290847
324.79211959433
324.40709241726
324.03126144419
323.66423859534
323.3056291792
322.95513205625
322.61243252157
322.27720425079
321.94915416955
321.62800367791
321.31351728249
321.00545711774
320.70357914655
320.40765532391
320.11744015948
319.83273975262
319.55329457805
319.27819055631
319.69022863615
320.6942963413
319.50769780209
318.05493011431
316.32586106683
314.2597763663
311.78129979556
309.2876200139
308.08169629148
307.79790554195
307.81532786526
307.91076277972
308.01389698177
308.10982888218
308.16615451259
308.24517073891
308.31629063274
308.37880886705
308.43160099387
308.47374795765
308.50468019445
308.52436189585
308.53314674409
308.53176398287
308.52125825277
308.50295764581
308.47815850602
308.44830739699
308.41492921434
308.37959081153
308.34374262221
308.30863315126
308.27526790734
308.24369312015
308.23901711309
308.21133286809
308.18383819788
308.15530537931
308.12474743808
308.09157109964
308.05149244655
308.00198767656
307.93983983991
307.86659828807
307.78265012932
307.68895862898
307.58605665506
307.47549650685
307.35760428268
307.23318541575
307.10405855261
306.97164536054
306.83588428693
306.69683211366
306.55500674837
306.4102140223
306.26350277314
306.1155567177
305.96530398283
305.81099213352
305.64999933193
305.47991124873
305.29698176008
305.09904048901
304.8749196715
304.65556511863
304.41498199751
304.12414448545
304.85319911934
359.81517146437
345.18480657142
347.56118662852
348.5995953013
349.26398065294
349.79617592827
350.21931279769
350.53893865703
350.75734266532
350.84964633556
350.83915876311
350.71780717638
350.47225917303
350.12040129273
349.68946149492
349.16233072147
348.54276188847
347.85285123244
347.10355216335
346.30606583847
345.47312230892
344.61740180701
343.74962298388
342.87826833146
342.0110904094
341.15411708164
340.31182723551
339.4873702849
338.68294884898
337.89992041504
337.13903191345
336.40057334492
335.68445634958
334.99038565822
334.31794206239
333.66642876775
333.03496387951
332.42311654588
331.83018687825
331.25522289156
330.69766705992
330.15648073393
329.631032678
329.1208801216
328.62519702946
328.14339831094
327.67471960573
327.21865474749
326.77476584877
326.34242815237
325.92117396572
325.51043113464
325.10983361441
324.71902175467
324.33753345541
323.96499596778
323.60099545461
323.24524440941
322.89743731106
322.55723301067
322.22434024715
321.89846602898
321.57938086009
321.26684502521
320.96060261003
320.66043007209
320.36610571359
320.07741063198
319.79413133753
319.51603753739
319.2419333988
319.71621044542
320.68015862949
319.52441607662
318.1297449559
316.48612137832
314.53819629909
312.22297873167
309.79849787094
308.39234641078
307.97131953982
307.93711097075
308.02792784955
308.14578703233
308.26063652184
308.33244612019
308.42588505181
308.50803952959
308.57800200337
308.63473240745
308.67759055864
308.70648639196
308.72191822293
308.72497549309
308.717001594
308.69970341038
308.67465004409
308.64334499512
308.60730766685
308.56806363984
308.52709919004
308.48568833626
308.44482101574
308.40518888186
308.36641769864
308.34500887059
308.30561407664
308.26378642927
308.21991891042
308.17233885171
308.1149096597
308.04302418624
307.95643408921
307.85202893504
307.72865896497
307.58766354688
307.42689953299
307.24632513508
307.04784631893
306.8313458726
306.60145542292
306.36051461798
306.10933199967
305.84964248836
305.58384368492
305.31413908823
305.04039873733
304.76220053646
304.47798755891
304.18477974714
303.88025028907
303.56104879299
303.22307727841
302.86000850109
302.47298477645
302.04892395171
301.59404336254
301.10922763766
300.60870346389
299.86493382062
287.83591691739
344.41684475384
345.15080969522
346.24733278199
346.86843234253
347.38100256681
347.80951798189
348.15607512543
348.42288478436
348.58342992518
348.64291771024
348.61832824124
348.48733664572
348.2515074943
347.91930472555
347.52035761769
347.03101588758
346.46202708732
345.82903020203
345.14479224212
344.42014078624
343.66424683032
342.88804438262
342.10053406867
341.30883602819
340.51933408306
339.7371565113
338.96605612455
338.20897699656
337.46799738762
336.74449882257
336.03936806608
335.35307556694
334.68573259247
334.03717789401
333.4071012195
332.79519437758
332.20104108319
331.62395961721
331.06318589849
330.51852021485
329.98926157769
329.47474738846
328.97456120717
328.48783651552
328.0140559744
327.55297009854
327.10392258439
326.66645492761
326.24001160752
325.8240692864
325.41838377706
325.02251420161
324.63604184715
324.25857397978
323.88970842615
323.52921697392
323.17675684062
322.83199898912
322.49465082595
322.16440042897
321.84104513653
321.52433471169
321.21401276037
320.90985348166
320.61161740746
320.31912157914
320.03218107246
319.75058964828
319.47404468942
319.20073989222
319.78013558122
320.66285407892
319.54125393341
318.21438723758
316.67059928098