/*--------------------------------*- C++ -*----------------------------------*\
| =========                 |                                                 |
| \\      /  F ield         | OpenFOAM: The Open Source CFD Toolbox           |
|  \\    /   O peration     | Version:  2312                                  |
|   \\  /    A nd           | Website:  www.openfoam.com                      |
|    \\/     M anipulation  |                                                 |
\*---------------------------------------------------------------------------*/
FoamFile
{
    version     2.0;
    format      ascii;
    arch        "LSB;label=32;scalar=64";
    class       volScalarField;
    location    "7e-05";
    object      TpSat;
}
// * * * * * * * * * * * * * * * * * * * * * * * * * * * * * * * * * * * * * //

dimensions      [0 0 0 1 0 0 0];

internalField   nonuniform List<scalar> 
109340
(
372.99991934163
372.99872865014
372.99659647075
372.99386361939
372.99093456942
372.9880039618
372.98514404413
372.98239007885
372.97970321999
372.97700628145
372.97430494591
372.97160170173
372.96889318635
372.96617155831
372.96342622539
372.96064358828
372.95780639524
372.95489310729
372.951876489
372.94872240608
372.94538833603
372.94182240392
372.93796037763
372.93372092565
372.92900015189
372.92366336739
372.91753369023
372.91037521012
372.90186671104
372.89155943965
372.87880540929
372.86262904007
372.8414854709
372.81278760761
372.77189826228
372.71008076109
372.9997364587
372.99813671362
372.99566648891
372.99287613131
372.99001218611
372.98717097976
372.98437288277
372.98160801073
372.97887067687
372.97614868444
372.973433967
372.97072154696
372.96800471514
372.9652744323
372.96251899469
372.95972390501
372.95687143531
372.95393871367
372.95089679817
372.94770969089
372.944332911
372.94071192724
372.93677902125
372.93244806787
372.92760857874
372.92211674372
372.91578303954
372.90835346154
372.89948013631
372.88867341896
372.87521922012
372.85802692107
372.8353323582
372.80409268821
372.75856827985
372.68733369392
372.99977787798
372.99787540828
372.9953060687
372.9925625888
372.98975300257
372.98693066898
372.98410768112
372.98130080068
372.9785228296
372.97577044893
372.97303471041
372.97030803416
372.96758220146
372.96484748277
372.96209216949
372.95930196068
372.95645910046
372.95354099841
372.95051888922
372.94735717051
372.94401136098
372.94042747735
372.93653834113
372.93225794504
372.92747573543
372.92204767518
372.91578416233
372.90843108131
372.89964039315
372.88892205999
372.87556111045
372.85846255139
372.83583516887
372.80452077105
372.75831063006
372.68356851724
372.99974038952
372.99752086484
372.99481795343
372.99198135047
372.98910735974
372.98622240011
372.98334275634
372.98048320115
372.97765499293
372.97486184415
372.97209965801
372.96936174088
372.96663947646
372.96392335718
372.96120359425
372.95846636869
372.95569486699
372.95286718823
372.94995511903
372.94692469872
372.9437318915
372.94032285075
372.93662938961
372.93256421031
372.92801464756
372.92283423149
372.91683029474
372.90974494338
372.90122527995
372.8907742623
372.87766619501
372.86078834841
372.83829085979
372.80682505948
372.75940537243
372.6782534405
372.9995275927
372.99655195272
372.99321887414
372.98996199589
372.98678567017
372.98368728516
372.98067840256
372.97778693037
372.97503185711
372.97240765212
372.9699178366
372.96756064289
372.96532910574
372.96321441939
372.96120686176
372.95929406473
372.95746052378
372.95568596182
372.95394000667
372.95219144079
372.95036131664
372.94837204878
372.94613711347
372.9435523748
372.94048944279
372.93678252012
372.93221499472
372.92649931301
372.91924157123
372.90988759301
372.89762619944
372.88122738798
372.85860658425
372.82592123191
372.77461349112
372.67831229962
373.00340180856
373.01774385852
373.03318417958
373.04851124006
373.06329305707
373.0772918572
373.09038018539
373.10250305559
373.11364898865
373.1238264746
373.13305835651
373.14137072513
373.14878940978
373.15533767348
373.16103413547
373.16589141303
373.16991612402
373.17311197685
373.1755297187
373.1772860912
373.17836990579
373.17872784981
373.17828092083
373.17689760169
373.17446069894
373.17075026351
373.16547431584
373.15823667995
373.14848233082
373.13541600317
373.11785312315
373.09399631248
373.06073052836
373.01223964073
372.93503975555
372.77923472507
372.61196929367
372.45739551912
372.2208520305
371.88252189197
371.43246000879
370.85975947787
370.14988708663
369.29001682228
368.26950901802
367.08280686506
365.72795079887
364.22157413989
362.60644791273
360.9078634176
359.16728838511
357.41861846788
355.69092750663
354.00627291291
352.37900717389
350.81868807744
349.33065638356
347.91556051587
346.57239530438
345.2991102068
344.09143509875
342.94534108433
341.86078319291
340.8274401145
339.84385175967
338.91166143947
338.0168106387
337.16974333382
336.35280049935
335.5779116206
334.828621934
334.11623153485
333.42551164028
332.76767392461
332.12801148158
331.51790113504
330.92338469305
330.35484586611
329.80100782066
329.26851619594
328.7518502308
328.25037067499
327.76601923098
327.2933179971
326.83718339642
326.39170971968
325.95942004712
325.53870636988
325.12928954364
324.73042436044
324.34169349685
323.96255152824
323.59260153496
323.23142677233
322.87867654128
322.53398046614
322.19699550052
321.86739488349
321.5448919295
321.2292149919
320.92010238812
320.61730452325
320.32058945443
320.02973780499
319.74455288595
319.46467819715
319.32328826483
320.95987765203
319.82252923163
318.29919926519
316.44968208113
314.21495879446
311.43374538997
308.2131684587
307.13539073895
307.0894935364
307.11785480081
307.13669931613
307.15002375605
307.1623094668
307.1839405611
307.20224987279
307.22099594492
307.24021367249
307.258683581
307.27520945958
307.28876381345
307.29871633818
307.30501146762
307.30818149633
307.30948249053
307.30978644434
307.31054827637
307.31255154154
307.31648233613
307.32267590556
307.33115667682
307.34168294925
307.35379538685
307.36703028327
307.38486004935
307.39970344045
307.41473428703
307.42974711695
307.44359918101
307.45492738081
307.4635125146
307.46725902614
307.46855850748
307.46631665799
307.45945001456
307.44853447012
307.4349409047
307.41876521391
307.39983111053
307.37772951705
307.35342124804
307.3274870039
307.30079768587
307.27397514802
307.24637735609
307.22020977613
307.19437202066
307.17060732523
307.14911673114
307.12918543147
307.11038924025
307.08946286781
307.07202082806
307.06065802862
307.05717414789
307.06030365419
307.08901640072
307.20053419588
308.80699491429
369.9882009312
372.56875623763
372.37606468611
372.08259352954
371.67557095945
371.14966184822
370.49556095948
369.70357756383
368.7674740852
367.68270323598
366.44855096671
365.06942486278
363.56150711432
361.95482100904
360.28126403329
358.57039001058
356.85332645951
355.15724886663
353.50290172223
351.90505236627
350.37259509487
348.91016711303
347.51918478816
346.1985993333
344.94592599394
343.75828017033
342.63132385349
341.56118739429
340.54443279214
339.57658843562
338.65499737513
337.77578792382
336.93630654413
336.13354934088
335.36486083726
334.62812749252
333.92088178641
333.2414542842
332.58778625121
331.95844625636
331.35177222118
330.76639901133
330.20114672872
329.65456445342
329.12594958893
328.61383353989
328.11780877517
327.63646365574
327.16954137575
326.71581296787
326.27499865818
325.84610350101
325.42876295319
325.02238260082
324.62643577649
324.24046160511
323.86396168099
323.49653849626
323.1377805593
322.78732428785
322.44480982468
322.10991260903
321.7823182583
321.46173894476
321.14790037777
320.84054958265
320.53944515878
320.24436625248
319.95507910992
319.67138753037
319.39259168229
319.70960004027
320.74595466671
319.47055994554
317.87128760316
315.93554373817
313.58897725554
310.6367686415
307.74455160292
307.12795023045
307.12769371663
307.15992705243
307.18266680527
307.20064913842
307.21761504666
307.22031827492
307.24127197775
307.26273734733
307.28445918354
307.30502995699
307.32318623689
307.33778677617
307.3481017451
307.3539781422
307.35586712702
307.35504375615
307.35258052055
307.35013420283
307.34877282665
307.34946565782
307.35283081479
307.35878547638
307.36724862124
307.37765071418
307.38953559703
307.40604428294
307.42006260638
307.43444279791
307.44892030642
307.46227421381
307.47326641607
307.48155578479
307.48514301318
307.48628769507
307.48363579672
307.47637779303
307.46499658159
307.45070786023
307.4339249697
307.41443328526
307.39186926331
307.36714819711
307.34089993924
307.31380876304
307.28638347399
307.25866073709
307.2322434162
307.20622662798
307.18216186904
307.16024063563
307.13975552482
307.12015816937
307.09890357101
307.07910857697
307.06742181078
307.06284571149
307.06559416426
307.09125494178
307.19867493155
308.7839569743
369.09416860054
372.54929348655
372.31508891742
371.95709563062
371.47034327651
370.85747467277
370.11924913512
369.25632565272
368.26817353044
367.15342603746
365.911253043
364.54968431719
363.08156432102
361.52276474004
359.89914514161
358.2389123109
356.56914195641
354.91538786435
353.29822966577
351.7320997474
350.22586335237
348.78489836912
347.41168065622
346.10556735503
344.8647066847
343.68652528003
342.56764470394
341.50456677393
340.4935445873
339.53119481852
338.61367594439
337.73843567106
336.90205042605
336.10223799623
335.33605927497
334.60157712954
333.89632852755
333.21871466404
332.56664357291
331.93881306301
331.33337372046
330.74935570232
330.185016242
329.63966695148
329.11175071761
328.60071786128
328.10525285216
327.62478619422
327.1583942429
326.70534560399
326.26505931781
325.83675727372
325.41997356028
325.01401621121
324.61849122596
324.23288376345
323.85675961822
323.48968742897
323.13126273858
322.78111206271
322.43888498211
322.10425979815
321.77692369234
321.45658574799
321.14297360598
320.83583814523
320.53493852983
320.24005069894
319.95094043133
319.66740660594
319.3887632628
319.70663250337
320.74362491271
319.47098472065
317.87501261777
315.9434656986
313.60190010274
310.66161327205
307.80745408391
307.17325949974
307.16999427044
307.20929519454
307.23931513899
307.26387345924
307.28678146945
307.28901623067
307.3146352588
307.34067848058
307.36662552754
307.39100536803
307.41238142851
307.42936923899
307.44115444655
307.44729478116
307.44808005676
307.4445973751
307.43814516513
307.4305473071
307.4233973784
307.41816508071
307.41586121653
307.41684454357
307.42112394807
307.42797284437
307.43711102495
307.45095334373
307.46337756471
307.47657779007
307.49012440432
307.50275505278
307.51338424473
307.52092901387
307.5243905771
307.52550567336
307.52201589159
307.51392996443
307.50150178751
307.48610660355
307.46833336975
307.44760802253
307.42387533287
307.39758497459
307.37039656119
307.34204643473
307.31353629485
307.28514838486
307.25781747648
307.23101810268
307.20579589327
307.18270437407
307.16084831292
307.14065645649
307.11733705209
307.08982120494
307.08526621072
307.07305734641
307.07799224376
307.08334905971
307.1855631143
308.55212077665
364.52465271847
372.51014205432
372.18083141862
371.68417657362
371.04555651052
370.29432307278
369.43981617465
368.49680612147
367.46548950048
366.34179458912
365.12159608583
363.81357026796
362.41445973983
360.93287620157
359.38657183191
357.79850218227
356.19408159126
354.59688663053
353.02780976911
351.50214335311
350.03019206021
348.61801416695
347.26771369005
345.98090599725
344.75628061942
343.59134128572
342.48334304212
341.42938264275
340.42622613201
339.47051073822
338.55902311675
337.68868350581
336.85682286608
336.06068998384
335.29807291844
334.56643044098
333.86402642062
333.18866662188
332.53889121654
331.9128654272
331.30934920308
330.72676335453
330.16400496153
329.61985603997
329.09322529505
328.58321865906
328.0887618353
327.60925638818
327.14364196923
326.6914593925
326.25180583021
325.82424057392
325.40805659587
325.00273576953
324.60775745919
324.22264918908
323.84700250411
323.48037207581
323.12237025004
322.77261913577
322.43077302107
322.09650234787
321.76949791906
321.44947355642
321.13616273183
320.82931358203
320.52868256108
320.23404328438
319.94516793159
319.66185724873
319.3833899147
319.70424358714
320.74046634213
319.47151491752
317.88056529699
315.95540249733
313.62163472521
310.69940519924
307.89217992162
307.23229902875
307.22231933741
307.26895303127
307.30717666797
307.3391359259
307.36876064335
307.37386138102
307.40490170471
307.43604622673
307.46669329062
307.49534957116
307.5204857093
307.54061048131
307.5547951623
307.56243821962
307.56349918316
307.55885901847
307.54967000939
307.5377743042
307.52503914704
307.51340499851
307.50451912839
307.49926466403
307.49791549337
307.50017260166
307.50553128162
307.51535065422
307.52548736098
307.53693524529
307.54908452765
307.5607359923
307.5707478559
307.57706870159
307.58032104302
307.58090680536
307.5763333541
307.56710228868
307.55342714199
307.53612231957
307.51657391156
307.4939742796
307.46827365175
307.44032163529
307.41130069476
307.38118306883
307.35077191957
307.32082147476
307.29181576706
307.26359448701
307.23686490345
307.21228386772
307.18870558989
307.1668606923
307.14210258419
307.11253935774
307.10540847981
307.08883241844
307.09346968114
307.09445675655
307.18574181208
308.48009312198
364.42542705106
372.40528747494
371.80036924584
371.00006055531
370.12317048565
369.22431342806
368.29705838192
367.33509253115
366.32591922806
365.25317440406
364.10965269373
362.88632422436
361.58156255087
360.19778181276
358.74743750493
357.24993189265
355.72700695715
354.20075062186
352.69188148661
351.21664890005
349.78651334534
348.40898652467
347.0885379583
345.82562617954
344.62079895661
343.47273214155
342.37905489002
341.3367884186
340.34343612733
339.39622174185
338.49204745892
337.62794575028
336.80150661286
336.01010995125
335.25156297592
334.5236729072
333.82449408891
333.15208954956
332.50491109792
331.88127800998
331.27986064868
330.69919497302
330.13822704737
329.59561553059
329.07049932683
328.5617411751
328.06859075787
327.59011647779
327.12558129799
326.67431060255
326.23555728927
325.80880686448
325.393353142
324.98876924598
324.59445769642
324.20998650415
323.83490211299
323.46880306823
323.11130848302
322.76204228387
322.42065301149
322.08680739728
321.76020495412
321.44056493478
321.12761946243
320.82111395269
320.52080768543
320.22647628204
319.93788531955
319.65484392475
319.37659543716
319.70135050325
320.73674068394
319.47235119002
317.88816115774
315.97179497885
313.64910081104
310.75142098499
307.99405621473
307.30108254442
307.2800063577
307.33304300599
307.37961950629
307.41916159722
307.45558830123
307.46501101625
307.50144396249
307.53751297337
307.57257651463
307.60518420745
307.63380426604
307.65693186868
307.6735706423
307.68310889835
307.68532985502
307.68089985572
307.670836677
307.65676135478
307.64046701647
307.62397292453
307.60925312288
307.59798340803
307.59082129089
307.58785924381
307.5885867349
307.59347799172
307.6011645
307.6104603405
307.62080669388
307.63108918611
307.63975067017
307.64507163708
307.64753306117
307.64704482877
307.64068497114
307.6293658157
307.61355609208
307.59379847832
307.57145208783
307.54619430537
307.51789894029
307.48761270596
307.45628808998
307.42395491329
307.39135742411
307.35944703943
307.32844170216
307.29836085452
307.26986206949
307.24315283298
307.21772495106
307.19369118989
307.1668877263
307.13602234393
307.12515976653
307.10310486547
307.10703060653
307.10418894347
307.18696721264
308.4484542451
364.59586389958
371.79816950322
370.2541854015
369.1997554294
368.32352791079
367.48881383962
366.65335919772
365.79523947918
364.90047608113
363.94559107666
362.91718588794
361.80748747607
360.61659352419
359.3459421416
358.00430130092
356.60792382864
355.17711047015
353.73228602058
352.2931246589
350.87690559361
349.49618706511
348.1598341374
346.87324717538
345.63961892728
344.45874894849
343.33050380875
342.25364486648
341.22597989623
340.24465403727
339.30767169221
338.41234672268
337.55602712109
336.73603785945
335.95042292933
335.1968993985
334.47344746696
333.77810352322
333.10926594099
332.46513994769
331.84430497803
331.24534270772
330.66700306011
330.10800605544
329.56727571117
329.04382383927
328.53663664001
328.04489118169
327.56767935472
327.10438213424
326.65418090748
326.2164846747
325.79063288056
325.37608035468
324.97231387042
324.57878019537
324.1950382869
323.82061776186
323.45515222969
323.09824303591
322.74952577944
322.4086530659
322.07530420995
321.74917737443
321.42998265988
321.11745410942
320.81134556655
320.5114201794
320.21745020673
319.92918571748
319.64645910242
319.36846354191
319.69792390999
320.7325469788
319.47371154524
317.89809908359
315.99318625717
313.68533865245
310.81881271274
308.10967194318
307.37684885164
307.34019845011
307.39802835786
307.4527957085
307.49991434421
307.54307212924
307.55742450053
307.59902658304
307.63966656002
307.67870770323
307.71474422678
307.74631245679
307.7719430467
307.79062114615
307.80178305876
307.80517720253
307.80132339808
307.79118326212
307.77618398849
307.75794951639
307.7384486131
307.71968524566
307.70354140832
307.69131206969
307.68338621785
307.67914891925
307.67893830613
307.68418489362
307.69101547251
307.69899853536
307.70690508574
307.71343038191
307.71721274121
307.71778379227
307.7149848073
307.70571596296
307.69123551322
307.67215553392
307.64908515551
307.62318294528
307.59479447944
307.56353367952
307.53075877291
307.49710499431
307.46262520346
307.42789183142
307.39383235736
307.3603338093
307.32797639024
307.29715254384
307.26787338443
307.24013073109
307.21315933665
307.18359834387
307.15164225328
307.13526244423
307.10588463708
307.10777355752
307.09973547555
307.17356880497
308.40275452302
364.73273224853
362.99355640644
366.5946949865
366.33683197826
365.91830254613
365.43263615889
364.86139463637
364.21017415745
363.48531905311
362.69058892449
361.82224882799
360.86887280619
359.82678087466
358.69966430495
357.49278914122
356.21852577518
354.89489122699
353.54181248538
352.17859382748
350.82316377464
349.49033946401
348.19079096113
346.93222175093
345.71900338867
344.55383627714
343.43703938185
342.36752466547
341.34493542875
340.36715435351
339.43209582597
338.53715863592
337.68062292034
336.86000730372
336.07304386776
335.31769704196
334.59233641273
333.89496638756
333.22382571475
332.57738255893
331.95424876827
331.35293568711
330.77220554431
330.21089107001
329.66792559209
329.14221660332
328.63283935485
328.13895904953
327.65972425097
327.19441367044
326.74225077426
326.30268097457
325.87502133755
325.45873165718
325.05324142708
324.65806654784
324.2727632962
323.89684324108
323.52990646904
323.17155216857
322.82144803521
322.47924650169
322.14461579723
321.81724385777
321.49684484027
321.18315720388
320.87592620484
320.5749115838
320.27988436403
319.99067133772
319.70700973056
319.4285670784
319.25227251069
320.94273287896
319.82112062571
318.33065732607
316.52626165791
314.34785267103
311.66434970909
308.73096219789
307.53826276249
307.39492250843
307.4453516756
307.50989888898
307.56637706777
307.61713007035
307.64896441384
307.69548949546
307.74042721293
307.7830786482
307.82211649701
307.8561451651
307.88374994177
307.90395309511
307.91623030542
307.92039689888
307.91689953318
307.90670290154
307.89111263023
307.87162663298
307.85009435682
307.82847219522
307.80864547467
307.79215439989
307.77984415705
307.7708349383
307.81183798871
307.81148582494
307.81288069655
307.81578725148
307.81881163429
307.82060866686
307.81974763764
307.81535378394
307.80671500072
307.79095472949
307.76996986051
307.74476955851
307.71647127734
307.68580084387
307.65310305955
307.61779958366
307.58106508365
307.54320902809
307.50446998034
307.46512617792
307.42656390904
307.38811258081
307.35125948752
307.31548632935
307.28145765228
307.24846037435
307.21510674231
307.18067812904
307.14578760599
307.11722139704
307.07266043822
307.06859314647
307.05000751203
307.10826408672
308.27907482552
364.8594685025
353.85095677203
359.05883445085
359.88800378642
360.28215307901
360.44573950513
360.4254389326
360.22059351147
359.86255793978
359.37313969285
358.76987760907
358.06021104594
357.25416917796
356.35542533469
355.36728366088
354.30041070513
353.17062282582
351.99603960255
350.79502631373
349.58463708079
348.38022044425
347.1940097557
346.03464006452
344.90824388054
343.8184020837
342.7673936977
341.75595514255
340.78414640301
339.8504565145
338.95449091547
338.09462570127
337.26912953069
336.47598676885
335.71368674664
334.9807270059
334.27539223285
333.59596743744
332.94117313458
332.30970033019
331.70015621344
331.11123674145
330.541851049
329.99103115084
329.45769299165
328.9408859503
328.43974212948
327.95352970384
327.48144710771
327.02276166997
326.57682752647
326.14305834796
325.72087926505
325.30971318683
324.90905519497
324.51844340801
324.13743577109
323.76561194956
323.40254522234
323.04786531126
322.70122891882
322.36231760028
322.03082261488
321.70644766853
321.38891903148
321.0779770631
320.77337444102
320.47487340169
320.18224241537
319.89524155274
319.61368330858
319.33675388938
319.68641422361
320.71784384014
319.482587147
317.94506781861
316.09315726037
313.85699801054
311.12169055065
308.52676394108
307.63557247175
307.52580671037
307.58477444379
307.66213977452
307.73241211065
307.79611061048
307.82686303735
307.88324553503
307.93643216077
307.98575226954
308.02994340909
308.06774766195
308.09796578383
308.11978290491
308.13281803205
308.13709480218
308.13308349078
308.12179739209
308.1044574465
308.08246662901
308.05749334662
308.03135360225
308.0057914368
307.98244403508
307.96250296103
307.94595887538
307.97197870514
307.96364156453
307.95697936182
307.95171565882
307.94658749418
307.93978264137
307.92963022246
307.91507487127
307.89571375088
307.86967318875
307.83891868141
307.80362023188
307.76411140043
307.72216355423
307.67750964288
307.62959936309
307.58007080708
307.52944981384
307.47844582089
307.42691145862
307.37597057469
307.32471313561
307.27508074082
307.22613115184
307.17919408809
307.13229100388
307.08417481133
307.03607113847
306.98646996523
306.93396206508
306.86298125229
306.83511272564
306.78030045312
306.80677358932
307.87530505088
364.8171409589
349.45648614865
354.04596416046
355.08036641471
355.72969140414
356.15508208128
356.42098965778
356.52203976087
356.47411044471
356.27339484326
355.93574430961
355.47598413524
354.90722891888
354.22799128863
353.45299164188
352.59227038509
351.6568429234
350.66173146501
349.62381357298
348.55910876063
347.48230156535
346.40639505982
345.34262288971
344.29861938481
343.27995742473
342.29013759523
341.33157131392
340.40538417975
339.51166831809
338.65024594505
337.82006365978
337.0201426653
336.24981492267
335.50764673017
334.79249050541
334.10267573005
333.43714008217
332.79487159602
332.17450448626
331.57486703528
330.99478643529
330.43350963642
329.88993216492
329.36314733707
328.85220328163
328.35648411827
327.87518615971
327.40759480114
326.95300664664
326.51082858134
326.08053836061
325.66154155272
325.25332141756
324.85537527308
324.46729458802
324.08864538837
323.71900074402
323.35797426755
323.00519983806
322.66036305676
322.32313261143
321.99320126866
321.67029687903
321.35415638996
321.04453660921
320.74118938556
320.44387749805
320.15235528406
319.86641583173
319.58583371539
319.30977998969
319.682350059
320.70662924714
319.49333133263
317.99299201001
316.19449044569
314.03215459132
311.41374644607
308.87071160075
307.8383489958
307.65490683165
307.70099497201
307.79023853488
307.87681949056
307.95568001331
307.99848461913
308.06542178714
308.12711497789
308.18290850991
308.2315939479
308.27205070377
308.30336550245
308.32506355352
308.3370120525
308.33952946359
308.33327351242
308.31937973991
308.29906312249
308.27371868476
308.24491915168
308.21434754485
308.18361864952
308.15419751337
308.12730520188
308.10311384622
308.11403018079
308.09650916827
308.08052273296
308.06523321291
308.04908896942
308.03011718934
308.007960085
307.98074603727
307.94696540311
307.90459577189
307.85434424769
307.79804596418
307.73589262061
307.66919187063
307.5990468177
307.52591568224
307.45100506919
307.37508089963
307.2983777619
307.22079541131
307.14266971534
307.06365134676
306.98453697875
306.90621039085
306.82756365385
306.74796272765
306.66488692387
306.57878583636
306.4890502199
306.39092726842
306.27243416937
306.1838027851
306.07524290209
305.99714943631
306.93140580403
364.09795047219
346.7532938775
350.432439177
351.45744745116
352.1521731304
352.66666336149
353.05055576918
353.30267574762
353.42042483799
353.41386858704
353.27144907418
352.9949887887
352.6159203273
352.13362497353
351.54381419904
350.85963290914
350.09680845986
349.26424739196
348.37804329178
347.4527712192
346.50230130591
345.53907521269
344.57378012954
343.61581647568
342.67219649172
341.74798871373
340.84644585412
339.9698959871
339.11966246464
338.29620606557
337.49946918429
336.72925085613
335.98503548323
335.26577691023
334.57057920425
333.89893789367
333.24964686605
332.62184513802
332.01428069215
331.42607092034
330.85659926887
330.30478337998
329.76982463742
329.25070192927
328.74690138561
328.25765944355
327.78226798564
327.32004234373
326.87036113011
326.43276740831
326.00664347227
325.59149328071
325.18678153941
324.79210747373
324.4070796938
324.03124879317
323.66422564985
323.30561706171
322.95512044802
322.61242172036
322.27719411345
321.94914409007
321.6279936096
321.31350683511
321.00544632364
320.70356826512
320.40764472325
320.11742925533
319.83272478009
319.55328282942
319.27820616939
319.6884425343
320.69418449125
319.5076940387
318.0549285657
316.32585986345
314.25977568787
311.78129639386
309.28761609186
308.08169806021
307.79790665016
307.81532906863
307.91076429244
308.01389887845
308.1098311309
308.16615639946
308.24517210169
308.31629146122
308.3788093344
308.43160129146
308.47374819962
308.50468039085
308.52436198813
308.53314667086
308.53176378571
308.52125794315
308.50295710403
308.47815776904
308.44830653821
308.41492834481
308.37959007021
308.34374211171
308.30863283746
308.27526760397
308.24369254533
308.23901655307
308.21133189971
308.18383700112
308.1553043841
308.12474702549
308.09157117227
308.05149219236
308.00198690671
307.93983757772
307.86659619378
307.78264872428
307.68895854684
307.58605785834
307.47550037007
307.35761049065
307.23319484749
307.10406977964
306.97165974946
306.83589941724
306.69684803487
306.55502749435
306.41023518161
306.26352735528
306.1155815314
305.96532785656
305.81101606877
305.65002258583
305.4799348229
305.29700360492
305.0990567825
304.87493291943
304.6555750337
304.41498371448
304.12420312612
304.85324689402
359.81520404954
345.18480728486
347.5611880161
348.59959657042
349.26398321588
349.7961757877
350.21931427788
350.53893958704
350.75734267401
350.84964894408
350.83918019179
350.71775852964
350.47219492355
350.12036823365
349.68950665956
349.16231163594
348.54275186334
347.85284163722
347.10354875997
346.30606801025
345.47312122402
344.61739937782
343.74962029001
342.87826423448
342.01108568899
341.15411290782
340.31182316621
339.48736587697
338.6829441964
337.89991543081
337.13902644742
336.40056765161
335.68445041179
334.99038002069
334.31793623892
333.66642299148
333.03495739053
332.42310947395
331.83018023991
331.25521586395
330.69766009213
330.15647317677
329.63102544595
329.12087207593
328.62518848676
328.14338952787
327.67471009839
327.21864526198
326.7747560203
326.34241869533
325.92116407132
325.51042135419
325.10982290875
324.71901031087
324.33752167249
323.96498356826
323.6009831428
323.24523245458
322.89742577297
322.5572220343
322.22432976259
321.89845593277
321.57937066892
321.26683464431
320.96059211573
320.66041955232
320.36609595028
320.07740175682
319.79412030302
319.5160258629
319.2419488215
319.714393393
320.68005289929
319.52441178173
318.12974265572
316.48611940672
314.53819498619
312.22297623908
309.79849373853
308.39234907771
307.97132141627
307.9371126097
308.02792954464
308.14578890254
308.26063863266
308.33244789982
308.42588637564
308.50804036517
308.57800246968
308.63473264621
308.67759066038
308.70648637098
308.72191805245
308.72497514234
308.71700127852
308.69970293377
308.67464942553
308.64334427316
308.60730689386
308.56806289559
308.5270985821
308.48568793732
308.4448207671
308.4051885805
308.36641703804
308.34500809972
308.30561268469
308.26378471663
308.21991761545
308.17233868022
308.11491072057
308.0430252378
307.95643485457
307.85202902873
307.72866059325
307.58766448133
307.42690181325
307.24632993522
307.0478518288
306.83135242286
306.60146598573
306.3605302651
306.10934984216
305.84965687752
305.58385730947
305.31415291041
305.04041259375
304.76221507244
304.47800501898
304.18479573648
303.88026722359
303.56106248351
303.22309146526
302.86002017054
302.47299417499
302.04892745122
301.59405495155
301.10922344632
300.60874292584
299.86499892743
287.83618639775
344.4168463003
345.15081153159
346.24733586815
346.86843549938
347.38100244373
347.80951896201
348.15607604086
348.42288859305
348.58343916064
348.64290343134
348.61842668726
348.4874887519
348.25165740392
347.91935127306
347.52036725154
347.03100664583
346.46203105981
345.82902771999
345.14478646901
344.42014365749
343.66424596856
342.888042456
342.10053079555
341.30883141445
340.51932958131
339.7371527251
338.96605259948
338.20897308548
337.46799294117
336.74449384861
336.03936249979
335.35306962744
334.68572607704
334.03717145653
333.40709506505
332.79518833784
332.20103440813
331.6239527631
331.06317845125
330.51851279817
329.98925479668
329.47474076583
328.97455296822
328.48782878793
328.01404609564
327.55296020528
327.10391321532
326.66644605769
326.24000256564
325.82405975001
325.41837418649
325.02250410893
324.63603188599
324.25856271039
323.88969720988
323.52920576418
323.17674522431
322.83198741982
322.49463964882
322.16438994439
321.8410343846
321.52432400742
321.2140022956
320.90984312697
320.61160747221
320.31911244845
320.03217322133
319.75058047831
319.47403237144
319.200745658
319.77818696506
320.66276156338
319.54124871639
318.21438429225
316.67059661467