/*--------------------------------*- C++ -*----------------------------------*\
| =========                 |                                                 |
| \\      /  F ield         | OpenFOAM: The Open Source CFD Toolbox           |
|  \\    /   O peration     | Version:  2312                                  |
|   \\  /    A nd           | Website:  www.openfoam.com                      |
|    \\/     M anipulation  |                                                 |
\*---------------------------------------------------------------------------*/
FoamFile
{
    version     2.0;
    format      ascii;
    arch        "LSB;label=32;scalar=64";
    class       volScalarField;
    location    "7e-05";
    object      Y.Liq;
}
// * * * * * * * * * * * * * * * * * * * * * * * * * * * * * * * * * * * * * //

dimensions      [0 0 0 0 0 0 0];

internalField   nonuniform List<scalar> 
109340
(
0.99999
0.99999
0.99999
0.99999
0.99998999999988
0.99998999999674
0.99998999991292
0.99998999880429
0.99998999365972
0.9999899793173
0.99998994869671
0.99998989289217
0.99998980124807
0.99998966133236
0.99998945879432
0.99998917709503
0.99998879705223
0.9999882961691
0.99998764768091
0.99998681925183
0.99998577122194
0.99998445436831
0.99998280700143
0.99998075112575
0.99997818713326
0.99997498640459
0.99997098064835
0.99996594604164
0.99995957869333
0.99995145494354
0.99994096381952
0.99992718511841
0.99990865457561
0.99988288394699
0.99984532449578
0.99978699414187
0.99999
0.99999
0.99999
0.99998999999999
0.9999899999998
0.99998999999461
0.99998999985675
0.99998999831868
0.99998999184235
0.99998997476969
0.99998993952945
0.99998987675605
0.99998977533657
0.99998962235904
0.99998940294357
0.9999890999236
0.9999886933613
0.99998815981061
0.99998747127271
0.99998659378703
0.99998548557063
0.99998409462075
0.99998235561559
0.99998018577595
0.99997747911763
0.99997409837489
0.99996986329147
0.99996453304109
0.99995777874222
0.99994913844788
0.99993793936152
0.99992315453119
0.99990311775442
0.99987491603816
0.99983296719924
0.99976560312213
0.99999
0.99999
0.99999
0.99999
0.9999899999999
0.99998999999752
0.9999899999137
0.9999899986406
0.99998999271019
0.99998997644554
0.99998994223509
0.99998988067078
0.99998978059958
0.99998962907465
0.9999894111894
0.99998910976772
0.99998870487366
0.9999881730806
0.99998748641752
0.9999866109578
0.99998550493485
0.99998411633244
0.99998237980473
0.99998021251748
0.99997750841445
0.99997413012155
0.99996989722973
0.9999645687401
0.99995781560382
0.99994917570004
0.99993797596257
0.99992318819099
0.99990313547804
0.99987484033757
0.9998323842517
0.99976229670804
0.99999
0.99999
0.99999
0.99999
0.99998999999997
0.99998999999945
0.99998999996307
0.99998999897293
0.99998999366015
0.99998997833382
0.99998994533834
0.99998988521992
0.99998978678276
0.99998963703777
0.99998942102943
0.99998912152108
0.99998871850177
0.99998818845156
0.99998750326731
0.99998662883559
0.99998552308812
0.99998413353696
0.9999823941816
0.99998022126816
0.99997750747778
0.99997411367548
0.99996985699886
0.99996449302262
0.99995768791076
0.99994897271657
0.99993766414759
0.99992271788819
0.9999024203095
0.9998736711633
0.9998300051312
0.99975469710773
0.99999
0.99999
0.99999
0.99999
0.99999
0.99998999999998
0.99998999998628
0.99998999920964
0.99998999448112
0.99998998016496
0.99998994855681
0.99998989006137
0.99998979324387
0.99998964478096
0.99998942923313
0.99998912868404
0.99998872219789
0.99998818502269
0.99998748727221
0.9999865926646
0.99998545600587
0.99998402050414
0.99998221435663
0.99997994582865
0.99997709678258
0.99997351322337
0.99996899188342
0.99996326013161
0.99995594472759
0.9999465206972
0.99993422233073
0.99991788165676
0.99989557448354
0.99986376963414
0.99981475656302
0.9997250817895
0.99999
0.99999
0.99999
0.99999
0.99999
0.99999
0.99998999994135
0.99998999837248
0.9999899905518
0.99998996863384
0.99998992198977
0.99998983732874
0.99998969865995
0.99998948708357
0.99998918037649
0.9999887523375
0.99998817184149
0.99998740168185
0.99998639754644
0.99998510152028
0.99998343976607
0.99998131921633
0.99997862084905
0.99997519133223
0.99997083181539
0.99996528212085
0.9999581981713
0.9999491182909
0.99993741079507
0.99992218788079
0.99990215383617
0.99987534189161
0.99983848848448
0.99978556464777
0.99970301687522
0.99954415802534
0.9996910547781
0.99953265026234
0.99928217021993
0.99891780436248
0.99842962598354
0.99780770189175
0.9970370049034
0.99610459023129
0.99500024305102
0.99371974392111
0.9922647166706
0.99064910939565
0.98892583451279
0.98712285113107
0.98528462585154
0.98344860551223
0.98164584419861
0.9798988734134
0.97822212848291
0.97662407466425
0.97510878739582
0.97367630405612
0.97232425188059
0.97104912828104
0.96984641130158
0.96871123262698
0.96763935319066
0.96662606087735
0.96566584251702
0.96475652630232
0.96389206409708
0.9630709334881
0.96228851887883
0.96154282665493
0.96083063044018
0.96014980601404
0.95949794814516
0.95887320929336
0.95827353711821
0.95769757147886
0.95714336383233
0.95661003195328
0.95609567858963
0.95559977106729
0.95512056729092
0.95465767796303
0.95420967216687
0.9537760739838
0.95335588539792
0.952948462114
0.95255315952914
0.95216931059733
0.95179635278295
0.951433734858
0.95108095554183
0.95073754219221
0.95040306119884
0.95007710791303
0.94975930553367
0.9494492984606
0.94914675144666
0.94885134836265
0.9485627915114
0.94828079887629
0.94800510327438
0.94773545228309
0.94747160765966
0.94721334740353
0.94696046552019
0.94671274936195
0.94643079080823
0.94467521878379
0.9431965364748
0.94160494946611
0.93962230789064
0.93713062497366
0.93406510949319
0.93109697823822
0.93051197511572
0.93054346844632
0.93059199640128
0.93063046857026
0.93066188199865
0.93068822932849
0.93071774461174
0.93073584246492
0.93075004460462
0.93076089238315
0.93076873745559
0.93077404474408
0.93077738770061
0.93077941959771
0.93078083504233
0.93078237118042
0.93078470384006
0.93078832173302
0.93079351038534
0.93080036752592
0.93080883485146
0.93081875356387
0.93082991374226
0.93084207165343
0.93085497355366
0.93086835525899
0.93088539395477
0.93089891181769
0.93091181968254
0.93092427821204
0.93093602327952
0.93094688611394
0.93095643666629
0.93096471078764
0.93097148068317
0.9309769831051
0.93098027892882
0.93098083043486
0.93098037540546
0.93097904332214
0.93097668652147
0.93097329098156
0.93096885680866
0.930963461544
0.93095713260672
0.93094993715135
0.93094193750218
0.93093318446939
0.93092380047292
0.93091384309335
0.93090347860914
0.93089278455138
0.93088187516282
0.93087079971345
0.93085936736666
0.93084828282217
0.93083711149941
0.9308266138448
0.93081643150418
0.9308017333701
0.93051077116884
0.91818498336532
0.99964899443902
0.99944911285423
0.99913539432825
0.99869442706617
0.99812377296388
0.99741362303323
0.99655470143202
0.99554117110178
0.99436970719841
0.99304147376534
0.99156279747058
0.98995346994652
0.98824520324324
0.98647504325215
0.98467543003124
0.98287917015772
0.98111566584645
0.97940580835082
0.9777640062342
0.97619856224778
0.97471309051631
0.97330781250784
0.9719806997788
0.97072834422685
0.96954675157254
0.96843093299444
0.96737627596025
0.96637837121255
0.965432949375
0.96453602532362
0.96368397020877
0.96287331217574
0.96210105752179
0.96136428142957
0.96066048393837
0.95998723361786
0.95934245084825
0.95872413958883
0.95813056654398
0.95756006337073
0.95701117482529
0.95648249275499
0.95597279529423
0.95548090072503
0.95500577664367
0.95454643176497
0.95410197809505
0.95367158459989
0.95325448825221
0.95284998984383
0.9524574267859
0.95207619483462
0.95170571553611
0.95134545926944
0.95099492675678
0.95065366019915
0.9503212322658
0.94999724602632
0.94968132880505
0.94937312995408
0.94907231809374
0.94877858131275
0.94849162533842
0.94821117153244
0.94793695609299
0.94766873002218
0.94740626078637
0.94714932914293
0.94689772921642
0.94665126969158
0.94620928105332
0.94427168970433
0.94282865062779
0.94115441453425
0.93905718177481
0.93642730582308
0.9332428625928
0.93080337301354
0.93053678980371
0.93058740559664
0.93063866883362
0.9306799970559
0.93071419696256
0.93074283304044
0.9307514118202
0.93077137596487
0.93078730232202
0.93079954544718
0.930808342482
0.93081405992463
0.93081719746441
0.93081836065711
0.93081821563385
0.93081758521903
0.93081734160383
0.93081821249298
0.93082071492206
0.93082515360244
0.93083159527997
0.93083992164443
0.9308499172804
0.93086129503884
0.93087374854099
0.93088695647675
0.93090408581902
0.93091787353226
0.93093115827739
0.93094406188271
0.93095623440811
0.93096754682781
0.93097749642234
0.93098616328024
0.93099331399241
0.9309991582171
0.93100276506415
0.93100353118516
0.93100310333517
0.93100176212804
0.93099935870354
0.93099587109462
0.93099131946035
0.930985808376
0.93097935838426
0.93097205994489
0.93096396478079
0.93095513948549
0.93094570523984
0.93093571815533
0.93092535250069
0.93091465913083
0.93090378293591
0.93089270265734
0.93088118673512
0.93087025645813
0.9308591587969
0.93084873481008
0.93083833061766
0.93082359217296
0.93054732477837
0.91904353732565
0.99963147521132
0.99938782993658
0.99900093393239
0.99847270561784
0.99780794051348
0.99700713528325
0.9960715307854
0.99500241081853
0.99379962163911
0.99246416753966
0.9910051494489
0.98943907934611
0.98778426058368
0.98606940777734
0.98432529719469
0.98258099837332
0.98086378742335
0.97919417713219
0.97758650803437
0.97604939892464
0.97458716784304
0.97320100090415
0.97188961577951
0.97065015500194
0.96947893501047
0.96837189505144
0.96732495648026
0.9663335505584
0.96539370876103
0.96450159229996
0.9636536798292
0.96284668193794
0.96207754907516
0.96134355499271
0.96064213052529
0.95997101617346
0.95932807284945
0.95871142797382
0.95811929314567
0.95755008839109
0.9570023131981
0.95647462965082
0.95596578829751
0.95547465573269
0.95500019359352
0.95454143153109
0.95409749805971
0.95366755577181
0.9532508669251
0.95284671432202
0.95245446130761
0.95207349106886
0.95170324498488
0.95134319153796
0.95099283908667
0.95065173200344
0.95031944574906
0.94999558488729
0.94967977731576
0.94937167358239
0.9490709442361
0.9487772791236
0.94849038551216
0.94820998640923
0.94793581898296
0.94766763520145
0.9474052034759
0.94714830507632
0.94689673391393
0.94665030109961
0.94620728457132
0.94427164864447
0.9428306937513
0.94115979934311
0.93906732814842
0.93644278071583
0.93326958473777
0.9308554554599
0.93057471688269
0.93062747926414
0.93068495895866
0.93073194584844
0.93077113298981
0.93080422188797
0.93081272315461
0.9308358945943
0.93085492117274
0.93086980622007
0.93088064830746
0.93088765453074
0.93089117878971
0.93089179526522
0.93088987654946
0.93088633526035
0.93088220119102
0.93087849690139
0.93087618152056
0.93087599472634
0.93087832670188
0.93088326850672
0.93089067219944
0.9309002246185
0.93091154502921
0.93092421154927
0.93094133075376
0.93095548534352
0.93096948031351
0.9309832507513
0.93099628866833
0.93100852733404
0.93101933957106
0.93102885922847
0.9310368300355
0.93104337914969
0.93104784262318
0.93104936298183
0.93104909811774
0.93104788732506
0.93104554152863
0.93104202909936
0.9310373979543
0.93103178498976
0.93102521240703
0.93101780022169
0.9310096043144
0.93100070240701
0.93099121472286
0.9309811828168
0.93097080031696
0.93096009077238
0.9309492384917
0.93093817189743
0.93092670755485
0.93091599900891
0.93090506811721
0.93089472733901
0.93088432624064
0.93087068915477
0.93065624712825
0.92153354288699
0.99959289667716
0.999246481452
0.99870774631659
0.99801581626626
0.99719815845879
0.99627240693088
0.99525116727562
0.99413730039556
0.9929275169064
0.99161843526706
0.99021820814666
0.98872796108417
0.98715756255686
0.98552696738976
0.98386174035923
0.98218798828504
0.98053151245348
0.97891377206965
0.97734965146648
0.97584891510704
0.97441696831876
0.97305570877452
0.97176481306929
0.97054234294173
0.96938523435773
0.96828986182578
0.96725245190236
0.96626938209962
0.96533667417306
0.96445071006115
0.96360809342219
0.96280571191115
0.9620406235367
0.96131018710508
0.96061192732162
0.95994361783705
0.95930319681931
0.95868880736537
0.95809871161135
0.95753134150141
0.95698522521217
0.95645904422471
0.95595155455325
0.95546165059956
0.95498828729392
0.95453053229569
0.9540875024833
0.95365839410869
0.95324245531851
0.95283898800554
0.95244735116821
0.95206693761929
0.95169719314975
0.95133759134814
0.95098765005189
0.95064691659769
0.95031497208046
0.94999142310534
0.94967589937164
0.9493680527617
0.94906755591068
0.94877410098097
0.94848739743447
0.9482071703972
0.94793315919164
0.94766511788087
0.94740281655406
0.94714603791753
0.94689457650892
0.94664824297828
0.94620429434916
0.94427113591755
0.9428333687396
0.94116770634723
0.93908254487315
0.93646639859961
0.93330991306114
0.93092417527004
0.93062136738231
0.93067376218874
0.93073736971818
0.9307902454563
0.93083472144432
0.93087268146397
0.9308842173437
0.93091122883744
0.93093386842908
0.93095193660921
0.93096547992208
0.93097457338141
0.9309794253998
0.93098050829125
0.93097802252011
0.93097269077985
0.93096549726014
0.93095756858612
0.93095016303368
0.93094447706825
0.93094151215891
0.93094172224196
0.93094520961546
0.93095178101206
0.93096105468018
0.9309725263739
0.93098913761084
0.93100343163638
0.93101809865257
0.93103290364377
0.93104705875185
0.93106051126764
0.9310725212748
0.93108324571052
0.93109240184717
0.93110003575036
0.93110584414285
0.9311089109948
0.93110913711597
0.93110829466136
0.93110624053492
0.93110292950073
0.93109842112238
0.9310928758687
0.93108632583766
0.93107892135438
0.93107073030926
0.93106184738291
0.93105238642122
0.93104237560612
0.93103202223134
0.93102133366314
0.93101052876165
0.93099952068441
0.93098826333017
0.93097780596185
0.93096710369863
0.93095692663294
0.93094675049338
0.93093388169152
0.93074092758634
0.92186312519697
0.99946515844834
0.99882082872114
0.99796020808062
0.99701826503061
0.99604480427219
0.99504229345171
0.99400229286683
0.99291336865336
0.99175984264242
0.99053438994618
0.98922862886275
0.98784256644867
0.98637945393998
0.98485332006429
0.9832857593639
0.98170046199273
0.98012005226296
0.97856626149714
0.97705568942582
0.97559949380496
0.97420440817606
0.97287382475289
0.9716083681516
0.97040695025626
0.96926739529946
0.96818674638091
0.96716169936987
0.96618888114507
0.96526503120335
0.96438662170651
0.9635504906064
0.96275368446578
0.96199347474196
0.96126730742856
0.96057283131211
0.95990785794048
0.95927042176125
0.95865868959409
0.95807099585365
0.95750578176397
0.95696163089532
0.95643722613976
0.95593136477621
0.95544294032104
0.95497093548411
0.95451442407848
0.95407253959172
0.95364449113827
0.95322952738544
0.95282696299212
0.95243615233427
0.95205650224983
0.95168745727249
0.95132850026387
0.9509791535504
0.95063897055311
0.95030753705637
0.9499844616694
0.94966937631857
0.94936193418209
0.94906180994429
0.94876869778127
0.9484823092733
0.94820237183339
0.94792862747751
0.94766083297171
0.94739876072591
0.94714219569246
0.94689093203816
0.94664478085373
0.94619988801005
0.94427026999677
0.94283676201983
0.94117829765935
0.93910329368438
0.93649917319141
0.93336483924554
0.93100501829723
0.93067235558264
0.93072083764863
0.93078964133551
0.93084810453103
0.93089774390449
0.93094050385787
0.93095634219437
0.93098738708625
0.9310137230595
0.93103510295757
0.93105154373127
0.93106306261729
0.93106978527201
0.93107204487678
0.93107012099495
0.93106441344193
0.9310558122188
0.93104532150814
0.93103410623692
0.93102361000791
0.93101527289406
0.93101024109545
0.9310091567539
0.93101173774506
0.93101799008113
0.93102738793104
0.931042545528
0.93105662050223
0.93107165434559
0.93108722918451
0.93110255204269
0.93111732135162
0.93113074133251
0.93114298775452
0.93115374463368
0.93116293650722
0.93117042746398
0.93117560355034
0.93117719385194
0.93117679191574
0.93117525447485
0.93117240627809
0.93116826087504
0.93116297594329
0.93115658898594
0.93114927575049
0.93114112957516
0.93113227613675
0.93112283043757
0.93111281550775
0.93110245511614
0.93109173484559
0.93108093263555
0.9310699485876
0.93105888832748
0.93104870783632
0.93103823533399
0.93102820446154
0.93101830973595
0.93100591419853
0.93082131209866
0.92191684591429
0.99859692620549
0.99703500574574
0.99595858269556
0.99504318896845
0.99415821003629
0.99326759505084
0.99234783639601
0.99138609215107
0.99036176661263
0.98926236068404
0.98808185771169
0.98682049264883
0.98548081547196
0.98407268535415
0.98261419528166
0.98112753584208
0.97963424012563
0.97815506675931
0.97670707728227
0.97530295758745
0.97395114675521
0.97265642202882
0.97142085767946
0.97024441380869
0.96912574110343
0.96806267140137
0.96705245135305
0.96609216212944
0.96517896666274
0.96430967234555
0.96348136744073
0.96269129111014
0.96193690958788
0.96121584466147
0.96052586203631
0.95986485771532
0.95923092477015
0.95862230522805
0.95803738842665
0.95747466752692
0.95693276612764
0.95641039710963
0.95590638884727
0.95541964931061
0.95494919006595
0.95449409291817
0.95405351658274
0.95362667332297
0.95321282711593
0.95281129669361
0.95242144435269
0.95204268426272
0.95167446405977
0.95131627550051
0.95096764370256
0.95062812957054
0.9502973217407
0.94997483217892
0.94966029500216
0.94935336497381
0.94905371853227
0.94876105140721
0.94847507713743
0.94819552526988
0.94792214027035
0.94765468155329
0.94739292408989
0.94713665529156
0.94688566857068
0.94663977581168
0.94619391443961
0.94426900574544
0.9428410035868
0.94119183096943
0.93913015008407
0.93654226428909
0.93343532225567
0.93109489925456
0.93072487126975
0.93076559946509
0.93083833000067
0.93090198324215
0.93095663622851
0.93100415325166
0.93102475674314
0.93106003892561
0.93109016054656
0.93111495474649
0.93113439764363
0.93114848001096
0.93115727106615
0.93116098201189
0.93116004377942
0.93115462090403
0.93114555072672
0.93113376353743
0.93112035401881
0.93110664312622
0.93109418343414
0.93108441499673
0.93107851867524
0.93107717907518
0.93107979896707
0.93108632382082
0.93109891455034
0.93111265416996
0.93112770613263
0.93114358923692
0.93115973781341
0.9311757020739
0.93119069626743
0.93120486709667
0.93121767247607
0.93122890095402
0.93123824614072
0.9312452786959
0.93124856783805
0.93124867751691
0.93124768377656
0.93124532115448
0.93124152876961
0.9312364227979
0.9312300461603
0.93122261527068
0.93121427526751
0.93120520826674
0.9311955378703
0.93118528253971
0.93117468681214
0.93116369114849
0.93115269928189
0.93114142972639
0.93113058062507
0.93112043498575
0.9311099119968
0.93109980957581
0.93109002781393
0.93107780570671
0.93090030203979
0.92197783471382
0.98755938540617
0.9928576998689
0.99273870948491
0.99237355622786
0.99189870825812
0.99131108935855
0.99063107537818
0.98986823065147
0.98902502383865
0.98810130009989
0.9870889395947
0.98598661982361
0.98480008342669
0.98353582190742
0.98220717947506
0.98083347859554
0.97943611448238
0.9780352185953
0.97665005680477
0.97529508185646
0.97398075469228
0.97271414771466
0.971499259676
0.97033778819131
0.96922972949211
0.96817395226135
0.96716856567481
0.96621117374387
0.96529940248748
0.96443048831154
0.96360174081918
0.96281061392527
0.96205468154627
0.96133170518136
0.9606395838024
0.95997630518762
0.95933999547735
0.95872894445564
0.95814156985804
0.95757639931506
0.95703207370842
0.95650732859532
0.95600100085257
0.9555120090458
0.95503936371342
0.95458214581306
0.95413951620388
0.95371068714665
0.95329492654303
0.95289154886123
0.95249991757637
0.95211944382434
0.95174957477403
0.95138979859017
0.95103963624723
0.95069864632414
0.95036641527733
0.9500425539383
0.94972669395222
0.94941848711971
0.9491176070873
0.94882374709755
0.94853661847721
0.9482559485586
0.94798148069269
0.94771297378539
0.94745019984366
0.94719294125763
0.9469410011243
0.94669417869887
0.94641134592723
0.9446652859401
0.94320893513694
0.94165106122389
0.9397200500416
0.93729181400319
0.93431714104722
0.93154534015816
0.93080350171559
0.93078983302302
0.93086325267925
0.93093403499416
0.93099568802648
0.93104972647872
0.93108785773022
0.93112764362655
0.93116175885374
0.93119016279477
0.93121277662905
0.93122955529529
0.93124051730926
0.93124583020347
0.93124594398045
0.93124102031115
0.93123184216683
0.93121933622332
0.93120454149511
0.93118869067482
0.93117329989225
0.9311599808194
0.93115016222663
0.93114490354676
0.93114454349617
0.93114805539829
0.93119048868055
0.93120227588204
0.93121624997217
0.93123194627672
0.93124880299667
0.93126632800853
0.93128412379806
0.93130161347918
0.9313175239145
0.93133112644705
0.93134232911245
0.93135030247517
0.93135426460312
0.93135468237757
0.93135370274813
0.93135108832576
0.93134670963146
0.93134070298288
0.93133324319095
0.93132462841422
0.93131508494473
0.93130484468471
0.93129400122672
0.93128259169317
0.9312708122223
0.93125869838292
0.93124657320292
0.93123425679329
0.9312222451001
0.93121076590502
0.93119907430498
0.93118794354703
0.93117741810475
0.93116518568704
0.93100215305617
0.92213262014514
0.97722616775978
0.98476514830768
0.98575118865886
0.98627403607242
0.98651131750609
0.98653421393868
0.98635388682955
0.98599337247245
0.98549385409711
0.98487050514319
0.98413121182219
0.98328747037343
0.98234805119204
0.98131971406855
0.98021471550852
0.97905001501031
0.97784482638359
0.9766181174547
0.97538715058825
0.97416835035759
0.97297380375671
0.97181183212491
0.97068804829845
0.96960575287436
0.96856644796279
0.96757054335197
0.96661743414948
0.96570595839892
0.96483445243174
0.96400108435093
0.96320392510018
0.96244093171949
0.9617101600941
0.96100972811069
0.96033785236821
0.95969284277874
0.95907306225366
0.95847698928004
0.95790323669736
0.95735049243419
0.95681752525605
0.95630318995566
0.9558064325816
0.95532627620176
0.9548618080598
0.95441217733979
0.95397658927859
0.95355430665428
0.95314464205304
0.95274695807477
0.95236066238923
0.95198519911678
0.95162004708425
0.95126471627282
0.95091875150792
0.95058172807043
0.95025324893725
0.94993293985019
0.94962044692893
0.94931543756279
0.9490175984967
0.94872663445749
0.94844226531148
0.94816422619019
0.94789226804874
0.9476261570793
0.94736567499075
0.94711061623034
0.94686077331972
0.94661595885171
0.94616613714283
0.9442622861929
0.94285975047973
0.94125286077755
0.93925354318257
0.93674522462008
0.93374901241915
0.93141026100586
0.93088166860694
0.93087613730097
0.93095077794596
0.931027541431
0.93109711222642
0.93115977530879
0.93119716287756
0.93124668092179
0.93128995552977
0.93132670280959
0.93135663491991
0.93137954051285
0.93139532895181
0.93140410488701
0.93140629796353
0.93140227188269
0.93139278497443
0.93137893042454
0.93136183084303
0.93134276350598
0.93132318124919
0.93130481010103
0.93128927519366
0.93127806566167
0.93127237650139
0.93127188042153
0.93130861093062
0.93131820407814
0.93133107285118
0.93134686774611
0.93136510904405
0.93138524028571
0.93140675388907
0.93142751565362
0.93144570164688
0.93145939626791
0.93146911503204
0.93147414541291
0.9314743718971
0.93147270969987
0.93146849464766
0.93146164855578
0.93145261307677
0.93144186275428
0.9314298077895
0.93141679043885
0.93140303730635
0.93138873837941
0.93137404116823
0.93135916977317
0.93134422340773
0.93132926712087
0.93131426456835
0.9312992079268
0.93128405649091
0.93126881467475
0.9312533187087
0.93123806351893
0.93122308248966
0.93120700444664
0.93106545960285
0.92244895827389
0.97194626811862
0.97951937742775
0.98070635749712
0.98144883521103
0.98195878291726
0.98229181472008
0.98243738569098
0.98241302213451
0.98222775866911
0.98188264031431
0.98141898864351
0.98083914047018
0.9801401403528
0.97933937970709
0.97845350210973
0.97749413356113
0.97647829555584
0.97542345807935
0.97434620126686
0.97326106406766
0.97218149397699
0.97111853989117
0.97007986036786
0.96907073175467
0.96809436430385
0.96715252217158
0.96624606191891
0.96537481649758
0.96453802148162
0.9637346647864
0.96296354260718
0.96222330103979
0.96151247547428
0.96082958509204
0.96017320455038
0.95954193095851
0.95893441115486
0.95834931144881
0.9577853698802
0.957241428976
0.95671638607882
0.95620919696574
0.95571889218966
0.95524457324329
0.95478539911636
0.954340583834
0.95390938773545
0.95349111358007
0.95308511179712
0.95269078172265
0.95230756944491
0.95193495392832
0.95157243813612
0.95121955207665
0.95087585638288
0.95054094169045
0.95021442321906
0.94989593745961
0.94958514220926
0.94928171770908
0.94898536494368
0.94869580047023
0.94841275262414
0.94813596161299
0.94786518182574
0.94760018246823
0.9473407488381
0.94708668069709
0.94683777493513
0.94659384333216
0.94613872158029
0.94425436576544
0.94287730130478
0.94131238027534
0.93937646616628
0.93695178755193
0.9340532097324
0.93167043834538
0.93099008164015
0.93093059377053
0.93099538590332
0.93107795472015
0.93115775538871
0.93123223721101
0.931283414774
0.93134505068829
0.93140003972578
0.93144761110363
0.93148707350977
0.9315178926864
0.9315397674485
0.93155268650821
0.93155705448332
0.93155348439017
0.93154287282016
0.93152661669709
0.93150617341179
0.9314831317524
0.93145914206341
0.93143610440185
0.93141580706175
0.93139991767882
0.93138997783474
0.93138672299306
0.9314181001975
0.93142693989939
0.93144008448206
0.93145740779579
0.9314785393209
0.93150203272021
0.93152631858053
0.93154529232672
0.9315591152867
0.93156681660952
0.93156726047762
0.93156409404976
0.93155672235142
0.93154540699561
0.93153120268914
0.93151527259769
0.93149805927225
0.93147977374343
0.93146053627811
0.93144045625932
0.93141960941501
0.93139807183433
0.93137591768025
0.93135315661692
0.93132962728834
0.93130519827989
0.93127949128197
0.93125212950988
0.93122265104962
0.93119087945276
0.93115546193569
0.93111719485549
0.93107630633665
0.93103300796311
0.93088997996258
0.92275003530051
0.96771477904873
0.97572313131568
0.97697295842119
0.97774469778899
0.97833041397633
0.97876441348685
0.97907228894766
0.9792235969967
0.97923061692544
0.97911249918592
0.97883899702836
0.97845498429165
0.97797254343084
0.97737593516693
0.97667875035639
0.97590002592004
0.97505579074435
0.97415971377567
0.97322784926041
0.97227446791133
0.97131206249563
0.97035116791879
0.96940132101082
0.96846921011139
0.96755968187982
0.9666759477548
0.96581994447863
0.96499259474668
0.96419414138986
0.96342438773993
0.96268274435587
0.96196840917088
0.96128043762963
0.96061776402215
0.95997928329252
0.95936390736856
0.95877052460745
0.95819806563882
0.95764547067445
0.95711173635222
0.95659591530779
0.95609708336886
0.95561436764222
0.95514694935746
0.95469407003562
0.95425500334771
0.95382905800632
0.95341559360453
0.95301400912036
0.95262374019666
0.952244261319
0.95187508453198
0.95151574525124
0.95116579917486
0.95082482923987
0.9504924443492
0.9501682770556
0.94985197869345
0.94954321900911
0.94924169023222
0.94894710660211
0.94865919935609
0.94837770974513
0.94810238712796
0.94783299145411
0.9475692944666
0.94731108355859
0.94705816417929
0.94681034160507
0.94656742284234
0.94610213108824
0.94424174109971
0.94289761240473
0.9413867892
0.93953369992481
0.93722042414538
0.93444332632887
0.93199844656053
0.9311165241172
0.93097678853847
0.93101819070821
0.93110148729761
0.93119102415083
0.93127897353709
0.93134647954611
0.93142364245397
0.93149405024504
0.93155614015414
0.93160852894568
0.93165012365239
0.93168022569175
0.93169858836042
0.93170559966754
0.93170213965484
0.9316894447522
0.93166926756893
0.93164358498945
0.93161459481501
0.93158443978054
0.93155541937775
0.93152960448794
0.93150884445857
0.93149489416589
0.93148912608766
0.93151643905424
0.93152577025244
0.93154068065788
0.93156109265878
0.93158603153785
0.93161063904783
0.93162929205693
0.9316396086078
0.93163971618768
0.93163433396492
0.93162229122149
0.93160536384577
0.93158387739172
0.93155775258291
0.93152673635303
0.93149074624355
0.93145025675206
0.93140600203103
0.93135841246911
0.93130792842188
0.93125470556678
0.93119883175377
0.93114046521319
0.93107972951488
0.93101576771976
0.93094755092652
0.93087362387102
0.93079225044961
0.9307013734586
0.93060075760145
0.93048396405227
0.93035448323527
0.93021158638617
0.93005698731338
0.92984788153304
0.92414208406104
0.96376938097666
0.97270308054035
0.97402849178768
0.97479639887253
0.97538679108198
0.97585471656941
0.9762166404993
0.97646291821584
0.97658544893864
0.97659092827982
0.97648723184739
0.97624242103569
0.97590010060064
0.97547399570271
0.9749435544238
0.97432077874529
0.97362580062174
0.97287291498712
0.97207387919764
0.97124222663467
0.97039101378768
0.96953083054737
0.96866996351755
0.96781641058353
0.9669757943613
0.9661522909106
0.9653489456912
0.96456779912958
0.9638100087779
0.96307610946816
0.96236619148417
0.96167999662326
0.96101702465662
0.96037658811123
0.9597579580908
0.9591603341752
0.95858285519516
0.95802465971676
0.95748488656631
0.95696268005746
0.95645726566846
0.95596786639165
0.95549371663906
0.95503409233246
0.95458830974481
0.95415574482119
0.95373578357201
0.95332782246608
0.95293130357293
0.95254571068934
0.952170556564
0.95180537766477
0.95144973797237
0.95110322306299
0.95076543684838
0.95043601068281
0.9501145975012
0.94980086705439
0.9494945047339
0.94919521366312
0.94890271837163
0.94861676108644
0.94833709610584
0.94806348611768
0.9477957014035
0.94753352091066
0.94727673492309
0.94702515354493
0.94677858490966
0.94653683781747
0.94605296451161
0.94422166846569
0.94291833524004
0.94147374205933
0.93972285179338
0.93754956531323
0.93492501068637
0.93242744298547
0.93128774103848
0.93102772005927
0.93102607671021
0.93110041540149
0.93119662180837
0.93129878892086
0.93138523983572
0.93148199935584
0.93157253896519
0.93165403114581
0.93172395852946
0.93178029195933
0.93182161907215
0.93184739007474
0.93185793579806
0.93185442053141
0.93183862012778
0.93181277368463
0.93177964532136
0.9317422183209
0.93170345018606
0.93166637907897
0.93163353117559
0.93160702754569
0.93158881859218
0.93158067993315
0.9316052727356
0.93161612915753
0.93163400458741
0.93165781831437
0.93168293715567
0.93169899620472
0.9317018563711
0.93169606067119
0.93168124712651
0.93165755316751
0.9316233847852
0.93157601041293
0.93151409443365
0.93143697730286
0.93134497343464
0.93123934049823