/*--------------------------------*- C++ -*----------------------------------*\
| =========                 |                                                 |
| \\      /  F ield         | OpenFOAM: The Open Source CFD Toolbox           |
|  \\    /   O peration     | Version:  2312                                  |
|   \\  /    A nd           | Website:  www.openfoam.com                      |
|    \\/     M anipulation  |                                                 |
\*---------------------------------------------------------------------------*/
FoamFile
{
    version     2.0;
    format      ascii;
    arch        "LSB;label=32;scalar=64";
    class       volScalarField;
    location    "7e-05";
    object      Ybar.Liq;
}
// * * * * * * * * * * * * * * * * * * * * * * * * * * * * * * * * * * * * * //

dimensions      [0 0 0 0 0 0 0];

internalField   nonuniform List<scalar> 
109340
(
0.99908826055369
0.99908474047496
0.99907786246612
0.99906944203864
0.99906003924858
0.99905013481011
0.99903990860522
0.99902938867009
0.9990185107967
0.99900673149934
0.9989931690086
0.99897685913313
0.99895663984866
0.99893111551587
0.99889863214461
0.99885723893139
0.99880461967791
0.99873800366831
0.99865403641226
0.99854860670752
0.99841660293283
0.9982516135604
0.99804551718195
0.99778792868148
0.99746541298371
0.99706037951775
0.99654944882812
0.995900974619
0.99507111584492
0.99399732033221
0.99258692627393
0.99069594100214
0.98808687111574
0.98434007878259
0.97865754175306
0.96940272063999
0.99908884934964
0.99908428634057
0.99907654357218
0.99906753007922
0.99905783073999
0.99904786937978
0.99903775932222
0.99902740355624
0.99901644074409
0.9990043019757
0.99899017840802
0.99897306392217
0.998951736676
0.99892473641341
0.99889033684128
0.99884649683081
0.99879080008445
0.9987203458166
0.99863161027087
0.99852025876408
0.99838089081797
0.99820671455481
0.99798910674154
0.99771701164686
0.99737608713353
0.99694748997222
0.99640607458013
0.99571762822613
0.99483444175998
0.9936878650405
0.99217505830989
0.99013374173605
0.98729012489106
0.98314437864703
0.97668787137049
0.96573546644781
0.99909089387498
0.99908559833762
0.99907706872357
0.99906784217344
0.99905822883271
0.99904841464508
0.9990383666043
0.99902800195872
0.99901703831103
0.9990049171882
0.99899083918726
0.99897379389814
0.99895255425385
0.99892565665279
0.99889137383774
0.99884766871099
0.99879212478111
0.99872184461763
0.99863330698569
0.99852218110645
0.99838306670498
0.99820917148341
0.99799187096966
0.99772010514081
0.99737952576923
0.99695127918737
0.99641020529778
0.99572207546905
0.9948391657422
0.99369280107771
0.99218007109392
0.99013828631752
0.98729067680324
0.98312114935168
0.97654021081311
0.96491153724728
0.9990937333383
0.9990873355148
0.99907838325116
0.99906890417854
0.99905911160188
0.9990490971452
0.99903888764645
0.99902842638158
0.9990174211608
0.99900530926658
0.99899129062638
0.99897434923256
0.99895325069923
0.99892652510194
0.9988924374746
0.998848941915
0.99879361332807
0.99872354364967
0.99863519424018
0.99852421462171
0.99838516347732
0.99821119528308
0.99799360895368
0.99772123279332
0.99737956687117
0.99694953732751
0.99640567410021
0.9957133075189
0.99482408196661
0.99366838469383
0.99214183001048
0.99007918646919
0.98719642830728
0.98295032439674
0.97612002666193
0.96322839578576
0.99909819349017
0.99908986379382
0.99907960268581
0.99906947607124
0.99905941783862
0.9990493065675
0.99903906879253
0.99902863598607
0.99901770180029
0.99900569617364
0.99899182098581
0.99897504999834
0.99895412592233
0.99892754502556
0.99889352186789
0.99884993826868
0.99879427010838
0.99872347503642
0.99863378336556
0.99852061568486
0.99837813570494
0.99819898359082
0.99797374869557
0.99769026451842
0.99733267404505
0.99688000296362
0.99630413379385
0.99556667441791
0.99461396548154
0.99336867089817
0.9917146207662
0.9894687595166
0.98631311065859
0.98162790052541
0.97392944383025
0.95800515678404
0.99910644466388
0.99909114961003
0.99907979105318
0.99906940388898
0.99905928736938
0.99904915393261
0.99903889696297
0.99902835512886
0.99901707361224
0.99900425781672
0.99898880391204
0.99896928680998
0.99894394473571
0.99891064227157
0.99886680995698
0.99880935546476
0.9987345398816
0.99863784575605
0.99851385605766
0.9983550635184
0.99815220175045
0.9978933808424
0.99756321498387
0.99714165876061
0.99660239826078
0.99591054074664
0.99501926137571
0.99386469898107
0.99235784144196
0.99037086500365
0.98771197147563
0.98408358980996
0.97896473031055
0.97134072488027
0.95871469808617
0.93059582145112
0.95349009135973
0.92682037035791
0.88589225600017
0.83024948313595
0.76273030637167
0.68568692988998
0.6023611599675
0.51660875508918
0.43248215309173
0.35366725042
0.28209196514833
0.22230036289138
0.1733634930824
0.13429372398595
0.10422433145269
0.08120755361133
0.063741167313706
0.050492070029896
0.040393743113967
0.03267712900397
0.026741902847118
0.022110837005981
0.018466178918542
0.015576597780984
0.013248173971219
0.011355083346879
0.0098458339026211
0.008558630650013
0.0074933541194878
0.0066231924087812
0.0058536808419554
0.0052388847865621
0.0046744261101435
0.0042222621238515
0.0038005206978041
0.0034595587208724
0.0031379230631028
0.0028758302653067
0.0026260006586251
0.0024209970665253
0.0022245134309415
0.002060898810347
0.0019053772272269
0.0017718882590533
0.0016485880086661
0.0015369153037212
0.0014377051444607
0.0013440591798804
0.0012622947791484
0.0011850349981814
0.0011152675488727
0.0010509373992465
0.00099188404051778
0.00093747034788223
0.00088723155312978
0.00084073279345628
0.00079762493633645
0.00075759366220008
0.00072037136316926
0.00068570487845789
0.0006533638829059
0.00062314363619555
0.00059486986578618
0.00056838888811139
0.00054355880162912
0.00052024903350095
0.0004983446095375
0.00047774001707915
0.00045832311643964
0.00044000755744036
0.00043263204344102
0.0015700221940698
0.0026800880121297
0.0027608435130251
0.0027528993894524
0.0027059076262305
0.0026292893810749
0.0025425173797893
0.0025005572575986
0.0024688668925809
0.0024365114288
0.0024075437733216
0.0023857711312832
0.0023739856639304
0.0023755734668885
0.0023924332773408
0.0024194209966291
0.0024557520730971
0.0024991044540124
0.0025466434359462
0.0025957847088591
0.002643975266686
0.0026893338203404
0.0027307387335287
0.0027679871651872
0.0028006269260298
0.0028299714238731
0.0028561760056929
0.0028800496304977
0.0029023683424291
0.0029236597923203
0.0029440781191932
0.0029636021839285
0.0029821513520528
0.0030044404558939
0.0030221387066999
0.0030397443401772
0.0030575671741941
0.0030747274637807
0.0030894405027368
0.0030996953008343
0.003104955702724
0.0031057971070711
0.0031018572618598
0.0030898127067295
0.0030719676875607
0.0030530937137421
0.0030319965010138
0.0030073749155742
0.0029803187101165
0.002949255839326
0.0029194844076335
0.002889134430551
0.0028601747855587
0.0028326848514674
0.0028068112871346
0.0027860158148741
0.0027672270696391
0.0027568407909856
0.0027481250936789
0.0027430950458475
0.0027379284400924
0.0027286337554927
0.0027458848989961
0.0027615312644918
0.0028022006964976
0.00284979049384
0.003019917681091
0.0032340791099686
0.0029368590392113
0.94576084782808
0.91162615833779
0.86101823367599
0.79631195862009
0.72079986536254
0.63859195000315
0.55322990554169
0.46896030902083
0.38929525999598
0.31686340493593
0.25341460546124
0.19958692045019
0.1565611627785
0.12233079993461
0.095540056561918
0.074953152286433
0.059182479482406
0.047131376512986
0.037911127171503
0.030813277325315
0.025308055872269
0.021003416629869
0.017602613073986
0.014887952074669
0.012702162315099
0.010924926762319
0.0094655211165303
0.008260366097868
0.0072520596819182
0.0064063498510404
0.0056894616294074
0.0050792255249775
0.0045557650707511
0.0041035769323746
0.0037119180748838
0.0033697559043875
0.0030704827005161
0.0028066638026355
0.0025738658080268
0.0023671159929142
0.0021830668061451
0.0020187016109177
0.0018710621866483
0.0017385827631186
0.001618660955821
0.0015105540557542
0.0014120345963977
0.001322754942383
0.0012410334436963
0.0011665114699251
0.0010980640985375
0.0010352134114959
0.00097736878505666
0.00092402939665438
0.00087477379177551
0.00082916526941683
0.00078687878142952
0.00074759704132441
0.00071105271671217
0.00067699688713144
0.00064521518690202
0.00061551191844458
0.00058771549168055
0.00056167101356494
0.00053724147525743
0.00051430230791138
0.00049273694731496
0.00047244127312255
0.00045332168675385
0.00043531155927283
0.00047122489679409
0.0020831614765884
0.0027131027244643
0.0027549946887838
0.0027371014471415
0.0026831001106994
0.0026026740878572
0.0025257660149589
0.0024899615811985
0.0024586222386848
0.0024273230935352
0.0024003335025334
0.0023812620975757
0.0023727325098092
0.0023758065165774
0.00239215995671
0.0024188119608455
0.0024547214436775
0.0024975654050855
0.0025446696142743
0.0025934104669314
0.0026413216346591
0.0026865953711802
0.00272800646333
0.0027652555926575
0.0027980907496582
0.0028275450077392
0.0028538761122517
0.0028779249246995
0.0029004738585144
0.0029219963079116
0.002942615698371
0.0029622671859592
0.0029808560002774
0.0030029812232143
0.0030204097083503
0.0030376628296169
0.0030549865073869
0.0030715094932546
0.0030855438376971
0.0030953337186615
0.0031002458891212
0.0031008981821317
0.0030958696873711
0.0030828038592969
0.0030649574438081
0.0030454885743125
0.0030238232545309
0.0029993116334852
0.0029722879211553
0.0029417965309598
0.0029129085896462
0.0028831036373674
0.0028548662265367
0.0028279509327023
0.0028032587013884
0.0027831436779174
0.0027656898785145
0.0027558731879545
0.0027475718472082
0.0027429804397993
0.0027359190415879
0.0027271492928956
0.0027459522880418
0.0027592762530032
0.0027996881367541
0.0028464900573641
0.0030188653649934
0.0032375862488402
0.0030137848624257
0.94154912191344
0.89851539041078
0.83685003525399
0.76106437620163
0.67660907581644
0.58970804966142
0.50476634665816
0.42477712656493
0.35184171707256
0.2865376818822
0.23145528518387
0.18475600302823
0.14640216597998
0.1155779053516
0.091155512481569
0.072063568844355
0.057276987894986
0.045880055755274
0.037078808842528
0.030240652260822
0.024906386212994
0.020719830528292
0.017397287510587
0.014736315106335
0.012589669968832
0.010840221864001
0.009400671318552
0.0082086095122013
0.0072137101429379
0.0063745445305049
0.0056648344457499
0.0050584740579629
0.004539074053191
0.0040898141861163
0.0037005112921462
0.0033602665882766
0.0030625458011779
0.0027999808494559
0.0025682830888316
0.0023622311475484
0.0021791429013668
0.0020150497189433
0.0018682395007076
0.0017358310275591
0.0016165807661758
0.0015084522037017
0.0014103840390108
0.0013211309778
0.0012396508375362
0.0011652215088916
0.00109692107969
0.0010342484921037
0.0009764788838143
0.00092322549021773
0.00087401904521415
0.000828479143483
0.00078625550368296
0.00074703200771255
0.00071053584917063
0.0006765224416743
0.00064478010449751
0.00061511362243041
0.0005873497947133
0.00056133407381862
0.00053693132957325
0.00051401725718526
0.00049247452436559
0.00047219841116644
0.00045310037782171
0.00043510132043193
0.0004709988523972
0.0020834949399677
0.0027117222000192
0.0027533948675906
0.0027354932793068
0.002681627513313
0.0026014246227181
0.0025246236170792
0.0024882143379888
0.002457118784646
0.0024261814103135
0.0023994438874728
0.0023805352716881
0.0023721749353677
0.0023757359480413
0.0023919281733564
0.0024188127363197
0.0024550635700775
0.002498375549378
0.002545980469432
0.0025951702813609
0.0026436220248312
0.0026895177993781
0.0027316216723895
0.0027693712520594
0.0028029040819122
0.0028326608092723
0.0028592735432395
0.0028835535691754
0.0029062576397162
0.0029278286425317
0.002948457515433
0.0029680942128508
0.0029866663397234
0.003008740808273
0.0030261130330989
0.0030433026587927
0.0030604563928488
0.003076761955001
0.0030906179479212
0.0031003444654289
0.003105234025415
0.0031058897000692
0.0030993390562069
0.0030862571315469
0.0030689024201483
0.0030490404514159
0.0030273779945545
0.0030029409678348
0.0029755640002274
0.0029456909962243
0.0029172017228168
0.0028876896504693
0.0028598060237274
0.0028336783300267
0.002809548378876
0.0027897911403051
0.002772406434365
0.0027621260989717
0.002753361393484
0.0027491075567635
0.0027392158282892
0.002730152845549
0.002753650789636
0.0027627282605302
0.0028018003369178
0.002838653586226
0.0030070973304723
0.0032296576554312
0.0032412709513069
0.93212408070586
0.86878997655319
0.78447207769252
0.68964662339651
0.59734586509621
0.51007726998452
0.43196237170328
0.36268538402771
0.30186492967797
0.24809513151031
0.20434425128473
0.16601018334777
0.13366376694464
0.10705409743704
0.085461833107745
0.06830686816951
0.054798941624301
0.04420927826835
0.03593518863151
0.029465468919758
0.024372046872112
0.020328775088133
0.017113785809595
0.014530926522396
0.012434254170759
0.010720581188357
0.0093102202771913
0.0081378608042656
0.0071570303595292
0.006330385103161
0.0056287025175821
0.0050295165963414
0.0045146884529785
0.0040702521998418
0.0036837516216892
0.0033467392213736
0.0030508587477756
0.0027904485314467
0.0025599387129991
0.0023554487946316
0.0021730886160719
0.0020100456253154
0.0018637903758345
0.0017320678669628
0.0016132400292694
0.0015055099853014
0.0014078518902583
0.0013188127368684
0.001237664220606
0.001163365661628
0.0010953068508687
0.0010327742002389
0.00097518880567449
0.00092206407061328
0.0008729560620802
0.00082751393066224
0.00078537139424747
0.00074622596545928
0.00070980067015114
0.00067585393267808
0.00064416946411562
0.00061455325137753
0.00058683465029515
0.00056086207244857
0.0005364994968578
0.00051362099655105
0.00049210973569069
0.00047186237848317
0.00045279075198779
0.00043481053313038
0.00047094689638735
0.0020830895307177
0.0027095265710517
0.0027510773009142
0.002733157390599
0.0026794751724744
0.0025995403562908
0.0025227940125021
0.0024854461825718
0.0024545697951629
0.0024240150169726
0.0023975624263027
0.0023788536681115
0.0023706976286635
0.0023745019781824
0.0023905847496031
0.002417581942546
0.0024539886059328
0.0024974424785678
0.0025451974612081
0.0025945830940526
0.0026433228878306
0.0026895779273662
0.0027320337019003
0.0027700679677243
0.0028038806949063
0.002833836142808
0.0028605943772207
0.0028849736464564
0.0029077314449976
0.0029293549626697
0.0029500576312088
0.0029697877198489
0.0029883807560607
0.00301021874328
0.0030273752905387
0.0030442489172239
0.0030609856697976
0.0030768792926477
0.0030903084709131
0.0030996945459667
0.0031042740608196
0.0031046739742538
0.0030974666712808
0.0030840981067688
0.0030666204078171
0.0030465877494299
0.0030251144654421
0.0030008567034781
0.0029737053140026
0.0029447499754611
0.0029166317102734
0.0028877947689819
0.0028605050257941
0.0028351105953755
0.0028117082553099
0.0027924237150099
0.0027756805518551
0.0027653055122096
0.0027567274369994
0.0027524042768363
0.0027417970158836
0.0027357256162156
0.0027583391849396
0.0027648803970176
0.0028031263568115
0.0028387458654098
0.0029993031339354
0.0032297183736832
0.0032798286468607
0.90054092119468
0.78424760617891
0.66080250009041
0.55433630345888
0.47016818917495
0.40022839022538
0.34169080383481
0.29192813489662
0.24817130045929
0.2097561649295
0.17557488082811
0.14543616340173
0.11937394775477
0.09728935999013
0.078934372621666
0.063911663811821
0.051825148073427
0.042201960054818
0.034562048998666
0.028500537340472
0.023687548725766
0.01985225329287
0.016761038634576
0.014265967750366
0.012236670490565
0.010572253663087
0.0091941218689662
0.0080472780785382
0.007085487172616
0.0062734490598515
0.0055825874307243
0.0049921731768811
0.0044839624005312
0.0040446537096989
0.0036626318873763
0.0033290285454877
0.0030359776679922
0.0027778978837448
0.0025493368441193
0.0023463991733551
0.0021652992521144
0.0020034331408721
0.001857980371222
0.0017271008814192
0.0016088069769565
0.0015017152923199
0.001404427739293
0.0013158144727202
0.0012349733891282
0.0011609711397239
0.0010931718708551
0.0010308270337202
0.00097345796891104
0.00092050990514063
0.00087156680370399
0.00082624503696229
0.00078420910184165
0.00074516429005556
0.00070883360942366
0.00067497310908094
0.00064336303661967
0.00061381347440004
0.00058615699433135
0.00056024208918726
0.0005359309922038
0.00051309862717479
0.00049162958463618
0.00047142025832959
0.00045238147012275
0.00043442837805694
0.00047088152576997
0.0020828285104448
0.0027065417586929
0.002748039565111
0.0027301156154044
0.0026766334613396
0.0025969557225021
0.0025200455660186
0.0024814917424946
0.0024507434473267
0.0024205866959966
0.0023944510763692
0.002375982413152
0.0023680825844166
0.0023723073596615
0.0023884571039152
0.0024156951642537
0.0024523488924192
0.0024960745510131
0.0025441515076715
0.0025939268721448
0.0026430814087296
0.0026897620792422
0.0027326576016866
0.0027710937529785
0.0028053035981487
0.0028355792815073
0.0028625796782885
0.0028871354363503
0.0029100477080949
0.0029318775675267
0.0029527373227169
0.0029725508521127
0.0029910998886618
0.0030125158918721
0.0030292711192721
0.0030456464025582
0.003061877207703
0.0030773113540687
0.0030902234300116
0.003099180244958
0.0031034305409749
0.0031036716009493
0.0030959740015616
0.003082218632104
0.0030645217638043
0.0030446672904082
0.0030235008173552
0.0029996289943181
0.0029729247075764
0.0029447011890591
0.0029171603114055
0.0028890475577074
0.0028624404412775
0.002837723173025
0.0028149842117852
0.0027960151109095
0.0027797791554248
0.0027693023466823
0.0027609014601656
0.0027566287434745
0.0027469335680281
0.0027408935666402
0.0027622792503457
0.0027661779965173
0.0028052856315315
0.0028384963090828
0.0029909967906793
0.0032277241547712
0.0032930824866975
0.67649694694314
0.48909404116513
0.40995197300861
0.3611786477941
0.32212043676679
0.28716498306905
0.255127401376
0.22610178822624
0.19830180469418
0.1720104602978
0.14745639319088
0.12504609088154
0.10486621558283
0.087111764525543
0.071885886937169
0.059097451707013
0.048534862907033
0.039928984606304
0.032981004578213
0.027391453476827
0.022896087064553
0.019272727929725
0.016345411760329
0.013955968656657
0.01200084138649
0.010390895883852
0.0090562667821346
0.0079384150002677
0.0069987243693355
0.0062040524344413
0.0055273352769024
0.0049465736547456
0.0044467429259821
0.0040138883616041
0.0036370634837585
0.003307407460357
0.0030180448489016
0.0027626422915782
0.0025364074002402
0.0023352955884898
0.0021558937115148
0.0019952365961516
0.0018508985122729
0.0017209188964667
0.0016034225979389
0.0014969856246873
0.0014002028179675
0.0013121122904234
0.0012316535003406
0.0011580351707989
0.0010905066544618
0.0010284406455616
0.00097131003580097
0.0009185791629668
0.00086983348325278
0.00082466865338447
0.00078277854387864
0.00074385873622196
0.00070763885694198
0.00067387630583262
0.00064235796582351
0.00061289605424057
0.00058531812988072
0.00055947179204782
0.00053522257299968
0.00051244814764594
0.00049103255245668
0.00047086972097596
0.00045187157532436
0.00043395156824809
0.00047079606869447
0.0020830302675666
0.0027030333293954
0.0027443354233412
0.0027263768256012
0.00267309616377
0.0025936454167363
0.0025163047505874
0.0024763089637708
0.0024455501230242
0.0024157872696471
0.002389995101678
0.0023718057848656
0.0023641996146444
0.0023688295660321
0.0023850507768169
0.0024125361210309
0.0024494524630662
0.0024934321730969
0.0025417884024345
0.0025919082016023
0.0026414833357711
0.0026886718293712
0.0027321273743208
0.00277115451128
0.0028059391885703
0.0028367445452254
0.0028642038048639
0.0028891498243581
0.0029123801020735
0.0029343908016809
0.0029553641686644
0.0029751695088583
0.0029936255666917
0.0030146050044261
0.0030310440009067
0.0030470562930718
0.0030627538216853
0.003077472623676
0.003089551501805
0.0030978543702791
0.003101644032543
0.0031016569652204
0.0030933680593392
0.0030792934084848
0.0030615612098764
0.0030418943653095
0.0030210284321028
0.0029976080722972
0.0029714592817474
0.0029442204380877
0.0029174207126184
0.0028903272164618
0.0028645966625777
0.0028407115887057
0.0028187075229025
0.0028001935173177
0.002784477656913
0.0027740146541391
0.0027659651074064
0.0027616873300351
0.002752660594057
0.002747829945618
0.0027661611711541
0.002767515958645
0.0028086551443871
0.0028394846459872
0.0029825011308834
0.0032225652022051
0.0032982212465598
0.022662945999875
0.15535831255526
0.1910527515249
0.20450912141273
0.2065988356874
0.20049149891852
0.18884818159243
0.17454210793105
0.15885513025642
0.14250252931308
0.12604240790316
0.10993384446122
0.094610087571067
0.080437294369557
0.067717366114224
0.056624163645984
0.047160462241642
0.039239002743485
0.032697471800643
0.027340171392798
0.022970352949221
0.019410032375671
0.016502994107515
0.014127415981199
0.012168204291445
0.010543425349661
0.0091944128573998
0.0080658146961409
0.0071137461371372
0.0063053671762162
0.0056176082648218
0.0050282208331832
0.0045195703562188
0.0040785722745248
0.0036951343840351
0.0033597646361525
0.0030649425385798
0.0028048884211927
0.002574701968593
0.0023699779380104
0.0021872734628596
0.0020237508682294
0.0018769366534369
0.0017446487050007
0.0016250875365648
0.0015168087343792
0.0014184286157909
0.0013288592243451
0.0012470420385232
0.001172226895442
0.0011036216964687
0.0010405932174028
0.00098255242030521
0.00092900422671331
0.00087953657652642
0.00083372472827147
0.00079123009411547
0.00075173817156815
0.00071499685200039
0.00068076471583043
0.00064881875614257
0.00061896064058873
0.00059101549103095
0.00056483325988001
0.00054027478679283
0.00051721309419261
0.00049553313690342
0.00047513249051577
0.00045590642807559
0.00043776750231732
0.0004294791033391
0.001588515167962
0.0026570092513081
0.0027379328071335
0.0027301463389877
0.0026849780973268
0.002611276333875
0.0025272934537127
0.0024783692025438
0.0024465499702187
0.0024167059276922
0.0023899374982643
0.0023698603181426
0.0023596474954629
0.0023641747410089
0.0023805904522531
0.0024084252700399
0.0024457300987501
0.0024901020956709
0.0025388710634681
0.0025894471878045
0.0026395253636025
0.0026872784588079
0.0027313501582475
0.0027710182915152
0.0028064230778039
0.0028377988056445
0.0028657246210445
0.0028910514853366
0.0029145769928684
0.0029368543758904
0.0029579958596857
0.0029778052355087
0.0029968001135043
0.0030177044835922
0.0030338570439772
0.0030490120885179
0.0030633541255442
0.003076477042424
0.0030870880596226
0.0030945158167428
0.0030978626590481
0.0030974723491626
0.0030885531185019
0.0030741575120738
0.0030564554737036
0.003036880722811
0.0030160643432203
0.002993036210499
0.0029678021747952
0.0029418607781729
0.0029163484979652
0.0028905728258095
0.0028662550455237
0.0028433484458791
0.0028227177852859
0.0028050645636595
0.0027905432937842
0.0027802622055961
0.0027730307324007
0.0027680784078248
0.0027619731598931
0.0027589370859186
0.0027697465239062
0.0027664479732026
0.0028124310997513
0.0028403832790445
0.0029670617456923
0.0032080798662357
0.0032916739740582
0.010016878566821
0.027054085699896
0.04834714172918
0.066104849684985
0.079542162751302
0.088587069223812
0.093282204895468
0.094449750177017
0.091861252641518
0.087366932884664
0.081402218873461
0.074355310570118
0.066755010313268
0.058980743686268
0.051413529890651
0.044355077651532
0.037988034314316
0.032389088497349
0.027570360914386
0.023483884354546
0.020049001529558
0.017176639119009
0.014779457729718
0.012777035267644
0.0111024002888
0.0096989850101581
0.008516106938191
0.00751163371789
0.0066593454755454
0.0059314774947842
0.0053068653247316
0.0047667132399547
0.0042987141979409
0.0038914672514103
0.0035353289619834
0.0032219949991036
0.0029458375869181
0.0027015424047424
0.0024845122197801
0.0022908105608737
0.0021174960786776
0.001962054952429
0.0018221394178848
0.0016957675217766
0.0015813312254051
0.0014775132765822
0.0013830571736852
0.0012968776682521
0.001218077706035
0.0011459058928957
0.0010796615405355
0.0010187156872295
0.00096252582683443
0.00091063747031923
0.00086264281194129
0.00081817442530898
0.00077688803403086
0.00073848769471683
0.00070272186410729
0.0006693672805429
0.0006382212879021
0.0006090969052828
0.00058182783896377
0.00055626596796156
0.00053227685611445
0.00050973758575394
0.00048853440302718
0.00046855923826906
0.00044973025640038
0.00043194762631176
0.0004705558153167
0.0020854653579899
0.0026906704145233
0.0027300757202226
0.0027115415343282
0.0026586967706527
0.0025796075785538
0.0024996746291728
0.0024537021528059
0.0024219142949762
0.0023930559614512
0.0023683249099393
0.0023511465013367
0.0023446843342425
0.0023510825408672
0.0023681262137134
0.0023968742881637
0.0024351925609712
0.0024805684943885
0.0025303446230217
0.0025819737484077
0.0026331997986137
0.0026822240571143
0.0027276801827894
0.0027688081405362
0.0028056364228691
0.002838303147778
0.0028673738752219
0.0028936536409502
0.0029179482623991
0.0029407908990026
0.0029623700656195
0.0029825491938706
0.0030016308108808
0.0030214082333046
0.0030368290167933
0.0030503624684346
0.0030626078332738
0.0030738220172414
0.0030829057206191
0.0030896146969775
0.0030927057668841
0.0030913450033264
0.0030816886734463
0.003067410713155
0.0030498044142166
0.0030298767847362
0.0030087177705135
0.0029860275945232
0.0029616085733659
0.0029369641882431
0.0029127229765007
0.0028890808450299
0.002866817836609
0.0028453206701327
0.0028268838514156
0.0028099402700551
0.002796861928076
0.0027864581632258
0.0027809325333254
0.0027747958626611
0.0027714895838502
0.0027723160564546
0.0027728869713697
0.0027633261049723
0.0028105710796324
0.0028354524774179
0.0029404366754899
0.0031796563751588
0.0032826890761629
0.0079452239899297
0.011833315669177
0.019177521760524
0.028075936665151
0.036427776225481
0.04357376553549
0.049129016786075
0.052930989096431
0.055069631208277
0.055413691284837
0.053999568202783
0.051639944891064
0.048344520681227
0.044372868377049
0.04005076805873
0.035654088953942
0.031405733362818
0.027450549894262
0.023875877537905
0.020716079898866
0.01796779602618
0.015602805209652
0.013580607673847
0.011857326801562
0.010389917538354
0.009140620227152
0.0080746620674212
0.0071629931456437
0.0063808766210849
0.0057058024825484
0.005121738074557
0.0046152137225109
0.0041737813464984
0.0037879662716269
0.0034482852981116
0.0031488021300813
0.0028840148333828
0.0026489990524515
0.0024394794550143
0.0022520126298988
0.0020841101721735
0.0019331277793636
0.0017969492556735
0.0016736595668068
0.0015619605604346
0.0014604388059314
0.0013679619616516
0.0012834713627527
0.0012061376987452
0.0011352546029449
0.0010701185930379
0.0010101398995209
0.00095478679197782
0.00090364714626797
0.00085631450154181
0.00081242286690221
0.000771650397827
0.00073370821100669
0.00069836293521284
0.00066538221164802
0.0006345638218651
0.00060573323897583
0.00057872940677356
0.00055341288680544
0.00052964886405662
0.00050731467025083
0.00048629830604026
0.00046648968497213
0.00044780620155607
0.00043014355375777
0.00047089176077669
0.0020885625030841
0.0026822421085175
0.0027189871027749
0.0026995959569702
0.0026469706291107
0.0025679210309376
0.0024854022391053
0.0024339215584844
0.0024002203529517
0.0023714163160078
0.0023472358009174
0.0023307578540923
0.0023252107357384
0.002333036970775
0.0023511372558334
0.0023811608611388
0.0024209006101919
0.0024676941694264
0.002518838652848
0.0025718142475786
0.0026244146081645
0.0026748820162127
0.0027218613690027
0.0027645800742898
0.0028029688683949
0.0028369934366846
0.0028671948147313
0.0028943618515995
0.0029193397680204
0.0029427201827521
0.0029646700374268
0.0029850162797331
0.0030040228030602
0.0030223898881448
0.0030366894146777
0.0030487833016409
0.0030594275134587
0.0030693722231842
0.0030774949046994
0.0030839565753955
0.0030869916225797
0.0030841666609679
0.0030742258984162
0.0030604953390352
0.0030428638781889
0.0030223610585017
0.0030006105243915
0.0029780246179957
0.0029545500533984
0.0029309187088588
0.0029073949137268
0.002885137120251
0.002863864133352
0.0028437549130115
0.0028262926479278
0.0028102080113605
0.0027983711842243
0.0027889713444623
0.0027846772399909
0.0027786310193378
0.0027753326364706
0.0027791047380994
0.0027755941132613
0.0027625141505677
0.0028019982933098
0.0028215624108074
0.0029024343573144
0.0031210122621358
0.0031992137590039
0.0063257516041737
0.0083575301432315
0.010602588861224
0.015011361726768
0.01992342075864
0.024621825003634
0.028810083727327
0.032240949603585
0.034807871382362
0.036417588646784
0.036756221309847
0.036338808246188
0.035211469296764
0.033361605597349
0.031034804607811
0.028420517129188
0.025681961952914
0.022981681947273
0.020414908069841
0.018046618534863
0.015909645663289
0.014011733192409
0.012344820754754
0.010892272021408
0.0096319601257386
0.0085405813955862
0.0075964536122987
0.0067789007868548
0.0060695356290149
0.0054526643465831
0.0049150162245988
0.0044449817618486
0.0040321900647516
0.0036688445250398
0.0033483870978978
0.0030647483148634
0.0028128957843394
0.0025879688468463
0.0023868825132755
0.0022068454788559
0.0020450139975627
0.0018991912224432
0.0017671597245092
0.0016476418013642
0.0015390957993951
0.0014403044222899
0.0013501069082344
0.0012675843345398
0.0011920248470424
0.0011226356333286
0.0010588133701361
0.00099994532389413
0.00094558963019627
0.00089533956368105
0.0008487849738552
0.0008055840426569
0.00076540606660964
0.00072800735620467
0.00069315270842228
0.0006606157239443
0.00063019995881797
0.00060172352394351
0.0005750406074654
0.00055001542360948
0.00052651368849725
0.00050441838639194
0.00048362057217967
0.00046400944097938
0.00044549593905517
0.00042797334579477
0.00047246152257857
0.0020983861820269
0.00267496836235
0.0027080134019735
0.0026873833073283
0.0026350908224073
0.0025562562720256
0.0024707089104722
0.0024122195160409
0.0023750848860154
0.0023455086771139
0.002321512204757
0.0023056087688448
0.0023009906318374
0.0023103357083589
0.0023298810083219
0.0023615414186534
0.0024031155194002
0.0024517573597538
0.002504663278218
0.0025592995208028
0.0026134973460721
0.0026655463777949
0.0027141335159345
0.0027585670443138