/*--------------------------------*- C++ -*----------------------------------*\
| =========                 |                                                 |
| \\      /  F ield         | OpenFOAM: The Open Source CFD Toolbox           |
|  \\    /   O peration     | Version:  2312                                  |
|   \\  /    A nd           | Website:  www.openfoam.com                      |
|    \\/     M anipulation  |                                                 |
\*---------------------------------------------------------------------------*/
FoamFile
{
    version     2.0;
    format      ascii;
    arch        "LSB;label=32;scalar=64";
    class       volScalarField;
    location    "7e-05";
    object      yPlus;
}
// * * * * * * * * * * * * * * * * * * * * * * * * * * * * * * * * * * * * * //

dimensions      [0 0 0 0 0 0 0];

internalField   uniform 0;

boundaryField
{
    inlet
    {
        type            calculated;
        value           uniform 0;
    }
    outlet
    {
        type            calculated;
        value           uniform 0;
    }
    nozzleWalls
    {
        type            calculated;
        value           nonuniform List<scalar> 
144
(
35.124090289905
34.709938755162
34.279187144702
33.854292445951
33.441637957694
33.043351086704
32.660184338099
32.292070801379
31.939022896471
31.601029529849
31.278188981415
30.970701613872
30.678865441837
30.403083162384
30.143863995932
29.901796743692
29.677499793551
29.470968291646
29.279237072125
29.100165574848
28.933486649168
28.779219717435
28.637445520473
28.508280919329
28.391988345339
28.289020799212
28.200131947705
28.126535507448
28.070174016883
28.034231115162
28.024424389699
28.049703263603
28.129453926855
28.311163487658
28.762523488978
30.917313249333
35.363214944751
35.025358228533
34.602435297925
34.172033020085
33.749864837012
33.340671521634
32.94612806629
32.566751579957
32.20239758464
31.853111279736
31.518892600854
31.199867781153
30.896261276433
30.60839634729
30.336703798925
30.081714705316
29.844033874429
29.624252752018
29.421779674904
29.233304283304
29.057334670336
28.893753909209
28.742601025351
28.603964696931
28.477987419445
28.364973539043
28.265440877054
28.180238350204
28.110731603382
28.059110511074
28.029012674039
28.026952494422
28.063406393215
28.162230706457
28.385617397143
28.984890414153
35.215881453966
34.816737200438
34.386768346438
33.959501051593
33.54350724361
33.141512412791
32.754545997357
32.382689473949
32.025874673515
31.684112983575
31.357469181353
31.046119429554
30.750336861342
30.470497001493
30.20708498778
29.960671043708
29.731878692565
29.521057095063
29.325952659097
29.143770380298
28.973994873588
28.816619140642
28.671712552897
28.539377906138
28.419834362918
28.313478212623
28.220977818146
28.143410624064
28.082502701222
28.041056622978
28.024016118484
28.039298375547
28.102639351822
28.251100913718
28.600993698643
29.869901279245
35.298345395965
34.922235709456
34.49462515973
34.065438525548
33.646258827567
33.240625201659
32.849853722594
32.474251569955
32.113666165204
31.768140861009
31.437704878962
31.12250987047
30.822804522773
30.538937983696
30.27136804686
30.02064707097
29.787392001024
29.572115957753
29.373459668695
29.188149549637
29.015277668174
28.854797687504
28.706764775229
28.571273901553
28.448503166825
28.338799870404
28.242754110546
28.161322113272
28.096039146231
28.049379724257
28.025499215418
28.031820811343
28.08086329954
28.202214899403
28.479509303022
29.320258878475
)
;
    }
    tipWalls
    {
        type            calculated;
        value           nonuniform List<scalar> 
304
(
9.2064306296056
2.9964782452856
4.5345500118697
4.8555908698214
4.7451608072978
4.4625333263974
4.0527420486842
3.3841179817216
2.3539276099305
1.2627974508554
0.35229448044165
0.61587625656265
0.59788513089771
0.5297500432024
0.46194176849547
0.40752049648004
0.36665726836953
0.33519320704328
0.30946997794511
0.28756549650734
0.2684131753454
0.25132606225799
0.2358590134848
0.22194980729967
0.20962295774748
0.1988594197608
0.18959402392618
0.18170059402424
0.17500549646343
0.16931759766555
0.16445268320457
0.1602528533546
0.15659629626978
0.15339333132621
0.15057631618759
0.14809278209976
0.14589654038195
0.14394191634892
0.14218236932999
0.14058370374527
0.13912657096077
0.13781564670201
0.13667314597935
0.13573003713896
0.13500881199459
0.13450518532695
0.13418747467976
0.13399207178358
0.13384628228889
0.13369908613745
0.13352079621292
0.1333076072327
0.13307805660659
0.13287180222481
0.1327458765105
0.13274347588884
0.13289035201734
0.13318694914633
0.13360631331035
0.13410342891941
0.13464438296187
0.1352148384628
0.13581729350387
0.1365754927553
0.13986127832071
0.27503780002243
0.2764529417451
0.27733831338074
0.27808516350835
0.27867737440216
0.27921200727728
0.27977936729357
0.28050230291405
0.28166147583442
0.28398543866591
0.28952461670744
0.30564094304534
0.56542593641659
0.57079135538428
0.57340832345726
0.5751373599852
0.57612134379759
0.57656668926843
0.57658984398159
0.57611669305146
0.57520905628482
0.57394040561172
0.57245038756499
0.5707473163803
0.56877147464561
0.56659584598328
0.5643320846362
0.56215817941937
0.56069324525553
0.56025545716138
0.56076825392083
0.54294215049547
1.6021705043868
4.0117864442746
4.7803522992309
4.8303883916969
4.6172077542296
4.2779459136281
3.7621410135072
2.9065769633177
1.7764965160387
0.79318505152918
0.52404308181149
0.62169035466216
0.56955512866457
0.49396227644199
0.43332412942139
0.38566592251537
0.35000642064357
0.32178264367796
0.2981293571235
0.27769856850099
0.2596394833996
0.24340229221972
0.22870704060721
0.21558818486588
0.20404892385384
0.1940459984826
0.18548593329942
0.17821508432057
0.1720475881596
0.16679288530715
0.16227813265928
0.15836288247034
0.15494278159944
0.15194005555949
0.14929586325468
0.14696154569452
0.14489198146215
0.14304028977828
0.14136654955396
0.13983723184859
0.13845190412013
0.13722136877929
0.13617491158895
0.13534120038349
0.13473109858323
0.13432636837914
0.13407966489482
0.13391662812998
0.1337752651384
0.13361462336635
0.13341790723529
0.13319292389052
0.13296864950579
0.1327952831606
0.13272672359331
0.13279761794121
0.13302102260289
0.13338425981357
0.13384764634794
0.13436978288647
0.1349261386831
0.13551107316308
0.13614629847881
0.13740297794102
0.14155332180357
0.27600224852372
0.27689522094812
0.2777366786433
0.27839461052542
0.27894532625834
0.27948589782777
0.28010821024264
0.28100008162108
0.28259244125603
0.28612857503779
0.29471832425147
0.30925627395253
22.567624767902
2.1196700589923
4.3126654546675
4.8337128211804
4.7940894281052
4.5428636478361
4.1720500126843
3.5868016470628
2.6369003581562
1.5049444019817
0.54705499034702
0.58400609747447
0.61225021871121
0.54994570472986
0.47700664729159
0.42018635613455
0.37585553141987
0.34236066771239
0.31549272499031
0.29275656407851
0.27299040635483
0.25542987724292
0.23958202969641
0.22527908266582
0.21255617520866
0.2014064653198
0.19177583050093
0.18355432823728
0.17657731679979
0.17065556440469
0.16560095350609
0.16124775974372
0.15746484439394
0.15415556480467
0.15124739534583
0.14868500309786
0.14642111940499
0.14441051695154
0.14260587459578
0.14097081021059
0.13947747900995
0.13812876488037
0.13694123817548
0.1359455966476
0.13516801775327
0.13461189702723
0.1342524300179
0.13403388171538
0.13388121059512
0.13373805454568
0.13356888753907
0.1333635222593
0.13313518426645
0.13291814775924
0.13276687825584
0.13273062644148
0.13283917931083
0.13309975366652
0.13349255601952
0.13397400832203
0.13450614140798
0.13506960133204
0.13566259300861
0.13633629563207
0.13822485993188
3.288522336764
3.6028063011518
4.6837599142373
4.8518434758495
4.6851458620762
4.3746539978303
3.9172054080148
3.1587941060237
2.0622556393353
1.0320161718011
0.4281895372933
0.6242937578305
0.58398161229232
0.51193071558021
0.44698181624465
0.396136924137
0.35809235963838
0.32835836743169
0.30369116834774
0.28254960391426
0.26396513519419
0.24731822917652
0.2322338920405
0.21871946995369
0.20678750707858
0.19640653229805
0.18749824000461
0.17992183783887
0.17349658867436
0.16803091595087
0.16334578459901
0.15929174194734
0.15575599563165
0.15265510820068
0.14992605927993
0.1475185326152
0.14538706546742
0.14348542081748
0.14177023169635
0.14020588987412
0.13878462823029
0.13751301436018
0.13641756513038
0.13552853491515
0.13486327637985
0.13441029664365
0.13413039405228
0.13395329270201
0.13381119013527
0.13365800144797
0.13347041689136
0.13325057679027
0.13302226094069
0.13283059424263
0.13273219007695
0.13276572666645
0.13295106001876
0.13328211402345
0.13372488372658
0.13423546527528
0.13478440086504
0.13536194021908
0.13597704232453
0.13690139228839
0.14370105009197
)
;
    }
    wedge1
    {
        type            wedge;
    }
    wedge2
    {
        type            wedge;
    }
    defaultFaces
    {
        type            empty;
    }
}


// ************************************************************************* //
