/*--------------------------------*- C++ -*----------------------------------*\
| =========                 |                                                 |
| \\      /  F ield         | OpenFOAM: The Open Source CFD Toolbox           |
|  \\    /   O peration     | Version:  2312                                  |
|   \\  /    A nd           | Website:  www.openfoam.com                      |
|    \\/     M anipulation  |                                                 |
\*---------------------------------------------------------------------------*/
FoamFile
{
    version     2.0;
    format      ascii;
    arch        "LSB;label=32;scalar=64";
    class       volScalarField;
    location    "0.2";
    object      p;
}
// * * * * * * * * * * * * * * * * * * * * * * * * * * * * * * * * * * * * * //

dimensions      [1 -1 -2 0 0 0 0];

internalField   nonuniform List<scalar> 
100
(
300546
299809
299386
299163
298893
298600
298300
297986
297654
297307
296943
296560
296157
295734
295287
294816
294319
293794
293238
292650
292026
291363
290659
289909
289109
288254
287339
286359
285305
284172
282949
281627
280194
278637
276938
275080
273040
270791
268301
265528
262423
258921
254939
250365
245043
238748
231127
221612
208935
191089
147631
118557
104299
94374.7
86114.5
79330.4
73454.5
68467.9
63997.3
60206.5
56618.1
53596.1
50664.1
48196.7
45752.8
43695.2
41631.4
39883
38121.2
36617.9
35097
33791.9
32472.1
31307.2
29748.3
30124.8
60263.4
134186
157240
159302
160373
161639
162866
163951
164975
165934
166832
167677
168472
169221
169929
170598
171232
171832
172402
172941
173431
173918
174289
173935
)
;

boundaryField
{
    inlet
    {
        type            fixedValue;
        value           uniform 300000;
    }
    outlet
    {
        type            fixedValue;
        value           uniform 175000;
    }
    upperWall
    {
        type            zeroGradient;
    }
    lowerWall
    {
        type            zeroGradient;
    }
    frontAndBack
    {
        type            empty;
    }
}


// ************************************************************************* //
