/*--------------------------------*- C++ -*----------------------------------*\
| =========                 |                                                 |
| \\      /  F ield         | OpenFOAM: The Open Source CFD Toolbox           |
|  \\    /   O peration     | Version:  2312                                  |
|   \\  /    A nd           | Website:  www.openfoam.com                      |
|    \\/     M anipulation  |                                                 |
\*---------------------------------------------------------------------------*/
FoamFile
{
    version     2.0;
    format      ascii;
    arch        "LSB;label=32;scalar=64";
    class       surfaceScalarField;
    location    "0.2";
    object      phi;
}
// * * * * * * * * * * * * * * * * * * * * * * * * * * * * * * * * * * * * * //

dimensions      [1 0 -1 0 0 0 0];

oriented        oriented;

internalField   nonuniform List<scalar> 
99
(
0.00845086
0.00845086
0.00845086
0.00845086
0.00845086
0.00845086
0.00845086
0.00845086
0.00845086
0.00845086
0.00845086
0.00845086
0.00845086
0.00845086
0.00845086
0.00845086
0.00845086
0.00845086
0.00845086
0.00845086
0.00845086
0.00845086
0.00845086
0.00845086
0.00845086
0.00845086
0.00845086
0.00845086
0.00845086
0.00845086
0.00845086
0.00845086
0.00845086
0.00845086
0.00845086
0.00845086
0.00845086
0.00845086
0.00845086
0.00845086
0.00845086
0.00845086
0.00845086
0.00845086
0.00845086
0.00845086
0.00845086
0.00845086
0.00845086
0.00845086
0.00845086
0.00845086
0.00845086
0.00845086
0.00845086
0.00845086
0.00845086
0.00845086
0.00845086
0.00845086
0.00845086
0.00845086
0.00845086
0.00845086
0.00845086
0.00845086
0.00845086
0.00845086
0.00845086
0.00845086
0.00845086
0.00845086
0.00845086
0.00845086
0.00845086
0.00845086
0.00845086
0.00845086
0.00845086
0.00845086
0.00845086
0.00845086
0.00845086
0.00845086
0.00845086
0.00845086
0.00845086
0.00845086
0.00845086
0.00845086
0.00845086
0.00845086
0.00845086
0.00845086
0.00845086
0.00845086
0.00845086
0.00845086
0.00845086
)
;

boundaryField
{
    inlet
    {
        type            calculated;
        value           uniform -0.00845086;
    }
    outlet
    {
        type            calculated;
        value           uniform 0.00845086;
    }
    upperWall
    {
        type            calculated;
        value           nonuniform List<scalar> 
100
(
7.15282e-21
1.42748e-20
1.42585e-20
-4.14439e-35
0
7.11607e-21
1.4222e-20
7.10564e-21
0
1.41882e-20
1.41757e-20
1.41627e-20
1.4149e-20
2.8269e-20
1.41192e-20
1.41032e-20
1.40862e-20
0
1.40492e-20
1.40291e-20
-4.81482e-35
-1.3985e-20
1.39609e-20
2.78703e-20
-1.39077e-20
1.38783e-20
-4.15406e-20
0
1.37768e-20
-1.37378e-20
-4.81482e-35
2.72997e-20
-2.72005e-20
0
1.34872e-20
1.34226e-20
1.33515e-20
1.32729e-20
1.31857e-20
-5.23532e-20
0
-9.62965e-35
-2.54275e-20
0
-2.47195e-20
4.85299e-20
-9.62965e-35
0
-2.20637e-20
-2.0722e-20
0
1.09576e-34
0
2.49604e-20
2.33809e-20
8.8191e-20
-4.17409e-20
-1.9846e-20
9.62965e-35
-1.8104e-20
1.73292e-20
4.99814e-20
-1.60072e-20
-1.54433e-20
-1.4883e-20
-1.43984e-20
-1.39127e-20
0
-1.30645e-20
-1.26908e-20
1.23156e-20
-1.19831e-20
-1.16504e-20
1.13469e-20
-2.18828e-20
0
-1.62261e-20
0
0
0
5.35378e-35
-1.59771e-20
-2.40971e-20
-1.6141e-20
0
-8.14012e-21
-8.17159e-21
-8.20112e-21
0
-1.65101e-20
-8.27969e-21
-8.30297e-21
-8.32499e-21
-8.34582e-21
-1.67312e-20
-8.38429e-21
8.40081e-21
-8.41784e-21
-8.42988e-21
0
)
;
    }
    lowerWall
    {
        type            calculated;
        value           nonuniform List<scalar> 
100
(
0
-7.13742e-21
-7.12923e-21
7.12564e-21
1.42422e-20
-4.81482e-35
1.4222e-20
7.10564e-21
7.09999e-21
0
1.41757e-20
1.41627e-20
0
1.41345e-20
1.41192e-20
-4.97981e-35
2.81724e-20
1.40682e-20
0
-4.81482e-35
0
-1.3985e-20
-1.39609e-20
-4.18055e-20
1.39077e-20
0
2.76937e-20
1.38131e-20
-4.13305e-20
0
2.73911e-20
1.36498e-20
1.36002e-20
-1.35462e-20
1.34872e-20
0
1.33515e-20
1.32729e-20
-3.9557e-20
-2.61766e-20
2.59578e-20
-2.57102e-20
-7.62824e-20
0
-4.9439e-20
-9.62965e-35
-2.37101e-20
-2.30105e-20
-1.44445e-34
0
3.43619e-20
2.93817e-20
0
-2.49604e-20
-4.67618e-20
4.40955e-20
-2.08705e-20
1.9846e-20
1.89137e-20
-3.6208e-20
3.46583e-20
0
0
-3.08865e-20
0
-1.43984e-20
2.78255e-20
1.34893e-20
0
-1.26908e-20
1.23156e-20
3.59494e-20
-1.16504e-20
1.13469e-20
-2.18828e-20
-1.10394e-20
3.24522e-20
-2.74603e-20
5.60993e-35
0
-1.5888e-20
-1.59771e-20
-1.60648e-20
-1.6141e-20
4.81482e-35
4.81482e-35
-8.17159e-21
-8.20112e-21
-2.46866e-20
-8.25503e-21
0
-8.30297e-21
4.39834e-35
-8.34582e-21
4.27148e-35
-8.38429e-21
8.40081e-21
0
4.81482e-35
-8.40399e-21
)
;
    }
    frontAndBack
    {
        type            empty;
        value           nonuniform List<scalar> 0();
    }
}


// ************************************************************************* //
