/*--------------------------------*- C++ -*----------------------------------*\
| =========                 |                                                 |
| \\      /  F ield         | OpenFOAM: The Open Source CFD Toolbox           |
|  \\    /   O peration     | Version:  2312                                  |
|   \\  /    A nd           | Website:  www.openfoam.com                      |
|    \\/     M anipulation  |                                                 |
\*---------------------------------------------------------------------------*/
FoamFile
{
    version     2.0;
    format      ascii;
    arch        "LSB;label=32;scalar=64";
    class       volScalarField;
    location    "0.2";
    object      T;
}
// * * * * * * * * * * * * * * * * * * * * * * * * * * * * * * * * * * * * * //

dimensions      [0 0 0 1 0 0 0];

internalField   nonuniform List<scalar> 
100
(
496.034
495.885
495.756
495.635
495.504
495.367
495.225
495.075
494.918
494.753
494.579
494.397
494.205
494.002
493.789
493.564
493.326
493.074
492.807
492.524
492.223
491.903
491.563
491.199
490.811
490.395
489.95
489.471
488.955
488.398
487.795
487.142
486.431
485.655
484.806
483.873
482.842
481.7
480.427
479
477.388
475.555
473.447
470.996
468.103
464.621
460.315
454.783
447.169
435.454
405.759
381.082
367.395
357.085
347.843
339.816
332.395
325.824
319.56
314.078
308.565
303.819
298.919
294.745
290.332
286.608
282.603
279.233
275.577
272.504
269.144
266.324
263.231
260.577
256.777
257.721
350.758
461.498
474.331
475.645
476.651
477.733
478.734
479.648
480.501
481.296
482.038
482.734
483.386
483.999
484.576
485.121
485.635
486.121
486.579
487.013
487.433
487.812
488.155
488.664
)
;

boundaryField
{
    inlet
    {
        type            totalTemperature;
        gamma           1.4;
        T0              uniform 500;
        value           uniform 496.034;
    }
    outlet
    {
        type            zeroGradient;
    }
    upperWall
    {
        type            zeroGradient;
    }
    lowerWall
    {
        type            zeroGradient;
    }
    frontAndBack
    {
        type            empty;
    }
}


// ************************************************************************* //
