/*--------------------------------*- C++ -*----------------------------------*\
| =========                 |                                                 |
| \\      /  F ield         | OpenFOAM: The Open Source CFD Toolbox           |
|  \\    /   O peration     | Version:  2312                                  |
|   \\  /    A nd           | Website:  www.openfoam.com                      |
|    \\/     M anipulation  |                                                 |
\*---------------------------------------------------------------------------*/
FoamFile
{
    version     2.0;
    format      ascii;
    arch        "LSB;label=32;scalar=64";
    class       volScalarField;
    location    "0.2";
    object      thermo:psiGasEff;
}
// * * * * * * * * * * * * * * * * * * * * * * * * * * * * * * * * * * * * * //

dimensions      [-2 4 2 0 0 0 0];

internalField   nonuniform List<scalar> 
100
(
1.57606e-06
1.58334e-06
1.5874e-06
1.58938e-06
1.59183e-06
1.59452e-06
1.59727e-06
1.60015e-06
1.60321e-06
1.60642e-06
1.6098e-06
1.61336e-06
1.61712e-06
1.6211e-06
1.6253e-06
1.62975e-06
1.63448e-06
1.63949e-06
1.64482e-06
1.65049e-06
1.65654e-06
1.663e-06
1.66991e-06
1.67733e-06
1.68529e-06
1.69386e-06
1.70311e-06
1.71312e-06
1.72397e-06
1.73578e-06
1.74865e-06
1.76274e-06
1.77822e-06
1.79529e-06
1.8142e-06
1.83525e-06
1.85881e-06
1.88534e-06
1.91543e-06
1.94983e-06
1.98953e-06
2.03586e-06
2.09065e-06
2.15652e-06
2.23737e-06
2.33938e-06
2.47307e-06
2.65767e-06
2.93988e-06
3.42256e-06
5.34312e-06
7.78119e-06
9.69298e-06
1.15065e-05
1.34621e-05
1.5497e-05
1.76807e-05
1.99476e-05
2.2393e-05
2.48675e-05
2.7626e-05
3.0355e-05
3.34221e-05
3.64161e-05
3.98053e-05
4.30827e-05
4.67969e-05
5.03818e-05
5.44241e-05
5.83267e-05
6.27085e-05
6.6937e-05
7.1647e-05
7.63009e-05
8.32749e-05
8.15045e-05
2.77193e-05
7.35596e-06
5.506e-06
5.37924e-06
5.31887e-06
5.24779e-06
5.17984e-06
5.12123e-06
5.06684e-06
5.01678e-06
4.97055e-06
4.92771e-06
4.88791e-06
4.85084e-06
4.81625e-06
4.7839e-06
4.75359e-06
4.72516e-06
4.69841e-06
4.67332e-06
4.65095e-06
4.62855e-06
4.61209e-06
4.63572e-06
)
;

boundaryField
{
    inlet
    {
        type            calculated;
        value           uniform 1.5818e-06;
    }
    outlet
    {
        type            calculated;
        value           uniform 4.57948e-06;
    }
    upperWall
    {
        type            calculated;
        value           nonuniform List<scalar> 
100
(
1.57606e-06
1.58334e-06
1.5874e-06
1.58938e-06
1.59183e-06
1.59452e-06
1.59727e-06
1.60015e-06
1.60321e-06
1.60642e-06
1.6098e-06
1.61336e-06
1.61712e-06
1.6211e-06
1.6253e-06
1.62975e-06
1.63448e-06
1.63949e-06
1.64482e-06
1.65049e-06
1.65654e-06
1.663e-06
1.66991e-06
1.67733e-06
1.68529e-06
1.69386e-06
1.70311e-06
1.71312e-06
1.72397e-06
1.73578e-06
1.74865e-06
1.76274e-06
1.77822e-06
1.79529e-06
1.8142e-06
1.83525e-06
1.85881e-06
1.88534e-06
1.91543e-06
1.94983e-06
1.98953e-06
2.03586e-06
2.09065e-06
2.15652e-06
2.23737e-06
2.33938e-06
2.47307e-06
2.65767e-06
2.93988e-06
3.42256e-06
5.34312e-06
7.78119e-06
9.69298e-06
1.15065e-05
1.34621e-05
1.5497e-05
1.76807e-05
1.99476e-05
2.2393e-05
2.48675e-05
2.7626e-05
3.0355e-05
3.34221e-05
3.64161e-05
3.98053e-05
4.30827e-05
4.67969e-05
5.03818e-05
5.44241e-05
5.83267e-05
6.27085e-05
6.6937e-05
7.1647e-05
7.63009e-05
8.32749e-05
8.15045e-05
2.77193e-05
7.35596e-06
5.506e-06
5.37924e-06
5.31887e-06
5.24779e-06
5.17984e-06
5.12123e-06
5.06684e-06
5.01678e-06
4.97055e-06
4.92771e-06
4.88791e-06
4.85084e-06
4.81625e-06
4.7839e-06
4.75359e-06
4.72516e-06
4.69841e-06
4.67332e-06
4.65095e-06
4.62855e-06
4.61209e-06
4.63572e-06
)
;
    }
    lowerWall
    {
        type            calculated;
        value           nonuniform List<scalar> 
100
(
1.57606e-06
1.58334e-06
1.5874e-06
1.58938e-06
1.59183e-06
1.59452e-06
1.59727e-06
1.60015e-06
1.60321e-06
1.60642e-06
1.6098e-06
1.61336e-06
1.61712e-06
1.6211e-06
1.6253e-06
1.62975e-06
1.63448e-06
1.63949e-06
1.64482e-06
1.65049e-06
1.65654e-06
1.663e-06
1.66991e-06
1.67733e-06
1.68529e-06
1.69386e-06
1.70311e-06
1.71312e-06
1.72397e-06
1.73578e-06
1.74865e-06
1.76274e-06
1.77822e-06
1.79529e-06
1.8142e-06
1.83525e-06
1.85881e-06
1.88534e-06
1.91543e-06
1.94983e-06
1.98953e-06
2.03586e-06
2.09065e-06
2.15652e-06
2.23737e-06
2.33938e-06
2.47307e-06
2.65767e-06
2.93988e-06
3.42256e-06
5.34312e-06
7.78119e-06
9.69298e-06
1.15065e-05
1.34621e-05
1.5497e-05
1.76807e-05
1.99476e-05
2.2393e-05
2.48675e-05
2.7626e-05
3.0355e-05
3.34221e-05
3.64161e-05
3.98053e-05
4.30827e-05
4.67969e-05
5.03818e-05
5.44241e-05
5.83267e-05
6.27085e-05
6.6937e-05
7.1647e-05
7.63009e-05
8.32749e-05
8.15045e-05
2.77193e-05
7.35596e-06
5.506e-06
5.37924e-06
5.31887e-06
5.24779e-06
5.17984e-06
5.12123e-06
5.06684e-06
5.01678e-06
4.97055e-06
4.92771e-06
4.88791e-06
4.85084e-06
4.81625e-06
4.7839e-06
4.75359e-06
4.72516e-06
4.69841e-06
4.67332e-06
4.65095e-06
4.62855e-06
4.61209e-06
4.63572e-06
)
;
    }
    frontAndBack
    {
        type            empty;
    }
}


// ************************************************************************* //
