/*--------------------------------*- C++ -*----------------------------------*\
| =========                 |                                                 |
| \\      /  F ield         | OpenFOAM: The Open Source CFD Toolbox           |
|  \\    /   O peration     | Version:  2312                                  |
|   \\  /    A nd           | Website:  www.openfoam.com                      |
|    \\/     M anipulation  |                                                 |
\*---------------------------------------------------------------------------*/
FoamFile
{
    version     2.0;
    format      ascii;
    arch        "LSB;label=32;scalar=64";
    class       volScalarField;
    location    "0.2";
    object      thermo:psiLiqEff;
}
// * * * * * * * * * * * * * * * * * * * * * * * * * * * * * * * * * * * * * //

dimensions      [-2 4 2 0 0 0 0];

internalField   nonuniform List<scalar> 
100
(
2.7243e-13
2.72512e-13
2.72583e-13
2.7265e-13
2.72721e-13
2.72797e-13
2.72876e-13
2.72958e-13
2.73045e-13
2.73136e-13
2.73232e-13
2.73333e-13
2.73439e-13
2.73551e-13
2.73669e-13
2.73794e-13
2.73927e-13
2.74067e-13
2.74215e-13
2.74373e-13
2.7454e-13
2.74719e-13
2.74909e-13
2.75113e-13
2.75331e-13
2.75564e-13
2.75815e-13
2.76085e-13
2.76376e-13
2.76692e-13
2.77034e-13
2.77405e-13
2.77811e-13
2.78255e-13
2.78742e-13
2.7928e-13
2.79877e-13
2.80541e-13
2.81284e-13
2.82123e-13
2.83076e-13
2.84168e-13
2.85433e-13
2.86919e-13
2.88693e-13
2.90858e-13
2.9358e-13
2.97152e-13
3.02214e-13
3.10347e-13
3.33068e-13
3.54643e-13
3.67858e-13
3.78482e-13
3.88541e-13
3.97721e-13
4.06603e-13
4.14805e-13
4.22938e-13
4.30322e-13
4.38012e-13
4.44856e-13
4.52149e-13
4.58554e-13
4.65525e-13
4.71576e-13
4.7826e-13
4.84034e-13
4.90455e-13
4.95988e-13
5.02181e-13
5.07499e-13
5.13464e-13
5.18694e-13
5.26371e-13
5.24444e-13
3.8532e-13
2.92844e-13
2.84918e-13
2.8413e-13
2.8353e-13
2.82888e-13
2.82297e-13
2.81758e-13
2.81258e-13
2.80793e-13
2.80361e-13
2.79957e-13
2.79579e-13
2.79225e-13
2.78892e-13
2.78579e-13
2.78284e-13
2.78005e-13
2.77744e-13
2.77496e-13
2.77257e-13
2.77041e-13
2.76847e-13
2.76559e-13
)
;

boundaryField
{
    inlet
    {
        type            calculated;
        value           uniform 2.7243e-13;
    }
    outlet
    {
        type            calculated;
        value           uniform 2.76558e-13;
    }
    upperWall
    {
        type            calculated;
        value           nonuniform List<scalar> 
100
(
2.7243e-13
2.72512e-13
2.72583e-13
2.7265e-13
2.72721e-13
2.72797e-13
2.72876e-13
2.72958e-13
2.73045e-13
2.73136e-13
2.73232e-13
2.73333e-13
2.73439e-13
2.73551e-13
2.73669e-13
2.73794e-13
2.73927e-13
2.74067e-13
2.74215e-13
2.74373e-13
2.7454e-13
2.74719e-13
2.74909e-13
2.75113e-13
2.75331e-13
2.75564e-13
2.75815e-13
2.76085e-13
2.76376e-13
2.76692e-13
2.77034e-13
2.77405e-13
2.77811e-13
2.78255e-13
2.78742e-13
2.7928e-13
2.79877e-13
2.80541e-13
2.81284e-13
2.82123e-13
2.83076e-13
2.84168e-13
2.85433e-13
2.86919e-13
2.88693e-13
2.90858e-13
2.9358e-13
2.97152e-13
3.02214e-13
3.10347e-13
3.33068e-13
3.54643e-13
3.67858e-13
3.78482e-13
3.88541e-13
3.97721e-13
4.06603e-13
4.14805e-13
4.22938e-13
4.30322e-13
4.38012e-13
4.44856e-13
4.52149e-13
4.58554e-13
4.65525e-13
4.71576e-13
4.7826e-13
4.84034e-13
4.90455e-13
4.95988e-13
5.02181e-13
5.07499e-13
5.13464e-13
5.18694e-13
5.26371e-13
5.24444e-13
3.8532e-13
2.92844e-13
2.84918e-13
2.8413e-13
2.8353e-13
2.82888e-13
2.82297e-13
2.81758e-13
2.81258e-13
2.80793e-13
2.80361e-13
2.79957e-13
2.79579e-13
2.79225e-13
2.78892e-13
2.78579e-13
2.78284e-13
2.78005e-13
2.77744e-13
2.77496e-13
2.77257e-13
2.77041e-13
2.76847e-13
2.76559e-13
)
;
    }
    lowerWall
    {
        type            calculated;
        value           nonuniform List<scalar> 
100
(
2.7243e-13
2.72512e-13
2.72583e-13
2.7265e-13
2.72721e-13
2.72797e-13
2.72876e-13
2.72958e-13
2.73045e-13
2.73136e-13
2.73232e-13
2.73333e-13
2.73439e-13
2.73551e-13
2.73669e-13
2.73794e-13
2.73927e-13
2.74067e-13
2.74215e-13
2.74373e-13
2.7454e-13
2.74719e-13
2.74909e-13
2.75113e-13
2.75331e-13
2.75564e-13
2.75815e-13
2.76085e-13
2.76376e-13
2.76692e-13
2.77034e-13
2.77405e-13
2.77811e-13
2.78255e-13
2.78742e-13
2.7928e-13
2.79877e-13
2.80541e-13
2.81284e-13
2.82123e-13
2.83076e-13
2.84168e-13
2.85433e-13
2.86919e-13
2.88693e-13
2.90858e-13
2.9358e-13
2.97152e-13
3.02214e-13
3.10347e-13
3.33068e-13
3.54643e-13
3.67858e-13
3.78482e-13
3.88541e-13
3.97721e-13
4.06603e-13
4.14805e-13
4.22938e-13
4.30322e-13
4.38012e-13
4.44856e-13
4.52149e-13
4.58554e-13
4.65525e-13
4.71576e-13
4.7826e-13
4.84034e-13
4.90455e-13
4.95988e-13
5.02181e-13
5.07499e-13
5.13464e-13
5.18694e-13
5.26371e-13
5.24444e-13
3.8532e-13
2.92844e-13
2.84918e-13
2.8413e-13
2.8353e-13
2.82888e-13
2.82297e-13
2.81758e-13
2.81258e-13
2.80793e-13
2.80361e-13
2.79957e-13
2.79579e-13
2.79225e-13
2.78892e-13
2.78579e-13
2.78284e-13
2.78005e-13
2.77744e-13
2.77496e-13
2.77257e-13
2.77041e-13
2.76847e-13
2.76559e-13
)
;
    }
    frontAndBack
    {
        type            empty;
    }
}


// ************************************************************************* //
