/*--------------------------------*- C++ -*----------------------------------*\
| =========                 |                                                 |
| \\      /  F ield         | OpenFOAM: The Open Source CFD Toolbox           |
|  \\    /   O peration     | Version:  2312                                  |
|   \\  /    A nd           | Website:  www.openfoam.com                      |
|    \\/     M anipulation  |                                                 |
\*---------------------------------------------------------------------------*/
FoamFile
{
    version     2.0;
    format      ascii;
    arch        "LSB;label=32;scalar=64";
    class       volVectorField;
    location    "0.2";
    object      U;
}
// * * * * * * * * * * * * * * * * * * * * * * * * * * * * * * * * * * * * * //

dimensions      [0 1 -1 0 0 0 0];

internalField   nonuniform List<vector> 
100
(
(89.2665 -3.84866e-12 0)
(90.9179 -3.85284e-12 2.19017e-15)
(92.3257 -3.82296e-12 0)
(93.6606 -3.84815e-12 -2.37861e-15)
(95.0617 -3.83974e-12 0)
(96.5076 -3.84133e-12 -2.43751e-15)
(97.9856 -3.83004e-12 0)
(99.512 -3.83799e-12 -2.50713e-15)
(101.09 -3.81696e-12 -2.54382e-15)
(102.72 -3.83895e-12 -2.58185e-15)
(104.404 -3.82995e-12 0)
(106.146 -3.83509e-12 -2.6607e-15)
(107.95 -3.81967e-12 0)
(109.818 -3.83385e-12 0)
(111.755 -3.80341e-12 -2.78899e-15)
(113.763 -3.82481e-12 0)
(115.848 -3.82069e-12 -5.76286e-15)
(118.014 -3.81647e-12 0)
(120.266 -3.8115e-12 -2.98003e-15)
(122.61 -3.81149e-12 -3.03176e-15)
(125.051 -3.80683e-12 -3.08514e-15)
(127.596 -3.80635e-12 0)
(130.252 -3.80283e-12 -3.19747e-15)
(133.028 -3.80126e-12 0)
(135.931 -3.78503e-12 -3.318e-15)
(138.972 -3.80379e-12 0)
(142.161 -3.77667e-12 0)
(145.51 -3.77548e-12 0)
(149.032 -3.76921e-12 -3.58711e-15)
(152.742 -3.77539e-12 0)
(156.658 -3.76246e-12 -3.73774e-15)
(160.797 -3.77393e-12 0)
(165.182 -3.74837e-12 0)
(169.838 -3.7412e-12 0)
(174.794 -3.74188e-12 -4.07678e-15)
(180.083 -3.73548e-12 -4.17032e-15)
(185.746 -3.74097e-12 0)
(191.829 -3.72848e-12 0)
(198.39 -3.73973e-12 0)
(205.496 -3.74874e-12 0)
(213.235 -3.72835e-12 0)
(221.714 -3.75285e-12 0)
(231.073 -3.74234e-12 0)
(241.502 -3.74677e-12 0)
(253.259 -3.73793e-12 5.18243e-15)
(266.726 -3.73917e-12 0)
(282.491 -3.7394e-12 -5.42119e-15)
(301.534 -3.739e-12 0)
(325.931 -3.73829e-12 0)
(360.251 -3.74003e-12 0)
(435.245 -3.73422e-12 0)
(488.668 -3.7414e-12 6.07942e-31)
(516.25 -3.73505e-12 0)
(535.726 -3.73452e-12 4.31533e-15)
(552.989 -3.73327e-12 0)
(567.181 -3.7322e-12 3.83741e-15)
(580.375 -3.73021e-12 0)
(591.44 -3.73024e-12 0)
(602.181 -3.73321e-12 0)
(611.063 -3.73258e-12 0)
(620.252 -3.72857e-12 0)
(627.701 -3.73653e-12 0)
(635.68 -3.72952e-12 0)
(642.058 -3.73298e-12 0)
(649.107 -3.72675e-12 2.53197e-15)
(654.666 -3.72393e-12 0)
(660.958 -3.72513e-12 2.34504e-15)
(665.887 -3.72144e-12 0)
(671.549 -3.72118e-12 2.1804e-15)
(675.963 -3.7224e-12 0)
(681.103 -3.71857e-12 0)
(685.086 -3.7186e-12 0)
(689.767 -3.71808e-12 1.90659e-15)
(693.463 -3.71742e-12 0)
(699.024 -3.71706e-12 1.51178e-15)
(697.565 -3.71695e-12 0)
(547.437 -3.71783e-12 2.0121e-15)
(278.087 -3.71094e-12 0)
(227.068 -3.72471e-12 -2.98136e-15)
(221.232 -3.71415e-12 0)
(216.551 -3.72322e-12 5.86529e-15)
(211.483 -3.7089e-12 0)
(206.676 -3.7264e-12 2.85799e-15)
(202.186 -3.70612e-12 2.8154e-15)
(197.902 -3.73061e-12 -2.77273e-15)
(193.825 -3.7197e-12 2.73143e-15)
(189.938 -3.72223e-12 0)
(186.225 -3.71072e-12 0)
(182.673 -3.71508e-12 2.61366e-15)
(179.27 -3.70266e-12 0)
(176.006 -3.7161e-12 2.54004e-15)
(172.873 -3.71098e-12 2.50467e-15)
(169.861 -3.70592e-12 2.47006e-15)
(166.962 -3.70843e-12 0)
(164.175 -3.70246e-12 2.40434e-15)
(161.494 -3.70079e-12 2.36656e-15)
(158.878 -3.69547e-12 2.3327e-15)
(156.491 -3.69913e-12 0)
(154.25 -3.68823e-12 -2.17289e-15)
(150.912 -3.6849e-12 0)
)
;

boundaryField
{
    inlet
    {
        type            zeroGradient;
    }
    outlet
    {
        type            zeroGradient;
    }
    upperWall
    {
        type            slip;
    }
    lowerWall
    {
        type            slip;
    }
    frontAndBack
    {
        type            empty;
    }
}


// ************************************************************************* //
