/*--------------------------------*- C++ -*----------------------------------*\
| =========                 |                                                 |
| \\      /  F ield         | OpenFOAM: The Open Source CFD Toolbox           |
|  \\    /   O peration     | Version:  2312                                  |
|   \\  /    A nd           | Website:  www.openfoam.com                      |
|    \\/     M anipulation  |                                                 |
\*---------------------------------------------------------------------------*/
FoamFile
{
    version     2.0;
    format      ascii;
    arch        "LSB;label=32;scalar=64";
    class       volScalarField;
    location    "0.00018";
    object      alphat;
}
// * * * * * * * * * * * * * * * * * * * * * * * * * * * * * * * * * * * * * //

dimensions      [1 -1 -1 0 0 0 0];

internalField   nonuniform List<scalar> 
109340
(
0.47624475683769
0.32659983121759
0.17624932475161
0.14728839697629
0.14267496412216
0.1455905330956
0.1510128119509
0.16050038226905
0.13988409538502
0.12441983196634
0.11218078022597
0.102197152202
0.093878956968243
0.08683400943619
0.08078747426981
0.075539602099999
0.070941146707129
0.066878100103167
0.063261746333976
0.060021940572118
0.057102430290366
0.054457515612986
0.052049617290831
0.049847476906234
0.047824802306631
0.045959226270217
0.044231479154963
0.042624704779383
0.041123853074525
0.039715075404651
0.038385018291268
0.037119818921879
0.035903361718406
0.034713748222531
0.033515146749915
0.032238864734291
0.47071152229388
0.22825556679222
0.16721177073874
0.15296019409617
0.15193057914255
0.15495372887958
0.13874033211456
0.1206870407711
0.10665988610488
0.095554762790183
0.086563883543362
0.079140536512894
0.072909439802032
0.06760577414809
0.063037556109569
0.059062238669341
0.055571766753926
0.052482729570796
0.049729696786278
0.047260570724618
0.045033266173633
0.043013342454921
0.041172300538493
0.039486336508964
0.037935386537152
0.036502369176376
0.035172571452261
0.033933120047657
0.032772488267405
0.031679996305491
0.03064520357693
0.029657012053135
0.028702087527764
0.027761684578134
0.026804129726819
0.025765383038009
0.27645742252658
0.19481100580413
0.16791253036059
0.1576100148267
0.12608376608042
0.10511386057299
0.089907689077396
0.07844797116556
0.069541587967127
0.06245040041875
0.056687828492338
0.051921373109738
0.047918190338011
0.044511407263716
0.041578774510006
0.039028910834277
0.036792241860632
0.034814892629365
0.033054364429557
0.031476373043069
0.030052830483095
0.028760636818871
0.027580827257317
0.026497824172873
0.025498692522779
0.024572607069163
0.023710420931602
0.022904160039545
0.022146766033739
0.021431693583225
0.020752484522478
0.020102232060768
0.019472431243284
0.018851162372456
0.018218783403189
0.017531764553736
0.15887547518972
0.16048533347932
0.10071729984129
0.07331996804942
0.057676330017813
0.047574708941913
0.040534339461911
0.035358380956054
0.03140078061038
0.028282378429654
0.025766114271726
0.02369601450508
0.021965269795038
0.020498379061251
0.019240605888458
0.018151371377652
0.017199886731778
0.016362017977123
0.015616175359373
0.014943862409692
0.014331313127748
0.013768764430927
0.013249135772568
0.012767152503491
0.012318706460512
0.011900424885635
0.011509152767904
0.011142469598821
0.010798063723867
0.010473662386687
0.010166674883001
0.0098732062558605
0.0095869351752681
0.0093000354318731
0.0090031886394633
0.0086753614391212
0.095679307298697
0.031277365753244
0.019018534274027
0.013791985013304
0.010911889076117
0.0091039021737444
0.0078740308850377
0.0069902787780619
0.0063292885077153
0.0058200197177687
0.0054189624643007
0.0050985223232371
0.0048404224807575
0.004632350211714
0.0044659301245257
0.0043352961246493
0.0042352586543377
0.0041571373453307
0.0040867213280103
0.0040163835653501
0.0039454481970327
0.0038761710253653
0.0038109447241401
0.003751395070921
0.003698395129719
0.0036523366545063
0.0036132400551598
0.0035808856488347
0.0035553255650201
0.0035361144672992
0.0035221918383656
0.0035123748442172
0.0035049576341875
0.0034967018449438
0.0034793338775241
0.0034288569451726
0.00024095123332213
0.00035963086965552
0.00046270854276669
0.00054312881249935
0.00060060615979394
0.00063850324298777
0.00066127895373459
0.00067310845044049
0.00067731401741239
0.00067665201164123
0.00067271706801024
0.00066676564056739
0.00065966146416004
0.00065198717976714
0.00064413344863301
0.00063637783530698
0.00062890030419758
0.00062182055203022
0.00061526063974434
0.00060937067339556
0.00060401257544586
0.00059909384459767
0.00059456250214695
0.00059038270283061
0.00058651953457663
0.00058293281179253
0.00057957377438645
0.00057638146292574
0.00057327584183927
0.00057014647385431
0.00056683360596613
0.00056308160826023
0.00055845736743022
0.00055206560307683
0.00054127873195986
0.00051442738448063
0.028484765642099
0.015316178389986
0.0082525510799803
0.0050813657060897
0.0034023613929353
0.0022943028757731
0.0015501619651915
0.001034216448904
0.000698071984783
0.00051075835080844
0.00041883892219691
0.00041552678617988
0.00038035446112624
0.00034120823598309
0.00029425778937442
0.00024777676628387
0.00020731564493082
0.00017243926920342
0.000143962662255
0.00012162847657118
0.00010316935795579
8.7808836355282e-05
7.3673876930705e-05
5.9562811519549e-05
4.8721674157368e-05
4.0271219330367e-05
3.347224290848e-05
2.8222411124803e-05
2.3916623068989e-05
2.0360754863074e-05
1.7606539390093e-05
1.5164176899156e-05
1.328376701987e-05
1.1575864622858e-05
1.0246869986639e-05
9.0214951680613e-06
8.0576231236921e-06
7.1581239610948e-06
6.4449182328818e-06
5.7715715215435e-06
5.2330941782728e-06
4.721306233807e-06
4.305469104471e-06
3.9138458622476e-06
3.5838129538072e-06
3.2838279543758e-06
3.0147856409341e-06
2.7799392478097e-06
2.5614609274556e-06
2.3722184502387e-06
2.1970064386504e-06
2.0400753643161e-06
1.8978736056669e-06
1.7688267375152e-06
1.6512381509888e-06
1.5439193201147e-06
1.4457030324565e-06
1.3557162980634e-06
1.2731275934604e-06
1.1971912936554e-06
1.1272223164878e-06
1.06263204553e-06
1.0029085766971e-06
9.4760887567132e-07
8.963335947978e-07
8.4872360577457e-07
8.0269999775091e-07
1.3006706339704e-05
0.00053037389791164
0.0010185688863855
0.00093310808572423
0.00084219922023832
0.00077376285459796
0.00072061672806921
0.00067803816654912
0.00064339937024217
0.00061525507060712
0.00059275497655407
0.0005751777407195
0.00056172838047697
0.00055151242055911
0.00054362117180687
0.00053724437190945
0.00053174676484586
0.00052602299432139
0.00052108944229228
0.00051610216177549
0.00051100811130561
0.00050581029000325
0.00050057997500142
0.00049548411866305
0.00049082065478891
0.00048703098161116
0.00048462582720422
0.00048393382768439
0.00048464727394837
0.00048534861954529
0.00048345838788605
0.00047559529609589
0.0004583556424767
0.00042926911876276
0.00038798888117121
0.00033720381667112
0.00028342470567862
0.0002241688405816
0.00019077122092663
0.00016701774516309
0.00015169673893376
0.00014276202156438
0.00013790362785344
0.00013483148031341
0.00013300553624893
0.00013234723958864
0.00013233833416522
0.00013262318469994
0.00013291678818684
0.00013310902913797
0.00013312778506688
0.00013292487066203
0.00013246388145578
0.00013177516999874
0.00013072507843928
0.00012947816699799
0.00012817856462721
0.00012691239566966
0.00012571748469174
0.00012458577694884
0.00012349659637743
0.00012243352630999
0.00012138277988241
0.00012033171988577
0.00011927782210208
0.00011822373582239
0.00011718953217861
0.00011620611389846
0.00011532814456924
0.00011458521772959
0.00011397169955129
0.00011332897114278
0.0001124191733363
0.021831615131777
0.011830147062975
0.0069631362666738
0.004545020757653
0.0030345870789904
0.0020516961419409
0.0013752824346654
0.00091488631188305
0.00060874819707431
0.00041257921488061
0.00029193624605831
0.00022344083479966
0.00018314154607132
0.00015436374672157
0.00013396431938736
0.00011851641635766
0.00010625890764126
9.6373060115359e-05
8.7358125575516e-05
7.9186740365559e-05
7.1921698756582e-05
6.5466100612722e-05
5.9662352507027e-05
5.4480501854773e-05
4.5476041040193e-05
3.7637871900095e-05
3.1446162833814e-05
2.6498852988687e-05
2.2524288863289e-05
1.9279170887703e-05
1.662230678703e-05
1.4423372697378e-05
1.2588845234544e-05
1.1050172213576e-05
9.7462313617206e-06
8.6397780381904e-06
7.6905651930846e-06
6.8767995225681e-06
6.171739073365e-06
5.5606662709061e-06
5.0269618439581e-06
4.5596025576244e-06
4.1485542865285e-06
3.7848403530707e-06
3.4634108939186e-06
3.1764579630535e-06
2.9215099290162e-06
2.6923455894225e-06
2.487576594513e-06
2.3026468004776e-06
2.136088967985e-06
1.98505620352e-06
1.8480863730977e-06
1.7235892892184e-06
1.6100711292752e-06
1.5063857349449e-06
1.4114641660349e-06
1.3244337305511e-06
1.2444732768872e-06
1.1708823503677e-06
1.103024415852e-06
1.0403438860395e-06
9.8234410263717e-07
9.2859348682918e-07
8.7871194967343e-07
8.3236901172673e-07
7.9299929090223e-07
4.2522246160679e-05
0.0007842976099819
0.0010056918849164
0.00090644958103387
0.00082211544436517
0.00075832467641821
0.00070833739784703
0.00066806963004229
0.00063527029902871
0.00060869911643949
0.00058757219906502
0.00057116401185498
0.00055865309299141
0.00054913251690139
0.00054171007936559
0.00053561671590521
0.00053026648895814
0.00052588228673117
0.00052094727365128
0.00051595755873277
0.00051085993448684
0.0005056571928497
0.00050042037129305
0.00049531590513802
0.00049064077044044
0.0004868352602741
0.00048440959168375
0.00048369360187086
0.00048438485250987
0.0004850753949159
0.00048319262677163
0.00047537076149166
0.00045820959077145
0.00042923631956204
0.00038808486368125
0.00033741567352961
0.00028368992353129
0.00022435175495828
0.00019081807506489
0.00016692424105434
0.00015146869338177
0.00014241130825418
0.00013746185439565
0.00013432227566031
0.00013241533645502
0.00013166774520151
0.00013157959681904
0.00013179229904059
0.00013202125010993
0.00013215742184204
0.00013212820346614
0.0001318841764012
0.00013139391081115
0.00013068265763832
0.00012962745194241
0.00012838991223617
0.00012710798831844
0.00012586172428172
0.00012468635317494
0.00012357490013913
0.00012250829810036
0.00012147044901085
0.00012044783445818
0.00011942787701924
0.00011840820437087
0.0001173930943422
0.00011640344500648
0.0001154735041468
0.00011465280147421
0.00011396658743867
0.00011340283030853
0.00011280000957162
0.0001119187171502
0.015906875212218
0.0079172967592938
0.0047634941386402
0.0032118418995276
0.0021371488114598
0.0014551956956485
0.00099166395264749
0.00068580267745499
0.00048301765386375
0.00034933184713809
0.00026853509521691
0.00021207853343359
0.00017393392713266
0.00014659302751833
0.0001254590215509
0.00010855873239792
9.5119542637752e-05
8.3869775220063e-05
7.3794978514129e-05
6.5198511580413e-05
5.8178702278932e-05
5.2246266036388e-05
4.7199189624327e-05
4.3004412413349e-05
3.9446747745549e-05
3.6363224859897e-05
3.0766459738406e-05
2.5936084386573e-05
2.2041998964382e-05
1.8875762847493e-05
1.6272121852825e-05
1.4124493695198e-05
1.2331424944302e-05
1.0828677661789e-05
9.5560822312834e-06
8.475629915661e-06
7.5497589058259e-06
6.7544431078904e-06
6.0653978801887e-06
5.4679851218349e-06
4.9454215016222e-06
4.4884529272273e-06
4.0850075340894e-06
3.7295788384412e-06
3.4134928713123e-06
3.1328931557391e-06
2.8819305743595e-06
2.6575080637508e-06
2.455925066773e-06
2.2743526221898e-06
2.1105619331088e-06
1.9621470912864e-06
1.827484475369e-06
1.7048221010238e-06
1.5930107901213e-06
1.4908484642567e-06
1.3973314314863e-06
1.3115484435811e-06
1.2327048692703e-06
1.1601143275018e-06
1.0931599029616e-06
1.0312943822078e-06
9.7403033848663e-07
9.2094547923911e-07
8.7167295608378e-07
8.2589152939162e-07
7.8759935767956e-07
4.4212788077584e-05
0.0007933408995836
0.0010037673896766
0.00090440062498214
0.0008205791920785
0.0007571690285423
0.00070746153472075
0.00066740415278142
0.00063476099778435
0.00060830221366571
0.00058725212144048
0.00057089315835595
0.00055841074997827
0.00054890381681778
0.00054148554906148
0.0005353917131403
0.00053003984952354
0.00052567997478667
0.00052074890254892
0.0005157661853859
0.00051067855457047
0.00050548781375751
0.00050026355652695
0.00049517049307435
0.00049050341265206
0.00048670057670711
0.00048427180601195
0.0004835505113503
0.000484244223406
0.00048496019020776
0.0004831289627682
0.00047542249765749
0.00045842944852808
0.00042967175611816
0.00038874938270261
0.00033826544974974
0.0002845859455484
0.00022499007788446
0.00019109619951309
0.00016683058733149
0.00015102691749902
0.00014166365854794
0.0001365018178672
0.00013320378624059
0.00013112394170119
0.00013019155178522
0.00012993926901705
0.00013000922680495
0.00013011161760552
0.00013013802309589
0.00013001414826922
0.00012968881317787
0.00012913946563793
0.00012837025080083
0.00012729743533805
0.0001260733090234
0.00012482576516221
0.00012362309412572
0.00012249316719367
0.00012142868304858
0.0001204129035115
0.00011943096293528
0.00011846965635088
0.00011751621000894
0.00011656901493792
0.00011563548300032
0.00011474025069027
0.00011392036405304
0.00011321590166074
0.00011264470530428
0.000112186730879
0.00011167235199726
0.00011085668280068
0.0082778927551392
0.0044170678510076
0.0026982955626221
0.0017433576590997
0.0012074068803521
0.00086830897403993
0.00064714801216743
0.00049704413883873
0.00039123870631841
0.00031739981687141
0.00025886537325534
0.00021184713121166
0.00017470029910987
0.00014575203116567
0.00012330016273128
0.00010602255611645
9.2030614356472e-05
8.0438714259203e-05
7.0470855041564e-05
6.1732814847354e-05
5.4126378936166e-05
4.7917490073496e-05
4.279941086348e-05
3.8447002847396e-05
3.4802979002565e-05
3.1821392539877e-05
2.925839948174e-05
2.5373164632941e-05
2.1575101980889e-05
1.848359859542e-05
1.5941972143604e-05
1.3836749212922e-05
1.2083269513715e-05
1.060900131819e-05
9.3636835870494e-06
8.3031422325844e-06
7.3974336505413e-06
6.6175740621482e-06
5.9447230452214e-06
5.3594089291361e-06
4.8493071530897e-06
4.4020738889255e-06
4.0087038933561e-06
3.6612567034987e-06
3.3529164937854e-06
3.0786463918094e-06
2.8333559807122e-06
2.6139775888868e-06
2.4165661048877e-06
2.2390142942249e-06
2.0784758619331e-06
1.9331962560709e-06
1.8011888815582e-06
1.6809470453156e-06
1.5712450856296e-06
1.4709664398204e-06
1.379158979896e-06
1.2949140192148e-06
1.2174700263602e-06
1.1461407430804e-06
1.0803199743894e-06
1.0194731192258e-06
9.6313230049092e-07
9.1088976268786e-07
8.6238738869697e-07
8.1730853109583e-07
7.8076545195035e-07
4.6714590945946e-05
0.00080525649278715
0.0010007806064698
0.00090145936365043
0.00081838104628771
0.00075551173446216
0.00070620150926473
0.00066644273703232
0.00063402348036295
0.00060772724859962
0.00058678932928652
0.00057050234578067
0.00055806132995998
0.00054857383401238
0.00054116128172221
0.00053506693417919
0.00052971417412109
0.00052538321908485
0.00052045892954659
0.00051548869275931
0.00051041759234117
0.00050524605349628
0.00050004199616223
0.00049496765558546
0.00049031475226637
0.00048651897690891
0.00048408931709653
0.0004833637581406
0.00048406397306767
0.00048481944318107
0.00048308019375525
0.00047554797281067
0.00045881428328659
0.00043038879663238
0.00038982094832541
0.00033962392230564
0.00028601835060272
0.00022603716322904
0.00019160050388006
0.00016675391671208
0.00015039893404153
0.00014056343999695
0.00013505311893647
0.00013149797561899
0.00012918619609202
0.00012797176282099
0.00012747072203348
0.00012732570750285
0.00012723876096815
0.00012710078718814
0.00012683500978752
0.00012638973704362
0.0001257561871004
0.00012490878985921
0.00012381721445
0.00012262039167069
0.00012142894537045
0.00012029472888941
0.00011923803561295
0.00011825064781888
0.00011731929649683
0.00011642905956426
0.00011556698843142
0.00011471968133128
0.00011388819392128
0.00011308494823321
0.0001123398714365
0.00011168393176742
0.00011115013846794
0.00011074489596504
0.00011043939399577
0.00011005559843925
0.00010933068661874
0.0032053958770473
0.0022642618615479
0.0015943214576326
0.0012104054945149
0.00092604354758411
0.00071709777095591
0.00057006847062921
0.0004653135627618
0.00038712525580052
0.00031510958104623
0.00026134953263002
0.00021710209374443
0.00018064710891223
0.00015099988582045
0.0001265195914299
0.00010694162123762
9.177168806851e-05
7.9233306637685e-05
6.8656921509607e-05
5.9884366619476e-05
5.2603880605666e-05
4.6299660089809e-05
4.1012619961419e-05
3.6689255245031e-05
3.3017152157746e-05
2.9857447040485e-05
2.7224494713697e-05
2.4767990150232e-05
2.109423258198e-05
1.8089125721556e-05
1.5615031889521e-05
1.356156336688e-05
1.1847380680544e-05
1.0405131707233e-05
9.185972302113e-06
8.1474872422729e-06
7.2589932764427e-06
6.494607652446e-06
5.8343833445519e-06
5.2603858206711e-06
4.7599055788219e-06
4.3208524246899e-06
3.9348122457268e-06
3.5933550057758e-06
3.2909005127214e-06
3.0216211221678e-06
2.7814150831898e-06
2.5662591439745e-06
2.3730163234592e-06
2.1991958541204e-06
2.0421589356032e-06
1.9000705276153e-06
1.7709859106753e-06
1.653470319349e-06
1.5461307848529e-06
1.4479631776893e-06
1.3580364800872e-06
1.2755135438472e-06
1.1996418553465e-06
1.1297329515177e-06
1.0651939854666e-06
1.0055081526232e-06
9.5022664104714e-07
8.9895113283099e-07
8.5132967462534e-07
8.0705688641698e-07
7.7316713592382e-07
5.017429530853e-05
0.0008202913989464
0.00099679869871928
0.00089768560620936
0.00081555822957667
0.00075337389032026
0.00070456776508049
0.00066519089333822
0.00063305982081442
0.00060697548360235
0.0005861845076953
0.00056999212140515
0.00055760531162517
0.00054814297705202
0.00054073746608551
0.00053464225843982
0.00052928860713459
0.000524986325718
0.00052007096831177
0.00051511720610187
0.00051006857675921
0.00050492366837004
0.00049974784949728
0.00049470005626567
0.0004900679461932
0.00048628299024783
0.00048385311156921
0.0004831228304479
0.00048383225388335
0.00048464080571595
0.00048302797180861
0.00047572811711281
0.00045934079724242
0.00043135959329274
0.0003912700584434
0.0003414639651647
0.00028796890406297
0.0002275130036986
0.00019236155185408
0.00016673292372735
0.00014962708544439
0.00013915508654172
0.00013315667657508
0.00012922549804781
0.00012663097932126
0.0001250426500193
0.00012420987244707
0.00012378147273166
0.00012344611172637
0.00012309232016374
0.00012264082014574
0.00012204096814784
0.00012129777108566
0.0001203588282334
0.00011925922088544
0.00011811249684482
0.00011700547502792
0.00011597230915004
0.00011502475947824
0.00011415422706401
0.00011335045195921
0.00011259737319305
0.00011188139863765
0.00011118878472176
0.00011052600112061
0.00010990804885168
0.0001093672091757
0.00010892462113487
0.00010860692434974
0.00010840895316516
0.00010828989042186
0.00010807251806119
0.00010744758427083
0.001098463805003
0.00095825462734756
0.00098922752759867
0.0010340521537352
0.0010735875539962
0.0009373143809965
0.00071143943016454
0.00054141853805341
0.00041989589445317
0.00033812409658934
0.00027560797614875
0.00022723463783302
0.00018854860877228
0.00015704722153283
0.00013142413732387
0.00011057449768792
9.348264481488e-05
7.9530933091765e-05
6.8228660683108e-05
5.9000356373323e-05
5.1445734037014e-05
4.5320017359265e-05
4.0159897870735e-05
3.5758723009692e-05
3.2097199867502e-05
2.8981468231517e-05
2.629078617434e-05
2.3982609166451e-05
2.0577600725854e-05
1.7676598329827e-05
1.5280343925043e-05
1.3284327110782e-05
1.1614464207778e-05
1.020899969303e-05
9.0166471399487e-06
8.0010976584678e-06
7.1308429295581e-06
6.3818669901394e-06
5.7334286020919e-06
5.1703569167934e-06
4.6785710365468e-06
4.2473247968456e-06
3.8676186369118e-06
3.5321690628808e-06
3.2347946981815e-06
2.9700384792685e-06
2.7338722724526e-06
2.5223825185399e-06
2.3326382020463e-06
2.1616983913668e-06
2.0073896394671e-06
1.8676778324858e-06
1.7408214833998e-06
1.6253812987156e-06
1.5200203454397e-06
1.4237214928953e-06
1.3355116285327e-06
1.2546028648549e-06
1.1802408243826e-06
1.1117463209554e-06
1.0485438266296e-06
9.9010130089028e-07
9.3594952807106e-07
8.8569303442036e-07
8.390072156243e-07
7.9560496094539e-07
7.6592340365478e-07
5.5101920669182e-05
0.00083786751425126
0.00099200302061892
0.00089317961932613
0.00081216614454125
0.00075078689982622
0.00070257697007601
0.00066365593792247
0.00063187312866114
0.00060604754537147
0.00058543808166327
0.00056936303948794
0.00055704315202213
0.00054761136301451
0.00054021406182641
0.00053411744128779
0.00052876274734046
0.00052449032368519
0.00051958671404424
0.00051465404366386
0.00050963389571219
0.0005045222533077
0.0004993813375872
0.00049436617818653
0.00048975973909611
0.00048598890655088
0.00048355997618843
0.00048282470478702
0.00048354543793867
0.00048441897419081
0.00048296187096145
0.00047594849655179
0.00045999116363677
0.00043256583444824
0.00039308199438659
0.00034378121752184
0.00029044039149269
0.00022945576343343
0.00019342850107979
0.00016682300923546
0.00014876402992668
0.00013748783154307
0.00013084411815525
0.00012643087016865
0.0001234725121516
0.00012144348821805
0.00012019549804373
0.00011941363579741
0.00011877258674094
0.00011815409960864
0.00011747750842928
0.00011669896110801
0.00011582470986949
0.00011480434446255
0.00011372143249646
0.00011265892015787
0.00011167472849497
0.0001107872494808
0.00010999714233174
0.0001092983252206
0.00010867839415947
0.00010812026175395
0.00010761098657937
0.00010713534405041
0.00010670047797457
0.00010632192717312
0.00010603237428611
0.00010584285724871
0.00010577098183006
0.00010580070003316
0.00010589486211492
0.00010587184190604
0.00010534810346485
1.5056118552573e-05
0.00019815887974787
0.00028253130859267
0.00037919591923866
0.00046485806363635
0.00054023032308012
0.00061135056729425
0.00066157066722068
0.00050963620110174
0.00039562537682761
0.00031371361909688
0.00025432965637803
0.00020836953372403
0.00017197697986152
0.00014279973072842
0.00011915783575811
9.9789455753567e-05
8.4089491047329e-05
7.1417137287317e-05
6.1155378886542e-05
5.2877366309902e-05
4.615750675558e-05
4.0683821603858e-05
3.6188828308793e-05
3.2287189747424e-05
2.9116931952955e-05
2.6384964230312e-05
2.4035004342507e-05
2.0820755735982e-05
1.7887246433342e-05
1.5465314514906e-05
1.344971851233e-05
1.1757766562909e-05
1.0331190496803e-05
9.1225468097146e-06
8.0926012788218e-06
7.2085046022392e-06
6.447922169385e-06
5.7898243599126e-06
5.2180591532472e-06
4.7184586160447e-06
4.2808681534347e-06
3.8956840324541e-06
3.555485218386e-06
3.2538176973518e-06
2.9856765517028e-06
2.7465571808775e-06
2.5325587090303e-06
2.3405846817888e-06
2.1678398831956e-06
2.012066890207e-06
1.8710931849099e-06
1.7431746811127e-06
1.6268191693515e-06
1.5207712202249e-06
1.4239330175179e-06
1.3352759422441e-06
1.2539710919912e-06
1.1792787633736e-06
1.1105412658872e-06
1.0471475998794e-06
9.8856126303029e-07
9.3432614730014e-07
8.8405031459787e-07
8.3737969102321e-07
7.9399315074111e-07
7.5339142282519e-07
2.1513401555576e-05
0.00064934055820863
0.0010042668952616
0.0009119250749497
0.00082610777144876
0.00076149969799825
0.00071116710377292
0.00067072966601116
0.00063773060398765
0.0006108204363142
0.00058920488237936
0.00057222173838677
0.00055913512462969
0.00054910876424132
0.00054129181005953
0.00053492895482052
0.00052942930796265
0.00052389455976658
0.00051900505518094
0.0005140979318148
0.00050911219349424
0.00050404062885842
0.00049894160235386
0.00049396547660087
0.00048938965495743
0.0004856355178832
0.00048320744699409
0.00048246569436239
0.00048319863294514
0.00048414761153493
0.0004828738717309
0.00047619920018318
0.00046075274966868
0.00043399109275678
0.00039523905899414
0.00034657332439234
0.00029346421569488
0.00023322667061414
0.00019563317341708
0.00016725489833897
0.00014742381896157
0.00013463224743899
0.00012675143270211
0.00012142504316853
0.00011769519621597
0.00011495940163258
0.0001129410887116
0.00011150578087662
0.00011031497399025
0.00010922497308221
0.00010815383402404
0.00010710019246915
0.00010601267480053
0.00010491962327858
0.00010392614628613
0.00010306797338563
0.00010235915584433
0.00010180326663052
0.00010139517469173
0.00010110270668003
0.00010089409275518
0.00010076600748816
0.00010069288011578
0.00010066002482896
0.0001006605359375
0.00010070897590594
0.00010082528365019
0.00010103035772745
0.00010133860060532
0.00010173385642545
0.00010217326281183
0.00010242729812898
0.00010207144478019
3.3515437460646e-06
2.2993605018449e-05
4.8862492639283e-05
7.8924349776941e-05
0.00011444062370047
0.00015586747502967
0.00019831613253596
0.00024197042541759
0.0002824059848085
0.00030939469841458
0.00031610263741192
0.00026273497326398
0.00021178409725953
0.00017248384672223
0.00014201178015227
0.00011797217246131
9.8380107603726e-05
8.2542158069736e-05
6.9821169874476e-05
5.9554408546043e-05
5.1235174002616e-05
4.4479914864106e-05
3.8956814461738e-05
3.4423230516091e-05
3.0731519641873e-05
2.7661813618449e-05
2.4937467245934e-05
2.2005221055925e-05
1.889673876354e-05
1.6325037649581e-05
1.4186449105561e-05
1.2390889351606e-05
1.0880164281652e-05
9.599190537408e-06
8.5070155234465e-06
7.5688238055184e-06
6.7616184978409e-06
6.0634804322056e-06
5.4570375411996e-06
4.9272118837165e-06
4.4632761796331e-06
4.0553933632915e-06
3.6954988543664e-06
3.3765400049258e-06
3.0932071352605e-06
2.8408367415973e-06
2.6153415275552e-06
2.4132355588776e-06
2.2315573921142e-06
2.0679799323764e-06
1.9202061213473e-06
1.786378353854e-06
1.6647980856838e-06
1.5541503478887e-06
1.4532725797348e-06
1.3611090741795e-06
1.2767556217386e-06
1.1993581991771e-06
1.12822955645e-06
1.062738110535e-06
1.0023263827933e-06
9.4649727758956e-07
8.9481371140986e-07
8.4690332835484e-07
8.0243018844347e-07
7.610951851807e-07
7.9976054611686e-07
9.1818254439702e-05
0.00090199016664024
0.0009746639254666
0.00087656751742203
0.00079930951766475
0.00074075447067226
0.00069470166010837
0.00065748058253475
0.00062703790694222
0.00060223912893288
0.00058236729654909
0.00056677393289724
0.00055472617845049
0.00054541399373088
0.00053804463882836
0.00053193918456164
0.00052657958928079
0.00052240285701336
0.00051754925446055
0.00051270697676364
0.00050780766801171
0.00050283597288553
0.00049784063710931
0.00049296057137621
0.00048845984432812
0.00048474669794333
0.0004823203900755
0.00048156060994644
0.00048231752399444
0.00048344156828094
0.00048260494053036
0.0004767480445149
0.00046254818274849
0.00043742311362743
0.00040050193878054
0.00035347707801842
0.0003011554064935
0.00024030251979931
0.00020032797365923
0.00016906998955591
0.00014621082345221
0.00013064545852764
0.00012048243570733
0.00011348385183424
0.00010828081503438
0.00010428066459648
0.00010115484038231
9.8653134050524e-05
9.6564850393815e-05
9.4775771126592e-05
9.3205069415749e-05
9.1812514510722e-05
9.0635249337009e-05
8.9783799346402e-05
8.9247248665452e-05
8.901551481823e-05
8.9049274943568e-05
8.9301466451394e-05
8.9760202251408e-05
9.0354761069217e-05
9.1039436699321e-05
9.1738692404801e-05
9.2407196832571e-05
9.3046097575201e-05
9.3665328038074e-05
9.4289949493573e-05
9.495161193342e-05
9.5675225812886e-05
9.6468873478933e-05
9.7297479189464e-05
9.8069791053541e-05
9.8582617727869e-05
9.8403192394476e-05
3.0565296425872e-06
7.729020621452e-06
1.4897800854136e-05
2.4873951279959e-05
3.8108002466512e-05
5.4439154867356e-05
7.4216517789062e-05
9.6489674621449e-05
0.00012066070264859
0.00014541681506358
0.00016626337208981
0.00017711358364833
0.00017642621355436
0.00016437646224368
0.00014210870637065
0.00011759356912357
9.8356109699344e-05
8.2792817762405e-05
7.014722916273e-05
5.9804165385591e-05
5.1428641000548e-05
4.4592682976379e-05
3.8983085893421e-05
3.4353161323772e-05
3.0512573681638e-05
2.7311384253898e-05
2.381442632846e-05
2.0504944456189e-05
1.7735371333781e-05
1.540558747157e-05
1.3440952551416e-05
1.1782408222999e-05
1.0374726172138e-05
9.1768113606236e-06
8.149113392658e-06
7.2663458728451e-06
6.5054966236957e-06
5.8461749185908e-06
5.2707216483405e-06
4.7666616014345e-06
4.3241373238843e-06
3.9339271114012e-06
3.5885145406582e-06
3.2816215046946e-06
3.0087284335861e-06
2.7651205444321e-06
2.5471056551697e-06
2.3512932868934e-06
2.1751073970639e-06
2.0162224300837e-06
1.8725481665069e-06
1.7422621002499e-06
1.623808246011e-06
1.5159795329168e-06
1.4175969660083e-06
1.3276791524265e-06
1.2453190037968e-06
1.16975419132e-06
1.1003155745763e-06
1.0363606382088e-06
9.7734919710484e-07
9.228041711207e-07
8.7231813597129e-07
8.2554116589792e-07
7.8212631965214e-07
7.417818867977e-07
9.9671261363969e-07
0.00012662457366905
0.00094114986169394
0.00096041573756189
0.00086353612874897
0.0007890162886698
0.00073253442283403
0.00068810802922002
0.00065220962853841
0.00062284526280886
0.00059889987530247
0.00057965610026249
0.00056447696125712
0.00055266074651483
0.00054344591542604
0.00053609509664521
0.00052997896582201
0.00052461468956138
0.00052050740357545
0.00051570034876154
0.00051094097813435
0.0005061506868815
0.00050130424322474
0.00049643875608058
0.00049167876367928
0.0004872716105506
0.00048360918537872
0.00048118384806929
0.00048039665920557
0.00048117062054165
0.00048248768362164
0.00048216344900873
0.00047728179792749
0.00046459367053915
0.00044148607359703
0.00040687397086857
0.00036202567709772
0.00031101989898938
0.00025005227726876
0.0002076318520617
0.00017312062256475
0.00014656156615437
0.00012740304260701
0.00011414124399301
0.00010486214504507
9.777237148496e-05
9.21796488409e-05
8.7720242187262e-05
8.4123043260696e-05
8.1227627735174e-05
7.8927952759918e-05
7.7154559454868e-05
7.5900260422353e-05
7.5207842195012e-05
7.5098274727582e-05
7.5490647988797e-05
7.6349819140152e-05
7.7573052641512e-05
7.9081030524335e-05
8.0688807522093e-05
8.2347024555172e-05
8.399207826591e-05
8.5573985636702e-05
8.7042775460539e-05
8.8367709363685e-05
8.9557081055762e-05
9.0653723174353e-05
9.170360245582e-05
9.2742864272722e-05
9.3769658839292e-05
9.4746497527449e-05
9.5622637520788e-05
9.6213361312481e-05
9.6072959340419e-05
2.7336678361673e-06
4.8812955808622e-06
6.8413616996694e-06
1.0919544147981e-05
1.6625926720564e-05
2.4089631337942e-05