/*--------------------------------*- C++ -*----------------------------------*\
| =========                 |                                                 |
| \\      /  F ield         | OpenFOAM: The Open Source CFD Toolbox           |
|  \\    /   O peration     | Version:  2312                                  |
|   \\  /    A nd           | Website:  www.openfoam.com                      |
|    \\/     M anipulation  |                                                 |
\*---------------------------------------------------------------------------*/
FoamFile
{
    version     2.0;
    format      ascii;
    arch        "LSB;label=32;scalar=64";
    class       volScalarField;
    location    "0.00018";
    object      cSound;
}
// * * * * * * * * * * * * * * * * * * * * * * * * * * * * * * * * * * * * * //

dimensions      [0 1 -1 0 0 0 0];

internalField   nonuniform List<scalar> 
109340
(
555.98245656841
554.91911962348
552.89040276341
550.42466082465
547.68746096916
544.81955679396
541.87592623392
538.8849792167
535.88007979187
532.79269130345
529.48964771013
525.84897641135
521.73081718931
516.97460298323
511.40382369096
504.83238401279
497.07029406357
487.93277972473
477.25009058977
464.87955979316
450.71660767485
434.71006329635
416.8737836042
397.29457019053
376.13197461289
353.6122467962
330.01297899475
305.641195874
280.80660370716
255.79327618756
230.83281583033
206.08025796515
181.59682071174
157.35574736699
133.30078403325
109.48721129395
556.14098301756
554.77637664324
552.49894900755
549.86468957443
547.0452822778
544.16405376183
541.25741729443
538.32370664749
535.32115486625
532.18138954261
528.80052276745
525.0537157899
520.79461445958
515.85720802295
510.06095695143
503.21620674146
495.13370778799
485.63102441869
474.54328211408
461.73538185372
447.11443387608
430.64415736398
412.35592841699
392.35512871215
370.81931458008
347.98976239101
324.15444278635
299.62444900254
274.70637357114
249.67393812184
224.7409761686
200.0360998559
175.57895274717
151.28140130408
126.95150562479
102.64213886697
556.73248887379
555.15499759638
552.64965593691
549.95359407745
547.1582147389
544.31824167545
541.42729440472
538.48534844052
535.47278983927
532.32439004877
528.93932746249
525.19189899753
520.93457084262
516.00057023973
510.20905669126
503.37103554541
495.29650130892
485.80275537762
474.72417911193
461.92499970068
447.31103635884
430.8450166331
412.55753228061
392.55325821909
371.00952765919
348.1676735788
324.31623624789
299.76734130915
274.82893255082
249.77568304307
224.82137716461
200.09047584256
175.57951733322
151.13146159943
126.38954038001
100.96038035807
557.55458889597
555.65645964278
553.02727536019
550.25723851216
547.40938100412
544.51131350282
541.572655961
538.59749175311
535.56244682224
532.40127881347
529.01336688898
525.2717428445
521.02700946696
516.1107051444
510.33994129184
503.52350685273
495.46946136305
485.99304560703
474.92587735703
462.13034451779
447.50856452956
431.02134927502
412.69793987246
392.64239081988
371.03342370588
348.11458984013
324.17817408104
299.54105803157
274.51645386279
249.38385995476
224.36051580246
199.57123720054
174.98629764384
150.36461268136
125.089569659
97.912826036216
558.84814372599
556.38671689151
553.37708957377
550.41949708063
547.49486035662
544.56871030666
541.62116111892
538.64957609204
535.62418244365
532.47602715368
529.10573765894
525.38542222884
521.16265158741
516.26449582561
510.50190680958
503.6757043339
495.58472574758
486.03416233549
474.83655434526
461.85019014584
446.96286896192
430.13070167929
411.38390228806
390.83354926503
368.67568759561
345.17743847421
320.66117933332
295.47724190051
269.97242130671
244.45671996145
219.1695800638
194.26514986226
169.69737963509
145.16734290295
119.78322501368
90.870193225263
561.25187872717
556.77478059543
553.46096678363
550.44191861453
547.51365235703
544.59351335408
541.65312586197
538.67691861268
535.61759683057
532.37804132288
528.82103363327
524.77081868504
520.01857102944
514.32859956767
507.44709420676
499.11453763199
489.08241726463
477.14005806866
463.14929067756
446.9405025472
428.49656295781
407.90490326151
385.36975877041
361.20833697772
335.83017614002
309.70149023377
283.30306001051
257.08680448556
231.43817960526
206.64789898156
182.8868800826
160.24678301162
138.57948397016
117.53717385494
96.196872678095
70.961662740781
86.945437421275
68.052295897168
54.114730510683
44.677035800539
38.464853041571
34.287201133597
31.489228351817
29.669796574672
28.592293869463
28.099090914675
28.036204411922
28.399839521367
29.012619070059
29.810175123686
30.724267569529
31.69292633632
32.673615910162
33.636413234027
34.562786452423
35.443536399476
36.273336305238
37.049658916688
37.773907760712
38.44892069338
39.077911469934
39.663942644029
40.209222876747
40.719874923693
41.19655493368
41.642670319421
42.062955379654
42.456118210258
42.828302880341
43.177632462674
43.509434210912
43.821999798145
44.119762923137
44.4012603965
44.670195565963
44.925241919138
45.169536935736
45.40192711113
45.624978192911
45.837890776616
46.042454182856
46.238524578641
46.426870342946
46.608128430336
46.782311970035
46.95035974707
47.112219048435
47.268508702355
47.419453205208
47.565372240149
47.706521307886
47.843160323663
47.975518174615
48.103819638005
48.228267525179
48.349052641635
48.466350124301
48.580325890011
48.691136165992
48.798927561797
48.903836931508
49.005993621099
49.105522944199
49.215234689636
50.160575311382
50.763407538482
51.15582025428
51.522509564743
51.875105611866
52.214751658742
52.541420328611
52.853785684341
53.149365765098
53.425240399736
53.679060654423
53.90991532481
54.118647892182
54.307592821894
54.479985001775
54.639352109047
54.807427819604
54.949986434746
55.089105195736
55.227211313754
55.366498152513
55.509430010348
55.65882441213
55.818080310583
55.991314145813
56.183177744424
56.398072432531
56.638659182553
56.904110635867
57.189005860592
57.483524789688
57.774817890394
58.048663308521
58.291467908034
58.490749823739
58.636197338356
58.73940994238
58.766286493176
58.769897641471
58.765561184778
58.760992671825
58.759550205251
58.762762279735
58.771055706059
58.784367986767
58.80257598404
58.825507019122
58.852909110329
58.884495152364
58.919930110819
58.958840010835
59.000862858299
59.045803373235
59.093852009506
59.145812304955
59.202877717558
59.266279502466
59.336937211309
59.415428489276
59.501801391183
59.595575012668
59.695776567444
59.800908351345
59.909131350831
60.017911673893
60.124098850501
60.225117681695
60.320109698511
60.408102887859
60.497297182037
60.610956472154
60.802671487675
79.516279816325
61.201277400244
48.750346637449
40.837663024012
35.7706651495
32.391095037355
30.208005964755
28.875437584971
28.177978120158
27.962790423838
28.125142154181
28.572381560792
29.272097921985
30.107422420183
31.027376360007
31.990361140567
32.956485856509
33.902002962079
34.810728205745
35.673035680169
36.484633992281
37.244537607851
37.953780318306
38.61473970321
39.230464545656
39.80457339299
40.340273782237
40.840800522841
41.309361228949
41.748451626856
42.160883759298
42.548833351446
42.914442268875
43.259599043362
43.585957829888
43.895113710865
44.188366595321
44.467052012611
44.732205862748
44.984902666526
45.22601302398
45.456391479132
45.676781175439
45.887845560884
46.090247817674
46.284494805446
46.471170625065
46.650679618225
46.823528761256
46.990056310838
47.150679049387
47.305705675379
47.455471997173
47.600266182906
47.740352317448
47.875980748787
48.007381668213
48.134771882379
48.258350253664
48.378304682291
48.494809292984
48.608027445611
48.718111977151
48.825206052751
48.929442037841
49.03094480701
49.129793306961
49.309723437391
50.371545582119
50.869113030339
51.251445533497
51.614345524407
51.963514573643
52.299787333999
52.622836933027
52.931020351341
53.221677206752
53.491950221825
53.739804702235
53.964777166942
54.168133686406
54.352494112669
54.521212580237
54.677802783259
54.807549168244
54.950083573517
55.089180340749
55.227260500437
55.366513322325
55.509398516093
55.658728581077
55.817896505211
55.991012372795
56.182723326908
56.397431446346
56.63780826681
56.903047533902
57.187753749982
57.482132793088
57.773355205563
58.047209365312
58.290107233508
58.489576744469
58.635319397594
58.738993292448
58.76616126337
58.769950723222
58.765738046946
58.761305321933
58.760082334935
58.763631197091
58.772426500778
58.786417171864
58.805526819328
58.829594204591
58.858376350263
58.891585818851
58.928878531959
58.969863374699
59.014157917748
59.061553722684
59.112283614492
59.167236055367
59.227700672541
59.294976315984
59.369989991709
59.453269381876
59.544753891623
59.643821766146
59.749297545313
59.85948080068
59.972310217128
60.084907972651
60.194058554643
60.297070693551
60.393014665118
60.480964762363
60.569691612027
60.682967645687
60.875175214708
75.628506474074
56.195108725613
44.645449227082
37.485646106071
33.266598984598
30.677347910107
29.084436222795
28.206572220245
27.84577307686
27.843218751444
28.194976394911
28.74722080933
29.467671714487
30.305965674639
31.213658036762
32.153680491133
33.096564128781
34.020703605313
34.910127950274
35.755621052674
36.553376373952
37.302110103468
38.002167567975
38.65566380717
39.265473930418
39.834563585355
40.365979109299
40.862958743089
41.328386898088
41.764960535793
42.175077087787
42.561163269792
42.925102401629
43.268852803917
43.593982513529
43.902072774002
44.194412294037
44.472286627807
44.736735548808
44.988826938985
45.229399975529
45.459335172637
45.679305876299
45.89005659108
46.092131749528
46.286150525033
46.472575606397
46.65191385063
46.824577400172
46.990972119585
47.151469881178
47.306401175668
47.456083816744
47.600796775198
47.740816906487
47.876388354343
48.007743123284
48.135093583939
48.258638625843
48.378565154403
48.495047461378
48.608247907681
48.718318217381
48.825400524938
48.929627955945
49.031125355678
49.129970187902
49.315980839925
50.378954500818
50.873263985114
51.255427641767
51.618214157159
51.967179965599
52.303175774993
52.625883612504
52.933673245086
53.223907891931
53.493760953882
53.741228210096
53.965869127529
54.168961351459
54.353124697234
54.521704120874
54.678198582629
54.807844832082
54.950331847392
55.089384528841
55.227413468582
55.366598701594
55.509389543943
55.658587226547
55.817571544793
55.990438677328
56.18182557089
56.396135954941
56.636063617339
56.900846254727
57.185139902962
57.479212335981
57.770271920635
58.044130406233
58.287213837846
58.487069663791
58.633433388145
58.738098927274
58.765900020352
58.770074960615
58.766129026643
58.761989820369
58.761256753306
58.765552809975
58.775460728958
58.790975529557
58.812103198698
58.838722944602
58.87061457809
58.907493124338
58.948994907261
58.99468972852
59.04414565817
59.0971247274
59.15397565459
59.21577188026
59.284019619416
59.36015842801
59.445117275959
59.53929574732
59.642370161313
59.75335738533
59.870644872653
59.99206148189
60.114986435836
60.235885589475
60.351372550213
60.458525059954
60.556208712571
60.643824586676
60.73124861455
60.843445647972
61.036542287313
68.491371879411
48.234865448997
38.440187384577
33.112279235404
30.187038815855
28.65060144032
27.851880808047
27.551587183745
27.583058592691
27.852003647402
28.37236361037
29.004385569238
29.744891329187
30.573057116672
31.454130422009
32.365424443554
33.279381993481
34.175272242288
35.040228005803
35.865610507983
36.646112001498
37.379933295752
38.068211014327
38.712101898515
39.313812728085
39.876289897304
40.402425167507
40.89483010055
41.356319076105
41.789581946427
42.196903868696
42.580483749304
42.942339480717
43.284204099804
43.607744674159
43.914384725932
44.205495267831
44.482217299397
44.745691864804
44.996864782
45.236657705946
45.465852874177
45.685201071719
45.895357294214
46.096922437056
46.290466624758
46.47647313057
46.655436004127
46.827752873867
46.993850750395
47.15406909948
47.308763394368
47.458226872055
47.602747649344
47.742591443883
47.878004222588
48.009216846995
48.13643980125
48.259871700885
48.379697198745
48.496089151291
48.609208609084
48.719206728804
48.826224910307
48.93039522437
49.031840697024
49.130652004506
49.325845540367
50.389636241598
50.879402877378
51.261236453256
51.623817548397
51.972475175048
52.308066595714
52.630279767364
52.937500801372
53.22712558199
53.496371755449
53.743279450867
53.967441690394
54.170152935016
54.354032855573
54.522413131101
54.678772171495
54.808296416045
54.950713961329
55.089701280152
55.227653589709
55.36673717
55.50938576094
55.658383559894
55.817090474581
55.989581756507
56.180478627749
56.394186658935
56.633432190999
56.897518193173
57.181185352462
57.474786787286
57.765593444826
58.039452577411
58.282811698342
58.48324878527
58.630546516072
58.736710339556
58.76548811069
58.770260477647
58.76672257356
58.76303796523
58.763035966699
58.768497953037
58.780122347126
58.79801506386
58.822300268181
58.852937465784
58.889755831793
58.932481475593
58.980722925505
59.033986673761
59.091759982488
59.153769723035
59.22056013821
59.293500918408
59.374437765514
59.465002292994
59.56608313604
59.677810681065
59.799394729126
59.929243787473
60.065016474152
60.203782651117
60.341831464806
60.4750335844
60.599564426024
60.712274089573
60.811520505233
60.898025995152
60.982719413369
61.09267838427
61.286660111837
53.630270489111
36.70212511411
30.655560931408
28.258347248635
27.270807560983
26.941371658103
26.982466528604
27.218122380067
27.609265459689
28.114045834477
28.698063788679
29.362665390898
30.104224334896
30.909469849249
31.758195981933
32.62890057693
33.50413676236
34.366150362115
35.201360144515
36.001034398381
36.760369238631
37.477202032638
38.150596508576
38.78238887811
39.374359385126
39.928698270339
40.447860115859
40.934631657685
41.391378247331
41.820547617882
42.224428573475
42.605057024438
42.964356741168
43.304013698572
43.625632544282
43.930595462659
44.220205119896
44.495617045467
44.757910473222
45.00802722102
45.246869672915
45.475206234554
45.693781044158
45.903222834568
46.104156150309
46.29710503633
46.482586112234
46.661049663871
46.832926307006
46.998611341458
47.158457118625
47.312807625129
47.461956896535
47.60619611872
47.745777858795
47.880950035021
48.011939781602
48.138959891288
48.262206941888
48.381863391324
48.49810066432
48.611078861496
48.720948300878
48.82784888953
48.931910805495
49.03325696457
49.131978261237
49.339641701049
50.403609058591
50.887526198402
51.268872561922
51.631143101825
51.979382717999
52.314441960963
52.636009506262
52.942489195157
53.231318438715
53.49977218086
53.745949309259
53.969487272263
54.171702633545
54.355214601741
54.523337345735
54.679522488641
54.808901299759
54.951228471492
55.090129992853
55.227981322898
55.366930571494
55.509390629882
55.658123076039
55.816461352395
55.988452453733
56.17869643868
56.391600785471
56.629934032538
56.893085527571
57.175910367037
57.468874202553
57.759333384627
58.033183420525
58.276901696071
58.478107899987
58.626639740197
58.734794049298
58.764901966728
58.770499383356
58.767522995377
58.764452428547
58.765441829946
58.772486208177
58.786464081851
58.807652798923
58.836347274838
58.87264677776
58.916469971453
58.967575702397
59.025538213194
59.089770466657
59.159637660265
59.234843289528
59.316242188319
59.405605773957
59.50524817837
59.616999117786
59.741588988284
59.878696319884
60.026751480853
60.183183294535
60.344569740147
60.506758460175
60.664642942326
60.81344674147
60.948773786508
61.067237122631
61.166890880755
61.250381165893
61.33003584251
61.435885711755
61.630204976229
26.704003389584
24.53331850259
24.765375069145
25.321634927492
25.831615521934
26.371097441973
26.877720932618
27.411179532196
27.949175039075
28.530685701373
29.148552162572
29.819135820382
30.540760051728
31.308983479324
32.113779533179
32.939156411702
33.769939183392
34.591404135151
35.391717775843
36.161895667185
36.896377488777
37.592344998685
38.249146350789
38.866691373457
39.446770461434
39.99131323083
40.502479281051
40.982351331391
41.433321711552
41.857649060691
42.257412713301
42.634491558839
42.990739731582
43.327792541882
43.647106435725
43.950081550842
44.237940201674
44.511820955648
44.772734867541
45.02164878265
45.259398088083
45.486762928619
45.704445876052
45.913095368484
46.11329825979
46.305582573671
46.490454651819
46.668359966771
46.839729575043
47.004937621552
47.16435123099
47.318296547517
47.467077557064
47.610973854154
47.750238766127
47.885116866832
48.015832282416
48.14259807388
48.265607802434
48.385044678165
48.501079535511
48.613870701455
48.723566312222
48.830304879917
48.934216434212
49.035426351669
49.134017754382
49.358668341435
50.420703090952
50.897608288737
51.278311868674
51.64016792652
51.987879952785
52.322280284526
52.643053203889
52.948621360267
53.236471534666
53.50394941404
53.749226949272
53.97199712502
54.173603941302
54.356665750224
54.524474688086
54.680449172216
54.809660490639
54.951877940952
55.090674750981
55.228401969042
55.367185203341
55.509411456871
55.657814307825
55.815694431146
55.987063734068
56.176495320521
56.388397782373
56.625590663894
56.887569998403
57.169333654667
57.461488459675
57.751500013315
58.025325399972
58.269480145605
58.471635338918
58.621689161388
58.732296156714
58.764106436329
58.770775864166
58.768523811813
58.76623346609
58.76847293414
58.777543083197
58.794557948329
58.820053427448
58.854572951101
58.898441903232
58.951739140902
59.014296899404
59.085649697226
59.165075816377
59.251762050337
59.34544720293
59.447384068357
59.559882977333
59.685847909392
59.827266847717
59.984523045964
60.156413374705
60.340126260677
60.531670083757
60.726102776429
60.917316532346
61.099008569433
61.26548647853
61.41185619364
61.534453393518
61.632047795894
61.709179514489
61.780362898447
61.879396491994
62.072923854614
26.005693502738
22.922267270682
24.120317773447
25.118636121674
25.945993658847
26.646161639014
27.248852691265
27.818294664146
28.381541452075
28.954377535361
29.556001134516
30.191479319788
30.864699946157
31.576612451344
32.322564863981
33.092693037334
33.873850033624
34.653918126418
35.420454985602
36.164314517924
36.879029023632
37.560535544546
38.206672618858
38.817332679608
39.392646075727
39.93398496048
40.443387592446
40.922664294212
41.373702534397
41.798515884743
42.199207207966
42.577543749573
42.935160767504
43.273662187065
43.594523121076
43.899063388728
44.188462276675
44.463882823502
44.726320655505
44.976708514843
45.215874495361
45.444617019649
45.6636246391
45.873544814524
46.074957066148
46.268409572038
46.454395352691
46.633366098058
46.805747634842
46.971926283152
47.132267964597
47.287096755201
47.436721143227
47.581421802528
47.721461272346
47.857081141022
47.98850366404
48.115943509723
48.239599794807
48.35965870143
48.476291214672
48.589657037872
48.699906331129
48.807180456442
48.911614073934
49.013325076739
49.112427280949
49.236013321434
50.260553814064
50.808511057213
51.196731386675
51.561921219421
51.912447619992
52.249410973562
52.572787603943
52.881318055203
53.172710793329
53.444334959418
53.694161651487
53.921541443228
54.127466762573
54.314296942306
54.485191164786
54.643540479079
54.810575522602
54.95266521482
55.091339691536
55.228920883731
55.367507802287
55.50945662808
55.657467677764
55.814802642759
55.985431348077
56.173894099964
56.384599474342
56.620425986632
56.88099572661
57.161477064387
57.452646578114
57.742103397169
58.015879674262
58.260537297385
58.463810301376
58.615673533266
58.727445439656
58.762504995588
58.771239124528
58.77037405476
58.76954206472
58.774105748717
58.786994983221
58.809806594518
58.84365400119
58.889638978206
58.948627811691
59.021121161907
59.107135172187
59.206153339926
59.317150719133
59.438928222727
59.571411712902
59.716611729953
59.877936968761
60.05928467458
60.262579773611
60.486946418439
60.728913476016
60.982865823367
61.241808097578
61.497317377437
61.739992190777
61.961684212771
62.155339053173
62.315522506514
62.439049212068
62.526924623032
62.586881452102
62.63820326519
62.721653295058
62.91151366527
34.289578283315
28.755897229489
28.463227090185
28.487854818881
28.660491794668
28.919748740385
29.255408322265
29.663573404599
30.082290119588
30.54503124054
31.050240401282
31.588182189284
32.160338109361
32.767167083592
33.405163445161
34.06779813759
34.745555798025
35.428432550541
36.107267937846
36.77262951347
37.417842591413
38.038466119852
38.631712862621
39.19628190449
39.731984859859
40.239281796239
40.718997205303
41.172221588493
41.600657800318
42.00580969851
42.389190828037
42.752157915875
43.096239428425
43.422749896023
43.732922639654
44.027865551194
44.308701199473
44.576412241163
44.831901204158
45.075976941061
45.309420749116
45.532939156865
45.747175696401
45.95270983872
46.150095331599
46.339837383104
46.522397094914
46.698200663215
46.867643297314
47.031100062503
47.188902195992
47.341363765909
47.488769922218
47.631393826929
47.769485400047
47.903274378248
48.032977294522
48.158794447899
48.280919094726
48.399529271412
48.514791177235
48.626858697561
48.735875901645
48.841977799393
48.945296324828
49.045949036177
49.143956248214
49.475839917217
50.487752416668
50.939238990726
51.317201790587
51.677189502727
52.022651947653
52.354315434126
52.671823850998
52.973658956147
53.257498874964
53.520977990449
53.762573346678
53.982211260921
54.181348939329
54.362597594509
54.529154531818
54.684298296356
54.812886534045
54.954672797882
55.093055239351
55.230283678229
55.368392399179
55.50966190732
55.656711001554
55.812705584968
55.981510892873
56.167583177113
56.375324669125
56.607751114411
56.86478999009
57.142030444954
57.43067552256
57.718667263926
57.992232262195
58.238042712868
58.443962409063
58.600100361364
58.718428022567
58.759183549774
58.7717543607
58.773487147504
58.775271425726
58.783957730399
58.80382566314
58.83758214737
58.887699363234
58.956740946562
59.047110989389
59.160695957595
59.298400399842
59.459783237295
59.64302233596
59.845985680112
60.068828143421
60.314818978893
60.589139834951
60.896431306467
61.236413802718
61.60281276734
61.985798454456
62.37307190724
62.750527491558
63.103929975278
63.420504874422
63.689533232867
63.903821520733
64.059495093505
64.156591819806
64.202142227361
64.209077509075
64.211806600283
64.254365683446
64.424297196523
37.748475492599
32.59973463296
31.924685295506
31.615777892432
31.470728725125
31.424380658529
31.483223782002
31.629331447709
31.855193927119
32.156992756173
32.502564076836
32.902281647786
33.350314660714
33.83921280037
34.361459719072
34.913198856154
35.487043221015
36.07441380192
36.666794703038
37.256560224934
37.836583511238
38.401224796504
38.946619486552
39.470341042078
39.971128465802
40.448612699862
40.902894206496
41.334542805223
41.744494691459
42.133687820576
42.503250284667
42.854381463258
43.188148873232
43.505679030085
43.807931570428
44.09594565825
44.370675961699
44.632994077938
44.883686670209
45.123505418163
45.353168061828
45.573301012718
45.784496779106
45.987294049948
46.182220535517
46.369736270722
46.550282248389
46.72425450937
46.892033614665
47.053969845814
47.21038249334
47.361566026839
47.507795141835
47.64933401294
47.786422337635
47.919286128598
48.048132710483
48.173159302293
48.294551178313
48.412479151853
48.527104421421
48.638577082554
48.747039149682
48.852624829675
48.955460099707
49.055658652261
49.153274943993
49.607482479732
50.542304886914
50.976407141116
51.351881513617
51.709984107542
52.053322410734
52.382495951296
52.697087547388
52.995615656259
53.275917278059
53.535878252415
53.774245558212
53.99115213832
54.188152564704
54.367846588305
54.533342754741
54.687792570301
54.815877594569
54.957306411152
55.095342062827
55.232144596073
55.36966997183
55.510106016673
55.655971248531
55.810313287185
55.976866343413
56.159976500265
56.364026308991
56.59218571463
56.844748825546
57.117824744042
57.403159602385
57.689145098104
57.962269696165
58.209339468913
58.418357767155
58.579539350818
58.705895508703
58.75395504978
58.771758604016
58.777060556493
58.782290642709
58.796187080243
58.825187787665
58.874025607447
58.947550948924
59.051292996813
59.191141473472
59.372283615318
59.597819332847
59.867708366112
60.178332809735
60.524729940513
60.905418894231
61.324061718292
61.785978412324
62.29314242848
62.836942107833
63.399574005078
63.961120940729
64.499559265915
64.994758852388
65.428962966872
65.788763722767
66.065285427867
66.255053275776
66.359427334683
66.385253927295
66.35055269098
66.280212983569
66.207648224675
66.192668357554
66.33525172983
40.276047494108
35.188989938405
34.399218224969
33.997231156285
33.742407605518
33.583267602208
33.493780517488
33.495453744062
33.579316793809
33.72127425575
33.947560091277
34.222529962745
34.539196888376
34.911213159329
35.327291465025
35.777106134954
36.254739622094
36.752966647282
37.263478555945
37.7788987476
38.292916362397
38.800159333298
39.295748507655
39.77654118236
40.240415476171
40.686060910281
41.11293115813
41.520974602591
41.91046358666
42.281930892429
42.636118574692
42.973820155866
43.295822648039
43.60300508483
43.896239415389
44.176315537959
44.44402915882
44.700067754297
44.945181341497
45.180052051366
45.405269468605
45.621402218346
45.828973159478
46.028528022684
46.220520600634
46.405380343309
46.583504479636
46.755279440285
46.92106878533
47.081185680295
47.235932640736
47.385584186847
47.530410687813
47.670659618017
47.806557665296
47.938320056494
48.066147659471
48.19023341323
48.310753027454
48.427870811228
48.541741197201
48.652509402972
48.760314408602
48.865286932394
48.967542981362
49.067190611731
49.164429019601
49.765035285576
50.602261062801
51.02065555719
51.393335540761
51.749050560452
52.089737019133
52.415857986707
52.726923586044
53.021496058517
53.297597484772
53.553408089356
53.787988880397
54.001710814898
54.196236290297
54.374144446993
54.538433723703
54.692103316011
54.819622382666
54.960652178882
55.098294544039
55.234605539204
55.371451844656
55.510913789125
55.655393357971
55.807799089295
55.971709282303
56.151331743056
56.351009356855
56.574071028408
56.821224380322
57.089186768413
57.370363749708
57.6537036638
57.926050581609
58.174359634258
58.386777491552
58.55359171555
58.689074827223
58.745988351488
58.770576358175
58.780600245163
58.790141220188
58.810203174491
58.850433139357
58.919143588591
59.025480778476
59.180559580481
59.397242136963
59.687742978508
60.059814024695
60.514470458909
61.042631083792
61.628718953082
62.262750163685
62.944212052372
63.67335311889
64.440595743927
65.221107177934
65.9836844813
66.699785794235
67.343733324241
67.896526693608
68.344875287459
68.680756045121
68.90138884984
69.009909302238
69.017026505576
68.943163468637
68.80759876818
68.640182197017
68.492335340988
68.425358675398
68.532964247151
42.519181652161
37.102798036528
36.267634980118
35.828937640682
35.540032374073
35.331326968616
35.186754539827
35.106189110356
35.101616187566
35.15597471465
35.266017925637
35.453796436324
35.686426239992
35.95067933548
36.269171319504
36.630566967503
37.02278223013
37.438893710154
37.874223416913
38.320970265816
38.772448706703
39.22334365847
39.669460000639
40.106796630334
40.532754348691
40.945497385007
41.343798857952
41.727008503854
42.094871137163
42.447464677887
42.785115322328
43.108289014285
43.417549027407
43.713505223696
43.996773496033
44.267975352008
44.527805780457
44.776869536634
45.01575608345
45.245052813265
45.465246146662
45.676856717426
45.880378987613
46.076250099736
46.264910925145
46.44672610767
46.62208206265
46.791338954675
46.95481466812
47.112817255485
47.265614971732
47.413484617559
47.556674952461
47.695414547747
47.829923243447
47.960400142773
48.087045113752
48.210037098567
48.329541616592
48.445715359326
48.558705702383
48.668653808036
48.775692890627
48.879942057223
48.981515179578
49.080525072341
49.177716127658
49.947055841191
50.666364500755
51.071579107156
51.441212394789
51.794106562175
52.131631753791
52.454129899032
52.761051485657
53.05102743223
53.322299853674
53.573383261961
53.803686470734
54.013837818764
54.205609088639
54.381545525399
54.544513837823
54.697337645459
54.8242350043
54.964832319384
55.102039903701
55.237798742156
55.37387761673
55.51223715839
55.655149699475
55.805364498892
55.96628219941
56.141944364445
56.336626636097
56.553808424029
56.794638403862
57.056519152238
57.332627303069
57.612570936642
57.883675876888
58.133059139107
58.349010648831
58.521881477513
58.667079471832
58.734243123577
58.767217718306
58.783278832623
58.797943794292
58.824879477352
58.877946663126
58.971295562853
59.12174247104
59.349935470555
59.680017217822
60.139367971129
60.744576340731
61.495045263225
62.362665652731
63.299113085633
64.273447364933
65.274513433065
66.291008329388
67.294576373463
68.248188488778
69.119023835042
69.883253996648
70.52882466761
71.048088711194
71.436641190692
71.69289433081
71.819376060659
71.826967361162
71.734657774163
71.563130676992
71.335832534636
71.093432915493
70.89088802928
70.789654151297
70.853846926946
44.86014691365
38.59540387046
37.753965505645
37.289916954889
36.989598164386
36.76281316711
36.597434894155
36.478347381817
36.41999749066
36.418652727837
36.46804638421
36.567557596858
36.732513181617
36.938204387556
37.173020788565
37.449879676676
37.768147440013
38.115814379132
38.484152386932
38.867907837578
39.261942575453
39.66055077033
40.059017866215
40.454076551859
40.842482668899
41.222007907599
41.59110541111
41.948753732024
42.294265942455
42.62725799861
42.947650715278
43.255594312381
43.551373454483
43.835365221106
44.108012448313
44.369791270317
44.621182449926
44.862658371275
45.094713348166
45.317870019327
45.532565486411
45.739225643369
45.938274310153
46.130067526988
46.315006006904
46.493470876731
46.665775098777
46.83223571582
46.993137371485
47.14876013649
47.299390023318
47.445261990003
47.586606976377
47.723639061386
47.856563077306
47.985584477702
48.110879165614
48.232618243479
48.350959056295
48.466048453308
48.57803243976
48.687042314361
48.793202211685
48.896634838421
48.997449230206
49.09574982728
49.199108193277
50.1218404558
50.734532778932
51.128981329666
51.495301453032
51.844894129175
52.17872762913
52.497014853394
52.799167931519