/*--------------------------------*- C++ -*----------------------------------*\
| =========                 |                                                 |
| \\      /  F ield         | OpenFOAM: The Open Source CFD Toolbox           |
|  \\    /   O peration     | Version:  2312                                  |
|   \\  /    A nd           | Website:  www.openfoam.com                      |
|    \\/     M anipulation  |                                                 |
\*---------------------------------------------------------------------------*/
FoamFile
{
    version     2.0;
    format      ascii;
    arch        "LSB;label=32;scalar=64";
    class       volScalarField;
    location    "0.00018";
    object      dydt;
}
// * * * * * * * * * * * * * * * * * * * * * * * * * * * * * * * * * * * * * //

dimensions      [0 0 -1 0 0 0 0];

internalField   nonuniform List<scalar> 
109340
(
0
0
0
0
0
0
5.7769995341714e-08
0.0014187952492004
0.0090464259684788
0.026751423497608
0.05810404987279
0.10645930402558
0.17507933519316
0.26735073994108
0.38700504124902
0.53836527218721
0.72674817984155
0.95890236392698
1.2436002919027
1.5923095776215
2.0202328421204
2.5472587903366
3.199469644997
4.011262251016
5.0287430483119
6.3144767625715
7.9551701141938
10.07403848976
12.85191050976
16.564869703529
21.654979533069
28.872076462012
39.574064479053
56.386590787075
84.698499634208
136.1908227486
0
0
0
0
0
0
2.4034799954248e-05
0.0022419789995842
0.01143346303424
0.031546198927447
0.06611373297925
0.11846556064263
0.19188791820699
0.28983849624399
0.41617984227297
0.57550334196661
0.77340376871737
1.0170658539381
1.3158765452123
1.6821634785603
2.1321934506448
2.6872456210673
3.3752436282829
4.2331172340665
5.3105003790735
6.6750811792253
8.4211688408878
10.683779169516
13.662939564355
17.667624234714
23.200123460625
31.130153384615
43.082879996656
62.336719675979
96.257730101161
161.53541715978
0
0
0
0
0
0
1.0955205735033e-05
0.0019768970150242
0.010750535971046
0.030406374595804
0.064537947865162
0.11652151493953
0.18968602794641
0.28751804659316
0.41388143852913
0.57329983823109
0.77133537506252
1.0151078916526
1.3139628054709
1.680181262523
2.1300336688535
2.6847620436427
3.3722445096448
4.229372448559
5.3057258029507
6.668962022695
8.4133310945761
10.673765703717
13.65019480277
17.651757291276
23.181940122325
31.117734264887
43.130750107993
62.727365151049
98.327895422103
172.60363212326
0
0
0
0
0
0
4.2669391961195e-06
0.0017999950096514
0.01035660713546
0.029852121648005
0.063897473121894
0.11584566050393
0.18899081598197
0.28677628517092
0.41303418238527
0.57227030695154
0.77002061351305
1.0133849682033
1.3117465545199
1.6773656768706
2.1266881032687
2.6809974398224
3.3682518286822
4.2255216102391
5.3025219752056
6.6672560516538
8.4144281011975
10.679658695865
13.663999564123
17.678814144417
23.232275650254
31.213819820926
43.363709757654
63.501115716911
101.73616102246
192.44430324874
0
0
0
0
0
0
2.4509034526575e-06
0.0016982935546976
0.01003180177803
0.029214504897704
0.062883241684563
0.114409336251
0.18710692328259
0.28444180567175
0.41027189368772
0.56913176878564
0.76657276631684
1.0097009962583
1.3085787750787
1.6753295529656
2.1273891449439
2.6867514114413
3.3825007059392
4.2535159958491
5.3517386725229
6.7486531046751
8.54385429197
10.880118079338
13.969294183796
18.139931471598
23.931900160374
32.277412918613
45.072217844325
66.622155756921
109.58113145258
231.70601718351
0
0
0
0
0
0
7.459948475827e-05
0.0032237834767139
0.014895243341345
0.039498429559963
0.080890963285007
0.14270942533998
0.2286442073777
0.34274167403909
0.48975652119447
0.67556240815692
0.90761859642248
1.1951012619745
1.5487378663055
1.9911311588828
2.544629077229
3.2399166500558
4.1178201795786
5.2325055675972
6.6565971263454
8.4888639354384
10.866265409009
13.98370827231
18.128366929218
23.743072218268
31.561288475978
42.796446422399
60.016812908936
89.060047537292
147.97749876333
346.99716997182
231.64769166135
388.21247020401
601.79847785108
853.69800458517
1132.1861089666
1451.054156981
1815.591429514
2231.3717091345
2694.4538179468
3191.1172047641
3729.3405288656
4204.994436339
4640.9972935659
5008.8616523951
5284.0494876339
5473.1208391916
5581.1279609262
5620.4802526144
5605.6502303008
5545.7407284449
5451.8143197995
5336.8856319673
5208.1279212229
5070.1033557838
4926.8044958163
4781.8372460834
4642.2149979558
4501.7156274083
4365.0289396425
4237.1499279197
4106.7361571699
3989.082902965
3869.789053261
3761.3628886031
3653.0703070329
3553.7353167259
3455.4423288159
3364.7731229979
3275.3108483075
3192.642153088
3111.029569497
3035.5493608355
2961.005343626
2891.8624809973
2823.7639277283
2760.1241618414
2697.9362501332
2638.8874160317
2582.2343376679
2527.6357256051
2475.5023187364
2425.2443229039
2376.9385004354
2330.4387777696
2285.6724997247
2242.5452211281
2200.9793846438
2160.8893761221
2122.1993851033
2084.8385612119
2048.7431750724
2013.8525787151
1980.1090296975
1947.4575976391
1915.848354875
1885.2337868934
1855.5683384282
1831.1944203915
1745.9915815087
1354.6493785377
1243.4476186223
1157.9654105918
1080.1782670837
1008.9484430652
943.6923689592
883.97013604162
829.48672640999
780.02525372481
735.4001050334
695.37923099414
659.63466957538
627.73390075704
599.16707146024
573.39126144415
547.04291159442
525.47193832705
505.15461321706
485.67889364137
466.67912895428
447.79582053137
428.65976332094
408.90858852799
388.23498497119
366.47729360226
343.72195809945
320.34370107412
296.91182998126
273.9897495024
251.97478101152
231.02996700144
211.21868406944
192.64805451039
175.66446840044
160.94964377616
146.95046974034
140.11804453459
136.09877550649
133.70025893051
132.01475357724
130.52993190146
129.02256732052
127.35354356252
125.54865558702
123.575206393
121.42872752323
119.10638140482
116.61041986454
113.94627136612
111.12067373807
108.13769631902
104.98938975229
101.66434980431
98.151494648189
94.441549069647
90.555156369798
86.535984588451
82.445039750104
78.355394545815
74.344094928667
70.490894941884
66.869826477552
63.550792433846
60.604859333629
58.101154115765
56.141261312301
54.933294741738
54.626866505877
55.894076709613
60.491984392256
73.557891909173
291.65294782679
497.75562559809
755.94978337429
1038.8636563783
1345.7292270775
1702.1650273476
2099.7473025191
2536.135244048
3002.5132953217
3488.4965435499
3975.1863816534
4446.7634882846
4821.9379721333
5134.4444439921
5371.4488776764
5524.6388760662
5606.126010766
5624.4399315131
5591.3259902447
5519.1911775478
5418.5678899318
5298.1350138646
5165.2911840091
5025.6193125677
4882.8763671005
4739.673320536
4598.3445293805
4460.2628234524
4325.8540885185
4196.3979446944
4071.8012655096
3952.1745745728
3837.8294112716
3728.3328957195
3623.9752235554
3524.1382347175
3429.0542267774
3338.0940996036
3251.4195649572
3168.494513699
3089.3845225215
3013.6575533869
2941.3183274607
2872.0641794297
2805.7755974407
2742.3052880504
2681.4402349172
2623.1260951983
2567.1063073679
2513.3530518544
2461.6867050621
2412.0415193729
2364.2749063734
2318.2999395467
2274.022964445
2231.3581707738
2190.2242235316
2150.5412320295
2112.2370350494
2075.2427065873
2039.4944910397
2004.9324309562
1971.5007804583
1939.1479239875
1907.8229675871
1877.4789938966
1848.0327003491
1851.5632733801
1581.4872463333
1319.3716337945
1220.6522992873
1137.4147667491
1061.4086234239
991.78855322227
928.00994428545
869.67123849102
816.50248695091
768.30231089075
724.88065873037
685.98562499936
651.26335582896
620.25954833536
592.45292137913
567.30095090665
547.04586960229
525.48290484289
505.17273585662
485.70507428136
466.7146920159
447.84241268261
428.71925880996
408.98296330115
388.32598178428
366.58587727815
343.8477403654
320.48464285335
297.0643811353
274.15047943359
252.14012930758
231.19689873637
211.38395047304
192.80841208703
175.8146265724
161.08114329141
147.04328985034
140.17519009476
136.12545166832
133.70421058318
132.00237534168
130.503037919
128.9827189584
127.2985357351
125.47753532249
123.48082715895
121.3063649134
118.95126718158
116.41784074752
113.71175555675
110.84006497608
107.80659943783
104.60367569198
101.22135864305
97.650190414766
93.883498752462
89.945457409747
85.883685434317
81.762479658902
77.657000169294
73.646244208344
69.808046248372
66.215330449592
62.935903812875
60.037137313613
57.585347981561
55.680037729846
54.524748372817
54.264005097535
55.590412893552
60.262813364504
73.4577194719
344.01161323767
629.28937398372
936.04158772416
1298.8794485226
1664.6147623296
2047.5930126441
2464.4640827486
2899.4277195306
3342.9708356293
3808.9847848533
4207.6606908734
4593.2368110042
4929.4677858032
5200.375459624
5404.5094287948
5539.9326636149
5608.7422915
5617.9549584489
5580.1231792815
5506.8610964393
5406.2358925652
5285.9764509906
5153.7865651439
5014.8797986108
4872.695922403
4730.3441670977
4589.8190230032
4452.2648737522
4318.7558903827
4189.7766006345
4065.8826515682
3946.7690142492
3832.8391579015
3723.8351148605
3619.7598448465
3520.3537312383
3425.4659772437
3334.8557522504
3248.3647059729
3165.7147155395
3086.7687861772
3011.2610598574
2939.0944756371
2869.9876934783
2803.8750048057
2740.5014113564
2679.8042100903
2621.5579468511
2565.6869062806
2512.0215899164
2460.4572262248
2410.8796329183
2363.1856879924
2317.2865323971
2273.0770925466
2230.4747659357
2189.3948506511
2149.7626962344
2111.5058510917
2074.5559061304
2038.8486928927
2004.3245939477
1970.9281559157
1938.6071447593
1907.3117187769
1876.9965807582
1847.578291686
1854.0396793376
1574.9998483361
1317.961627577
1219.6942681969
1136.5658794254
1060.6579196317
991.13330768574
927.44673066588
869.19633730264
816.11040558685
767.98582794727
724.63079711196
685.79222461528
651.11594175917
620.14825906366
592.36932056472
567.23868668438
547.00476402247
525.4542903876
505.15491150583
485.6980009777
466.71956874065
447.86178637713
428.75669791581
409.04266832694
388.41195626846
366.70067241851
343.99123872954
320.65363851355
297.25362819359
274.35833337097
252.36055558108
231.43000494232
211.62879218731
193.06228317123
176.06915242581
161.31844989459
147.221200803
140.28769288359
136.17964431109
133.71367029148
131.97964699629
130.44551856197
128.89614105462
127.17930649064
125.31777570368
123.26891624318
121.03152716733
118.60333718895
115.98652735992
113.18738233933
110.21367010348
107.07021986634
103.75159039846
100.24620680901
96.55017884218
92.66269629744
88.615813122027
84.466266932148
80.28613225087
76.154811729025
72.15203065326
68.353639910045
64.828680920472
61.639526864375
58.845374547696
56.506750314746
54.719758596293
53.673542776203
53.516016927954
54.969545442285
59.800802414535
73.274644451617
465.72154379575
923.08585470648
1350.25015436
1805.8682995914
2257.6484083891
2666.9898403699
3071.7088858781
3458.6070131776
3836.795170623
4212.8568885222
4501.2645922918
4797.4644128426
5067.4526189786
5288.2612556962
5458.8214904201
5566.1649877865
5615.5639081157
5615.0968819361
5571.4234021142
5493.1526767896
5390.5707877301
5271.5148271704
5139.7481313919
5001.2733635152
4860.338760555
4718.9940028786
4579.1242993587
4442.4801246446
4309.908508496
4181.705638391
4058.3738461685
3940.065551958
3826.6291761726
3718.212595345
3614.5424648073
3515.5844089088
3421.0176169356
3330.7923133075
3244.5585487033
3162.2189946303
3083.4935973521
3008.2590966328
2936.2666660116
2867.3882175623
2801.4329256063
2738.2470235672
2677.6857951231
2619.5877620518
2563.8441218507
2510.2937949323
2458.8451644068
2409.3628073054
2361.7648902693
2315.9475601832
2271.8216916214
2229.2955912735
2188.2860874637
2148.7190261055
2110.5216292419
2073.6268668645
2037.9714327776
2003.4962757158
1970.1457388754
1937.8671783801
1906.6105827592
1876.3296373884
1846.9357680748
1857.8380184315
1565.927655322
1316.0088217604
1218.32550533
1135.3475366212
1059.5787126583
990.19033650536
926.63618795976
868.51250144001
815.5454588511
767.52936283479
724.27009537599
685.51281539791
650.90282025248
619.98716799101
592.24790294377
567.14729742075
546.93869689829
525.40614022264
505.12227677865
485.68116031642
466.72070949073
447.88486762754
428.80719037769
409.12696880459
388.53602463176
366.86837965982
344.20258863064
320.90410315206
297.53595634933
274.66635320275
252.68908112058
231.77761809717
211.99408247077
193.44137361383
176.44982796383
161.6748483876
147.49262929003
140.45970572865
136.26375807003
133.73200347288
131.94694579168
130.36932682392
128.77066450496
127.0030316557
125.07907173908
122.95259586856
120.62187864501
118.0837013187
115.3407132002
112.40036939078
109.27198813835
105.96188181014
102.46646583532
98.778677755572
94.90032849974
90.840221448072
86.644213515799
82.381234664712
78.132557500609
73.982816125844
70.012612480646
66.292572820402
62.883684302667
59.838454016214
57.203665887105
55.032015643554
53.419088630006
52.513393956221
52.516839223842
54.149023205854
59.208395591638
73.09542832077
886.07097085319
1720.1291738756
2410.8237496718
2933.9890112802
3338.2979000916
3661.2719865505
3919.4255456753
4161.0335248969
4380.4135064019
4588.5735210627
4809.9672186581
5028.4035239191
5226.6759364459
5391.7072598082
5515.3671344925
5594.7867273313
5625.6154887344
5611.4890103807
5560.0266932542
5478.8299228837
5374.4369719772
5253.3988172058
5123.153387896
4986.0353766141
4845.7578838517
4705.3274298224
4566.9643225001
4431.3180552065
4299.5582927237
4172.3155900894
4049.778903389
3932.1688047494
3819.4429605777
3711.6092988315
3608.4706591093
3509.9487528783
3415.8492703531
3325.9726584476
3240.1047165341
3158.0755771284
3079.6544410251
3004.6804128154
2932.940940782
2864.2979924488
2798.5452549317
2735.5608851042
2675.1668032928
2617.2440729019
2561.6397332322
2508.2333649128
2456.9074300108
2407.5475207955
2360.0589578258
2314.3386632988
2270.305099737
2227.8660020972
2186.9403001871
2147.4493838392
2109.3219320721
2072.4921320526
2036.8979064104
2002.480491493
1969.1838264192
1936.9553143527
1905.7446982288
1875.5049347824
1846.1501651363
1862.5564942023
1554.3820524296
1313.5545344963
1216.5577150735
1133.7692538478
1058.1791411034
988.96626412485
925.58269554562
867.62303107044
814.80983392733
766.93467540449
723.7999295597
685.14836418391
650.62452759471
619.7765279788
592.08878504072
567.02697694754
546.85027878642
525.34137522367
505.07821066889
485.65803407202
466.72118358284
447.9141142433
428.87246193998
409.23684191491
388.6988961611
367.08976293245
344.48257369379
321.23672231231
297.91150120872
275.07569403321
253.12605301961
232.24028193014
212.48103168732
193.94755231179
176.95938968798
162.15342372588
147.86134142825
140.69664429072
136.38248707834
133.76116534549
131.90887701998
130.27060254701
128.61043026507
126.77500119344
124.76653638746
122.53629398527
120.079976789
117.39385133391
114.48158293188
111.35258260665
108.01881845159
104.48974372335
100.76470189505
96.842642062758
92.735686605498
88.467647358059
84.101670155472
79.721156151824
75.421350307674
71.289167133667
67.400025789698
63.815512084869
60.583079738174
57.738955059519
55.315976210858
53.35865616663
51.957112325474
51.221944826603
51.423750759077
53.271850614984
58.614227424624
73.02821743709
4223.9192637183
5008.3476307402
5053.3347949329
4914.1560919818
4849.7014002063
4789.205959965
4799.7808668025
4826.72609728
4907.4890041365
5004.6755947445
5130.8922302059
5260.5752964625
5386.4126766677
5496.1861779411
5576.8094673412
5623.1787673873
5632.5134634342
5605.6458165876
5546.4398301036
5460.8216661023
5354.9370872065
5234.3371238363
5103.2195566923
4967.4018669027
4828.8518009053
4689.9337150118
4552.4409649108
4418.2997621416
4287.820077639
4161.5663158639
4039.9259211616
3923.2055930875
3811.2601006812
3704.0366703932
3601.5557351002
3503.5660391407
3409.9483772043
3320.4906538655
3235.0486798947
3153.3595364954
3075.2782867063
3000.6011782427
2929.159858096
2860.7600381346
2795.2508673948
2732.4818650714
2672.2950097764
2614.5526159488
2559.1127063681
2505.8650565982
2454.6819999191
2405.4606418275
2358.0931865672
2312.487473602
2268.5571748972
2226.2161470711
2185.3823124009
2145.9759788045
2107.9284805001
2071.1737072657
2035.6491868488
2001.2962949667
1968.0601790489
1935.8883310496
1904.7293462695
1874.5394316461
1845.2230254235
1868.3101544024
1540.8977648667
1310.6253038435
1214.4024355435
1131.8415377616
1056.467999737
987.4681711961
924.29206005902
866.53213861171
813.90698171441
766.20421000101
723.22197272234
684.69998250334
650.28176414958
619.51660852934
591.89195325236
566.87752589546
546.73858097233
525.25868032022
505.02101109152
485.62675643931
466.71934189077
447.9483089999
428.95181080316
409.37200231608
388.90008896428
367.36382277105
344.82988070697
321.6501654097
298.37916385901
275.58617120528
253.67177127699
232.81849331227
213.08962096265
194.58008253062
177.59652378633
162.75468400122
148.33305313144
141.0052067998
136.54302539992
133.80954232034
131.87239724299
130.16067592095
128.42220388091
126.50234658556
124.38844392151
122.02902246132
119.4160248227
116.54468064706
113.42082765614
110.05653519678
106.4693431849
102.67306791662
98.670770890728
94.472324162606
90.105075589743
85.614275149966
81.0861607966
76.62310429728
72.326719975231
68.279594286235
64.547289381849
61.175496173227
58.18865670326
55.604340796128
53.440497231041
51.733684517272
50.553296665146
50.017606490062
50.431911636693
52.513462477314
58.175445345073
73.205927892977
17931.911703571
10795.061011441
8408.0885674968
7121.8094230923
6337.8801741166
5873.0335702974
5624.0188137985
5484.6946756596
5417.7598057363
5404.4273811288
5423.7352038738
5468.2129241796
5524.9075189524
5581.3546324752
5625.3971415564
5647.2824817639
5642.8848488857
5609.3593136275
5548.4574080158
5463.8872543407
5360.176925299
5242.1280681087
5114.4293033957
4979.9643822661
4843.1714155321
4706.1503684
4569.920366469
4436.1156916568
4305.9687471607
4180.1164949447
4058.4707035332
3941.3984035097
3829.1894811873
3721.6842110019
3618.7407897102
3520.25630406
3426.1809090258
3336.2225351143
3250.245093564
3168.0514304174
3089.4918559856
3014.3286800162
2942.4107523299
2873.5584340042
2807.6246279381
2744.429458624
2683.8345914459
2625.6998419091
2569.892424854
2516.2852624892
2464.7567709189
2415.2043869287
2367.5237179744
2321.6209823139
2277.3995652052
2234.7763950073
2193.6733859309
2154.0142660771
2115.7249169697
2078.7358259612
2042.9854539756
2008.4157080312
1974.9713871558
1942.6001894386
1911.2593009982
1880.8927204811
1851.4566909339
1831.3151472291
1665.270648021
1338.1241811725
1233.7857462923
1149.4311250259
1072.6129002045
1002.3267594263
937.98326620825
879.13612118749
825.47397480888
776.76648410753
732.81121456583
693.36332330214
658.08971355871
626.56178412858
598.28148134243
572.72332180846
546.60323525478
525.15777888718
504.95033580722
485.58686445334
466.71446321688
447.98637580779
429.04378279865
409.53073427612
389.13801193881
367.68933226981
345.24362933145
322.14380315562
298.93840948608
276.1970462787
254.32510630993
233.51086224034
213.8187737472
195.33852897956
178.35973731524
163.47165309849
149.22217452382
141.59441548773
136.8590916974
133.91733403384
131.82420023419
129.97911989534
128.10252938984
126.03040541442
123.7251745873
121.13034172063
118.23124477284
115.02149140809
111.5087716897
107.71542567306
103.67048529468
99.394654390145
94.911964664394
90.257216211956
85.492520749267
80.702976946517
76.01130475324
71.54357256842
67.397987961632
63.637203726156
60.29706090336
57.385556988117
54.878914441278
52.770063311666
51.050725022142
49.737779143747
48.894588882223
48.668780616507
49.390477933117
51.822216416611
58.002589082412
74.078541941608
11155.014148729
12571.838715651
10534.200682819
9123.3562325651
8126.2567247947
7415.931749381
6890.7154127461
6488.6875519377
6249.3390667058
6068.2984356996
5934.304030656
5848.1466235952
5792.8486868233
5754.5645225822
5721.3898768587
5682.8150389285
5632.3757802013
5566.7363136276
5484.1618972114
5386.0044276683
5275.1367483604
5154.3898441443
5026.8132731075
4895.2719404057
4761.8126029725
4628.0651974638
4496.1047145217
4367.1921495039
4241.3755029207
4119.3745034854
4001.502086177
3888.2791851028
3779.3880425209
3674.9457560296
3574.858178372
3479.1425438362
3387.4950665683
3299.804589046
3215.9046954041
3135.6819463976
3058.9062163712
2985.4118994243
2915.0289654879
2847.6204427866
2783.0144537323
2721.0580403489
2661.6113828994
2604.5475206914
2549.7423123759
2497.0663759151
2446.414989852
2397.6817974298
2350.7749024512
2305.5955348043
2262.0546533924
2220.0698649809
2179.5638800212
2140.4676448368
2102.7102271925
2066.2260998772
2030.9536259605
1996.8363031834
1963.8205385005
1931.8516939204
1900.8869643352
1870.8699338247
1841.637194534
1899.1213681419
1491.5492372112
1299.0486469465
1205.6981837572
1124.0634023482
1049.5558271173
981.40629255654
919.05968833591
862.10075853515
810.23204846766
763.22508329831
720.86002253968
682.86310826759
648.87288933752
618.44306869828
591.07317796669
566.24976783561
546.25842276372
524.89721929749
504.76370010598
485.47584705509
466.68980984693
448.06797474314
429.25904517048
409.91176112754
389.71600794823
368.48588587701
346.26147960021
323.36329286029
300.32436456524
277.71414431443
255.94958777533
235.23337151407
215.63385702682
197.23018952967
180.2769887362
165.30376887575
150.81607225267
142.70875535374
137.51184430661
134.20733877113
131.84146755704
129.7686925131
127.6595124364
125.32393209495
122.69031228568
119.68450857524
116.27498971599
112.45577535899
108.25091946267
103.71792467625
98.92070928383
93.917580843526
88.779927651672
83.607280159108
78.529130010446
73.697564706759
69.285214790437
65.389815371366
62.052197126514
59.258196793429
56.958767946892
55.076260009764
53.525287736663
52.220857755709
51.129840064506
50.267636527875
49.720137509978
49.721071995016
50.634867293189
53.348568854224
60.145496169011
77.605924483336
8617.4969630889
10986.346449442
10271.729218218
9349.5724999941
8575.8675088236
7964.7204100826
7464.0587269066
7060.2845539766
6725.8239576097
6461.9352967464
6260.4045918045
6085.5324408906
5954.1752599273
5849.1066872512
5763.2776116046
5684.3832298621
5604.1384273472
5518.0834029007
5423.4232254053
5319.1978353738
5206.1439270973
5086.1615451183
4961.2012183956
4833.2781430992
4704.1860663385
4575.2672685594
4447.8264391113
4322.7680884411
4200.7352383841
4082.463301125
3968.0928675411
3857.7485586523
3751.5787472809
3649.5191917093
3551.7333112634
3457.962499536
3368.0948287369
3281.977122956
3199.5478457173
3120.6129505132
3044.9875554105
2972.5304334942
2903.1027042934
2836.5639180732
2772.729569891
2711.4809905096
2652.676888953
2596.2052068421
2541.9364134015
2489.7539858354
2439.5540238233
2391.239519026
2344.7184951531
2299.8920396936
2256.6769192684
2214.9920385119
2174.7651335419
2135.9257103995
2098.4043696663
2062.1402497741
2027.0735475123
1993.1479155659
1960.3111798965
1928.5129019656
1897.7139273132
1867.8602528519
1838.7706152123
1929.8637199326
1456.7478121233
1289.4812234194
1198.1275605532
1117.2980482499
1043.5467922936
976.13334715265
914.50219668295
858.23395049618
807.01849885179
760.61370096036
718.78354508602
681.2419228966
647.6225719235
617.48286638522
590.3329245752
565.6741414069
545.80839043265
524.55038950643
504.50780017031
485.31345997417
466.63457681611
448.14480112833
429.50243406487
410.36230785278
390.41371256038
369.45939175134
347.5164125699
324.8770513343
302.05347546451
279.61329769567
257.98681071165
237.39520224838
217.91341993645
199.61052694101
182.70285709272
167.6542547549
152.91766939287
144.26361294484
138.50497640847
134.73881371667
132.02129887486
129.66252234165
127.26754329397
124.60720638501
121.56037228194
118.02830028169
113.96770555032
109.38338205091
104.34308033409
98.990844729814
93.475636847277
87.916925209384
82.463311840247
77.298632297395
72.635247977466
68.680303257263
65.563528995293
63.26369134332
61.678219409519
60.659952792961
60.026272289786
59.55416093244
59.072331046825
58.456586896836
57.674892029466
56.799582131976
56.021849080333
55.640259078273
56.243028271835
58.906694860033
66.043044049876
84.480106879176
7508.2173507494
9238.3768595763
9360.8608651285
8879.3074673368
8346.6331673002
7881.7887972275
7477.8129240114
7127.4682432139
6819.5904532659
6562.4576906492
6338.4051448286
6155.0951138951
6000.6073098985
5867.1686314996
5750.6989785602
5646.7196595304
5547.6849312525
5448.129284657
5345.449848933
5237.7681273497
5124.6168204395
5006.6282463732
4885.2633806941
4761.8118696263
4637.5889146953
4513.7738832216
4391.2883969913
4270.9820417927
4153.5156094196
4039.3031027723
3928.64211185
3821.7508608867
3718.7686688043
3619.6526191372
3524.3841481853
3432.8599507439
3345.0329153219
3260.8896484926
3180.1720697952
3102.7591292279
3028.5135860321
2957.3166813787
2889.0525243869
2823.5216336662
2760.621350987
2700.2089725979
2642.1866055636
2586.4204748979
2532.7905687297
2481.197806591
2431.5361966455
2383.7231368291
2337.6568080398
2293.2487218767
2250.4183747071
2209.0890399125
2169.1926502785
2130.6566097721
2093.4168584946
2057.4128245526
2022.5872270606
1988.8878552272
1956.26502535
1924.6724033409
1894.0558751177
1864.3757725239
1834.93770571
1922.8131411041
1423.1850375263
1278.5532699968
1189.1898754041
1109.3303057005
1036.4825983781
969.93879054395
909.14809956012
853.68725067496
803.23511642923
757.53323799367
716.32691578479
679.31568322401
646.12779399363
616.32516107772
589.43055572283
564.962758754
545.24338765984
524.10536774342
504.16986612667
485.08611554257
466.53412851175
448.20071375729
429.7556654073
410.86154560049
391.20782797885
370.58491733991
348.98340782813
326.66174997377
304.10499824181
281.87640185369
260.42005051003
239.97966574019
220.64019014609
202.46251613691
185.62428366501
170.52082551536
155.55485434955
146.32613041313
139.93122234758
135.6114877206
132.46089688526
129.75196180824
127.02022177231
123.97798412171
120.44468514481
116.28457978437
111.45569517229
105.99863860897
100.08970484563
94.105961015291
88.323495628121
82.965404007379
78.216650007337
74.318598456869
71.519214962481
69.99390884574
69.709352052322
70.405950693472
71.762212442631
73.387674812408
74.88389038075
75.894010094454
76.150583042064
75.511863955868
74.037479595995
72.150563304444
70.057113609747
68.237983259201
67.566798886682
69.724939881759
76.618628619501
94.792197943133
7050.1703258243
7911.2293613191
8358.3366485339
8231.854920493
7901.844806472
7566.8735916313
7254.2256339679
6974.8267223279
6709.7325238684
6488.0262407122
6283.3706592963
6104.2053364647
5943.3087448379
5809.2189718522
5681.8836917751
5567.8101325747
5460.448575335
5355.656155918
5249.9581816855
5142.1178222973
5031.1632506921
4917.0629929218
4800.3833496057
4682.1497060329
4563.4162090155
4445.1260557706
4328.078821021
4212.9425170593
4100.2989502904
3990.6030656796
3884.1234808922
3781.0410292885
3681.4695906904
3585.474724352
3493.0832515175
3404.2154245748
3318.7794850023
3236.7215408287
3157.8920300558
3082.1999518091
3009.5745654125
2939.8226153047
2872.8290157797
2808.4788847055
2746.6375926565
2687.2302330346
2630.1000866279
2575.1466699981
2522.263642331
2471.3506764356
2422.3300274139
2375.089461782
2329.5498754493
2285.625736608
2243.2397146907
2202.3272266487
2162.8102292866
2124.6258697764
2087.7120608482
2052.0101480955
2017.4679112784
1984.0329927681
1951.6562527623
1920.2875574961
1889.8756800128
1860.3876225301
1829.5528239671
1861.0163074054
1392.3974245961
1266.2496804536
1178.9533363691
1100.216252597
1028.4156411785
962.87285685825
903.04482817809
848.50289383895
798.91721011487
754.01059495018
713.50799309863
677.09355621239
644.39018329869
614.96562516627
588.35742618798
564.1040910031
544.55012987843
523.54771547102
503.73459936402
484.77771505239
466.37141843061
448.2173000513
429.99834093645
411.38646842933
392.07234729574
371.83399291863
350.63312297193
328.68906967723
306.45367553013
284.48090840989
263.22862882085
242.96610438576
223.79297709614
205.76411602108
189.02131045798
173.89131686097
158.74722649787
148.95877930392
141.89122385914
136.94453784348
133.28128407515
130.15502767351
127.03889992829
123.57758826938
119.52666551952
114.67906551656
108.88082885345
102.56429723299
96.206629084961
90.391368008823
85.641888917215
82.151208883846
80.011678737707
79.437673342168
80.676959264877
83.713971604295
88.178357946599
93.465056601932
98.839454327377
103.60924558614
107.15456625795
108.97979593557
108.78098877163
106.53472779765
102.91978338731
98.270905714342
93.252155649386
88.708087050537
85.846630694476
86.406122931836
92.256878149616
107.92933185316
6976.681681009
6945.9410577195
7446.3923245751
7558.5995279277
7400.1616757415
7171.1493039031
6935.5562981717
6719.5205650822
6501.8931346348
6311.7994143039
6133.2085944286
5971.2924952649
5826.752553989
5694.3337546524
5571.8764170152
5458.3553589777
5349.0429330714
5243.8679140158
5139.8611486766
5034.799701098
4927.6959193185
4818.6187121199
4707.732853162
4595.6027300875
4482.9611295012
4370.6387117247
4259.3855825891
4149.7660168887
4042.2593548188
3937.3048730967
3835.2084489646
3736.171394688
3640.3201875438
3547.7090529958
3458.365113303
3372.2727067296
3289.394378828
3209.6652290762
3132.9799078128
3059.2363090624
2988.3272486708
2920.1217323933
2854.5519321069
2791.5346753215
2730.9086102728
2672.5770854935
2616.4391537275
2562.38878091
2510.3535851517
2460.2275050555
2411.9064361065
2365.3192369089
2320.3707031151
2276.9991139929
2235.1292517333
2194.6819084213
2155.5985618708
2117.8117831153
2081.2686298691
2045.9159287206
2011.6941188095
1978.5553328194
1946.4450264696
1915.3248475794
1885.1495794791
1855.8688180846
1828.0520782314
1761.6316773375
1364.9832349815
1252.9471616732
1167.4792999818
1090.0133181846
1019.3984685571
954.98577883768
896.23716663865
842.72237469616
794.09946067873
750.07179261805
710.34324338991
674.58275366377
642.40895500592
613.39720921704
587.10194130991
563.08346086334
543.71229974801
522.86002674345
503.18365042177
484.36908736439
466.12623044953
448.17290852539
430.2068134878
411.9108773009
392.97823174299
373.17499459288
352.43251173394
330.92679104051
309.0700297187
287.40054501355
266.38865560379