/*--------------------------------*- C++ -*----------------------------------*\
| =========                 |                                                 |
| \\      /  F ield         | OpenFOAM: The Open Source CFD Toolbox           |
|  \\    /   O peration     | Version:  2312                                  |
|   \\  /    A nd           | Website:  www.openfoam.com                      |
|    \\/     M anipulation  |                                                 |
\*---------------------------------------------------------------------------*/
FoamFile
{
    version     2.0;
    format      ascii;
    arch        "LSB;label=32;scalar=64";
    class       volScalarField;
    location    "0.00018";
    object      k;
}
// * * * * * * * * * * * * * * * * * * * * * * * * * * * * * * * * * * * * * //

dimensions      [0 2 -2 0 0 0 0];

internalField   nonuniform List<scalar> 
109340
(
6.9102383641027
6.9065684934228
6.9081784203709
6.9109649540167
6.9112652401457
6.9075540383977
6.8993028936453
6.8870514516952
6.8716320636388
6.8527511480849
6.8305426818398
6.8052160591011
6.7769807468246
6.7460360613047
6.7125702127276
6.6767648884951
6.6387969929077
6.5988389404989
6.5570600028126
6.513624803447
6.4686913254756
6.4224083436027
6.3749137740974
6.3263328234156
6.2767756580215
6.2263339700586
6.1750756205602
6.1230375009798
6.0702154709548
6.0165477573271
5.9618863888932
5.9059428875649
5.8481689298177
5.7874475978291
5.7211873092359
5.6428407663698
6.9056747147781
6.9045073227431
6.9058068839172
6.9059135026227
6.9026836994481
6.8954766307562
6.884167178438
6.8684303052646
6.8485231270925
6.8248562300855
6.7976903089319
6.7672586588364
6.7337964791322
6.6975378886523
6.6587143939365
6.6175530538008
6.5742775783602
6.5291088037096
6.4822649005644
6.4339591088759
6.3843960286341
6.3337660078691
6.2822417180241
6.2299755991432
6.1770968154409
6.1237064214888
6.0698726265842
6.0156243514415
5.9609393854019
5.9057264173312
5.849790766542
5.7927675214197
5.7339689587713
5.6719779576545
5.6035124779657
5.5202644777496
6.9002830778455
6.9004625424565
6.9005526873299
6.8976456293693
6.8902864822969
6.8779315747402
6.8603735655412
6.8377317308873
6.8102645501411
6.77835529217
6.7423907519016
6.7027383283442
6.6597631737225
6.6138305250828
6.5653037723601
6.5145428131236
6.4619018602241
6.4077353865622
6.3523990554008
6.2962318822196
6.2395479306584
6.1826165411405
6.1256682520593
6.0688970893727
6.0124430521006
5.956400553582
5.9008288919876
5.8457226654361
5.7910285070137
5.7366171818356
5.6822428426207
5.6274907552998
5.5715822989691
5.5129153632197
5.4477680403706
5.3661849062844
6.8891939349567
6.8946742318224
6.8930748883849
6.8836823550342
6.8663210136276
6.8410405489765
6.808147583843
6.7681056846162
6.7215405706272
6.6692160637605
6.6119756145819
6.5506904409711
6.4862329741661
6.419455463807
6.3511972358638
6.282272335808
6.2134726202659
6.1457423777096
6.079792126549
6.0162337808439
5.9555374626954
5.8979751264839
5.8436453374177
5.7925552199695
5.7446526471992
5.699837023927
5.6578411298107
5.6185751401464
5.5818824559802
5.5475653166139
5.5153080230227
5.4845764912152
5.4543047978889
5.4220940675327
5.3816958947799
5.3139354275134
6.8768230601271
6.903838040259
6.9107731845895
6.8974182173885
6.8631529794771
6.8094682597206
6.7395747436181
6.6575572000795
6.5678465703301
6.47484716305
6.3826159534814
6.2950192267695
6.2153984947125
6.146748870328
6.0918161800795
6.0531923466401
6.0334278228691
6.035771271481
6.0605439219441
6.1051259409141
6.1658704701359
6.2397267666885
6.3243114528626
6.4178038905751
6.5187878614987
6.626127792387
6.7388636470943
6.8561484610302
6.9780224855351
7.1037107277118
7.2314141719638
7.3587682761862
7.4824513919694
7.5953819002297
7.6776751577563
7.6561358724356
8.3369377490674
12.369327398911
15.807606839241
18.424951634716
20.230721529335
21.355838177584
21.963591331987
22.203071306609
22.190945788769
22.022251008424
21.751924166813
21.422589497727
21.063225819364
20.693157014263
20.325184868049
19.968275736952
19.628161355608
19.30859091585
19.013170056722
18.745495815035
18.501062500366
18.276966064556
18.071726444684
17.884532772834
17.714823852134
17.562174872421
17.426300889309
17.307097119262
17.204704124895
17.11961231747
17.052905032128
17.006784311483
16.984609165862
16.99415946803
17.04379622341
17.124631439822
5.5389203013276
5.3993492669895
5.2226562401819
5.0091230187738
4.7591382057403
4.4730856556576
4.1548100912278
3.8108626030539
3.4511802430122
3.0920886930764
2.7496651706246
2.4620014426607
2.2188995085786
1.9919830512427
1.7841084092754
1.5958557825479
1.42889186138
1.2827120484533
1.1553217345839
1.0450689553367
0.94976786845266
0.86673916274898
0.79443607938662
0.73157536611424
0.6767816740172
0.62862322962147
0.58487245454484
0.54737302386961
0.51308677991429
0.48166489562077
0.45541918581552
0.42948456491934
0.40819030969365
0.38675475327354
0.36904132264091
0.35105380132199
0.33610523562825
0.32085761913593
0.30817163703113
0.29514382350009
0.28427551349343
0.2730541252861
0.26356706529936
0.25390942175877
0.24542140115488
0.23721022009903
0.22944719340707
0.22235884833675
0.21539409193847
0.20912807528272
0.20300471889399
0.19729179484332
0.19187640280983
0.18674281043268
0.18185778327327
0.17721105022974
0.17278503285569
0.16857248987273
0.16455997163628
0.16073231330198
0.15707222024008
0.15356466058202
0.15019717051866
0.14696088870765
0.14384936625978
0.14085809760123
0.13767152110625
26.994418835437
4295.6102713143
2983.6079068743
1978.0265062521
1393.4467910042
1030.7181342685
791.53489483978
625.87418426045
506.69661771942
418.5364675609
352.04567084593
301.22903191744
261.99602472598
231.39726259077
207.22705311803
187.8154111005
171.90843040617
157.01369353842
145.80091645122
135.96053602429
127.17287430095
119.21617012813
111.94005904047
105.25005717784
99.09892226109
93.479467587112
88.409182335809
83.893700828895
79.863686682893
76.105374350296
72.242277187901
67.779011111269
62.199755753744
55.147406840248
46.603865143436
37.046631558299
27.535490176375
17.801866402381
13.054133601275
10.378917104557
9.030750162632
8.4059975542623
8.1478371245205
8.0736547738548
8.0977178273219
8.2094871928076
8.3667397049225
8.5399926224123
8.7049188550521
8.8492643550879
8.9646035826964
9.0447478437871
9.0839358347332
9.0817116040967
9.032917458755
8.9539612094255
8.8632574791853
8.7736856996816
8.6911441561939
8.6158671547665
8.5458804776035
8.4790071796231
8.4131741023568
8.346350665557
8.2771706738338
8.2050662590672
8.1310045652387
8.0582123232162
7.9926222329394
7.9392853439945
7.8998630841118
7.8695526646817
7.8363174012673
5.4051317040388
5.2449256711548
5.0345025968978
4.7787896495204
4.4827152174248
4.1525384405344
3.7963114343501
3.4257527223372
3.0528093112569
2.6887855160151
2.3448119897023
2.0297385766203
1.7595542983704
1.5277333968445
1.3339788950454
1.176364871597
1.0500471476416
0.94936908398995
0.86567518093263
0.79538127383296
0.73554533919542
0.68385119835303
0.63878748551774
0.59900527741479
0.56332932703738
0.53105752855246
0.50162212254624
0.47448363265003
0.44971181262618
0.42686848026966
0.40599504403643
0.38683789625344
0.36916035196205
0.35287606128142
0.33771580438045
0.32370184309776
0.31061333091043
0.29850553620784
0.28719246609608
0.27668149839748
0.26683166975011
0.25761102375698
0.24894006815168
0.24075821906661
0.23307153972928
0.22578981906032
0.21896086402318
0.21248602586699
0.2064104655091
0.20064276009684
0.19519338796526
0.19000480111069
0.18507178695981
0.18037328877255
0.17589063012767
0.17161461690245
0.16753472134711
0.16364209365677
0.15992353458084
0.156365771821
0.1529544676391
0.14967693120814
0.14652228236982
0.14348283137539
0.14055383801207
0.13773318817391
0.13571491194355
342.18542064961
4108.6244189881
2668.089109792
1797.2286519072
1283.629112191
959.66076683522
743.09534807872
591.47024064706
481.49694268018
399.6698351397
337.70647754823
290.21113091328
253.44549896913
224.68265089477
201.87187070361
183.46108225592
168.28989821541
156.97121628857
145.7652080389
135.92963288035
127.14601073907
119.19278574644
111.91962717786
105.23198951666
99.08249806536
93.463837254483
88.393493101147
83.877370256833
79.846927986693
76.089512726715
72.229205394744
67.772727956629
62.204137023493
55.165544909816
46.636559853211
37.091579256197
27.585013780019
17.837825093446
13.069875620749
10.37791598265
9.0180431023668
8.3848013057044
8.1202728423913
8.0412952111836
8.0598166536256
8.1654862587425
8.3166368303684
8.4839988329743
8.6434916670128
8.7830101186438
8.8940676082186
8.9703076678233
9.0063371796698
9.0018162609093
8.9525665377955
8.8747885645752
8.7863539785248
8.6994297536595
8.6196017325119
8.5471897053047
8.4802930685919
8.4167405037966
8.3544418196761
8.2913275033426
8.2260277151535
8.1580623955343
8.0885362307823
8.0208987228082
7.9606655884948
7.912272052899
7.8770963700032
7.8501191206099
7.819411029611
5.2460327478429
5.0677709259619
4.832452881495
4.5516865635597
4.2362807273412
3.8981082760462
3.547802230679
3.195090328551
2.8487084067379
2.5125625451492
2.2066475574313
1.9250738005612
1.6753769834822
1.4592466158282
1.2751475774703
1.1213657741077
0.99494339915988
0.89130423202593
0.80350168914114
0.72899696534
0.66601966344686
0.61275302802766
0.56739149667597
0.52857782034275
0.49515956278413
0.46600519290475
0.44026133697394
0.41736133956793
0.39683134816369
0.37836660087159
0.36158698253953
0.34640840907933
0.33247303773181
0.31961118585042
0.30760102961218
0.29635291007228
0.28575073600927
0.27580439923032
0.2664464489591
0.25767023066619
0.24937631898282
0.24156280747812
0.23412823128539
0.2271065956731
0.22041158310849
0.21408541084908
0.20806720745348
0.20237969089417
0.19697971485317
0.19185589904531
0.18698485435239
0.18233713040572
0.17789695933354
0.1736413682085
0.16956895498627
0.16567128297009
0.16194334111797
0.1583760139823
0.15495900930745
0.15168091242582
0.14852955773017
0.14549375543381
0.14256412064468
0.1397343469733
0.13700135959241
0.13436463172525
0.13265083481908
371.19112155357
4095.2471346393
2654.2945190676
1788.8110004408
1278.3704671761
956.25583782253
740.82391186483
589.92018858189
480.42059946626
398.91144360277
337.16463864036
289.81806635689
253.15482201301
224.46213921003
201.69926799553
183.32143472215
168.1735811125
156.88195138547
145.68895390121
135.86403220942
127.0897499732
119.14494110217
111.87939890725
105.19849248808
99.054618250725
93.440224573806
88.372796044521
83.858789090337
79.831145658866
76.07927443507
72.228879465488
67.790487734326
62.248018394573
55.241993356259
46.746783153792
37.228595359898
27.729148308616
17.94520993051
13.124732512887
10.388059541979
8.9964846091453
8.3410060173392
8.0606086375669
7.9702067196171
7.9768701848423
8.0696695582026
8.2085919943837
8.3647997894428
8.5142166711866
8.6447662426723
8.7477452187084
8.8165060362999
8.8463907683549
8.8365787098475
8.7856333932846
8.7096166341756
8.6255564653822
8.5442168431716
8.4704080726798
8.4044028575798
8.3443558245837
8.2880985400309
8.2334495744874
8.1781959614416
8.1209559507143
8.0614640351091
8.0012696361079
7.9441082632571
7.8947045618809
7.8566639933223
7.8308162581956
7.8114257344056
7.7867711826947
5.1633694497437
4.9023870451845
4.5614282944393
4.1958329760833
3.8449393572055
3.5080949363251
3.1863160746723
2.879579390175
2.5864453665257
2.3056413334862
2.0525834624736
1.8129417730957
1.5940040577887
1.4001363859812
1.2304870947857
1.086071409784
0.96541548112463
0.86432042047368
0.77765624196026
0.70353398810814
0.63989351783125
0.58511783447082
0.5382470811258
0.49792613273628
0.46305587906114
0.43285107361483
0.40654938595406
0.38344665273187
0.36303648635182
0.34497781616283
0.32888693077296
0.31445795323348
0.30148684595931
0.28969394970228
0.27893158327352
0.26900627822586
0.25986420610298
0.25137947741762
0.24352907367433
0.23619438458997
0.22934501611917
0.22287533726639
0.21674709348762
0.21090410523614
0.20531780813971
0.19998277776747
0.19488490752575
0.19003868891526
0.1854094834253
0.18100573420614
0.1767893269433
0.17275628312234
0.16887885494554
0.16514727992083
0.16155694941742
0.15810662443054
0.15479532570818
0.1516163055147
0.14856224242984
0.14562275083276
0.14278716538144
0.14004594371676
0.13739175179114
0.1348200258026
0.13232909485332
0.12991959844654
0.12863218278629
414.62308755233
4069.9021657774
2633.8067184629
1776.6807941938
1270.8385509857
951.37981210747
737.56638271327
587.69330350818
478.87196281776
397.81930027703
336.38416572667
289.25197374812
252.73624756276
224.14456889315
201.45059001589
183.12013392903
168.00590200032
156.74796334517
145.5741194951
135.76528276531
127.00520167071
119.07333808811
111.81966164347
105.14941672589
99.01467714897
93.407541193572
88.345447818787
83.835602954178
79.813030745807
76.070358816096
72.236429876542
67.825963424684
62.323725592717
55.367665669762
46.92458608289
37.447438872169
27.958443186331
18.118718464183
13.217664846908
10.410031095165
8.9674478000903
8.2767742425852
7.9710431585147
7.8617684736922
7.8522212739529
7.9253472023924
8.0460405315688
8.185870140149
8.3204869429452
8.4377634893008
8.5286625558423
8.5863869771778
8.6074857794749
8.5903522994878
8.5377359133913
8.4651765496693
8.3880736860392
8.3154937602471
8.251340784408
8.1956830289404
8.1467735118371
8.1023260280442
8.0599375435341
8.0171460402292
7.972657898551
7.9266305454522
7.8810860988367
7.8396096340064
7.8059627047034
7.7828696162497
7.7704880469922
7.7623968667639
7.7464586660014
7.0918720436801
5.8854564836818
4.7888662952317
4.0440026460572
3.4897885186946
3.0563196296723
2.7442610738126
2.5170539048831
2.311952893564
2.1030609914954
1.8955669069913
1.6959635344401
1.5113170186304
1.342637820035
1.1912771176674
1.0584259096929
0.94434001703256
0.84593132734078
0.76095570294533
0.68776635828852
0.62487494438801
0.5707779708854
0.52377111401676
0.48304639503277
0.44765949494656
0.4167628063086
0.38961007696711
0.36577418567286
0.34476677021291
0.32617111982048
0.30967835850938
0.29497158659415
0.28181749961752
0.2699805795406
0.25928838540683
0.24955542456799
0.24066719641289
0.23253114058977
0.22507283750447
0.21819504264891
0.2118323156486
0.20589635954311
0.20034256887211
0.19510527350551
0.19017095584199
0.18550093887803
0.18109014465998
0.17691149979373
0.17295123500639
0.16919289432599
0.16560350905194
0.1621648277299
0.1588498629799
0.15564857727224
0.15254953724015
0.14955824341287
0.1466761014933
0.14390164481864
0.14122867071213
0.13864734702614
0.13614830706707
0.13372362661639
0.13136762290089
0.12907678882256
0.12685033002362
0.12468976662404
0.12398307589561
476.53181819865
4036.014682509
2607.3855476306
1761.0789404982
1261.1511921272
945.09695949641
733.35805065573
584.80870634294
476.86142038392
396.39930750161
335.36875812094
288.51541706228
252.19164137636
223.73129360617
201.12681292294
182.85788133908
167.78729410658
156.56959316624
145.42100190842
135.63350065455
126.89236744646
118.97781965894
111.74005447511
105.08417461753
98.961856058481
93.364740186227
88.310152961772
83.806240668146
79.790705247374
76.060523878195
72.249057049635
67.875948989834
62.427542881668
55.538591685887
47.166091014875
37.744726785166
28.270184173633
18.360249476414
13.35180957137
10.44701008982
8.9336149505968
8.1943236087184
7.8535419702005
7.7171408808056
7.6874660485318
7.734336213513
7.8307645816655
7.9489916558436
8.064137259884
8.163888179385
8.238838048611
8.2822014430731
8.2921348101889
8.2669292509114
8.2139253263791
8.1474878610041
8.0807486631516
8.0209111118418
7.9709017828992
7.9305400913733
7.8980939559515
7.8709858539638
7.8463836430564
7.8216078941791
7.7955887666306
7.7687149344502
7.7433054630278
7.7223120839446
7.7086038000192
7.7042108435095
7.7083795764515
7.7148137839018
7.7089579336956
11.402695161599
7.5766822832308
5.7921910733017
4.5709849511115
3.7123689867594
3.1213848924724
2.6718695035884
2.3432341501916
2.0826905925142
1.8977427369359
1.7504466542422
1.5973257429941
1.4395246139525
1.2889230265208
1.1533622907339
1.0333576987897
0.92671363115501
0.83191185759184
0.74893713628597
0.67686657481014
0.61455535982473
0.56077860459627
0.51438387350075
0.47387358858223
0.43849207247159
0.40748289901478
0.38020091018309
0.35600404018214
0.33459696771566
0.31560855088467
0.29870176258566
0.28357228006055
0.27002597212532
0.25786626366017
0.2468796728502
0.23693884721446
0.22790191538334
0.21967747984823
0.21216301158116
0.20529583893537
0.19897825298362
0.19314055960289
0.1877155779558
0.18265827743621
0.17792856294206
0.17349347868985
0.16933859345258
0.16543725035559
0.16177404959312
0.15831680261865
0.15504734629806
0.15193862850041
0.14896932889186
0.14612286058154
0.14338644300847
0.14075799163121
0.13823376082007
0.13581055411366
0.13348042172182
0.13123155014836
0.12905291813179
0.12693514518201
0.12487053220496
0.1228552434618
0.12089031484705
0.11897871074935
0.11911559640205
567.42037208746
3995.6295680053
2575.8764541357
1742.3196019755
1249.4573960684
937.48677338531
728.24262757822
581.29044562117
474.4022790314
394.65913586408
334.12318741492
287.61161247339
251.52326456133
223.22390178826
200.72903177697
182.53541384768
167.51823421697
156.34720599618
145.22985235971
135.46881113638
126.75124154452
118.85826218694
111.64034194561
105.00241409382
98.895671428117
93.311189956578
88.266151063812
83.769817007606
79.763133988523
76.048517775899
72.265023724141
67.938356340408
62.557012094582
55.752030857644
47.46874620634
38.119034346893
28.664022955647
18.674413831502
13.532494590096
10.504003875424
8.8989696746965
8.0967552715952
7.7107054414
7.5389980677824
7.4833596924942
7.4989220296632
7.5649646919408
7.6562472056356
7.7473260615095
7.8254124994187
7.8807965653077
7.9073490657736
7.9044930296152
7.8725144648514
7.8218212115602
7.7652644803083
7.7133120655358
7.6714111875025
7.6413845656435
7.6228114916271
7.6135875363928
7.6107490656987
7.6110409427912
7.6113458695135
7.6103728451351
7.6084754824353
7.6081743307125
7.611484869102
7.6206435921179
7.6370426195635
7.6601103160064
7.6835243057346
7.688142450566
6.3610800639072
6.8180740680595
5.1338327099369
4.3986723964897
3.7604294504857
3.2347444485812
2.8247259172119
2.4958647620675
2.1735029872536
1.9099344122924
1.7022821444852
1.5360484233171
1.4080624790358
1.2830318560058
1.1565232906908
1.0390982815538
0.933486945194
0.84013558191368
0.75785032262079
0.68527953548963
0.62174514415739
0.56648917818744
0.51851535277629
0.47693585931312
0.44053837151669
0.4085353613644
0.38040459497472
0.3555277402568
0.33341669406694
0.31368126677375
0.29609184123891
0.28034146790943
0.26615428904957
0.25337096894519
0.24183649692781
0.23139659267343
0.22189631702611
0.21326297279596
0.2053918692559
0.19820428569512
0.19160918532867
0.18555009249446
0.17995076763584
0.17476002547437
0.16993074122178
0.16543869938387
0.16125480368307
0.1573517218264
0.15370721058245
0.15029546626636
0.14709514037774
0.14407633798287
0.1412164358948
0.1384955714121
0.13590200565379
0.13342792891739
0.13106594786093
0.12881145816987
0.1266571055461
0.12459296194366
0.12260653581489
0.12068643886087
0.11882407295063
0.11701419624315
0.11525410010796
0.11354313241446
0.11180282192392
85.557666509326
4270.2878985736
2828.5722292929
1885.2013633003
1336.1929522745
993.84997292344
766.96964212499
609.09346143331
495.02720657793
410.31095877683
346.17768798025
296.98718058573
258.87563455264
229.04570311373
205.39952487801
186.34661908484
170.69129473223
156.08111747335
145.00084017789
135.27125011044
126.58173877955
118.71447472133
111.52023470166
104.90375286868
98.815662478908
93.246376110888
88.212881284446
83.725708486054
79.729583687002
76.033390082267
72.282968662674
68.01133755586
62.709764506524
56.005183431921
47.829724071626
38.569189336055
29.141360164314
19.278468694463
13.891587769238
10.632282926052
8.8526675012449
7.9301286106085
7.4580557989735
7.2195634647931
7.109897238583
7.0741098854779
7.0836960792495
7.1249791631079
7.1722877891718
7.2114035210201
7.2324844545767
7.2329369143183
7.2104979533739
7.1729645040866
7.1321316427115
7.0982260552362
7.0778611282296
7.0744679892682
7.0893399172737
7.1194368175228
7.1609397804897
7.2102358981704
7.2623079733415
7.3129978744564
7.3597565117864
7.4028650377463
7.4442181644592
7.4864433708264
7.5318653132297
7.5819002561392
7.6354558609391
7.6840363570138
7.7056151218715
4.1627035032532
3.4205229070179
3.1632167913513
2.9318142747358
2.7929689202133
2.6351407648756
2.4564862005952
2.2852772642255
2.1122490822224
1.9375958883438
1.7382325258587
1.504653565947
1.3287835640094
1.1854287003653
1.0717150879029
0.97601922721961
0.88279889836977
0.79724279670625
0.72085672947718
0.65389511171203
0.59535589381683
0.54404628451998
0.49889756012047
0.45911650873774
0.42410086312347
0.39329430805803
0.36604244540821
0.34182582818899
0.32037873989209
0.30127047286074
0.28416313683675
0.26870366150255
0.25475356755634
0.24211093469737
0.23062927233816
0.22014894989508
0.2105998645742
0.20187222713852
0.19387729761692
0.18652432922709
0.1797641086869
0.17353171283275
0.167770883576
0.16242688020273
0.15747065902432
0.15287354706136
0.14860693644859
0.14464094969687
0.14094817363855
0.13750850149199
0.13429429294046
0.13128314284056
0.1284503844462
0.12578042427455
0.12326000682928
0.12087901811758
0.11863003584054
0.11650306253625
0.11448961244887
0.11257817733081
0.11075696587778
0.10901462676691
0.1073418371978
0.10573246230316
0.10418273513106
0.10269052440077
0.11470136190792
1275.1946605009
3821.9362060953
2452.9511060268
1669.3388413576
1203.7702981716
907.54884809028
707.95922579154
567.22986124178
464.50689044705
387.62130583975
329.0700624536
283.93868957947
248.80348443571
221.15568195625
199.10390774863
181.21454323806
166.41310744699
155.41894612455
144.42964956477
134.77741183266
126.15702578642
118.35320779024
111.21747521822
104.65406057866
98.61223700896
93.080805865854
88.076218473868
83.611907654322
79.641582807396
75.989904436024
72.319454493586
68.181550280983
63.075250625889
56.618514787833
48.712739394342
39.683656623343
30.35614894894
20.376803138423
14.603426335347
10.949123334068
8.8541923057519
7.7045929146022
7.072235652834
6.7103257838842
6.497076964462
6.3691904150211
6.2940689703401
6.2518839567605
6.2260827079273
6.2054737445536
6.1817462844785
6.1517361999966
6.1227134963726
6.1065696381888
6.1100153387609
6.1411707014037
6.2027503747826
6.2950795659681
6.4159656172263
6.556782771146
6.7093717265477
6.8637383710253
7.0113750862804
7.1479329301172
7.271137664499
7.3816546053005
7.4823090682941
7.5761987451248
7.6661853762772
7.7523020999181
7.8342428634571
7.9039724491076
7.9408880684986
3.6621724643361
2.0364189510036
2.0919493323257
2.0225244230826
1.9983397509837
1.9801976918846
1.964363789091
1.9204101891101
1.8705557624918
1.7896566133388
1.6941779606249
1.572805198257
1.3919104984266
1.2021571613155
1.0607887377965
0.94686916335611
0.85440159285469
0.77927951026387
0.70840012010414
0.64407691947376
0.58679272021337
0.53631888034788
0.4921163402836
0.4533650004749
0.41915808022137
0.3887922299765
0.36173623517279
0.33761372725389
0.31612133413632
0.29690363357958
0.27968462367946
0.26421612804655
0.25024475358181
0.23759455135293
0.22605568352356
0.2155374977381
0.20592733875851
0.19712054957516
0.189005927143
0.18151882211344
0.17460938848596
0.16821445885201
0.1622785983226
0.15675672858912
0.15162972613917
0.14686176781869
0.14242648371379
0.13829118703861
0.13443440216737
0.13083312030743
0.12746459639862
0.12430672916819
0.12134015380641
0.11855200496051
0.11592716546402
0.11345522344454
0.11112555595848
0.10892994045478
0.10685932880551
0.10490143878469
0.10304487377671
0.10127884240837
0.099595091348447
0.097988248892554
0.09645315740546
0.094987186272069
0.1454610422927
2027.9093755969
3647.677213145
2348.3018482727
1608.2830224347
1165.6276801258
882.44821430531
690.83141279335
555.25974491507
456.01690588861
381.54399767692
324.68552192516
280.7400938437
246.42702321884
219.3418779119
197.67283417043
180.04644810431
165.43168744914
154.58434423478
143.70727432725
134.15075796417
125.61603498307
117.89099814257
110.82811487512
104.3309653221
98.34710656119
92.863322601373
87.895289633648
83.45966545256
79.520672478016
75.921891848949
72.347448384018
68.370607769112
63.502286791612
57.351724319846
49.785873801054
41.062225488255
31.900540767422
21.852856623832
15.65440828433
11.516908972219
9.0046835126826
7.5424107086952
6.6852162076455
6.1562451449213
5.8079082928266
5.5639202329816
5.3861045725705
5.2551900868094
5.1598526676228
5.0917981381304
5.0460495500185
5.0248969319259
5.0356065259016
5.0896351765558
5.1907425299704
5.3450435957102
5.5499289298368
5.7990777169849
6.0745699523374
6.3674133588294
6.6650992978738
6.9537587022617
7.2194347000895
7.4523075147512
7.6494933308509
7.8143044880993
7.9528492000872
8.0711935673285
8.1743891880682
8.2644466120951
8.3452023925453
8.4143261604785
8.4537786295178
3.4047847544052
1.5539069215084
1.4755462109259
1.4820034815509
1.4886104666314
1.5095565683234
1.5312751744263
1.5474251562883
1.5528554430667
1.5514615719068
1.5212820751282
1.464321532847
1.3937045355497
1.271110371405
1.1000878764237
0.95946144360248
0.85232760704017
0.76579144685994
0.69409868527602
0.63512779853326
0.58078943398437
0.53187525026192
0.48826886546584
0.44964522080757
0.41556655487381
0.38546621487241
0.35879344964914
0.33501740110766
0.31372016739222
0.29458141648188
0.27734254486056
0.26177767993362
0.24767881508703
0.23489504583129
0.22328964997307
0.21272878409406
0.20308822550563
0.19422510381749
0.1860766249302
0.17856416852196
0.17161271922518
0.16515844577869
0.1591440212373
0.15355255033779
0.14834322021518
0.1434900238587
0.13895611753273
0.13471875992273
0.13075716314937
0.12704428411512
0.1235606831449
0.12028412861455
0.11720346763873
0.11430445954657
0.11157328084715
0.10899805764766
0.1065676591884
0.10427515988668
0.10211053374692
0.10006351689604
0.098123181269009
0.096279428970554
0.094525099938075
0.092854615235552
0.091264125500529
0.089750116999491
0.40840883826098
3132.9628362564
3448.6349702295
2231.1031223343
1539.3470053408
1122.4098391469
853.91141196171
671.27395001902
541.52126385325
446.22002498737
374.49487173443
319.57551477675
276.99524221725
243.63175264237
217.19802662115
195.97305255586
178.65257027401
164.25558420424
153.57646944303
142.83172042536
133.38825845737
124.95482192284
117.32312522148
110.34680822565
103.92871638868
98.014374855917
92.588108448138
87.664452833276
83.263330721439
79.360508617886
75.820922280312
72.35489560956
68.560915688325
63.966189000939
58.17320721129
51.013296741927
42.671825815318
33.75764333494
23.736474918187
17.127414000159
12.454112066021
9.4341235528111
7.5663626492299
6.3985568656815
5.6435682765688
5.1244405252067
4.7474626792381
4.4678369239141
4.2651454829147
4.1295293929403
4.0540251029574
4.0323650297675
4.0758269861665
4.1977925657917
4.3938556947379
4.6604824180889
4.9909406846433
5.3907812305231
5.8483259377068
6.340511608934
6.8358400240439
7.3039806903728
7.7207290705757
8.0716731440126
8.3529224746257
8.5687379985897
8.7309113340845
8.8526409379432
8.945052816169
9.0166488788783
9.0737556407455
9.1246606896508
9.1738565363932
9.2074836732313
3.5075504117147
1.3608189260663
1.1437987202235
1.1388085232888
1.1575082680532
1.1869854092632
1.2197771615967
1.2529372335709
1.2840808420456
1.3003950494786
1.3183815555691
1.3123316968203
1.2724016321502
1.2300082596202
1.1426675588597
1.0147757145327
0.87635452478968
0.77468450401812
0.69455746160374
0.62891983547825
0.57379982788553
0.52777220124854
0.48579037285451
0.44792836901622
0.4140301473709
0.38386977499628
0.35711364945694
0.33333388613584
0.31210930200144
0.29308301681924
0.2759536344266
0.2604495322016
0.24635708241744
0.23352219171443
0.22181859898517
0.21113436002097
0.20137815991178
0.19243928952493
0.184229682989
0.17666928622786
0.16966191527144
0.16316423620001
0.15712959256968
0.15150924382096
0.14627389042137
0.14137747256019
0.13680380708456
0.13252414022551
0.12850960691909
0.12473743157087
0.12118277248715
0.11783806136153
0.11468720663837
0.11171653118982
0.10891323217861
0.10626314655731
0.10375996367435
0.10139258396136
0.099151542411103
0.097027455237097
0.095010548401295
0.0930928941782
0.091267679609036
0.08952846733544
0.087872257023174
0.086295085322141
2.150283254087
4039.6542018598
3228.0476861854
2104.8999821889
1464.5384418959
1075.1743969224
822.55184066212
649.67935153901
526.28033972088
435.29881966629
366.59658217317
313.81870501625
272.75141213566
240.44381815966
214.73697664918
194.00955085555
177.03344235006
162.88281762724
152.39227115885
141.79916382127
132.4852673769
124.16807376767
116.6436446849
109.76700863025
103.44028270957
97.606780964381
92.248014000761
87.376933482951
83.016452667033
79.154396645953
75.678622716742
72.329510389066
68.73373002851
64.440148285848
59.047377186639
52.352420266235
44.468805236884
35.893275173861
26.031001867313
19.084140262843
13.879432177758
10.293431132302
7.9304167835834
6.3750682267137
5.3159911902344
4.5785435558386
4.0526908142144
3.6821413706389
3.4406886254627
3.3110021014222
3.2721932770783
3.3341900050064
3.527513691238
3.8241617286448
4.2075508469399
4.6929821315144
5.2901104319263
5.9728791566126
6.6885884243228
7.3894470500611
8.0333493541967
8.5902415462172
9.0428577813512
9.3866547959003
9.6285662498701
9.7878108780275
9.8871338404532
9.9455934893805
9.9783521445277
9.9962167204535
10.009240986195
10.028252485487
10.058802073429
10.089187466576
4.1907611025264
1.2283311925599
0.98089875944794
0.91744949944789
0.93235886898491
0.96108634181959
0.99724758574187
1.0304378316621
1.0707957420819
1.0952269483279
1.1220098254315
1.1463797199571
1.1475895443612
1.1161821648463
1.0902848530023
1.0252580058481
0.92778138185851
0.80601652879086
0.70948543452713
0.63492962278939
0.5748439649632
0.52514265231954
0.48283691967754
0.4463976156294
0.41332752769984
0.38353365470623
0.35683347808462
0.33295307017883
0.31156932723068
0.29237266377247
0.27514159937414
0.25964229260343
0.24558494435972
0.23276249630334
0.22105189866846