/*--------------------------------*- C++ -*----------------------------------*\
| =========                 |                                                 |
| \\      /  F ield         | OpenFOAM: The Open Source CFD Toolbox           |
|  \\    /   O peration     | Version:  2312                                  |
|   \\  /    A nd           | Website:  www.openfoam.com                      |
|    \\/     M anipulation  |                                                 |
\*---------------------------------------------------------------------------*/
FoamFile
{
    version     2.0;
    format      ascii;
    arch        "LSB;label=32;scalar=64";
    class       volScalarField;
    location    "0.00018";
    object      nut;
}
// * * * * * * * * * * * * * * * * * * * * * * * * * * * * * * * * * * * * * //

dimensions      [0 2 -1 0 0 0 0];

internalField   nonuniform List<scalar> 
109340
(
0.00071887831943887
0.00049299719426874
0.0002660493808866
0.00022233659214823
0.00021537663757425
0.00021978230351733
0.00022797242852502
0.0002423001290072
0.00021118105532403
0.0001878388789173
0.00016936521951351
0.00015429629559724
0.00014174162558932
0.00013110931671799
0.00012198461770288
0.0001140661245348
0.00010712867867592
0.00010100033021827
9.5547331949452e-05
9.0664003323142e-05
8.6265680908872e-05
8.2283690562673e-05
7.8661695520765e-05
7.5353004947574e-05
7.2318565666793e-05
6.9525440234027e-05
6.6945632560428e-05
6.4555168393833e-05
6.2333358727031e-05
6.0262187257732e-05
5.8325770514962e-05
5.6509822158596e-05
5.480096318386e-05
5.3185434141971e-05
5.1645573757544e-05
5.0151228388531e-05
0.00071052524450926
0.0003445484601629
0.0002524078446675
0.0002308992697376
0.00022934959640786
0.00023391798413228
0.00020944651311267
0.0001821964474083
0.0001610235550093
0.00014426136828218
0.0001306906661256
0.00011948629427398
0.00011008186134416
0.00010207771593884
9.5184152756794e-05
8.9186095659304e-05
8.3920542220495e-05
7.9261705773897e-05
7.511096275103e-05
7.1389844821153e-05
6.8035037499043e-05
6.4994817756369e-05
6.2226500026163e-05
5.9694576801485e-05
5.7369308860125e-05
5.5225626014747e-05
5.3242266786236e-05
5.1401082367221e-05
4.968645686988e-05
4.8084830482414e-05
4.6584277511734e-05
4.517409800665e-05
4.3844383456931e-05
4.2585478994843e-05
4.1387089427961e-05
4.023278801414e-05
0.00041730259948949
0.0002940635829803
0.0002534653756492
0.00023791820195857
0.00019033191329585
0.0001586796003269
0.00013572714843409
0.00011842966328696
0.00010498625460059
9.4282807451321e-05
8.5584918660444e-05
7.8390755812948e-05
7.234890800686e-05
6.7207544535743e-05
6.2782193857723e-05
5.8934982897227e-05
5.5560962412568e-05
5.2578891773989e-05
4.9924717816235e-05
4.7546807101448e-05
4.5402906520192e-05
4.3458327442571e-05
4.1684669686893e-05
4.005870789279e-05
3.8561289069172e-05
3.7176558915559e-05
3.5891355896312e-05
3.4694517372856e-05
3.3576603877216e-05
3.2529480746449e-05
3.1546014076375e-05
3.0619916061847e-05
2.9745404893734e-05
2.8917681466851e-05
2.8135044512437e-05
2.7399303489366e-05
0.0002398154312675
0.00024224874813373
0.00015203320060512
0.00011067899066686
8.7066139575794e-05
7.1818554854699e-05
6.1191704220242e-05
5.3379046246475e-05
4.7405421555951e-05
4.2698535032384e-05
3.8900584184603e-05
3.57761614425e-05
3.3164069911375e-05
3.0950371613748e-05
2.9052473492769e-05
2.7409155372946e-05
2.5973978887964e-05
2.4710556631548e-05
2.3586347594671e-05
2.2573488145743e-05
2.1651269171433e-05
2.0805041901868e-05
2.002423072617e-05
1.9301017750984e-05
1.8629388362264e-05
1.8004496276557e-05
1.7421903978682e-05
1.6878400725213e-05
1.6371114312923e-05
1.589750311582e-05
1.5454989971677e-05
1.5039798155543e-05
1.4645981458701e-05
1.4268626650344e-05
1.390937339165e-05
1.3581746060719e-05
0.00014442228965113
4.7212182845902e-05
2.8708488054397e-05
2.0819447338565e-05
1.6472190199736e-05
1.3743201887959e-05
1.1886839868131e-05
1.055292313756e-05
9.5552547934256e-06
8.786608450762e-06
8.1813138847784e-06
7.6977253205662e-06
7.3082623272295e-06
6.9943481952724e-06
6.7433511395101e-06
6.5464293039592e-06
6.3957644179699e-06
6.2782691216541e-06
6.1725050373968e-06
6.0669757922658e-06
5.9606874394424e-06
5.8570814435933e-06
5.759817629398e-06
5.6714129455987e-06
5.593267639656e-06
5.5260830034052e-06
5.4700384223288e-06
5.4250069462423e-06
5.3913588568966e-06
5.3688443909413e-06
5.3564975327307e-06
5.353538795676e-06
5.3591438697262e-06
5.3718267400791e-06
5.3871542770701e-06
5.3969805635367e-06
3.636953815235e-07
5.4284980950629e-07
6.9845846595721e-07
8.1987051213812e-07
9.0665325252266e-07
9.6388115226251e-07
9.9828381779696e-07
1.0161630133795e-06
1.0225336811872e-06
1.0215571500916e-06
1.0156414697436e-06
1.006684586539e-06
9.9599193473658e-07
9.8444492868194e-07
9.7263551360641e-07
9.6098531667484e-07
9.4976913351193e-07
9.3917138792518e-07
9.2938081744442e-07
9.2063058655336e-07
9.1271984727567e-07
9.0551876841994e-07
8.9896164908681e-07
8.9301108535128e-07
8.8763639061204e-07
8.8280619643178e-07
8.7848633482842e-07
8.7463872547848e-07
8.7121789935531e-07
8.6816547568822e-07
8.6540280087907e-07
8.6279555102758e-07
8.6012808317415e-07
8.5689352136288e-07
8.5114472343672e-07
8.3329531782438e-07
4.5048198215624e-05
2.4916752949208e-05
1.4043368056669e-05
9.2234470373658e-06
6.7216459443386e-06
5.040453987763e-06
3.8744853573835e-06
3.0122798849882e-06
2.427784914418e-06
2.1708326280512e-06
2.2289437741635e-06
2.804891147e-06
3.2894369135552e-06
3.8035539464515e-06
4.2215885500828e-06
4.5559156407921e-06
4.8492276281424e-06
5.0840149067028e-06
5.2979203395688e-06
5.5250041094783e-06
5.7182547705161e-06
5.8779550959472e-06
5.8982242164053e-06
5.647417163383e-06
5.4194398493651e-06
5.2113272239428e-06
5.015052149074e-06
4.8412427806434e-06
4.6776385537585e-06
4.5226398566629e-06
4.3897613202647e-06
4.2543332820829e-06
4.1404765512412e-06
4.0226496891861e-06
3.9232701492924e-06
3.8198115772542e-06
3.7322615955544e-06
3.6408120263331e-06
3.5634351989731e-06
3.482107517027e-06
3.4132061346401e-06
3.340523839011e-06
3.2782479464815e-06
3.2136451924687e-06
3.1561490124778e-06
3.0996263528244e-06
3.0453623462563e-06
2.9951350773993e-06
2.9449121871375e-06
2.8991518973043e-06
2.8537303465911e-06
2.8107723252894e-06
2.7695424299174e-06
2.7300017738789e-06
2.6919420387777e-06
2.6553276853719e-06
2.6200509592043e-06
2.5860849195723e-06
2.5533552252739e-06
2.5217793190024e-06
2.4912583842832e-06
2.4617107712988e-06
2.4330725240698e-06
2.4053034312786e-06
2.3783747792418e-06
2.3522644243024e-06
2.3218416350826e-06
3.8776180003697e-05
0.00049072903175392
0.00045988488601026
0.00040957970164465
0.0003732695380812
0.00034622653703871
0.00032519281805522
0.00030831236555832
0.00029457580010549
0.00028345175003547
0.00027462763886495
0.00026783331145298
0.00026275450793469
0.00025902522747769
0.00025626775412588
0.00025414360841164
0.0002523874246478
0.0002506074956772
0.00024909268576656
0.00024756676210937
0.00024600459575788
0.00024441461376282
0.00024284415827605
0.00024139460793319
0.00024024120939797
0.00023964247793759
0.00023990454500533
0.00024125151796389
0.00024358296091298
0.00024620167661556
0.00024774373490216
0.00024634421821241
0.0002399930559424
0.00022712064172367
0.00020724996745573
0.00018161942982076
0.00015368382236048
0.00012235541498448
0.00010446886869517
9.1696756370237e-05
8.3479996831661e-05
7.8747481300166e-05
7.6246443845495e-05
7.4732399185755e-05
7.3878352453031e-05
7.3694305685238e-05
7.3880963851441e-05
7.4239132378834e-05
7.4607494912989e-05
7.492353883618e-05
7.5145781364139e-05
7.5246283682868e-05
7.5203957397543e-05
7.5031668893366e-05
7.4654628050155e-05
7.4171483823405e-05
7.366171442723e-05
7.3178465249489e-05
7.2744316688134e-05
7.2357146528716e-05
7.2007030076573e-05
7.1683637044376e-05
7.1375991455382e-05
7.1073664317884e-05
7.0769722980099e-05
7.0460257059345e-05
7.014833075514e-05
6.984987672068e-05
6.9591966345103e-05
6.9396529896956e-05
6.927184241429e-05
6.9194024998688e-05
6.9102851731477e-05
3.4807833131792e-05
1.9565439967572e-05
1.2190944003676e-05
8.6028685840625e-06
6.3395184134466e-06
4.8375414246131e-06
3.7410878202532e-06
2.9345679644723e-06
2.3509003744612e-06
1.9561937854741e-06
1.7296740904525e-06
1.6795885088752e-06
1.7522184753935e-06
1.8880902790618e-06
2.0952411643281e-06
2.3595334642173e-06
2.675512475471e-06
3.0424703747349e-06
3.4235922899241e-06
3.8127081083402e-06
4.210073612687e-06
4.611175979697e-06
5.0075571699411e-06
5.3995145718747e-06
5.2764445389654e-06
5.0712785170269e-06
4.8846294304172e-06
4.7134228276004e-06
4.5570504635479e-06
4.4124841655424e-06
4.2794035473088e-06
4.1561748767955e-06
4.0414898364553e-06
3.9348646252428e-06
3.8347570123779e-06
3.7413432210806e-06
3.6532832783203e-06
3.5709156031361e-06
3.4930549278739e-06
3.4198203640246e-06
3.3503987382723e-06
3.2846859256683e-06
3.2222566035899e-06
3.1627532744678e-06
3.1062995612268e-06
3.0522544374755e-06
3.0010082591121e-06
2.9518423519836e-06
2.9051589158811e-06
2.8603132401693e-06
2.8174663710018e-06
2.7762371930822e-06
2.7366540172957e-06
2.6986053456415e-06
2.6619754943028e-06
2.6267110061013e-06
2.5927387027003e-06
2.5600024302137e-06
2.5284169655594e-06
2.4979048197013e-06
2.4683815694884e-06
2.4397748554669e-06
2.4120228040019e-06
2.3850833093477e-06
2.3589300370256e-06
2.3335513245423e-06
2.3200444147485e-06
0.00012137793567689
0.00049747081078513
0.00044509997683546
0.00039885133478852
0.00036540766485432
0.00034020704189895
0.00032041933586467
0.00030445128916365
0.00029144626385792
0.00028095126117423
0.0002726797803956
0.00026635763140562
0.0002616577798643
0.00025820811039894
0.00025563772180084
0.0002536256996938
0.0002519279537954
0.00025057165126531
0.00024905801053334
0.00024753317169772
0.00024597254370208
0.00024438432784396
0.00024281549216747
0.00024136692481234
0.00024021326940598
0.0002396124530306
0.0002398703764329
0.00024121181788159
0.0002435387349572
0.00024615771640629
0.00024770803805056
0.00024633049591733
0.00024001584903351
0.00022719236841821
0.00020737496307345
0.00018178863741239
0.00015386476434863
0.00012247504350283
0.00010450702130332
9.1652983520965e-05
8.3359023664186e-05
7.8557573182751e-05
7.6005280220259e-05
7.4455215108459e-05
7.3556924857474e-05
7.3326636042278e-05
7.3470248658687e-05
7.3789661419827e-05
7.412396984553e-05
7.4411304008061e-05
7.4609817705485e-05
7.4690755645455e-05
7.4635313635518e-05
7.4453436734185e-05
7.4077290224922e-05
7.3604209608762e-05
7.3110417056329e-05
7.2645494679556e-05
7.2230636493724e-05
7.1864111269957e-05
7.1536378888233e-05
7.1237102913362e-05
7.0955152794662e-05
7.0679653568407e-05
7.0403550299011e-05
7.0123203816197e-05
6.9842153313781e-05
6.9577521073235e-05
6.9353086370487e-05
6.9188513937252e-05
6.9090523032252e-05
6.9033698067256e-05
6.8958494293378e-05
2.547497841131e-05
1.3284755591846e-05
8.5799110925688e-06
6.370596412134e-06
4.7623264257772e-06
3.7142113876902e-06
2.9551853295056e-06
2.4273604176957e-06
2.0626054824716e-06
1.8307686761521e-06
1.7399782072273e-06
1.7197286023553e-06
1.7784465215329e-06
1.8965304825317e-06
2.0554640287359e-06
2.2470479234401e-06
2.4738202993783e-06
2.7190124322241e-06
2.9560737380745e-06
3.1977741632173e-06
3.4597923496165e-06
3.7298592742645e-06
4.0077226685654e-06
4.3052845098432e-06
4.6171498200968e-06
4.9378762713364e-06
4.8120061516473e-06
4.6407926745691e-06
4.4841154571397e-06
4.3406133652508e-06
4.2081219713012e-06
4.0862230368984e-06
3.9733982404221e-06
3.8688981141817e-06
3.7714219909846e-06
3.6806998060375e-06
3.5955615699574e-06
3.5157165847174e-06
3.4404106499046e-06
3.369527909763e-06
3.3023312859409e-06
3.2388436048555e-06
3.1783035882624e-06
3.120960780077e-06
3.0661304729405e-06
3.0140824165647e-06
2.9642923235859e-06
2.9168986826263e-06
2.871562434201e-06
2.8282073383014e-06
2.7866904185843e-06
2.7468096249643e-06
2.7084785783971e-06
2.671535209536e-06
2.6359825545115e-06
2.6017456863762e-06
2.5687718622667e-06
2.5369795387966e-06
2.5062905224265e-06
2.4766292964898e-06
2.4479180944692e-06
2.4200859655518e-06
2.3930729857812e-06
2.3668392397203e-06
2.3413642792998e-06
2.3166434688052e-06
2.3054349207311e-06
0.00012571838804577
0.00049691109591173
0.00044400358356074
0.0003980309401263
0.00036480295159351
0.00033975785450661
0.00032008535981312
0.00030420398227884
0.00029126301428709
0.00028081318684659
0.00027257149248886
0.0002662672192177
0.00026157637868524
0.00025812946659247
0.00025555803419353
0.00025354343507252
0.00025184340229153
0.00025049608033157
0.00024898367919657
0.00024746149427562
0.00024590488629674
0.00024432155271677
0.00024275775051594
0.00024131341707899
0.00024016203761341
0.00023956041999276
0.00023981409655972
0.00024114950043948
0.00024347354609224
0.00024610064854841
0.00024767767676257
0.00024635657794728
0.00024013051212281
0.0002274237692865
0.0002077336885936
0.0001822533628258
0.00015436057106058
0.00012283442440624
0.00010467127658463
9.1612535136942e-05
8.3125260187725e-05
7.8155431403945e-05
7.5481388736008e-05
7.3846004719587e-05
7.2853996083223e-05
7.2524121356536e-05
7.2577945941957e-05
7.2819970727185e-05
7.308737636867e-05
7.3318473711416e-05
7.3470337287613e-05
7.3512908101549e-05
7.3432404957199e-05
7.3228044287556e-05
7.2851852077475e-05
7.2398014376972e-05
7.1937374798587e-05
7.1512477770839e-05
7.1141025110767e-05
7.0821156269351e-05
7.0543692120377e-05
7.0298170729854e-05
7.007285825274e-05
6.9855659977755e-05
6.9639164815008e-05
6.9420424615357e-05
6.9204815177609e-05
6.9010121195765e-05
6.8854830111775e-05
6.8755321924419e-05
6.8715339766916e-05
6.8705268787897e-05
6.8666605365598e-05
1.3390891243703e-05
7.6644166689383e-06
5.1833143115125e-06
3.8051899927927e-06
3.0470964740512e-06
2.560050224673e-06
2.2522296806564e-06
2.0583858767539e-06
1.9457277642978e-06
1.9158127809179e-06
1.8981996945803e-06
1.9103848779825e-06
1.9548042139012e-06
2.0341131350746e-06
2.1532651047309e-06
2.3136581129292e-06
2.5001898619634e-06
2.7051271844903e-06
2.911535557499e-06
3.1063004683736e-06
3.288465901771e-06
3.4856707938555e-06
3.6934817469132e-06
3.9029075501643e-06
4.1240571803823e-06
4.3685220452064e-06
4.6202340079295e-06
4.5790205115001e-06
4.4233640179575e-06
4.2803313220155e-06
4.1484028373436e-06
4.02642401171e-06
3.9137621394467e-06
3.8090534451315e-06
3.7117155890905e-06
3.6207210794737e-06
3.5359616538433e-06
3.4566015016983e-06
3.3824533192477e-06
3.3124587285436e-06
3.2467427435248e-06
3.18471122243e-06
3.126113177222e-06
3.0706250024917e-06
3.0179156697451e-06
2.9676938291145e-06
2.9197196029789e-06
2.8740235995183e-06
2.8302686383937e-06
2.788512176734e-06
2.7484359208803e-06
2.710015225842e-06
2.6730258916975e-06
2.6373905059179e-06
2.6030638866471e-06
2.5700053858209e-06
2.538168867268e-06
2.5074665402257e-06
2.4778266132345e-06
2.4491673234823e-06
2.4214108334388e-06
2.3944883301803e-06
2.3683464823545e-06
2.3429504653086e-06
2.3182824235165e-06
2.294336837644e-06
2.2868835042864e-06
0.00013195238571574
0.00049566593202082
0.00044241204085465
0.0003968610085481
0.00036393948418821
0.00033911414314511
0.00031960480337148
0.00030384675253872
0.00029099758423492
0.00028061303633479
0.00027241468932075
0.00026613648737179
0.00026145871085124
0.00025801568931136
0.00025544262649035
0.00025342424607198
0.00025172099577587
0.00025038227376352
0.00024887143319526
0.00024735335545915
0.0002458030062614
0.00024422738181087
0.00024267167394214
0.00024123441679672
0.00024008740768288
0.00023948582320153
0.00023973462240052
0.0002410625396802
0.0002433837268353
0.00024602466123583
0.00024764475902399
0.0002464107019777
0.00024032085667754
0.00022779356528296
0.00020830077680927
0.00018298562942352
0.00015514441759596
0.00012341897597135
0.00010496207766157
9.1585134026178e-05
8.2794264572273e-05
7.7562715637747e-05
7.4696605171145e-05
7.2917406642424e-05
7.1799612117148e-05
7.1316375601543e-05
7.1235187614715e-05
7.1362477392993e-05
7.1530967287978e-05
7.1678741943913e-05
7.1761313555084e-05
7.1748037189685e-05
7.1632582178824e-05
7.1397435331622e-05
7.1026783704688e-05
7.0606774495107e-05
7.0199115273741e-05
6.9837806527707e-05
6.95362607112e-05
6.9291859598288e-05
6.9095882127118e-05
6.8936914940309e-05
6.8801921690642e-05
6.8676744716451e-05
6.8553763478961e-05
6.8431388410466e-05
6.8317243523062e-05
6.8225915457201e-05
6.8171215709689e-05
6.8165311320275e-05
6.8208194846919e-05
6.8266780586019e-05
6.8279268189064e-05
5.3664796978495e-06
4.350648408308e-06
3.6344793607379e-06
3.2790897010771e-06
2.9623285268987e-06
2.6931296994687e-06
2.5032751113801e-06
2.3925970142745e-06
2.3387224221397e-06
2.2490261371444e-06
2.2272734859939e-06
2.2319787779074e-06
2.2607829676378e-06
2.31663739663e-06
2.3900508028691e-06
2.4922780286575e-06
2.6343091632661e-06
2.7896852514841e-06
2.9478953488043e-06
3.1140021678316e-06
3.2869529706034e-06
3.4477463170858e-06
3.612984477676e-06
3.7928936579992e-06
3.9746058449479e-06
4.1555921932206e-06
4.352863843255e-06
4.5199058211523e-06
4.3677055655245e-06
4.2268314162592e-06
4.0964938411198e-06
3.9756247464784e-06
3.8635363798058e-06
3.7592737782422e-06
3.6622041116595e-06
3.5714900629889e-06
3.4867384933332e-06
3.4075091302795e-06
3.333374109285e-06
3.2636989088581e-06
3.1981731709053e-06
3.1362972641944e-06
3.0778866921457e-06
3.0224976665355e-06
2.9700615931927e-06
2.9202672264864e-06
2.8730481874114e-06
2.8280809105304e-06
2.7852448432408e-06
2.7445263267273e-06
2.7056543484717e-06
2.6685013418222e-06
2.6328720018927e-06
2.5985866839704e-06
2.5655095778739e-06
2.5336451452413e-06
2.5029508983826e-06
2.4733679849292e-06
2.4448160154306e-06
2.4172027215729e-06
2.3904497571244e-06
2.3644927174211e-06
2.3392832323264e-06
2.3147878144438e-06
2.290988197987e-06
2.2678796329219e-06
2.2668662680265e-06
0.00014037274152255
0.00049387046114203
0.00044036188482328
0.00039536345164962
0.0003628319550156
0.00033828459593536
0.00031898199446652
0.00030338118342575
0.000290650183415
0.00028035059832403
0.00027220920861973
0.00026596539943059
0.00026130476222263
0.0002578666928643
0.00025529133467682
0.00025326793105586
0.00025156047809582
0.00025023006915098
0.00024872124314396
0.00024720869469736
0.00024566683444931
0.00024410165451774
0.00024255692993786
0.00024112936840534
0.0002399885764352
0.00023938758654151
0.00023963052380515
0.00024094905927126
0.00024326676125542
0.0002459262682637
0.00024760432257438
0.00024648624616746
0.00024057831352444
0.0002282918143406
0.00020906599687918
0.00018397671162383
0.00015621073779831
0.00012424003189266
0.00010539702471396
9.1591947307184e-05
8.2387027977295e-05
7.6803706136948e-05
7.3666253541416e-05
7.16794771173e-05
7.040857940527e-05
6.9720795235077e-05
6.9459492925841e-05
6.9435183754246e-05
6.9473866231051e-05
6.9512498750868e-05
6.9505043711939e-05
6.9421113471743e-05
6.9262161236364e-05
6.8995399293908e-05
6.8643044430327e-05
6.827727536201e-05
6.7947676690688e-05
6.7679137974765e-05
6.7479870676451e-05
6.734653074161e-05
6.7270032944332e-05
6.7236723827724e-05
6.7231356225795e-05
6.7237055935507e-05
6.7246124580416e-05
6.7257364742608e-05
6.7279876637936e-05
6.7322167045685e-05
6.7393820570023e-05
6.7503668075516e-05
6.7646343731988e-05
6.7792774301743e-05
6.7861134245029e-05
2.4463812000762e-06
2.9476269074247e-06
3.6258328819417e-06
4.2912999828208e-06
5.0121381227227e-06
4.8937640439455e-06
4.1770398384774e-06
3.5857258159625e-06
3.1709192642874e-06
2.938618382624e-06
2.7921695215014e-06
2.71311142312e-06
2.6825026760588e-06
2.6877317131863e-06
2.7231384221007e-06
2.7842996949823e-06
2.8631655159962e-06
2.9574478108392e-06
3.0680291527748e-06
3.1906694893624e-06
3.3244276623037e-06
3.4750911698664e-06
3.6265554268069e-06
3.777629685555e-06
3.9390159236353e-06
4.1034449898392e-06
4.266775001383e-06
4.4360359999735e-06
4.3131907973582e-06
4.1761129246181e-06
4.0486475260791e-06
3.9298253339714e-06
3.8192556070048e-06
3.7162813343154e-06
3.6199408084822e-06
3.5298720415678e-06
3.4455013825313e-06
3.3665097693366e-06
3.2923528665999e-06
3.2227695376304e-06
3.1572084443045e-06
3.0953554803232e-06
3.0368765541337e-06
2.9815628367263e-06
2.929180514534e-06
2.8794872040492e-06
2.8323731202007e-06
2.7876099193286e-06
2.745093416282e-06
2.7045800417e-06
2.6659648411566e-06
2.6290536778955e-06
2.5936906873571e-06
2.5597666051404e-06
2.5271971960949e-06
2.4959446973306e-06
2.4659048987792e-06
2.4370423979234e-06
2.4092931796285e-06
2.3825415846842e-06
2.3567145862338e-06
2.3317057774992e-06
2.3074125598586e-06
2.2837832651865e-06
2.2608278014124e-06
2.238550521979e-06
2.2483895221388e-06
0.00015207120651664
0.00049175153963258
0.00043793376092105
0.0003935771437784
0.00036150297162037
0.00033728215592394
0.00031822363224463
0.00030281015760203
0.00029022168571507
0.00028002597135507
0.00027195500984008
0.0002657539389607
0.00026111447992674
0.00025768231662624
0.0002551038913192
0.00025307416140015
0.00025136150377983
0.00025003921180241
0.00024853292279923
0.00024702734694653
0.00024549618011762
0.0002439441313718
0.00024241321175616
0.0002409978799961
0.00023986504764348
0.00023926508663313
0.0002395010419363
0.00024080808932541
0.00024312127564121
0.00024580336672961
0.0002475528031255
0.00024657817581756
0.0002408962499769
0.00022891058790378
0.0002100216854352
0.00018522269706438
0.0001575611023868
0.0001253189483996
0.00010600366781739
9.1664313063832e-05
8.1934528394921e-05
7.5906291666608e-05
7.2411530800669e-05
7.0156593348961e-05
6.8688089591729e-05
6.7758984788086e-05
6.7272359799385e-05
6.7059399667783e-05
6.6938899542631e-05
6.6844444638806e-05
6.6728989151979e-05
6.6566288464409e-05
6.6357924787659e-05
6.6071271641236e-05
6.5758504617701e-05
6.5474879984438e-05
6.5255602770858e-05
6.5117698747267e-05
6.506213457997e-05
6.5085755435514e-05
6.5175716697614e-05
6.5315894965678e-05
6.5488401293158e-05
6.5671021695979e-05
6.5854114497288e-05
6.6035962548087e-05
6.6225576415577e-05
6.6424551448451e-05
6.6638756623185e-05
6.6873251878783e-05
6.7128529321116e-05
6.7376482267201e-05
6.7499149715215e-05
9.8451204740647e-07
1.9087975392024e-06
2.2150052583354e-06
2.777251104861e-06
3.3668975716471e-06
4.0304214192204e-06
4.8407215425724e-06
5.6650260625294e-06
4.7919572051244e-06
4.1442160709682e-06
3.7123537400717e-06
3.4490215183065e-06
3.2817484542256e-06
3.183887262149e-06
3.1380212185999e-06
3.1288432217892e-06
3.1432796255754e-06
3.1803085703716e-06
3.2380766043358e-06
3.3125846077242e-06
3.4052132091916e-06
3.5136057840266e-06
3.6384538348089e-06
3.7765957447999e-06
3.907862691718e-06
4.0629705833253e-06
4.2178290968954e-06
4.3758451561792e-06
4.2940086526927e-06
4.1583783610985e-06
4.0322287289331e-06
3.9145912186349e-06
3.8044854988726e-06
3.7015336257944e-06
3.6052270228258e-06
3.514971167789e-06
3.4300661584912e-06
3.3504158541567e-06
3.2755496214535e-06
3.2051392930406e-06
3.1386925553355e-06
3.0760164298946e-06
3.0167236022644e-06
2.9606017645056e-06
2.9073955066442e-06
2.8569913153799e-06
2.8091873381013e-06
2.7637853433343e-06
2.7206492340784e-06
2.679617163295e-06
2.6405700324422e-06
2.6032931417388e-06
2.5676350109828e-06
2.5334685024498e-06
2.500732155669e-06
2.4693693242841e-06
2.439289908204e-06
2.41042109799e-06
2.3826792416589e-06
2.3559829192401e-06
2.3302368327481e-06
2.3053534710077e-06
2.2812693037831e-06
2.2579475104784e-06
2.2353560691598e-06
2.2134645679364e-06
2.1916639684137e-06
6.3950911671946e-05
0.0004907677468859
0.00044859647092284
0.00040113042934591
0.0003670157294493
0.00034153431564223
0.00032165543702895
0.0003056549050253
0.00029258719972436
0.00028195347551727
0.00027346645380598
0.00026688285953589
0.00026191593734346
0.00025822663828361
0.00025546393019364
0.00025331444399056
0.00025153313158054
0.00024980932684361
0.00024830614797288
0.0002468090080615
0.00024529072726442
0.00024375446263444
0.00024224011838049
0.00024083949434151
0.00023971632572784
0.00023911782485936
0.00023934566980866
0.00024063902237923
0.0002429463235927
0.00024565423359538
0.00024748708867985
0.00024668157036193
0.00024126772286616
0.00022964121104385
0.00021115893233962
0.0001867200511946
0.00015920228182475
0.00012740237030401
0.00010724497866011
9.1937429863544e-05
8.1232732850743e-05
7.4367297799839e-05
7.0188303199201e-05
6.742737333323e-05
6.5538856484607e-05
6.4223278140007e-05
6.3317661869261e-05
6.2754805064038e-05
6.2347253462259e-05
6.2015742248098e-05
6.1713255365233e-05
6.1436308155628e-05
6.114929838229e-05
6.0870482394316e-05
6.0665685189334e-05
6.056451782529e-05
6.0581641273168e-05
6.0725772979885e-05
6.0995776023598e-05
6.1368008538902e-05
6.1814475324764e-05
6.232036543571e-05
6.2854201414634e-05
6.3387694781405e-05
6.3899800177345e-05
6.4385422774691e-05
6.4844826279343e-05
6.5285941432694e-05
6.5717198719245e-05
6.6147870584003e-05
6.6583244885339e-05
6.6970536694722e-05
6.718377658704e-05
4.9070747146524e-07
1.2602634370221e-06
1.5015557722906e-06
1.7748652143136e-06
2.1380338844222e-06
2.6182710367299e-06
3.1635975173116e-06
3.8112618549717e-06
4.572379459136e-06
5.2659991794561e-06
5.7713261716158e-06
5.2491532007593e-06
4.7120992929998e-06
4.3420692756455e-06
4.0992920203688e-06
3.9449307961439e-06
3.8386496181081e-06
3.7745426904893e-06
3.7477127761113e-06
3.7495108083095e-06
3.7748903679743e-06
3.8215351635745e-06
3.8861338815426e-06
3.9682184712763e-06
4.0730592463646e-06
4.1926025758084e-06
4.3009267988119e-06
4.2989087541833e-06
4.1606565245488e-06
4.0322539226829e-06
3.9133222460216e-06
3.8026167952746e-06
3.6997045531741e-06
3.6032746859112e-06
3.5126210005621e-06
3.4269818214886e-06
3.3463144741012e-06
3.2701844628004e-06
3.1982981647671e-06
3.1302391435663e-06
3.0658682334383e-06
3.0048670051903e-06
2.9469944321671e-06
2.8919769432158e-06
2.8397153775937e-06
2.7900593905773e-06
2.7428455143621e-06
2.6979048370245e-06
2.6550978424984e-06
2.6143525143254e-06
2.5754974914497e-06
2.5383960602027e-06
2.5028776397685e-06
2.4688670435756e-06
2.4363013901893e-06
2.4051213945625e-06
2.3752671348685e-06
2.3466383932587e-06
2.3191625146553e-06
2.2927518460693e-06
2.2673265494365e-06
2.2428109602378e-06
2.2191426826365e-06
2.1962814957124e-06
2.1741944113022e-06
2.1528532135568e-06
2.3604095459987e-06
0.00023002851498493
0.00048443475077282
0.00042929825811302
0.00038703527391525
0.00035650108186723
0.00033341626175143
0.00031523386056619
0.00030051448621187
0.00028847201687611
0.00027868755166309
0.00027090289455406
0.00026487759231605
0.0002603241232607
0.00025691382356907
0.00025432046300968
0.00025226348210967
0.00025052926855924
0.00024923070311519
0.00024773562620321
0.00024625985002837
0.00024477387496329
0.00024327698675122
0.00024180392992536
0.00024044001460758
0.0002393412239644
0.00023874697731068
0.00023895525715669
0.00024021426005235
0.00024250423118451
0.00024527005598725
0.00024730016978856
0.00024690155954314
0.00024214051699948
0.00023139828685071
0.00021393270428177
0.00019042953483263
0.00016339284401938
0.00013131216213631
0.0001098773542715
9.2998568087758e-05
8.0627996345386e-05
7.2228985306187e-05
6.6786333616633e-05
6.3096635421956e-05
6.039846572659e-05
5.8388231167803e-05
5.688157948909e-05
5.574782716297e-05
5.4874661692273e-05
5.4200009886674e-05
5.3678365248368e-05
5.3282606062982e-05
5.3031393955809e-05
5.2994119944281e-05
5.3174682792543e-05
5.3581676080129e-05
5.4204117587036e-05
5.502257325823e-05
5.6024453697562e-05
5.7153475869042e-05
5.8363521083611e-05
5.9580890448243e-05
6.0747646391491e-05
6.1837087731868e-05
6.2831382959967e-05
6.3729611129019e-05
6.4541247814186e-05
6.5281054218939e-05
6.5963542061949e-05
6.6591268302459e-05
6.7166925666439e-05
6.7648653289928e-05
6.7931830380142e-05
5.6185835651586e-07
9.6208694583209e-07
1.1470551193306e-06
1.3103596860643e-06
1.5474369846576e-06
1.8500969743087e-06
2.2376847582468e-06
2.7004436651481e-06
3.2524317781143e-06
3.9032608213592e-06
4.5674330330039e-06
5.0767630491942e-06
5.404904460433e-06
5.4848189116784e-06
5.2526881741185e-06
4.8811489920051e-06
4.632979214914e-06
4.4593728096867e-06
4.3411848530329e-06
4.2625459080739e-06
4.2230350514413e-06
4.2133303212288e-06
4.2281869807192e-06
4.2638457645626e-06
4.3183360469622e-06
4.3898107280751e-06
4.3293312489885e-06
4.1987840053871e-06
4.0735743649301e-06
3.9539035538609e-06
3.8401353233213e-06
3.7330205681721e-06
3.6321648271143e-06
3.5376725012882e-06
3.4487618385951e-06
3.3655256356924e-06
3.2877724110547e-06
3.2147234529213e-06
3.1454894649765e-06
3.0797493375878e-06
3.0173371607461e-06
2.9579504356515e-06
2.9013550326622e-06
2.8473749337508e-06
2.7960176615594e-06
2.7470659354241e-06
2.7003894222223e-06
2.6558035896548e-06
2.6132421592078e-06
2.5726047614052e-06
2.5337679250903e-06
2.4965910556603e-06
2.4609517443437e-06
2.4267970451545e-06
2.3940406665066e-06
2.3626342014359e-06
2.3325080714407e-06
2.3036078453325e-06
2.2758685083385e-06
2.2491946082931e-06
2.2235094548212e-06
2.1987452067726e-06
2.1748571007537e-06
2.1518202438941e-06
2.1295936122765e-06
2.1081509985241e-06
2.9563763732884e-06
0.00028007443375749
0.00047808213273047
0.0004227624364311
0.00038198158603911
0.00035253751609593
0.00033027418001078
0.00031274437468765
0.00029855945945314
0.00028695276206663
0.00027750821269114
0.00026996664912061
0.00026409214132389
0.00025961110231187
0.00025621677611203
0.00025360782284839
0.00025152578429627
0.00024977267765305
0.0002484900892671
0.00024700590673987
0.0002455575840592
0.00024411243558566
0.00024266498659678
0.00024124374873932
0.00023992612148144
0.00023885855712532
0.00023827071951914
0.00023845543426892
0.00023967041101142
0.00024193310738494
0.00024475820224555
0.00024701637137676
0.00024709980781403
0.00024312743585888
0.00023347226660857
0.00021728539734944
0.0001950179235664
0.00016876300130865
0.00013669624228072
0.00011395860518813
9.5307375088206e-05
8.0900389573164e-05
7.0512997901397e-05
6.3352204884052e-05
5.8394094855568e-05
5.4652597561874e-05
5.1763354421204e-05
4.9529281068882e-05
4.7811454416191e-05
4.6530027146143e-05
4.563229126782e-05
4.5082521238329e-05
4.4876154909944e-05
4.5039912551713e-05
4.5599044006624e-05
4.6522785397286e-05
4.781563941441e-05
4.9432354855507e-05
5.1326567094909e-05
5.3362606932351e-05
5.5479874320049e-05