/*--------------------------------*- C++ -*----------------------------------*\
| =========                 |                                                 |
| \\      /  F ield         | OpenFOAM: The Open Source CFD Toolbox           |
|  \\    /   O peration     | Version:  2312                                  |
|   \\  /    A nd           | Website:  www.openfoam.com                      |
|    \\/     M anipulation  |                                                 |
\*---------------------------------------------------------------------------*/
FoamFile
{
    version     2.0;
    format      ascii;
    arch        "LSB;label=32;scalar=64";
    class       volScalarField;
    location    "0.00018";
    object      omega;
}
// * * * * * * * * * * * * * * * * * * * * * * * * * * * * * * * * * * * * * //

dimensions      [0 0 -1 0 0 0 0];

internalField   nonuniform List<scalar> 
109340
(
9612.5285423777
9900.3825045256
10701.297401669
12429.917868482
15313.879880171
19240.98248391
23813.02669173
28423.639227573
32539.055423769
36482.070099567
40330.256126141
44104.85703989
47812.212669692
51453.521612162
55028.005490638
58534.160915214
61970.305943854
65334.825403426
68626.301425995
71843.560450683
74985.686744986
78052.020998146
81042.160760628
83955.946120757
86793.420197819
89554.757928902
92240.15644316
94849.686761328
97383.096225208
99839.518462802
102217.018931
104511.79391416
106716.53544111
108816.40229504
110777.88265253
112516.50154316
9719.1124004998
10817.532714638
13664.065579188
17963.346525876
22965.847265648
28030.31007104
32868.378070036
37697.937599586
42531.188227071
47308.966436087
52013.58681881
56636.275314716
61170.808677368
65612.144894238
69956.124008901
74199.38057475
78339.312454474
82374.063741886
86302.513816142
90124.290436467
93839.825233049
97450.323372103
100957.65815822
104364.18068363
107672.49838239
110885.23324034
114004.77464557
117033.02876901
119971.11005545
122818.90895906
125574.35853907
128232.05724145
130780.01118214
133190.42292189
135392.7651211
137208.10190458
9961.643758179
13962.457782891
21388.994042277
28991.668449858
36201.424989548
43344.775009332
50545.330427189
57736.647568772
64868.154179325
71893.863530418
78780.12688955
85504.193177291
92050.638457336
98409.048727638
104572.70396187
110537.79084799
116302.91448591
121868.97004421
127239.55854459
132421.76007288
137426.17838537
142265.40469857
146952.54389854
151500.07098619
155919.14060019
160219.25447998
164408.07945609
168491.25187744
172472.13351864
176351.32963079
180125.54070583
183785.30966359
187309.00853001
190641.67953919
193629.26680149
195851.14301782
11922.797614468
28461.134618604
45339.273664891
62195.0228635
78863.276206822
95254.500216791
111259.32298501
126793.30487407
141788.43579513
156193.08856153
169971.11362659
183102.10421818
195580.12606714
207411.2564437
218611.23933026
229203.42675021
239219.12953987
248709.18406845
257767.42677711
266517.68401945
275066.43677745
283487.77927499
291828.70579795
300116.56870654
308365.07004361
316578.53329384
324754.46637369
332885.51632462
340959.22545565
348958.27830304
356862.60768398
364670.88417631
372409.64787978
380001.11716441
386911.45483308
391255.6900826
46687.85312196
146230.01149497
240722.29688637
331296.89300696
416650.90654351
495479.0241193
566977.83585756
630873.27684439
687354.41516945
736899.47598478
780145.59071698
817776.54626763
850461.87676582
878816.53854217
903381.1311392
924655.57414318
943347.41378486
961375.04693186
981861.3164713
1006288.1656289
1034422.7126113
1065330.3743136
1098005.5029144
1131605.8188913
1165470.3978906
1199064.1089365
1231959.1064637
1263804.5497397
1294297.5362526
1323135.894886
1350026.6037231
1374561.4923217
1396202.7469047
1413929.0538842
1425181.9723143
1418596.1543316
4713520.1312566
5536059.4664025
6151136.8100391
6580932.6114892
6861785.5365924
7031108.3779701
7120900.0489788
7155976.6127072
7154212.2752129
7129527.7449752
7089788.1890101
7041069.5492897
6987520.5983961
6931944.1055394
6876237.4266655
6821771.5933453
6769461.8470719
6719941.9354018
6673838.9167694
6631791.4640966
6593163.1352388
6557551.869682
6524770.5322782
6494732.2361988
6467385.5215829
6442697.1166281
6420653.1714594
6401266.4901252
6384587.9657618
6370724.701069
6359881.3831145
6352448.7552153
6349015.2693867
6350914.7917939
6359636.2332053
6374225.3188923
113841.06424709
114013.62319179
113261.94223973
112677.03894971
113161.21109277
115187.92331257
119309.37844328
125727.93400359
133807.22959093
144332.82280574
157074.82974381
169329.21787462
178841.04667954
182337.27049561
181216.66529918
177403.81359988
171975.22394213
165732.05626867
159209.37001254
152697.99790831
146383.72839872
140353.08071808
134690.72219686
129541.58422326
124880.37377082
120626.32082156
116623.40433545
113064.56806053
109689.27462384
106500.8293577
103745.77399303
100952.26124576
98585.345102676
96144.278810367
94064.723712047
91903.434036488
90054.040163904
88128.037595802
86481.616705123
84760.112103628
83286.945551974
81739.912195011
80398.758605872
79009.786878096
77759.763618449
76528.649939655
75343.150442879
74240.00674114
73141.091567772
72134.225004622
71136.615670955
70191.311145419
69280.903855135
68403.91541847
67556.351754085
66737.921351849
65947.203144539
65184.437137746
64448.522480308
63737.660187321
63049.349369384
62381.276619674
61731.481093471
61098.690001671
60482.2114308
59881.914697152
59294.10474257
696159.82886564
8753527.9010522
6487727.6849837
4829405.603621
3733084.6716485
2977005.0068496
2434047.8967939
2030000.2665383
1720089.0824635
1476570.4128076
1281901.822777
1124688.4500038
997113.3389312
893338.710071
808634.91321755
739012.92373362
681129.14360158
626532.31147028
585327.9714036
549187.35805182
516953.24597153
487762.03800896
460954.30021925
436008.31882282
412497.59984736
390078.87245874
368518.16347975
347743.72214085
327870.58004202
309118.01818934
291600.82379654
275139.44351163
259173.14777921
242811.07354102
224867.90090035
203979.45084874
179169.73792979
145493.08181121
124957.16441006
113187.39632023
108178.61170794
106746.24020317
106861.86415502
108034.19750766
109608.80364069
111399.20671581
113246.21754727
115033.57257509
116676.19808445
118110.60305676
119296.16566572
120201.92096007
120790.66247423
121038.37936756
120996.08148454
120719.72607079
120323.80115102
119894.36605112
119475.23259383
119074.16983818
118681.19638479
118283.71898003
117871.20473999
117432.39560897
116959.20692188
116449.56464119
115911.59016486
115364.7322162
114849.78299513
114404.64466715
114041.47498872
113731.6793586
113400.78165975
138182.01396644
136970.89814418
133962.04672749
130088.3284979
125949.48578032
122014.81227769
118601.81428801
116027.60053247
114320.18767538
113555.30426133
113572.82397143
114183.91911939
114919.14771516
115343.92663503
115688.73465744
116094.72244446
116576.56494309
116915.63651544
116556.86712952
115672.34816606
114368.75237544
112734.24389871
110876.23105532
108848.71577325
106763.05282417
104718.66744637
102693.99750626
100666.46893455
98684.843677603
96741.079232221
94871.876313638
93075.46186596
91342.640189796
89679.339669696
88067.067428356
86520.221206616
85023.062064116
83593.556774536
82218.136280751
80905.272483923
79641.765232906
78427.901353938
77256.438197484
76122.984682426
75031.894102716
73974.76969419
72962.43299509
71984.205296127
71049.629808803
70147.128391071
69279.757861266
68439.685767533
67627.031327362
66839.446925378
66075.225149186
65334.411171929
64616.893778239
63922.63215278
63250.459381987
62598.771013101
61965.487641687
61348.665379002
60746.640590095
60158.414933785
59583.724742128
59022.995005658
58496.686994787
2819173.1779037
8259026.1175397
5994359.129743
4506011.3760435
3512868.6003419
2820813.9416475
2319133.9126693
1942741.7839874
1652095.0939859
1422559.3203223
1238472.7501918
1089554.4061636
968614.42109831
870161.09039963
789679.50927403
723353.67621426
668008.03833021
626452.41588948
585266.09012396
549137.03867677
516911.39517209
487726.79818712
460924.57354685
435983.47038838
412477.20540326
390062.52000828
368505.25027577
347733.25367503
327861.30715808
309108.78536558
291590.07500597
275129.26365144
259166.78950151
242814.25161372
224890.02125436
204036.84071879
179280.90227023
145644.57038166
125062.17723702
113230.53090002
108183.16609245
106734.47467883
106838.27253658
108001.77260209
109572.50686108
111357.70982368
113197.34153894
114975.44059329
116608.59078413
118033.27781613
119207.73809322
120099.30265539
120671.25789344
120905.31553362
120854.40099945
120574.47001671
120179.23481075
119751.81381906
119334.4285878
118935.4401559
118545.18219103
118151.07801384
117742.56682743
117308.54757682
116841.09224914
116338.9855506
115811.66741012
115280.03008853
114784.5900609
114358.17309322
114011.24241491
113714.30678626
113393.00705065
196063.36433239
191816.55667567
183388.43872195
172997.07347288
162387.53958231
152596.35837245
144184.51492723
137209.12383298
131621.00047486
127057.32550608
123580.82068726
120603.93719613
118321.23966909
116507.40130496
114936.49684046
113487.55187864
111954.45624076
110230.15482984
108081.20998236
105743.02242394
103401.28131596
101139.37917353
98984.835128208
96950.186210587
95033.803320551
93206.895521837
91492.263953824
89933.200820414
88497.129914853
87168.924995864
85925.974818577
84774.718842139
83674.733216898
82610.39097382
81561.021372704
80515.370904786
79473.186719107
78448.985458393
77446.117941324
76470.721586728
75515.23375153
74583.041649797
73664.527249704
72768.167137139
71885.911266231
71028.386507454
70191.190591412
69381.803385763
68596.702793955
67836.57493815
67099.256202052
66381.422559671
65681.508708413
64996.848100183
64328.557370782
63676.970365555
63043.099894076
62426.996970352
61828.031475546
61244.899525657
60675.869043887
60119.250929434
59573.661769508
59038.376848022
58513.474730802
57999.702386036
57538.312457336
2952560.3002357
8241408.1076724
5978092.5590312
4494150.630283
3504276.6556357
2814521.6516368
2314457.3444326
1939225.7266414
1649439.0839227
1420558.0873262
1236976.895719
1088448.1657502
967804.59797419
869571.93292623
789250.35024641
723037.59184188
667770.44616728
626285.05475139
585134.55328209
549031.00220551
516824.8255947
487656.28646886
460868.49408299
435941.33207125
412449.10825654
390048.67572294
368505.42696314
347746.06183098
327884.26890789
309138.86202175
291624.50330447
275172.22515095
259225.77620098
242903.34088459
225032.2683349
204268.35907265
179638.80360181
146092.67733581
125390.01090978
113391.24636657
108228.04751321
106723.30594951
106789.35261457
107930.10061793
109491.18255271
111268.76696005
113100.36248406
114869.58461959
116493.66955299
117907.06768799
119064.99332464
119931.40067485
120469.84942834
120672.05666654
120595.88250332
120301.87166219
119903.68691563
119478.68553166
119065.02695865
118670.7941567
118286.34954837
117899.20639444
117498.41207834
117072.77497694
116614.78095389
116125.2481496
115617.23870764
115115.1182697
114657.23681353
114269.9033823
113960.23485815
113694.71180617
113399.68156626
385588.18496653
363253.78270351
324897.77616581
283754.03955906
246527.42709386
216498.66643676
193005.65986141
174931.76506366
160897.55490533
149528.50822418
140921.69240267
133773.47166643
127884.44321054
123032.47448903
118956.08143629
115550.46611166
112794.73395958
110197.54811325
107298.12927856
104153.11935493
100964.21659215
97886.788203843
95014.184510523
92357.668432915
89911.672661718
87672.824182559
85618.436191683
83739.885368246
82072.487111168
80596.054419542
79280.374560624
78098.568933361
77032.490789521
76054.052240341
75148.964563275
74296.327256712
73491.805495268
72724.459933871
71997.763365583
71304.853568338
70638.493479834
69982.903221073
69334.371854134
68684.422573581
68032.983889526
67386.593524422
66747.816237872
66122.870023444
65509.50002065
64911.222449149
64323.612422686
63747.347791622
63178.907271377
62617.681966423
62064.150728744
61519.95840275
60987.008273722
60465.933675451
59956.673980473
59458.065374523
58968.582864835
58486.793170637
58011.677267149
57542.840874721
57080.661748101
56626.209506338
56247.807352314
3142217.4392932
8210978.2070042
5953288.9597104
4476833.8433995
3491895.2358807
2805485.5019726
2307744.9867235
1934176.6814944
1645621.7809395
1417679.3262107
1234823.8876744
1086855.7581285
966639.23240469
868724.5705538
788633.41167334
722583.32329031
667429.03778241
626034.58699001
584937.0400856
548871.80533004
516695.0705869
487551.13863652
460785.80094245
435880.65965933
412410.95526241
390033.69779833
368513.51270902
347775.32446724
327930.84313241
309198.10410054
291693.75585108
275255.75342431
259335.48362946
243060.7098185
225273.21693983
204646.88396648
180209.14719048
146806.58562902
125928.00315487
113665.0746418
108310.01212967
106710.73304397
106712.25473034
107817.44491058
109363.00409452
111129.41642846
112950.36625841
114708.32346626
116320.06749535
117716.40043436
118847.6371645
119674.17247217
120161.60129461
120317.37918299
120204.45623568
119891.84621733
119489.7350676
119068.65598575
118662.41727719
118277.71799536
117905.34053606
117532.47204433
117146.98289641
116737.42069939
116297.88787596
115833.25619388
115360.13006989
114906.62428596
114505.25890495
114176.39654988
113923.08599328
113706.79560585
113452.57310831
1321512.8805056
1071662.3014292
802605.03171027
594361.69215274
446358.3369898
346686.23646215
279923.08374506
234402.2574716
202882.69385882
180315.38062412
163755.99585482
151133.66887666
141165.31017017
133039.5843751
126335.18472079
120791.21449396
116162.24902367
111970.01075863
108040.25632355
104329.15277502
100794.09389657
97385.02369528
94098.496186832
91022.170475651
88173.370156986
85551.694918773
83138.051180212
80925.178564807
78935.442199731
77166.815446155
75595.953642329
74195.027298649
72942.887529297
71817.216693072
70801.1835226
69874.31580844
69023.586619144
68240.797514955
67521.025281122
66855.138522953
66235.411382878
65649.503920986
65090.950028587
64551.00881158
64029.29699433
63521.905528222
63030.667377401
62555.317683803
62095.522921837
61647.39346033
61206.454233697
60770.000444956
60333.302517445
59897.396624239
59461.690790711
59028.883225328
58601.270040127
58180.442900314
57766.584405844
57358.592967298
56955.10088062
56554.890455421
56157.211356679
55761.82318619
55369.263855255
54980.769179266
54693.599549453
3394760.3575307
8172213.1612732
5921006.4210642
4454329.1322205
3475854.7991534
2793792.4778491
2299057.8257629
1927636.710159
1640671.3210397
1413941.3643892
1232025.7636451
1084785.5310502
965124.55123758
867623.85293361
787832.5097777
721993.82123414
666985.90882256
625702.5532442
584674.63442299
548659.91190398
516522.17415062
487410.95136779
460675.58038328
435799.98285768
412360.69453164
390014.96082186
368526.31108707
347817.25615205
327996.74248795
309281.82017806
291792.38996497
275374.18434179
259489.48584398
243278.94474142
225603.8366781
205160.35128588
180974.65367671
147780.46332343
126681.08618441
114060.35570772
108434.72777121
106691.77336452
106609.7648876
107661.79094996
109183.65508105
110932.98903771
112738.57973634
114480.74630259
116074.39886914
117444.89589771
118535.83004359
119303.78279577
119720.99429429
119818.55798378
119661.43685128
119329.42282488
118926.04805219
118513.7895053
118122.65943896
117757.21784097
117408.80166489
117063.79201537
116707.2045476
116328.82768814
115926.21604994
115507.27513903
115090.95809878
114706.82574291
114381.46308993
114130.25489061
113951.1635247
113799.94200508
113599.01391952
4661045.9405282
2570434.6313796
1597478.7757454
1065174.8816001
740675.71480706
537134.41609082
404391.517624
317119.10933007
259092.8862652
219831.49392064
192210.0327667
172306.17898897
157195.77185812
145280.31605843
135711.34831817
127931.7876054
121289.18826996
115424.51879652
110207.69991726
105544.84326268
101357.81872734
97565.605521675
94091.139207633
90837.44791003
87766.027822547
84901.777071962
82254.506689292
79805.244515478
77575.276271247
75574.716628032
73778.159412889
72159.003508174
70701.204609106
69388.251443475
68199.919808554
67123.919627757
66144.77548574
65253.777621302
64441.152020338
63701.681593501
63023.476749713
62396.891352437
61812.054131832
61262.595302793
60743.461203299
60251.519244775
59786.824075135
59347.345985708
58932.074454582
58536.556573542
58158.061165876
57792.136302835
57435.27152949
57084.446796087
56737.338593933
56394.675643957
56058.025955706
55727.612383513
55402.315853651
55080.486733983
54759.672166338
54438.74883655
54117.12425307
53794.615861574
53471.703935845
53149.888546706
52978.185153939
3731280.7932867
8125301.5923258
5881885.9927998
4426882.0725943
3456285.2705414
2779532.6758902
2288461.8041768
1919653.0599384
1634620.3691242
1409366.1882657
1228597.2875124
1082247.7875518
963268.15974319
866275.59357143
786852.09676323
721272.42401118
666443.47562349
625290.74887554
584348.54716222
548396.00882612
516306.36975203
487235.58758536
460537.36566926
435698.49699721
412297.13290745
389990.83096338
368541.82491319
347869.61369228
328079.6128523
309387.61656407
291917.61439075
275524.61248912
259684.45793814
243553.74457856
226018.30905212
205801.09754932
181923.21912853
149015.0856673
127660.62598332
114592.07541445
108610.7389525
106667.77540862
106484.49709792
107459.58017493
108946.97664434
110670.51923986
112452.79211998
114171.12654699
115737.27853975
117069.0031416
118101.54275466
118789.09352144
119119.05103888
119151.85328351
118947.67463211
118599.14034442
118201.52964674
117808.38904146
117447.49253886
117119.50549886
116816.32243058
116522.15849906
116219.67848506
115901.13375653
115564.12083331
115217.15121355
114882.7196757
114588.42706689
114357.52973618
114201.75339173
114111.09990751
114038.66819973
113899.8414499
6461150.0495747
3571921.0277841
2317751.9288578
1583822.3590192
1116882.6406103
802582.18983137
583534.06457476
440574.27706751
345103.0213996
280060.15813496
235030.94050097
203292.1002204
180238.70342614
162885.25971996
149358.93619806
138431.84199056
129322.14583497
121590.29141762
114926.22956979
109102.75742905
103975.61450066
99452.454217229
95437.536785634
91845.390837689
88569.498412036
85545.755302043
82721.864077498
80082.462131299
77646.954404215
75433.555952538
73431.310856527
71614.493634711
69958.024318515
68450.268067149
67079.408702051
65831.71856257
64691.556014686
63652.687331746
62704.551294435
61839.523207458
61047.452705409
60321.554427073
59651.062331584
59028.548712478
58447.755330653
57906.616129098
57402.652181986
56933.409175897
56496.518793063
56088.410062858
55705.828124426
55343.877980118
54998.640885779
54666.387712407
54344.886694768
54033.200949424
53731.189318711
53439.400392437
53157.430228804
52883.643988319
52615.482723401
52350.513870704
52086.824099888
51823.257936746
51559.61580263
51296.566504481
51012.757217905
1337864.6882818
8701239.8953886
6305382.2591917
4699721.6500736
3640696.6924263
2909956.4155203
2384444.8245902
1992748.8530992
1691896.3202911
1455243.4866216
1265887.2163745
1112799.7545522
988392.06647121
886994.86867876
804025.54177537
735633.61073792
678603.62434034
624801.00100933
583959.92753965
548080.68462693
516047.79435097
487024.8258772
460370.62501141
435575.37419475
412219.16020478
389959.95453594
368558.50099551
347930.72070459
328177.77403649
309513.86006846
292067.6349148
275704.98053857
259917.7534465
243881.24055497
226510.54133337
206561.5829114
183046.12113784
151319.5449069
129531.35841692
115646.94533915
108979.06780399
106634.62093181
106257.81589002
107071.69963619
108483.6937955
110148.68892329
111875.51577435
113536.79062244
115037.75051636
116283.43481193
117194.99176916
117730.65686167
117916.28267418
117839.78411113
117564.51147717
117201.0660716
116831.78235986
116498.60746296
116226.73534854
116012.18594228
115845.67761624
115696.30325112
115542.12462957
115369.36150897
115176.51841415
114977.34609357
114800.49514499
114671.60014142
114610.26124085
114620.47363279
114675.33422392
114737.56574538
114694.58124148
5626081.865357
2714133.2570119
2106626.2404132
1651851.786317
1306325.8447693
1006443.0793868
776485.05764496
599611.71685027
461958.39630106
367944.58607264
301184.24676941
251004.94609533
215006.67145632
188465.61579778
168477.02247066
152959.99319234
140405.94694396
129985.9886412
121239.42534291
113809.25389151
107396.90991347
101813.12287377
96924.76480804
92615.406067326
88790.772891581
85378.5381914
82301.731814284
79514.557701732
77001.967838919
74715.154014976
72614.295213137
70662.829301247
68857.813886188
67191.9172979
65657.317513403
64239.89427509
62934.869452389
61731.143742773
60618.894058316
59587.884718156
58633.996962518
57750.214080361
56929.487801111
56164.652551524
55452.972599584
54792.219684517
54179.841945327
53612.324538621
53085.868016795
52597.536383679
52143.049405522
51718.935787378
51321.080345776
50946.617235568
50593.086440633
50259.009125636
49943.871196241
49646.789582466
49366.791557464
49101.771534418
48849.146103507
48606.248453215
48370.858727424
48141.58044384
47917.856190543
47699.733430086
48593.839193015
5543637.3207226
7889475.7240229
5713862.2383626
4313143.9273496
3376624.5304691
2721969.3584318
2245822.2746757
1887529.17835
1610232.0615956
1390881.3060597
1214715.9335277
1071961.9092606
955745.02016684
860816.5916646
782885.91249163
718354.24502418
664246.17133163
623594.70234582
582999.10989105
547297.54694944
515402.33125509
486495.69928811
459948.99773778
435260.58151953
412015.26162342
389872.18566847
368588.74553287
348072.20702093
328413.16796159
309821.36865486
292435.92738095
276148.72262105
260490.27815541
244679.92204437
227701.22762615
208390.24082174
185786.28171341
155178.33844873
132906.60693616
117734.32171274
109815.35827609
106668.99004522
105893.45558973
106349.97791894
107570.23189749
109083.46232851
110652.14832066
112145.78710815
113460.06546413
114492.11462375
115162.71510646
115454.86706722
115454.50797455
115231.0793086
114904.59402642
114613.26241866
114433.19531626
114409.0360228
114520.80642967
114722.37989812
114958.30960808
115200.33217677
115418.0532542
115592.97490062
115724.61597944
115827.70512057
115930.65398791
116055.09187575
116218.5221812
116416.19535923
116638.40179857
116838.57792753
116894.95224936
5201773.5239654
2116668.3113472
1823756.5894362
1543487.9786002
1291386.8356493
1070321.0260773
877855.46281775
711146.17716152
575125.28781658
458502.95310668
370925.62679802
309804.72852809
257527.30850586
219179.00675917
191234.40534713
170172.9156706
153855.72655174
140773.20954618
129938.384179
120814.73255029
113049.25006006
106377.26690051
100594.13838249
95534.63687063
91067.251988752
87096.452864469
83554.760393375
80407.500557478
77602.936835484
75091.268548941
72831.97078523
70778.106689063
68896.860548211
67161.262458979
65546.910486474
64042.744304858
62634.304633163
61318.042581868
60087.922483126
58939.47922905
57868.70315904
56868.586040038
55932.002976451
55053.068962232
54230.603841969
53461.318829253
52742.942385166
52071.315656511
51443.530288108
50856.284754742
50306.342240906
49790.585000439
49306.189804536
48851.22354884
48423.223166541
48020.64719777
47642.088496544
47286.668464638
46953.208594429
46639.5563985
46343.348598441
46062.109468807
45793.855290048
45537.376632922
45291.813822803
45057.107549965
49202.47760298
7240608.678166
7629812.8782014
5554660.5987435
4210367.9371342
3306393.2969012
2671865.5823368
2208933.1374331
1859796.1891146
1589170.6446886
1374892.6346247
1202687.5281921
1063038.42453
949216.04285942
856079.2983204
779442.9680846
715817.06268426
662328.99852614
622094.6062304
581796.91418715
546310.79092158
514582.69498522
485817.91628006
459403.05377562
434846.21298383
411737.84077408
389738.70893067
368602.58564928
348226.821577
328688.67488851
310191.4099401
292885.2366375
276692.27416223
261189.30826248
245646.83914257
229126.64361419
210556.16190209
189025.67814066
159864.35515144
137369.25139165
120839.64081017
111305.81150711
106964.82823269
105524.60202263
105425.81677391
106269.57458429
107487.62894513
108745.86620952
109914.87606848
110892.96491095
111583.22312255
111929.17812521
111972.53735329
111803.20388322
111617.14653089
111574.19930134
111784.42160703
112273.20539472
112983.93882961
113835.70446695
114769.78700596
115719.17062086
116597.11856244
117332.76642295
117899.60289724
118315.513804
118622.99779261
118874.0561261
119108.45357685
119348.1120386
119590.41693944
119840.45907353
120077.04322378
120193.34492649
5186572.918184
1813902.2177562
1555726.6048448
1383909.6254046
1210725.7132836
1046150.7423185
893625.58104445
755442.92932506
631901.50831172
526267.1202961
433362.1152226
355938.78633205
302474.12835185
256471.02999235
217799.33243758
189355.87450729
168132.96154252
151805.87526247
138819.5990749
128136.30780222
119134.85152512
111445.86193905
104815.27841737
99055.136045928
94010.299599698
89564.497161736
85625.853000832
82119.590466684
78987.26659836
76184.146952421
73665.301229792
71391.284678628
69330.200544567
67453.273857454
65734.491999892
64155.075468855
62693.668216495
61333.150324875
60062.354549406
58866.892089859
57738.064308703
56667.02666253
55651.998975965
54695.935838921
53796.302332003
52951.664057012
52157.835059776
51411.891764755
50710.568781506
50049.491484879
49425.825191399
48836.35584642
48279.809633433
47754.306904845
47257.9303869
46789.024866694
46345.980163076
45927.958246812
45533.516450254
45161.01888986
44808.418862297
44473.564200543
44154.834459498
43851.132811541
43561.913728557
43286.710854702
69181.340941041
8678844.4401636
7360963.1519093
5375633.4734223
4091609.6831092
3224660.9949969
2613507.9803486
2165994.2090418
1827533.6024761
1564670.5207847
1356284.0450187
1188675.9536794
1052633.3580781
941594.74672155
850541.33962967
775408.74948268
712833.19599529
660062.26270874
620303.470451
580350.49718411
545113.65201454
513579.42651904
484980.12164868
458719.96054054
434318.16956728
411371.60136054
389543.05474725
368582.63464587
348377.10956583
328988.05691577
310609.67909849
293402.8973949
277322.45882268
261996.68461313
246754.1562245
230737.90864708
212973.1308406
192621.26585505
165183.19311636
142886.92047845
125208.19510281
113861.0160886
107888.39909427
105285.05863882
104470.22266839
104573.73074729
105231.58703035
105953.15503402
106589.64293564
107063.35203448
107329.06749854
107432.43198131
107515.10590997
107729.31834946
108234.41715606
109111.49350087
110350.39472068
111979.61009841
113887.10233385
115872.85111931
117754.2522821
119372.62908795
120647.07034637
121559.86255541
122146.67067076
122487.04203497
122683.48908265
122819.23120196
122945.81549887
123087.71630536
123246.57162389
123432.5873772
123645.93166307
123802.81238331
5828401.1023773
1658486.3116932
1367977.2584655
1234702.2425502
1114424.1307173
992080.21446288
872789.10119906
759432.72540485
655134.9262906
559495.96262811
475877.21474229
400296.10681202
334546.48427467
288357.34378817
249839.02322187
213749.22222181
185939.57770183
165007.69488016
148866.3077075
136071.18137807
125650.56723518
116937.52149591
109497.87964181
103060.59102259
97449.805623728
92532.573284537
88196.637045046
84347.989089158
80911.261189785
77827.841584378
75051.818984344
72544.393237312
70270.888499147
68202.079735694
66315.911278878
64594.144571733
63016.675440195
61564.383910028
60220.66021375
58968.598762809
57796.246806519
56695.109948286
55655.167260842
54671.177911182
53738.233022151
52850.921761144
52008.703463673
51210.84175067
50455.228207059
49739.290195152
49059.667727203
48415.875611927
47805.776079502
47227.524201792
46679.360484513
46159.088312455
45665.803177306
45197.608162982
44752.977416513
44330.423300034
43928.225100693
43544.829894749
43178.864101609
42829.198669165
42495.669080128
42177.948728607
165183.27148437
9180713.4571407
7049683.4156613
5177866.8819148
3960214.6339254
3133623.579718
2548187.1511608
2117800.3370311
1791276.4238656
1537121.6290703
1335350.687778
1172902.3299942
1040904.368889
932985.16985541
844264.53770776
770814.490223
709413.31821589
657443.70708842
618213.10613969
578647.28759205
543690.91162817
512375.97521042
483964.96043856
457881.6182577
433657.47133212
410896.57750687
389264.3550012
368507.59284859
348501.9370496
329292.2424045
311059.72178699
293975.13001195
278025.79863877
262894.96880204
247975.08428336
232488.55780578
215560.4282648
196431.54575932
170886.05461289
149263.41651948
130918.36363855
117892.93689533
110025.38831028
105798.23801483
103697.57068691
102777.47556598
102450.75650316
102365.11125525
102370.88983376
102441.92227338
102613.45099274
103058.16798141
103974.02154596
105311.42618322
107029.06571689
109304.79124652
112152.56435029
115292.01007122
118285.72605632
120876.40434606
122934.42400797
124457.64774325
125479.98490047
126063.65612909
126303.98047649
126326.14578961
126257.44484475
126177.15080852
126136.42866342
126151.43736889
126225.5548013
126374.88637459
126598.85159339
126799.93720329
7379661.097089
1542960.2119149
1256038.1137557
1114378.7170661
1022362.3415418
929283.48842659
836424.31185593
744192.07581938
656763.63806603
572770.76326969
497780.36541702
430145.56249136
367283.01719705
311421.30565915
272625.60004725
239503.44669616
207870.31467164
181532.7801208
161321.56049566
145636.66273638
133214.91355153
123133.68266534
114722.46107334
107540.63446627
101323.48409533
95900.732495082
91141.266127477
86932.244966227
83183.404825937
79825.766851105
76805.65899904
74076.815523657
71600.022266868
69344.483874337
67285.545089127
65403.261380705
63679.998168932
62099.066140732
60643.310250482
59296.347603396
58045.572633145
56879.442561032
55786.384045189
54759.535458696
53793.944097555
52883.138757065
52023.038981282
51207.551756092
50430.241488137
49687.725033496
48976.69505003
48296.165691124
47647.301228945
47028.765166509
46439.861641837
45880.255503924
45347.634016125
44840.409337452
44356.545892063
43894.558772079
43453.558259581
43031.701471335
42627.826482104
42241.04497613
41870.667914068
41513.473057011
556277.93870134
9151609.3937557
6720243.6596626
4965213.7435254
3818310.6291263
3034893.4706333
2477049.0463392
2065146.0892066