/*--------------------------------*- C++ -*----------------------------------*\
| =========                 |                                                 |
| \\      /  F ield         | OpenFOAM: The Open Source CFD Toolbox           |
|  \\    /   O peration     | Version:  2312                                  |
|   \\  /    A nd           | Website:  www.openfoam.com                      |
|    \\/     M anipulation  |                                                 |
\*---------------------------------------------------------------------------*/
FoamFile
{
    version     2.0;
    format      ascii;
    arch        "LSB;label=32;scalar=64";
    class       volScalarField;
    location    "0.00018";
    object      p;
}
// * * * * * * * * * * * * * * * * * * * * * * * * * * * * * * * * * * * * * //

dimensions      [1 -1 -2 0 0 0 0];

internalField   nonuniform List<scalar> 
109340
(
389521.44061935
387961.48476159
385012.1695545
381474.03751618
377604.5396056
373613.96530982
369584.18966421
365565.33179941
361644.48747093
357812.491156
354015.04076589
350248.51551889
346516.48102285
342821.38043695
339164.93351853
335548.66144075
331971.99496846
328432.57042369
324925.6252596
321444.50800722
317979.23410317
314518.931864
311051.22961067
307561.34988147
304029.54754868
300430.17928792
296728.99847071
292879.88953314
288819.51454533
284458.90617172
279669.99370718
274262.75445357
267950.09754751
260306.91177596
250745.01242623
238535.84306369
389754.86638913
387752.83956871
384447.10810306
380677.51097792
376705.38272741
372710.80531562
368745.94691959
364821.57643076
360933.93287918
357086.39069731
353273.3658137
349495.79944782
345756.14671668
342055.93992733
338396.18139791
334776.4691187
331196.84067896
327654.38603117
324143.54328027
320656.5587516
317183.2290467
313712.44214775
310231.46249952
306724.68562472
303171.23324843
299543.61130818
295805.07915745
291905.82111767
287776.87407525
283320.57894644
278394.53509324
272783.18987879
266148.10519857
257966.54001882
247384.76575568
233490.64508009
390627.74365178
388306.73820656
384664.52786298
380803.81428334
376863.27690752
372922.93845881
368975.54316232
365033.2788579
361121.04303329
357246.54890756
353408.84425259
349608.5105664
345847.38497475
342126.98289819
338448.84718372
334814.06037862
331222.34623858
327670.89293838
324153.66503706
320662.53349625
317186.51161182
313714.29625587
310233.00726796
306726.83481801
303174.76283559
299549.04385066
295812.80870572
291916.13189316
287789.89232764
283335.79167319
278409.80162806
272790.16357693
266110.23137153
257759.02722603
246642.89508262
231017.86652286
391846.03007871
389042.25510751
385210.13051299
381235.66459202
377214.80336838
373188.83835329
369172.21965058
365179.18208808
361226.1465241
357318.82217231
353456.78148446
349639.4960014
345867.13009049
342139.98655541
338458.29812326
334822.02374787
331230.41402758
327680.26079086
324164.61131235
320675.57074124
317200.69630741
313729.23498374
310248.64993553
306743.12451543
303192.19192087
299567.99915871
295833.76374892
291939.58278038
287816.16801754
283364.31923384
278438.05413811
272809.99814398
266076.59351087
257513.92684044
245629.90926349
227078.08288349
393775.16938138
390117.29577585
385716.67896521
381466.78895049
377334.585714
373267.95218154
369237.8613462
365246.25425645
361296.78886982
357389.90537045
353527.24548509
349709.27191047
345936.33301904
342208.87083584
338527.36468183
334892.2478319
331303.76974241
327759.93682232
324247.0430788
320763.90074531
317292.79480336
313824.51102943
310347.06791522
306844.13447402
303296.36399265
299675.62949713
295945.2640415
292055.34538018
287936.25776384
283487.6792675
278558.01350817
272927.23383923
266144.03602424
257375.52623692
244628.61526849
221614.71349431
397399.93267205
390689.28625175
385836.66485997
381497.12239001
377359.71124056
373301.71352031
369282.02457704
365293.26986836
361341.7406792
357428.98371806
353557.73982299
349728.88919249
345942.98712054
342200.54146951
338502.11349191
334848.40496861
331240.39740224
327684.38014191
324195.61493359
320707.09360817
317228.39816234
313753.08745719
310269.30674266
306761.39734147
303208.82911431
299583.83669763
295849.47528973
291955.80369975
287833.25434642
283381.04312646
278437.45855706
272809.21621735
266001.09391295
257133.32438836
243916.0959367
216053.28021143
223830.53662031
209148.54195686
196874.2443387
186959.49219114
178059.0354048
168535.50110982
158009.52866442
146313.57649315
133611.0944018
120241.86857044
106149.96712793
93025.126779598
80535.1983373
69065.451346824
58978.891592013
50217.714447769
42749.861797646
36450.059926882
31158.63481378
26757.724048501
23108.630945509
20055.887191815
17496.229300005
15350.481073945
13547.195789084
12020.432765914
10687.662148229
9580.7613074359
8614.246288843
7755.0597207655
7055.3031272061
6391.9956594784
5857.2450341695
5343.2140186712
4925.2974484789
4520.6577623722
4189.0433628922
3865.5734402438
3599.4668910172
3337.5351979404
3121.316166726
2907.4235175391
2728.911776215
2554.0979590997
2403.4305654821
2261.0550436705
2130.9694610491
2013.3681504412
1901.3517631856
1801.5740105834
1706.8644156933
1619.9904827558
1539.3724205776
1464.5354221643
1394.8140913157
1329.7907644637
1269.0073110927
1212.154551949
1158.918424473
1109.0122477482
1062.1586750493
1018.1173788024
976.67376143552
937.63707874195
900.82638658519
866.07318757141
833.23462665226
812.06148974631
2714.4226647232
5689.1344955938
5942.3006006316
5969.9531635018
5994.6430632639
6022.2588137303
6051.8352100716
6082.2729474328
6112.3992999543
6141.4699286849
6168.8500575634
6194.1049206779
6216.9868472607
6237.4022360465
6255.3834707356
6271.0782840664
6286.235676045
6297.8685424306
6307.9417170981
6316.9769387755
6325.2631162825
6332.9916362921
6340.2394880499
6346.9775689928
6353.0637775491
6358.2584247987
6362.2640168062
6364.7775010879
6365.6251458435
6364.8215422231
6362.108377665
6357.9128310012
6351.9161104942
6344.4600226971
6335.4201524189
6324.4254169644
6305.2177726702
6290.3683901082
6275.0319644802
6259.5120831506
6243.9382890526
6229.0370658979
6214.3899125052
6202.9027785688
6190.4716513666
6178.2987711528
6166.5900884562
6155.5173312364
6145.067218245
6135.1925587723
6125.799723276
6116.7575848661
6108.2763711168
6100.1734795446
6092.0976019406
6084.4638715887
6077.1940086503
6070.4079740296
6064.0197253588
6057.8660033046
6051.9052576135
6046.1704904547
6040.5951974964
6035.252405124
6030.0890337563
6025.2373148446
6020.4356877658
6016.0719070933
6011.6920369653
6008.0064223811
6003.3861471915
6000.9073014838
216281.36829967
200779.88532274
189125.41557393
179934.19763672
171108.34453433
161048.65551478
150076.7057482
138235.79172576
125734.46548071
112802.22419377
99796.284835292
87023.813049311
75599.04785414
65088.958003979
55704.180470968
47573.225335856
40599.207669356
34701.857489779
29756.159340081
25621.290619383
22168.435216182
19283.031291708
16862.640950496
14822.588909122
13097.104304206
11631.437919692
10377.966936179
9300.4541655603
8373.7450443745
7566.9271019719
6865.3104202527
6251.1017606106
5710.5503795726
5234.0034590712
4810.4388171288
4434.5936734845
4097.8999397041
3797.2889561079
3526.3632620297
3282.7544165727
3062.2331600467
2862.5722180183
2681.1182058584
2515.5480957068
2364.7108545175
2226.1013382966
2099.405264278
1982.3594135394
1874.985945122
1775.5052188359
1683.6924721929
1598.4375651813
1519.3359434317
1445.8197570137
1377.3198274937
1313.4126708964
1253.6820744221
1197.8014665381
1145.4465471942
1096.342916204
1050.2311775425
1006.879777849
966.07240978508
927.61581627173
891.3342351787
857.07292308634
824.6213899549
851.32707243745
3990.483210239
5827.6768082598
5950.0326845537
5974.2664237182
5999.4355197426
6027.4592508928
6057.2555918756
6087.7075484242
6117.7425042847
6146.6195972532
6173.7268240831
6198.646585146
6221.1430848029
6241.1318663017
6258.6580120125
6273.8749977621
6285.484923368
6297.0532375629
6307.0515104198
6315.983823344
6324.1405681217
6331.718025774
6338.7979663091
6345.3538225791
6351.244409037
6356.2302316757
6360.0140957056
6362.3018950752
6362.9471265446
6361.9682213968
6359.1584831037
6354.9689824053
6349.1150703447
6341.9160327778
6333.2526052765
6322.7154244795
6304.1134678505
6289.5924965287
6274.5274871043
6259.2115342326
6243.7240576195
6228.8976613836
6214.1532691217
6202.6521000605
6190.003411781
6177.8399277806
6166.144098474
6155.0752841113
6144.6198869619
6134.7378261659
6125.3421317742
6116.3406947907
6107.9468772023
6099.9118050143
6091.8748379712
6084.2553845587
6076.9962766869
6070.2106099329
6063.8198444001
6057.6831161838
6051.7486562349
6046.038215373
6040.4887989294
6035.1528777782
6029.9753476841
6025.0897992123
6020.2939228154
6015.9951014711
6011.7241816062
6008.0960927581
6003.517775043
6001.0205558044
209758.04586678
191482.70803915
180913.16317365
170537.39311647
161198.57502214
151457.72705338
140729.74098616
129453.41988825
117823.92824392
105659.60411344
94374.581625308
83148.456460104
72544.269208481
62826.452608067
54075.629103445
46369.014208943
39720.534441531
34073.497016131
29303.170797948
25283.286905461
21912.42389977
19089.715583691
16714.155688035
14707.337453319
13007.535965377
11559.563609665
10320.641916392
9255.9132892179
8335.8054995202
7537.3435797451
6839.4167790039
6229.9991914414
5692.650939031
5218.7682860254
4797.6852409521
4423.4064557063
4088.6619376066
3789.1574261215
3519.4211732771
3276.7681428254
3056.9320336669
2858.1296126302
2676.8919101415
2512.2302024991
2361.3654982317
2223.5280883246
2096.7423063462
1980.2672174416
1872.8689652776
1773.6741955167
1681.9972139803
1596.9714760401
1518.0660696179
1444.6018717687
1376.1913159605
1312.3622699502
1252.7289878486
1196.9292761584
1144.6459009405
1095.6044286727
1049.5506524855
1006.251317413
965.49015443094
927.07492991645
890.83473435231
856.61631589728
824.20195596837
854.82583052556
4042.1280450864
5831.8334814403
5949.7502368826
5973.8893213214
5999.0649125109
6027.07441074
6056.8481690276
6087.2694279089
6117.2772033078
6146.1325609083
6173.2258735913
6198.1407532902
6220.6408112791
6240.6389541686
6258.1752626546
6273.3935117544
6285.0336564609
6296.5951150374
6306.5888078708
6315.5172622428
6323.6700454315
6331.2416279921
6338.3143721278
6344.8612101688
6350.7407751711
6355.7148275854
6359.4877185306
6361.7695376351
6362.4221566344
6361.3315140582
6358.5340462085
6354.3066925011
6348.4184031349
6341.1782144027
6332.473271267
6321.9092294805
6303.3644194559
6288.8228329688
6273.8054489202
6258.5927704422
6243.0513812166
6228.5773412393
6213.6561892006
6202.0653293953
6189.2966548261
6177.2183060637
6165.6401401995
6154.6472375697
6144.2451770179
6134.404428548
6125.056383767
6116.0992404371
6107.6401162759
6099.6484040522
6091.6281590445
6084.0289110249
6076.8511374196
6070.1486032891
6063.8093748991
6057.7216412957
6051.8365899727
6046.1635012032
6040.6478667645
6035.3128043386
6030.091352702
6025.1454927594
6020.3445428493
6016.0491537028
6011.7583429685
6008.1207960918
6003.6179513516
6001.1087719035
197522.73473293
176228.44646765
166008.87137789
155864.04786783
145855.25418708
136489.57698483
126731.61840906
116912.67893682
106899.54110906
96661.003529664
87410.484645266
77853.980799407
68543.682676091
59838.036920829
51835.849123598
44741.530268379
38546.29533998
33203.861220085
28657.024695685
24815.694417293
21568.894658081
18820.266859333
16507.499239855
14549.69715936
12882.060018155
11459.497151753
10241.567641373
9192.0764596872
8282.9959959242
7493.8376523013
6804.3927943742
6199.5460846527
5667.7476350261
5197.0434700642
4779.7807275322
4407.7272288681
4075.7615601178
3777.604449311
3509.9244408206
3268.2333592055
3049.8343833686
2851.6028703324
2671.4542728005
2507.2175751955
2357.0287623498
2219.5910377918
2093.2415536257
1977.1807473449
1870.0068283445
1771.1880952622
1679.6720393309
1594.9328258279
1516.2050730352
1442.9330189671
1374.6569240427
1310.942877584
1251.4230907227
1195.7260137095
1143.5454514114
1094.5968411772
1048.6232997463
1005.391271362
964.69072445127
926.33326525812
890.14840679988
855.98113010882
823.70168155213
860.86236299361
4114.7472689187
5836.8001887797
5949.2411200679
5973.3281955475
5998.5280083909
6026.5214357502
6056.2535039811
6086.6303632776
6116.6008079563
6145.4303778121
6172.5076157592
6197.4170708176
6219.9219084597
6239.9335145075
6257.4884928727
6272.7244571714
6284.4490891832
6296.0195733952
6306.0287463294
6314.9662270442
6323.119663104
6330.6869226137
6337.7520431831
6344.288541793
6350.1596215048
6355.1263190108
6358.8898452854
6361.1613198407
6361.7995177829
6360.6582118264
6357.838881634
6353.5772764569
6347.6689629589
6340.3913182821
6331.6377674751
6321.0095037352
6302.4126688772
6287.8663031081
6272.8427809672
6257.6169699507
6242.1303502762
6227.6006260811
6212.8290516422
6201.1333097339
6188.2867799086
6176.2426844703
6164.6913649763
6153.7266163887
6143.3496434854
6133.5434554582
6124.2525395062
6115.391092904
6107.0483752574
6099.0822490014
6091.099983434
6083.5838968889
6076.5023297713
6069.8981724939
6063.6235694597
6057.6123148843
6051.7834634219
6046.1421979033
6040.6455837931
6035.2792987905
6030.034400133
6025.1142611921
6020.3406344095
6016.0404207795
6011.7314456474
6008.0882527641
6003.7081296658
6001.0762892429
171063.3016929
151332.4357246
139999.3898979
131106.750327
123273.60892468
116011.99281359
109173.3309859
102098.45942512
94922.834435981
87551.21275623
79711.90869518
71701.959969512
63801.51710766
56240.270899122
49196.108403439
42778.676643278
37090.250558043
32136.785649383
27868.406570341
24218.541119808
21117.438319032
18489.570244461
16246.618996955
14342.976755453
12722.180083294
11334.58118119
10138.927457157
9108.7258165739
8216.0525877868
7438.2026190582
6758.3862644405
6161.2517625274
5635.2652102449
5169.5520784725
4756.4442191432
4388.0481210417
4058.6910718873
3763.1507682283
3497.4285644249
3257.4324066282
3040.4524518736
2843.3962830369
2664.303509034
2500.7782892426
2351.4497144573
2214.5038160787
2088.8064732723
1973.0996891141
1866.4131686265
1767.9298640302
1676.7375601535
1592.2636534847
1513.7588886482
1440.7521283678
1372.6708455184
1309.1244801269
1249.7387860833
1194.1759425853
1142.1259919668
1093.2935163619
1047.4205365669
1004.2768252109
963.65845148234
925.37675579909
889.25924029907
855.15474429223
822.93299364717
869.6314601958
4208.9374937724
5842.5016341335
5948.5602815351
5972.6019018741
5997.8278572528
6025.7985577186
6055.4824798471
6085.7996788661
6115.7256629615
6144.5198156175
6171.5754456456
6196.4784025942
6218.9908226632
6239.0199205997
6256.5998465097
6271.8630459466
6283.6661713713
6295.2495004834
6305.2762538241
6314.2275412416
6322.3906244654
6329.9640033423
6337.0329119427
6343.5704686542
6349.434760998
6354.3880376593
6358.1363971089
6360.3926799244
6361.0131172192
6359.8396711213
6356.9934302667
6352.687541715
6346.7340727983
6339.385879812
6330.5402643483
6319.8372648407
6301.23473794
6286.6713014889
6271.6438930239
6256.4523198443
6240.9651591394
6226.5491236087
6211.7566488993
6199.9156876843
6187.0625821992
6175.0618408597
6163.5820607962
6152.6771482227
6142.3449129378
6132.5791056763
6123.3370690839
6114.5185438881
6106.2102367662
6098.2771276107
6090.3771604651
6082.9902163595
6076.0359464614
6069.5590752418
6063.3712537616
6057.4578061835
6051.7037409563
6046.0896621055
6040.5802263811
6035.2201352686
6030.0246000844
6025.1374325672
6020.3776193174
6016.0677267411
6011.7438331628
6008.1023650258
6003.8031273676
6000.9298786963
103571.73784917
99974.088269006
98726.257785121
98606.611493992
97003.944712084
94962.621558176
91662.249373706
87825.680693737
82970.881128924
77572.858935334
71522.162863465
65183.763353807
58707.107139522
52306.706568409
46209.978445472
40554.7501428
35436.903639538
30900.181044266
26942.224542237
23522.778490783
20587.593453271
18077.004544481
15937.908911227
14101.1475216
12528.353658672
11178.85055765
10017.115551973
9008.5995465276
8133.2831537706
7370.4213789196
6702.5174595031
6114.3451130264
5595.613854069
5136.5708935593
4728.0590749957
4363.9646062827
4038.0739945711
3745.6373676058
3482.0884660999
3244.3399005062
3028.9800575802
2833.443056931
2655.4255554182
2493.037086941
2344.5562030585
2208.3509345813
2083.296205649
1968.1486948391
1862.0352128642
1763.9339359901
1673.1506003812
1588.9739162104
1510.7840692915
1438.0456129653
1370.2072638828
1306.8794764405
1247.6783336561
1192.2888462075
1140.3845902791
1091.6839363219
1045.9367101465
1002.9100861197
962.39406880272
924.20014698924
888.16335873883
854.14146530959
821.99087534295
882.2311463095
4320.3653978635
5848.9405479139
5947.7682606893
5971.7280016982
5996.9713219011
6024.9101734365
6054.5345534031
6084.781201031
6114.6496544042
6143.4011732967
6170.43159774
6195.3276910635
6217.8500318351
6237.9021480728
6255.51302474
6270.8120210351
6282.7027704933
6294.3096759625
6304.3638166563
6313.3359472566
6321.5096910109
6329.084559457
6336.1490941898
6342.6797647074
6348.5368526438
6353.4813542165
6357.2174323477
6359.4566815528
6360.0527129352
6358.834430549
6355.9374830321
6351.5669218301
6345.5634053714
6338.1526064851
6329.2306198791
6318.3880372127
6299.8008079828
6285.2020965774
6270.1465118156
6254.9401645118
6239.4787013741
6225.0811441598
6210.4224713884
6198.4152841044
6185.5759316098
6173.6008558103
6162.165083143
6151.3073641681
6141.0093274602
6131.2839134969
6122.0410425809
6113.2097452021
6104.9827011016
6097.1324482903
6089.3966826116
6082.2155541698
6075.4391705751
6069.1398548162
6063.0959151993
6057.3188280581
6051.6225360446
6046.0114709534
6040.5118792324
6035.2010230177
6030.0388317298
6025.1562455097
6020.3939810816
6016.0473664078
6011.6872272252
6008.0186031262
6003.8464412132
6000.721368957
10106.778815149
46061.19111173
60027.658502301
68531.968702146
73737.301975698
76086.733584908
76068.717504004
74607.376556513
72069.846205884
68640.385228302
64527.496598411
59840.257155664
54777.81743378
49538.961750073
44335.405315059
39355.063742853
34717.994176219
30513.064784164
26771.230364847
23488.830421441
20637.395279641
18175.814562432
16054.717210405
14235.954369994
12666.002811445
11308.742626273
10138.59333577
9124.6638927124
8241.4345927355
7468.1484462983
6791.9155535326
6197.4605551254
5671.5459366724
5205.3883784334
4791.2719400689
4422.0639981456
4091.0676479423
3794.2359708438
3526.9229005384
3285.5964655904
3066.8246976156
2868.3670829359
2687.6873767939
2522.8476058267
2372.0150764464
2233.823653148
2106.9260918411
1990.1037247622
1882.4011606199
1782.8941549373
1690.8518509447
1605.4937337861
1526.2068719588
1452.438400537
1383.7096537174
1319.5818268905
1259.6237147853
1203.5066689156
1150.9327893101
1101.6293764232
1055.3264684419
1011.7817191144
970.78560366223
932.15261312568
895.70869343365
861.29046637863
828.73574229253
815.0937089118
3335.2051149106
5760.4709595797
5939.2768759394
5964.8533479856
5989.3681322506
6016.6913695794
6045.9255684747
6076.0418415499
6106.0040355683
6135.0438075412
6162.5168497519
6187.9627554626
6211.1005211459
6231.7962796922
6250.0440539071
6265.9513882734
6281.5597449793
6293.1944553512
6303.283618368
6312.28319025
6320.4719688726
6328.0494680603
6335.1074430011
6341.6257894718
6347.4664514119
6352.3912425878
6356.1051590865
6358.3190707137
6358.8851655702
6357.621704805
6354.66891208
6350.2252860873
6344.1549671994
6336.670791456
6327.7791419375
6317.0667959725
6297.5909485452
6282.9342797935
6267.8184786283
6252.5508800399
6237.0466277746
6222.5897181867
6207.9693449863
6195.5314340041
6182.657516951
6170.6907657668
6159.3103572688
6148.5413203862
6138.2698232185
6128.4372690848
6119.0638424381
6110.4662995807
6102.3746605831
6094.7014210091
6087.3342352298
6080.5398105318
6074.1979818739
6068.1317798201
6062.2743639637
6056.5444283667
6050.9497859728
6045.4646723644
6040.1377448038
6034.9764058576
6029.9481616407
6025.1519766226
6020.4668294539
6016.1409144462
6011.8190125821
6008.1622886735
6004.2641953788
6000.6460720386
7949.6548491092
14677.70406355
25086.915555075
33699.184191125
40463.367701353
45375.340131169
48645.55697953
50587.060568809
50757.954293777
50029.475155083
48509.940966857
46233.499024742
43388.036095398
40141.577520509
36676.899826413
33174.0810361
29770.103428508
26563.444714176
23622.78815104
20976.112856764
18624.154767727
16553.610022366
14741.006323704
13158.193660426
11779.475033174
10580.14279436
9532.2254312343
8612.3740666005
7808.0520701783
7101.6380663411
6479.5204075761
5927.544245546
5438.6201802554
5003.686369949
4615.6735415242
4267.5637459147
3955.3914204829
3674.4591997175
3420.8917165468
3190.9868397744
2982.3807657518
2792.6221563222
2619.6055275885
2461.3162828566
2316.3123739001
2183.253711221
2060.8895578687
1948.1117639879
1843.9473386851
1747.6651816296
1658.4438540563
1575.6372384711
1498.6093890839
1426.8856031973
1360.0191202316
1297.5780731503
1239.1940870983
1184.5012095081
1133.2203676233
1085.0826208556
1039.8439872092
997.27836159627
957.18078529282
919.37431329949
883.692592823
849.98450433868
817.90452847808
976.356134491
4732.9174378391
5871.8859755005
5944.8767194398
5968.2625576847
5993.5059597712
6021.2961704006
6050.6752067231
6080.6355975525
6110.2741128886
6138.8580514825
6165.7935393637
6190.6683929361
6213.2348763431
6233.3829817199
6251.1266509265
6266.5786275302
6278.7659230301
6290.4743618586
6300.6605460611
6309.7357082853
6317.9646212469
6325.5443096903
6332.5732764834
6339.0424658277
6344.8234373012
6349.6828479674
6353.3277423207
6355.4655303931
6355.9492055044
6354.5707764789
6351.4757154476
6346.8482684936
6340.610773901
6332.9150353448
6323.8304989156
6313.0273736428
6293.5445607769
6278.8928376846
6263.6821699718
6248.3059009581
6232.7744628969
6218.2319771844
6203.7805469177
6190.9490167293
6178.0993531926
6166.1628594075
6154.8824077335
6144.1316343029
6133.927602424
6124.2132792677
6115.1675691847
6106.8390809633
6099.0346406745
6091.7376216688
6084.9012640514
6078.6704088819
6072.6339166762
6066.8167220575
6061.2224468417
6055.6865640374
6050.2634322459
6044.9808606413
6039.8289189163
6034.8025503584
6029.8872452941
6025.153626548
6020.5180395238
6016.2012144383
6011.9746573386
6008.2654523087
6004.6362594709
6000.3922051038
7689.8877113439
8436.2219097671
12982.56094655
18440.466617457
23499.965200408
27789.20565306
31257.699071557
33851.915671834
35575.33394384
36397.516785885
36381.938097401
35816.602909699
34552.416603377
32797.386800253
30667.106099987
28321.871102785
25898.455391703
23500.675041126
21208.123339256
19073.154746075
17122.704377087
15365.16886712
13796.158905855
12403.888589856
11172.422343356
10086.542436035
9129.114979701
8284.3675304412
7538.7798234949
6877.6863077339
6290.8933914379
5769.8978078863
5305.6137301964
4891.3486785261
4519.2072999145
4185.0429709298
3884.4087559601
3613.2326524104
3367.4824520953
3144.3591381042
2941.6505412558
2756.9050905933
2588.0637225353
2433.3086362475
2291.4931003568
2161.1460660585
2041.1501661018
1930.3764895434
1828.011640025
1733.2781699545
1645.430848949
1563.8040378872
1487.8167930539
1417.0448213248
1351.017064146
1289.3382470231
1231.6226076856
1177.5515451111
1126.8475099095
1079.2238524053
1034.4411258206
992.28176591831
952.556954051
915.10258192914
879.7392883989
846.31880125415
814.15238723431
1111.63043975
5014.2111539544
5884.0911231131
5942.0561466897
5965.2559646969
5990.4877521476
6018.1391156208
6047.3093120251
6077.0296317794
6106.4754585863
6134.9179784116
6161.7757910778
6186.6366961619
6209.2447122599
6229.4790272875
6247.3425050951
6262.9318556768
6275.3387660891
6287.1460291341
6297.462314362
6306.6374890917
6314.9208280512
6322.5056229533
6329.4929109459
6335.8826047409
6341.5593984981
6346.3029538711
6349.8293679209
6351.8456147434
6352.211531895
6350.6832615271
6347.4123834186
6342.5580833634
6336.1181199268
6328.1739165556
6318.8586746565
6307.9396595851
6288.2884543197
6273.6625422372
6258.4085880135
6242.9972083411
6227.522332402
6212.9072067068
6198.6438877248
6185.5479839289
6172.7060913123
6160.7713723255
6149.5480340648
6138.9543357045
6128.9611708649
6119.5395151437
6110.8506829899
6102.9466621809
6095.505344517
6088.7632656121
6082.3984124731
6076.5228162337
6070.913447277
6065.4284974098
6060.0356882367
6054.7733276247
6049.6329574124
6044.5525858295
6039.5456201661
6034.6081247316
6029.7735362686
6025.0075349445
6020.4754114592
6016.0678845441
6011.9094918886
6008.1403816487
6004.6978536217
5999.5435245736
7008.4936149909
6996.447038904
8444.5177559904
11608.175931943
15088.347745251
18364.300877578
21270.482726478
23696.420681372
25644.891193461
26938.388138047
27659.470503543
27794.620337189
27432.93937007
26614.322291877
25415.329068581
23936.109103513
22283.585573945
20555.780678738
18826.541661723
17155.397128099
15581.448023229
14125.654762476
12796.140039889
11594.133618186
10514.465752621
9548.3565004345
8686.7184029165
7918.8539753759
7234.3232326177
6623.746045994
6078.6236886302
5591.1029389009
5153.6991803398
4760.9056484538
4407.8469593565
4089.7561901158
3802.5160849252
3541.6389859508
3304.9301506727
3089.8657472811
2893.8852716977
2714.8370233876
2550.6471450786
2400.2790180367
2262.1300751197
2135.0248196847
2017.7039630775
1909.2934751478
1809.0670531505
1716.1671078072
1629.9379414135
1549.6854700189
1474.9684654314
1405.3299486826
1340.3183305726
1279.5391535262
1222.6179387524
1169.280008431
1119.2346763064
1072.2165188846
1027.9833088538
986.31590233177
947.03679477247
909.98315048567
874.99780149263
841.91553490541
810.22272309941
1368.2440090038
5274.7022993046
5894.2779339271
5938.9759711381
5961.8164653611
5986.9585715529
6014.434097119
6043.3624840531
6072.8326730209
6102.0635188704
6130.3455406134
6157.1144009381
6181.9595551615
6204.6158232278
6224.9496508459
6242.9506669487
6258.7002375151
6271.3151707752
6283.2608625298
6293.728436892
6303.0177738846
6311.3643477498
6318.9577948225
6325.8988726916
6332.1917084426
6337.7310221975
6342.3122600232
6345.6669129924
6347.5072689746
6347.7174222267
6345.9994924592
6342.5218538903
6337.4101849902
6330.7445737875
6322.5408778134
6312.9884609478
6301.9683108705
6282.3630868201
6267.8645367157
6252.6314075616
6237.1907721943
6221.7200966639
6207.0102367995
6192.7974009887
6179.5222646481
6166.7291539954
6154.9109869277
6143.842717898
6133.4750144672
6123.7729515332
6114.7766676273
6106.4592455711
6098.8396725197
6092.0843980676
6085.7830329186
6079.9159072576
6074.3860200778
6069.021025819
6063.890665451
6058.8526951798
6053.8340760431
6048.828883573
6043.8739578909
6038.9935257158
6034.1850642472
6029.4103238232
6024.788238811
6020.2145243878
6016.0277207386
6012.0002882476
6008.1849015773
6004.8731470365
5998.9177310255
6365.5556085509
6365.5233347746
6594.7115055998
8179.8893102819
10492.182093667
12893.369803526
15184.040690876
17219.604333817
19000.022605081
20333.019310757
21293.206028786
21817.849326531
21922.801271488
21639.934160265
21062.695864922
20174.220203621
19087.046272193
17874.887756455
16602.097233919
15320.805636779
14073.635952163
12889.313347832
11783.169871367
10762.94305555
9830.4133623751
8983.496657611
8217.8697941824
7528.0161523321
6907.141496029
6348.4666490371
5845.7836353367
5393.175997102
4985.3162334128
4617.2794175199
4284.3811467756
3982.6527588553
3709.1985443516
3460.7183979208
3234.530756372
3028.3523138668
2839.4852627731
2666.564015851
2508.1461348926
2362.5626706657
2228.6587251064
2104.9398531943
1990.7062170539
1885.1114259693
1787.2740748137
1696.494301941
1612.0013650008
1533.4021018522
1460.1744722379
1391.8440673222
1328.0028569742
1268.2228983023
1212.2476462926
1159.7591009525
1110.4723020812
1064.1373778539
1020.5149901636
979.40902818155
940.64611808353
904.0466535325
869.46945919375
836.76266924857
807.34774135534
1884.8154033092
5488.4346255562
5903.122183896
5935.6231654143
5958.0205445505
5982.9928341125
6010.2559939991
6038.9119882606
6068.1368756081
6097.1389043719
6125.2451463262
6151.9128627491
6176.7361392208
6199.4406963313
6219.8785221718
6238.0239169967
6253.9445666769
6266.7495853432
6278.8657685036
6289.4960702629
6298.9066828765
6307.3180703252
6314.915509428
6321.7995565484
6327.9789296151
6333.3569860742
6337.743732024
6340.8861137597
6342.5142111475
6342.5253066441
6340.5963531523
6336.8890416547
6331.5050527896
6324.5885153586
6316.1428896576
6306.3572840213
6295.2414995287
6275.7104947822
6261.324981271
6246.108365544
6230.6572973012
6215.1962801751
6200.4518748647
6186.2696362988
6173.0318163727
6160.3618000355
6148.5141323623
6137.8243462635
6127.8514332283
6118.6128064032
6110.0879073369
6102.2029744539
6095.5437769268
6089.1090714716
6083.0483627231
6077.2591711878
6072.1097789144
6067.1074308411
6062.2134567487
6057.4096344469
6052.6591600493
6047.9318258191
6043.2267837036
6038.5191525354
6033.811918722
6029.1751399715
6024.5813953564
6020.2790145694
6016.1797297635
6012.2524527594
6008.3099717623
6004.9286919134
5998.4599591343
5844.5922418854
5822.7495399036
5783.6505489527
6372.827699439
7808.3537724547
9540.2680420022
11311.2103579
12946.694761888
14474.877731677
15698.081734688
16720.217088083
17379.905497255
17673.984994665
17703.256414304
17490.994999782
17010.502254626
16331.289001508
15504.682376855
14582.569967232
13618.738978079
12647.561191513
11697.549601024
10789.522318212
9934.7688333007
9139.6555119596
8406.4770719994
7734.3922285355
7121.393117769
6564.0118998888
6057.8671995495
5598.6472719613
5182.1551583509
4804.2946605094
4461.3031736593
4149.6323305844
3866.1412713784
3607.9446817855
3372.2242996944
3156.6290856256
2959.5271129881
2778.9702562594
2613.3230137201
2461.0749226749
2320.5371885184
2190.881835861
2071.2326138782
1960.5507628243
1858.053914689
1762.8143446318
1674.2107803877
1591.8611317254
1515.1216017196
1443.5675475111
1376.6812162219
1314.0735424916
1255.5007300068
1200.5860131093
1149.0564815349
1100.6160386714
1055.0139939742
1012.0897866031
971.62844016876
933.45629221854
897.40735295112
863.31135319144
831.0006980502
806.41607714158
2637.2575363593
5647.5876610054
5906.3010436183
5931.9217095737
5953.8990944668
5978.6749875191
6005.6943347795