/*--------------------------------*- C++ -*----------------------------------*\
| =========                 |                                                 |
| \\      /  F ield         | OpenFOAM: The Open Source CFD Toolbox           |
|  \\    /   O peration     | Version:  2312                                  |
|   \\  /    A nd           | Website:  www.openfoam.com                      |
|    \\/     M anipulation  |                                                 |
\*---------------------------------------------------------------------------*/
FoamFile
{
    version     2.0;
    format      ascii;
    arch        "LSB;label=32;scalar=64";
    class       volScalarField;
    location    "0.00018";
    object      pTsat;
}
// * * * * * * * * * * * * * * * * * * * * * * * * * * * * * * * * * * * * * //

dimensions      [1 -1 -2 0 0 0 0];

internalField   nonuniform List<scalar> 
109340
(
389521.44059564
387961.484792
385012.16956413
381474.0375193
377604.53960683
373613.96530956
369584.18965669
365565.33179729
361644.48747446
357812.49116025
354015.04076676
350248.51552516
346516.48101732
342821.38043873
339164.93351982
335548.66144323
331971.99496568
328432.57042248
324925.62525982
321444.5080064
317979.23410279
314518.9318585
311051.22961009
307561.34987875
304029.54755024
300430.17928763
296728.99846913
292879.88953319
288819.51454867
284458.90616952
279669.99370588
274262.75445535
267950.09754753
260306.91177501
250745.01242646
238535.84306395
389754.86639446
387752.8395845
384447.10810198
380677.51098075
376705.38272968
372710.80531176
368745.94691727
364821.57642845
360933.93287837
357086.3906932
353273.36581414
349495.79944764
345756.14671601
342055.93992611
338396.18139809
334776.46912096
331196.84067533
327654.38602852
324143.54328436
320656.55875122
317183.22905018
313712.44214627
310231.46249827
306724.68562511
303171.23324524
299543.61131041
295805.07915765
291905.82111807
287776.87407691
283320.57894377
278394.53509472
272783.18987872
266148.10519787
257966.5400188
247384.76575603
233490.64507993
390627.74365469
388306.73821473
384664.52786782
380803.8142856
376863.27690841
372922.93846148
368975.54316039
365033.27885656
361121.0430354
357246.54890825
353408.84425361
349608.51057157
345847.38497623
342126.98289833
338448.84718359
334814.06038316
331222.34623951
327670.89293929
324153.66503856
320662.53349896
317186.51161363
313714.29625229
310233.00726692
306726.83481868
303174.76283563
299549.04385164
295812.8087066
291916.13189359
287789.8923298
283335.79167334
278409.80162939
272790.16357646
266110.23137149
257759.0272265
246642.89508266
231017.86652287
391846.03007492
389042.25510644
385210.13051419
381235.66459301
377214.80336685
373188.8383485
369172.21964799
365179.18209017
361226.14652199
357318.8221684
353456.78148769
349639.49600228
345867.13009141
342139.98655328
338458.29812626
334822.0237423
331230.41402482
327680.26079448
324164.61131315
320675.57073721
317200.69630826
313729.23498331
310248.64993937
306743.12451919
303192.19191842
299567.99915862
295833.76375036
291939.58278036
287816.16802102
283364.31923185
278438.05413619
272809.99814324
266076.59351183
257513.92684124
245629.90926344
227078.08288349
393775.16938046
390117.29577597
385716.67896717
381466.78895402
377334.58571356
373267.95217988
369237.86134478
365246.25425902
361296.78886979
357389.90536676
353527.24548571
349709.27190502
345936.33301981
342208.87083255
338527.3646807
334892.24783177
331303.76973942
327759.93682556
324247.04307809
320763.90074408
317292.79480298
313824.51103106
310347.06791582
306844.13447344
303296.36399364
299675.62949837
295945.26404008
292055.34538173
287936.25776357
283487.67926942
278558.01350778
272927.23384016
266144.03602504
257375.52623717
244628.61526911
221614.71349417
397399.93266728
390689.28625158
385836.66485901
381497.12239242
377359.7112398
373301.71351892
369282.02457593
365293.26986957
361341.74067801
357428.98371262
353557.73982295
349728.88919678
345942.9871225
342200.54146923
338502.11349538
334848.40497032
331240.39740241
327684.38013949
324195.61493187
320707.0936042
317228.39816316
313753.08745813
310269.30674112
306761.39734189
303208.82911344
299583.83670029
295849.4752904
291955.80369776
287833.25434582
283381.04312745
278437.45855519
272809.2162166
266001.09391272
257133.3243885
243916.09593707
216053.2802113
223830.53660902
209148.54181057
196874.24439859
186959.4916877
178059.03665144
168535.50146424
158009.52884227
146313.57632801
133611.09431345
120241.87475887
106149.95071316
93025.126672116
80535.199443886
69065.451205196
58978.891317978
50217.714476243
42749.862136209
36450.05964251
31158.634728756
26757.724123526
23108.630748318
20055.886572616
17496.228425937
15350.481708811
13547.200802985
12020.43116668
10687.657087727
9580.7744735269
8614.2367290867
7755.064593664
7055.3031061419
6391.9967832012
5857.2540939952
5343.21291175
4925.3094379519
4520.656651013
4189.051285079
3865.5726702625
3599.4711994254
3337.5351538332
3121.3105984842
2907.4248279931
2728.9087257497
2554.104711438
2403.4283017366
2261.0616815249
2130.9669217219
2013.3697110334
1901.3506409164
1801.5737003306
1706.8648079284
1619.990384479
1539.3724645363
1464.5354111815
1394.8141137373
1329.7907713028
1269.0073325091
1212.154566555
1158.9184419314
1109.0122606379
1062.1586859172
1018.1173857598
976.6737655746
937.63707889756
900.82638218424
866.07317849838
833.23460680701
812.06144962804
2714.4228268206
5689.1348197531
5942.3006179175
5969.9531727724
5994.6430837948
6022.2588474177
6051.8352597638
6082.273015001
6112.399385656
6141.4700281897
6168.8501660411
6194.1050331076
6216.9869583983
6237.402342185
6255.383569084
6271.078373088
6286.2357731006
6297.8685706132
6307.941744827
6316.9769653649
6325.2631423642
6332.9916624992
6340.2395149195
6346.9775971862
6353.0638079438
6358.2584579607
6362.2640517857
6364.7775399196
6365.6251878706
6364.8215864343
6362.1084207126
6357.9128711301
6351.9161454597
6344.4600489068
6335.420171867
6324.4254212841
6305.2177667456
6290.3683885398
6275.0319637005
6259.5120840587
6243.9382914
6229.0370695794
6214.389915136
6202.9027830203
6190.4716537862
6178.2987760477
6166.5900931441
6155.5173363106
6145.0672236895
6135.1925645528
6125.7997292547
6116.7575909618
6108.2763769902
6100.1734855193
6092.097607762
6084.4638767872
6077.1940139281
6070.4079793136
6064.0197304882
6057.8660084026
6051.9052625655
6046.170495177
6040.5952020043
6035.2524091642
6030.0890374881
6025.2373179916
6020.4356905862
6016.0719094227
6011.6920396695
6008.0064248946
6003.3861518672
6000.9073138419
216281.36830028
200779.88536692
189125.41374373
179934.06227279
171108.31955999
161048.66448539
150076.70539043
138235.7915623
125734.46572238
112802.22260187
99796.284863848
87023.812373401
75599.048086558
65088.958228105
55704.180292382
47573.225467685
40599.207610262
34701.857469061
29756.159350013
25621.290509497
22168.435219366
19283.031336735
16862.641055847
14822.588888668
13097.103968433
11631.437725875
10377.968850583
9300.4529815938
8373.7462120315
7566.9266438054
6865.3106433731
6251.1027487594
5710.5494168079
5234.0044785456
4810.4380450462
4434.5948385768
4097.8990315193
3797.290006783
3526.3631755905
3282.7549825841
3062.2335053726
2862.5723161936
2681.1184953114
2515.5476633971
2364.7109721669
2226.1008650886
2099.4054065356
1982.3592215244
1874.9860897955
1775.5052535431
1683.6924591997
1598.4376152327
1519.3359233592
1445.8197728753
1377.3198332805
1313.4126856328
1253.6820878095
1197.8014815255
1145.4465602146
1096.3429272736
1050.2311857373
1006.8797834678
966.07241249548
927.615815655
891.33423029104
857.0729123993
824.6213757729
851.32745999641
3990.4835195259
5827.6768754633
5950.0326687227
5974.2664195775
5999.4355311379
6027.4592781264
6057.2556355775
6087.7076087936
6117.7425780437
6146.619680404
6173.726912282
6198.6466744319
6221.1431718334
6241.1319484219
6258.6580877761
6273.8750626042
6285.4850104141
6297.0532647925
6307.0515366751
6315.9838478013
6324.1405914349
6331.7180485696
6338.7979890491
6345.3538456968
6351.2444330944
6356.2302574788
6360.0141247496
6362.3019269484
6362.9471611973
6361.9682576235
6359.1585186647
6354.9690156931
6349.1150978368
6341.9160554214
6333.2526226002
6322.715427479
6304.1134651188
6289.5924973516
6274.5274877839
6259.2115355483
6243.7240596261
6228.8976633094
6214.1532718543
6202.6521031314
6190.0034195234
6177.839936829
6166.1441071487
6155.0752927499
6144.6198956877
6134.737834964
6125.3421406378
6116.3407037019
6107.9468859044
6099.9118133413
6091.8748456329
6084.2553914045
6076.9962832652
6070.2106162109
6063.819850653
6057.6831220122
6051.7486618789
6046.0382205744
6040.4888037708
6035.1528819863
6029.9753511787
6025.0898020275
6020.2939253979
6015.9951039028
6011.7241842508
6008.096096065
6003.5177799338
6001.0205684387
209758.0458671
191482.7080407
180913.16430884
170537.39786418
161198.58122885
151457.72514541
140729.74082344
129453.41979341
117823.92816851
105659.60388486
94374.5813504
83148.456330773
72544.269358646
62826.452344967
54075.629192237
46369.014377452
39720.534367512
34073.496931541
29303.170888783
25283.286852344
21912.423906508
19089.715633607
16714.155662221
14707.337475357
13007.535903076
11559.563617213
10320.642186134
9255.9129389711
8335.8056552386
7537.3436587686
6839.4166682943
6229.9994537348
5692.6507082182
5218.768598111
4797.6850009433
4423.4067018062
4088.6617240171
3789.1576082929
3519.420994474
3276.768275335
3056.9318910004
2858.129676706
2676.8918821178
2512.2301993447
2361.365591588
2223.5280210697
2096.7424396803
1980.2671205017
1872.8690713861
1773.6741440416
1681.9972713162
1596.9714570042
1518.0660733254
1444.601882207
1376.1913165296
1312.3622831497
1252.728996275
1196.9292885935
1144.645910477
1095.6044374432
1049.5506585624
1006.2513217385
965.49015625844
927.07492907757
890.83472934435
856.61630588222
824.20196752937
854.82622188982
4042.1284038246
5831.8335579433
5949.7502170635
5973.8893135256
5999.0649215444
6027.074436184
6056.8482106366
6087.2694855407
6117.2772734987
6146.1326397376
6173.2259570201
6198.1408378508
6220.6408941235
6240.639033105
6258.1753363107
6273.3935758718
6285.0337401053
6296.5951393832
6306.5888316825
6315.5172846081
6323.6700669938
6331.241649353
6338.3143938232
6344.86123274
6350.7407992653
6355.7148539659
6359.4877476111
6361.7695699799
6362.4221921023
6361.3315519468
6358.5340835339
6354.3067279344
6348.4184344459
6341.1782405268
6332.4732926028
6321.909235675
6303.3644181788
6288.822835302
6273.8054513888
6258.5927738397
6243.0513858056
6228.5773473684
6213.6561929526
6202.0653344622
6189.2966573313
6177.2183104311
6165.6401449692
6154.6472430295
6144.2451830148
6134.4044351216
6125.056390451
6116.0992474993
6107.6401234676
6099.6484113242
6091.6281663267
6084.028918022
6076.8511443618
6070.1486102144
6063.8093816795
6057.7216478746
6051.8365961489
6046.1635069318
6040.647872007
6035.312808952
6030.0913566004
6025.1454963943
6020.3445458747
6016.0491558697
6011.7583447038
6008.1207982616
6003.6179548599
6001.1087832423
197522.73473234
176228.44634768
166008.87126021
155864.07223774
145855.25049292
136489.57974691
126731.61841584
116912.67892848
106899.54109615
96661.003651554
87410.484710692
77853.980826572
68543.682601911
59838.036943149
51835.849232886
44741.530143092
38546.295339022
33203.861217845
28657.02467295
24815.694300355
21568.894691018
18820.266907458
16507.499165518
14549.697209343
12882.060057251
11459.497087664
10241.56773262
9192.0765576188
8282.9957963536
7493.8378922567
6804.3925718881
6199.5462364633
5667.7475206526
5197.0435862147
4779.7806613051
4407.7273002953
4075.7614925442
3777.6045347979
3509.9243537991
3268.2334442996
3049.8342608682
2851.6029618767
2671.4541456234
2507.2176544712
2357.0286657074
2219.5910961324
2093.2415326889
1977.1807705183
1870.0068612681
1771.188075551
1679.6720771108
1594.9327990293
1516.205095513
1442.9330071563
1374.6569314017
1310.9428826021
1251.4230963767
1195.72602188
1143.5454574289
1094.5968471459
1048.6233036204
1005.3912743092
964.69072555559
926.3332643883
890.14840181004
855.98112151437
823.7016781208
860.86278007561
4114.7477869239
5836.8002605058
5949.2410993267
5973.3281871525
5998.5280169155
6026.5214607182
6056.2535449788
6086.6304200941
6116.6008772376
6145.4304556705
6172.5076981066
6197.4171542458
6219.921990148
6239.9335924442
6257.4885656348
6272.7245183009
6284.449173719
6296.019597803
6306.0287700335
6314.9662491464
6323.1196842418
6330.6869434377
6337.7520642781
6344.2885636977
6350.1596447966
6355.1263444708
6358.8898737695
6361.1613516019
6361.7995526919
6360.658249083
6357.8389184894
6353.5773114818
6347.6689936977
6340.3913440924
6331.6377870159
6321.009509627
6302.4126673309
6287.8663051177
6272.8427829267
6257.6169725947
6242.1303541657
6227.6006303582
6212.8290551418
6201.1333140764
6188.2867847699
6176.2426902873
6164.6913713885
6153.7266233974
6143.3496510455
6133.5434635501
6124.2525479407
6115.3911013961
6107.0483839593
6099.0822578863
6091.0999923394
6083.5839054085
6076.5023383402
6069.8981807772
6063.6235775123
6057.6123225273
6051.7834703614
6046.1422042632
6040.6455890908
6035.2793031656
6030.0344038518
6025.1142636506
6020.3406360204
6016.0404220367
6011.7314469507
6008.0882543098
6003.7081330821
6001.0763000322
171063.30169857
151332.43564921
139999.38983533
131106.74520744
123273.60221315
116011.99242041
109173.33056653
102098.45907923
94922.834412648
87551.21274481
79711.908829955
71701.95998045
63801.517058098
56240.270947791
49196.108383463
42778.67661519
37090.250609995
32136.78558937
27868.406526957
24218.541131131
21117.438297313
18489.570199275
16246.618897279
14342.976772395
12722.180091405
11334.581156242
10138.927445568
9108.7258788322
8216.0525388269
7438.2025970696
6758.3862994317
6161.2516783433
5635.2653328195
5169.5519882545
4756.4443144972
4388.0480253586
4058.6911664187
3763.1506979671
3497.4286221347
3257.4323390711
3040.4524747497
2843.3962496526
2664.3034967424
2500.77829261
2351.4496755045
2214.5038547396
2088.8064281162
1973.0997349039
1866.4131345731
1767.9298905863
1676.737550816
1592.263651915
1513.7588922883
1440.7521183046
1372.6708538344
1309.1244768114
1249.7387911717
1194.1759452461
1142.1259954349
1093.2935195395
1047.420538857
1004.2768271246
963.65845233241
925.37675529197
889.25923659753
855.15473760404
822.93298075014
869.63187682914
4208.9378538259
5842.5017001518
5948.5602607642
5972.6018932016
5997.827865346
6025.7985821345
6055.4825201077
6085.7997346229
6115.7257310489
6144.5198921465
6171.5755265834
6196.4784845446
6218.9909029373
6239.0199970534
6256.5999179154
6271.8631056369
6283.6662547464
6295.2495242723
6305.276276853
6314.2275626135
6322.3906448193
6329.9640233725
6337.0329322876
6343.5704899057
6349.4347838034
6354.3880627651
6358.1364252252
6360.3927113998
6361.0131519462
6359.8397082438
6356.9934670825
6352.6875767776
6346.7341037306
6339.3859059155
6330.5402842366
6319.8372709851
6301.2347368819
6286.671303769
6271.6438949022
6256.4523224845
6240.9651630446
6226.5491273272
6211.7566525586
6199.9156915931
6187.0625866131
6175.061846014
6163.5820666197
6152.6771548216
6142.3449203407
6132.5791138784
6123.3370776867
6114.5185532335
6106.210246846
6098.2771379224
6090.3771708741
6082.9902262627
6076.0359564324
6069.5590847121
6063.3712629376
6057.4578145234
6051.7037482727
6046.0896685466
6040.5802319152
6035.2201394289
6030.0246029806
6025.1374342985
6020.3776200213
6016.06772661
6011.7438326432
6008.1023651578
6003.8031290804
6000.9298898653
103571.73785902
99974.088239883
98726.257985373
98606.612005665
97003.948100284
94962.619784227
91662.247746799
87825.680560991
82970.881139533
77572.85889534
71522.1629382
65183.763361343
58707.107124921
52306.706589492
46209.978442821
40554.750175713
35436.903644834
30900.180991268
26942.224542553
23522.778485064
20587.593389362
18077.004508273
15937.908952033
14101.147554589
12528.353659938
11178.850581167
10017.115561417
9008.599552842
8133.2831777056
7370.4213138438
6702.5175039762
6114.3450662536
5595.6139023958
5136.5708569022
4728.0590990096
4363.9645899132
4038.0740332571
3745.6373401218
3482.0884908276
3244.3398536664
3028.9800868097
2833.4430029754
2655.4255792836
2493.037038377
2344.556219189
2208.3509127007
2083.2962080403
1968.1486973332
1862.0351953442
1763.9339518963
1673.1505765185
1588.9739282697
1510.7840552989
1438.0456162655
1370.2072615688
1306.8794736604
1247.6783358364
1192.2888447967
1140.3845922131
1091.6839370027
1045.9367115467
1002.910087562
962.39406997157
924.20014707254
888.16335663561
854.14145995199
821.99086786506
882.23159633995
4320.3659542998
5848.9406069786
5947.7682407261
5971.7279932108
5996.9713296922
6024.9101972952
6054.5345927956
6084.781255623
6114.6497210678
6143.4012482548
6170.4316769975
6195.327771273
6217.8501103831
6237.9022229541
6255.5130945547
6270.8120791159
6282.7028645115
6294.3096989947
6304.3638389155
6313.3359678036
6321.5097105104
6329.0845786151
6336.1491136919
6342.6797852105
6348.5368748258
6353.4813788108
6357.2174600498
6359.4567127578
6360.0527474419
6358.834467554
6355.9375198499
6351.5669570304
6345.5634366039
6338.1526328716
6329.2306400345
6318.3880455286
6299.8008018846
6285.2020958864
6270.1465110288
6254.94016441
6239.4787023521
6225.0811453608
6210.422473202
6198.4152867437
6185.5759356109
6173.6008608927
6162.165089267
6151.3073713165
6141.0093374621
6131.2839242334
6122.0410545311
6113.2097574342
6104.9827134514
6097.1324606853
6089.3966946447
6082.2155652078
6075.4391814177
6069.1398652504
6063.0959251811
6057.3188374638
6051.6225441509
6046.011477544
6040.5118842287
6035.2010265034
6030.0388331148
6025.1562461528
6020.3939801641
6016.0473643994
6011.6872254633
6008.0186019303
6003.846441798
6000.7213793567
10106.778821853
46061.191134747
60027.658705916
68531.968719214
73737.300587928
76086.734393387
76068.717371566
74607.376537712
72069.846112295
68640.385179713
64527.496610191
59840.257183664
54777.817429562
49538.961744565
44335.405322189
39355.063772055
34717.994165815
30513.064759418
26771.230382915
23488.830418393
20637.39523783
18175.814561403
16054.717227582
14235.954349412
12666.002750308
11308.742629919
10138.593348608
9124.6638630885
8241.4345826834
7468.1484281706
6791.9155564379
6197.4605434944
5671.5459282327
5205.3883833938
4791.2719321399
4422.0640230618
4091.0676468446
3794.2359746954
3526.9228878017
3285.5964523282
3066.8246990354
2868.3670611886
2687.6873821429
2522.8475709029
2372.0150881533
2233.8236269615
2106.9261004584
1990.1037087149
1882.4011552966
1782.8941516292
1690.8518356594
1605.4937396787
1526.2068580307
1452.4384056861
1383.7096474029
1319.5818260733
1259.623713649
1203.5066658166
1150.9327897055
1101.6293753063
1055.3264693653
1011.7817203565
970.78560558573
932.15261463448
895.70869348896
861.29046330188
828.73573788451
815.09358171615
3335.2049922809
5760.4711143682
5939.2768589047
5964.8533363534
5989.3681359142
6016.6913890173
6045.9256032174
6076.0418908586
6106.0040979391
6135.0438790231
6162.5169263733
6187.9628337327
6211.1005983526
6231.7963537341
6250.0441232354
6265.9514526747
6281.5598392742
6293.1944775326
6303.2836398005
6312.2832099751
6320.471987524
6328.0494863412
6335.1074616214
6341.6258091417
6347.4664728577
6352.3912665554
6356.1051862823
6358.3191015434
6358.8851997938
6357.6217416428
6354.6689488832
6350.2253213968
6344.1549986638
6336.6708180569
6327.7791622905
6317.0668112065
6297.5909320181
6282.9342778959
6267.8184759452
6252.5508779029
6237.046626972
6222.5897180866
6207.9693462419
6195.5314374085
6182.6575226101
6170.6907732286
6159.3103664817
6148.5413312234
6138.2698349109
6128.4372817287
6119.0638566703
6110.4663150588
6102.3746770217
6094.7014384485
6087.3342527816
6080.5398275283
6074.1979983199
6068.131794693
6062.2743768992
6056.5444394325
6050.9497951523
6045.4646793309
6040.137749437
6034.9764083084
6029.9481618324
6025.1519746749
6020.4668263553
6016.1409112242
6011.819008898
6008.1622857697
6004.2641941966
6000.6460815174
7949.6548483241
14677.70405517
25086.91558226
33699.184249495
40463.367740842
45375.340174053
48645.556851835
50587.060542757
50757.954219663
50029.475095895
48509.941178933
46233.498958985
43388.036125925
40141.577538955
36676.899822779
33174.081038563
29770.103424233
26563.444724284
23622.788143771
20976.11282889
18624.154762926
16553.61001782
14741.006295449
13158.193652468
11779.475053853
10580.14285759
9532.2254377331
8612.3740812004
7808.0520901834
7101.6380794771
6479.5204175402
5927.5442662912
5438.6201940352
5003.6863707058
4615.6735632899
4267.5637395194
3955.3914216867
3674.4591820653
3420.8917190778
3190.9868303677
2982.380761751
2792.6221504137
2619.6055174943
2461.3162818798
2316.3123604557
2183.253711741
2060.8895419562
1948.1117593878
1843.9473243104
1747.6651717886
1658.4438499049
1575.6372317865
1498.6093939573
1426.8856006586
1360.0191234876
1297.5780720394
1239.194085184
1184.5012091934
1133.2203659596
1085.0826224587
1039.843988986
997.27836524028
957.18078953592
919.37431749851
883.69259691037
849.98450651694
817.90453269969
976.35669875462
4732.9184922982
5871.8860169424
5944.8767016774
5968.2625498112
5993.5059670224
6021.2961926568
6050.675243177
6080.6356479685
6110.2741740208
6138.858120263
6165.7936121393
6190.66846657
6213.2349484021
6233.3830503554
6251.1267148023
6266.5786797557
6278.7660186004
6290.4743821385
6300.6605657618
6309.7357263336
6317.9646382362
6325.5443262677
6332.5732933404
6339.0424837248
6344.8234570621
6349.6828704174
6353.3277682205
6355.4655600928
6355.949238885
6354.5708127878
6351.4757520333
6346.8483040061
6340.6108057621
6332.9150623708
6323.8302167609
6313.0273556827
6293.5445626922
6278.892841804
6263.6821725737
6248.3059034339
6232.7744662123
6218.2319809219
6203.7805516259
6190.9490226149
6178.0993609594
6166.1628693244
6154.8824202275
6144.1316496899
6133.9276210928
6124.2133017157
6115.1675944186
6106.8391081292
6099.0346692333
6091.7376513474
6084.9012928861
6078.6704358265
6072.6339414754
6066.8167451319
6061.2224666832
6055.6865804507
6050.2634447642
6044.9808691354
6039.8289235322
6034.8025514658
6029.8872435148
6025.1536219437
6020.5180324802
6016.2012068866
6011.9746488642
6008.2654445551
6004.6362545976
6000.3922143315
7689.887716092
8436.2219210998
12982.560927896
18440.466716854
23499.965176972
27789.205712817
31257.699005399
33851.915607432
35575.33399675
36397.516711783
36381.938056444
35816.598467189
34552.412508303
32797.384948089
30667.106176658
28321.871238317
25898.455379599
23500.675009073
21208.123347354
19073.154740282
17122.704389244
15365.168860504
13796.158878231
12403.888590551
11172.422343706
10086.542430793
9129.1149805067
8284.3675377105
7538.7798287824
6877.6862894623
6290.8933892378
5769.8978303243
5305.6137522597
4891.3486975904
4519.2073297131
4185.0429797947
3884.4087593532
3613.2326598797
3367.4824544583
3144.3591360816
2941.6505369829
2756.905086982
2588.0637243536
2433.3086307502
2291.4930996474
2161.1460564008
2041.1501608073
1930.3764779306
1828.0116295432
1733.2781619289
1645.4308424447
1563.8040403261
1487.8167949185
1417.0448276314
1351.0170684409
1289.3382496319
1231.6226102151
1177.5515451341
1126.8475124762
1079.2238551498
1034.441130488
992.28177178446
952.55695981528
915.10258738341
879.73929230021
846.31880325801
814.15238154749
1111.6312149219
5014.2121159624
5884.0911335423
5942.0561232828
5965.2559554549
5990.4877580988
6018.1391363191
6047.3093467353
6077.0296787716
6106.4755152273
6134.9180420473
6161.7758584727
6186.636764443
6209.2447791295
6229.4790908735
6247.3425644616
6262.9319034715
6275.3388626153
6287.1460474363
6297.4623322948
6306.6375054601
6314.9208434143
6322.5056379225
6329.4929261744
6335.8826209576
6341.5594165299
6346.302974594
6349.8293921386
6351.8456425817
6352.2115642458
6350.6832968829
6347.4124193818
6342.5581186539
6336.1181513692
6328.1739436722
6318.8586957917
6307.9396974742
6288.2884415759
6273.6625450904
6258.40858908
6242.9972094422
6227.5223344365
6212.9072099218
6198.6438928591
6185.5479914209
6172.70610207
6160.7713871333
6149.5480535179
6138.9543606454
6128.9612015308
6119.5395514358
6110.8507243167
6102.9467061316
6095.5053904992
6088.7633117734
6082.3984563242
6076.5228566155
6070.9134847235
6065.4285302547
6060.0357156474
6054.7733498039
6049.6329740805
6044.5525972629
6039.5456266738
6034.6081265557
6029.7735341125
6025.0075298827
6020.4754025998
6016.0678737268
6011.9094791382
6008.1403694157
6004.6978449184
5999.5435355559
7008.4936020666
6996.4470214425
8444.5177736912
11608.175932334
15088.347756367
18364.300856697
21270.482726984
23696.42101622
25644.891633821
26938.388617767
27659.470611228
27794.620029726
27432.940983911
26614.322318131
25415.327009218
23936.109474923
22283.585374023
20555.780752173
18826.5417119
17155.397087765
15581.447930882
14125.654727886
12796.140055779
11594.133639441
10514.46576464
9548.3565099241
8686.7184113599
7918.8539619594
7234.3232089665
6623.7460388545
6078.6237009506
5591.1029499138
5153.6991770407
4760.9056580894
4407.8469704336
4089.7561801905
3802.5160776107
3541.6389925742
3304.9301540486
3089.8657528981
2893.885272479
2714.8370333576
2550.6471476318
2400.279020552
2262.130073502
2135.0248196101
2017.7039596967
1909.2934686888
1809.0670470962
1716.1671024388
1629.9379411763
1549.6854710214
1474.9684710511
1405.3299547974
1340.3183363075
1279.539159151
1222.6179421688
1169.2800123364
1119.2346799871
1072.2165238238
1027.9833149266
986.31590832678
947.036800632
909.98315430736
874.99780431077
841.91553176632
810.22271570696
1368.2441923976
5274.7029795726
5894.2779356674
5938.9759471908
5961.8164541282
5986.9585751391
6014.4341153076
6043.362514637
6072.8327158814
6102.0635705238
6130.3455984895
6157.1144622811
6181.9596174667
6204.6158844091
6224.9497092822
6242.9507214849
6258.7002809249
6271.3153557265
6283.2608799509
6293.7284529562
6303.0177884391
6311.3643613343
6318.9578080705
6325.8988862844
6332.1917230941
6337.7310386698
6342.3122791389
6345.6669355714
6347.5072953065
6347.7174522757
6345.9995257698
6342.5218886781
6337.410219045
6330.7446047967
6322.5409047551
6312.9884821751
6301.9683284275
6282.3630741057
6267.8645396344
6252.6314085301
6237.1907730614
6221.7200985666
6207.0102403242
6192.7974071096
6179.5222744649
6166.7291685289
6154.9110078373
6143.8427468329
6133.4750526127
6123.7729995313
6114.7767251746
6106.4593105851
6098.8397420189
6092.0844682817
6085.783101924
6079.9159712918
6074.3860772261
6069.0210780538
6063.8907115637
6058.8527346155
6053.834108424
6048.8289086581
6043.8739758124
6038.9935363105
6034.1850680409
6029.4103221553
6024.7882325208
6020.2145134191
6016.02770608
6012.0002713745
6008.1848853541
6004.8731357013
5998.9177414123
6365.5556130227
6365.5233428995
6594.7114838579
8179.8893136064
10492.182089211
12893.369773804
15184.040687459
17219.604175474
19000.022673489
20333.018712126
21293.20527782
21817.852475713
21922.801270806
21639.933181726
21062.699715453
20174.218678826
19087.046155579
17874.886054292
16602.097166861
15320.805757455
14073.635951573
12889.313308419
11783.169840839
10762.943028182
9830.4133469174
8983.4966577499
8217.8697966769
7528.0161591867
6907.1415056888
6348.4666531308
5845.7836279132
5393.1759887906
4985.3162381953
4617.2794310023
4284.3811492747
3982.6527580102
3709.1985400343
3460.7183982932
3234.5307500157
3028.3523054722
2839.4852611545
2666.5640175629
2508.1461343535
2362.5626680943
2228.6587305734
2104.9398642547
1990.7062165587
1885.1114248503
1787.2740743423
1696.494305107
1612.0013706052
1533.4021058289
1460.1744774811
1391.844072718
1328.0028627471
1268.2229033596
1212.2476506673
1159.7591050535
1110.4723069817
1064.1373835241
1020.5149954941
979.4090334553
940.64612218549
904.04665623382
869.46946324969
836.76267123503
807.34775538907
1884.8145698366
5488.4351005757
5903.1221874342
5935.6231426733
5958.0205323119
5982.9928352641
6010.2560091469
6038.9120158763
6068.1369139334
6097.1389505529
6125.2451979662
6151.912917536
6176.7361950779
6199.440751446
6219.8785750237
6238.0239663026
6253.9446051354
6266.7497741931
6278.8657837832
6289.4960843464
6298.9066954655
6307.3180819282
6314.9155206806
6321.7995681777
6327.9789423932
6333.3570007766
6337.743749446
6340.8861345464
6342.5142356462
6342.5253349201
6340.5963845564
6336.889074915
6331.5050857625
6324.5885461246
6316.142916389
6306.3573054977
6295.2415185678
6275.7104842828
6261.3249851265
6246.1083669077
6230.6572983433
6215.1962822675
6200.4518789273
6186.2696438296
6173.0318290557
6160.3618197822
6148.5141617047
6137.8243876822
6127.851489839
6118.6128788823
6110.0879938803
6102.2030724603
6095.5438774116
6089.1091701013
6083.048456163
6077.2592571726
6072.1098572614
6067.1075000788
6062.213518143
6057.4096848845
6052.6591997632
6047.9318551527
6043.2268033963
6038.5191629971
6033.8119212859
6029.1751356676
6024.5813849671
6020.2789988314
6016.1797104731
6012.2524321675
6008.3099540081
6004.9286793799
5998.4599667742
5844.592206236
5822.7495283892
5783.6505595922
6372.8277025195
7808.3537567197
9540.2680395466
11311.210329292
12946.694818618
14474.876882744
15698.079713937
16720.214510132
17379.907873024
17673.985219565
17703.257866193
17490.993074778
17010.501879341
16331.289897017
15504.682674644
14582.570249556
13618.738953298
12647.561269913
11697.549638061
10789.522299684
9934.7688308702
9139.6555113224
8406.4770572113
7734.3922035451
7121.393096154
6564.0118965686
6057.8671993517
5598.6472630021
5182.1551517409
4804.2946630138
4461.3031792729
4149.6323351059
3866.1412701522
3607.9446811326
3372.2242937511
3156.6290797183
2959.5271046242
2778.9702469047
2613.3230057537
2461.0749129144
2320.5371855778
2190.8818392261
2071.232616129
1960.5507622847
1858.0539146811
1762.8143530366
1674.2107859479
1591.8611380944
1515.1216085484
1443.5675512319
1376.6812207325
1314.073546428
1255.5007332345
1200.5860166391
1149.0564868929
1100.6160435355
1055.0139992807
1012.0897916846
971.62844473949
933.45629572817
897.40735486177
863.31135396474
831.00070735154
806.41608804177
2637.2573366547
5647.5879778135
5906.3010407554
5931.9216884419
5953.8990822688
5978.6749867913
6005.6943473157