/*--------------------------------*- C++ -*----------------------------------*\
| =========                 |                                                 |
| \\      /  F ield         | OpenFOAM: The Open Source CFD Toolbox           |
|  \\    /   O peration     | Version:  2312                                  |
|   \\  /    A nd           | Website:  www.openfoam.com                      |
|    \\/     M anipulation  |                                                 |
\*---------------------------------------------------------------------------*/
FoamFile
{
    version     2.0;
    format      ascii;
    arch        "LSB;label=32;scalar=64";
    class       volScalarField;
    location    "0.00018";
    object      rho;
}
// * * * * * * * * * * * * * * * * * * * * * * * * * * * * * * * * * * * * * //

dimensions      [1 -3 0 0 0 0 0];

internalField   nonuniform List<scalar> 
109340
(
662.48312678214
662.47807292696
662.46846417859
662.45684326262
662.4440130976
662.43064507749
662.41699896754
662.40320600193
662.38941353135
662.37529037383
662.36019737821
662.34352423315
662.32454000661
662.30235661261
662.27591471072
662.24396075587
662.20500041574
662.157242047
662.09851225826
662.02614457902
661.93681761683
661.82636243699
661.6894912606
661.51943032549
661.30739548935
661.04185914558
660.70746459879
660.28337993546
659.7406896461
659.03806701862
658.11420839125
656.87375227809
655.15931896938
652.6927679085
648.94519145568
642.83300270416
662.48388207373
662.47739631255
662.46661611887
662.45421334593
662.44101372813
662.42760023083
662.41414121763
662.40062574124
662.38685451159
662.37249741923
662.35704591306
662.33986913532
662.32019436958
662.29708929415
662.26944595112
662.23594869499
662.19503930175
662.1448410473
662.08306969941
662.00691208973
661.91285885993
661.79649300895
661.65219835895
661.47276058723
661.248798197
660.96795655387
660.61371116065
660.16353128969
659.58593814067
658.83556181146
657.84434607177
656.50479725724
654.63544620174
651.90495054654
647.64471474803
640.40759563973
662.4867011727
662.47919524663
662.46732884329
662.45463158865
662.44154171053
662.42831691311
662.41492667221
662.40136962546
662.38754998633
662.3731527192
662.35768380226
662.34050904717
662.32085124861
662.29777581062
662.27017495169
662.23673810746
662.19590631696
662.14580518391
662.08415140624
662.00813391971
661.91424264282
661.79806061053
661.65397169954
661.47475959012
661.25104057175
660.97045519936
660.61647267109
660.16655581051
659.58922214782
658.83909276862
657.84807146269
656.50839865678
654.63661741531
651.89051874963
647.54770141336
639.86168701532
662.49062602029
662.48158025865
662.46911490658
662.45605970614
662.44271652361
662.42921537706
662.41559993196
662.40188692747
662.38796280543
662.3735078546
662.35802910963
662.34088705032
662.32129692572
662.29831799968
662.27083532997
662.23753087875
662.19683961271
662.14688001947
662.0853566536
662.00944724218
661.91561401203
661.79940881015
661.65516936701
661.47561067548
661.25125640005
660.9696101929
660.61394793506
660.16145606594
659.58025321125
658.82436445405
657.82474797018
656.47199209391
654.57785825427
651.78209927085
647.27492648007
638.75155670994
662.49681769917
662.48505931892
662.47077303377
662.45682649591
662.44312042317
662.42948680833
662.41582896635
662.40213132814
662.38825071102
662.37385566714
662.35845985359
662.34142047327
662.32193974795
662.29905666478
662.27162609985
662.23828645448
662.19741340657
662.14704479499
662.08472949806
662.00751459568
661.91160618914
661.79223606412
661.6432966018
661.45687272378
661.22262834299
660.92685402223
660.55112892997
660.07024218004
659.44888095742
658.63605085398
657.55501927208
656.08469057041
654.01446936087
650.93347461397
645.85747847113
635.32875555262
662.50836706476
662.48686719187
662.47109215373
662.45682026415
662.44306533153
662.42943073325
662.4157799071
662.40203744666
662.38797789621
662.37313456277
662.35683363744
662.33818366063
662.31607019442
662.28913448727
662.25573672984
662.21390094591
662.16123688092
662.09486364779
662.01133937342
661.90574405843
661.77214974424
661.60290155337
661.38806116023
661.11464069718
660.76553505447
660.31798841997
659.74136581152
658.99376066435
658.01660211928
656.7255780384
654.993958178
652.62460798456
649.27233321965
644.263947986
635.9420637356
617.34102361706
632.31753478339
614.69399408822
587.6475666128
550.91829705434
506.17979501546
455.17782017272
400.09494039996
343.33344590079
287.53453290837
235.2821876408
187.90836696662
148.14369173932
115.62909497045
89.707720016979
69.703111235149
54.385710376791
42.752306327768
33.917934055624
27.173425759056
22.014188433484
18.042109105457
14.938678539088
12.490882869664
10.546956097616
8.9901493162491
7.7274934986147
6.6744830035879
5.8295978355369
5.1128548412195
4.5020928749696
4.0107253933718
3.5645154180324
3.2081929003094
2.8777543179381
2.6117417243645
2.3618288235601
2.1588518538588
1.9661310244889
1.8085899430974
1.6575372432126
1.5331718786023
1.4133834536789
1.313333863346
1.2179237192496
1.1354968628328
1.0594251160063
0.98995121109056
0.92813358992385
0.86978981526945
0.81824210576889
0.76987285340203
0.72580578589891
0.68526624326058
0.64792137848758
0.61340038578636
0.58144207568064
0.55178433269589
0.52423502040554
0.49860967272184
0.47474070859751
0.45247106585159
0.43166405814148
0.41219839914721
0.3939664686314
0.37686811576466
0.36081132073001
0.34571695265796
0.33543038620059
1.0807887169124
2.2148344513455
2.2782088252929
2.2562763383646
2.2348456182762
2.2159675409305
2.1991922392689
2.1841555069657
2.1705812215239
2.1583950708282
2.1475211380125
2.1378446965467
2.1291839917448
2.1213012927584
2.1139399204433
2.1068669154315
2.0989912758653
2.091949840036
2.0846987796209
2.0772298085747
2.069476340114
2.0613217577171
2.0525897274699
2.0430326313353
2.0323231616229
2.0200776327876
2.005930601388
1.9896598938666
1.9713456040339
1.9514453558617
1.9306126742732
1.9098703330624
1.8900488066786
1.8720816472294
1.8566504586647
1.8442064005909
1.8321120191304
1.8261058117661
1.8214137616581
1.8171626089564
1.8129089344702
1.8086564093619
1.8041903359549
1.8003315561596
1.7958949612872
1.7912371445975
1.7864322148447
1.7815473018874
1.7765981752823
1.7715935111325
1.7665306275407
1.7613950205137
1.7562606195675
1.7510645753652
1.7456596167545
1.740097465175
1.7342860910321
1.728210391819
1.7218171603862
1.7150630467674
1.707970351483
1.7006107818903
1.6930563818363
1.685435781858
1.6778783119421
1.6705961812125
1.6636552658852
1.6572048746258
1.6511664081305
1.6452817822011
1.6378433240529
1.6268384121851
627.20408504369
604.64508251954
571.17285672824
528.31466094562
478.67785166215
424.11958104061
367.6156487709
311.76184124265
258.94257517696
210.90918822013
168.78111244796
133.03310121462
104.5197856659
81.756561227636
63.93742253649
50.228747823544
39.715349703068
31.675922599141
25.516510091799
20.769159166377
17.08323936539
14.197267366179
11.914461301659
10.089888458645
8.6186936989908
7.4217707675417
6.4377714228238
5.6220085675941
4.9427263765013
4.3692341104619
3.8842600542897
3.4703449711729
3.1149069368922
2.808269244851
2.5415545665506
2.3092685777095
2.1051140030839
1.9257775553498
1.7668622243148
1.6260089420504
1.5004070283275
1.388138184856
1.2874673637129
1.1966920981692
1.114962868187
1.0406940529984
0.97350919795046
0.91209146211537
0.85626121289482
0.80503344589904
0.75815924643941
0.71501687116133
0.67530877587335
0.638696275651
0.60484072766554
0.57348740892214
0.54439122264076
0.51735642938818
0.49219464699527
0.46874578528977
0.44686139563203
0.42640979640185
0.4072698323866
0.38933378330025
0.37250446598266
0.35669626307179
0.34180350222603
0.35032939012476
1.576570818817
2.2594741755154
2.2726502641894
2.2498582598293
2.2290093641093
2.2106574724221
2.1943399421358
2.1797166830461
2.1665647213255
2.1548065040051
2.1443499342159
2.1350523009857
2.1267049476566
2.1190535733977
2.1118390855434
2.1048336780595
2.0987299950427
2.091670268065
2.0843974992631
2.0768980769259
2.0691063467967
2.0609078094681
2.0521282261183
2.0425214082749
2.0317609913913
2.0194639000504
2.0052648374205
1.9889436766088
1.9705877011155
1.950653696517
1.9298087057175
1.9090804538832
1.8893077229332
1.871416091656
1.8560877038681
1.8437613575426
1.8318159721691
1.8258874876562
1.8212634607074
1.8170640291259
1.8128271215691
1.8085828479582
1.8040679581871
1.8001748840698
1.79563314219
1.7909234278792
1.7860536223532
1.7810870565762
1.7760395005827
1.7709223965172
1.7657361937215
1.760479043316
1.7552266059696
1.749894573178
1.7443283472697
1.7385755869479
1.7325468504975
1.7262253055692
1.7195634600564
1.7125314427488
1.7051570674875
1.6975206237391
1.689706613028
1.681849922029
1.6740977205319
1.6666646275067
1.6596381111403
1.6531752073113
1.647189429275
1.6413659424579
1.6339847558841
1.6229866749608
624.41172492609
595.96856752096
555.19155085611
504.16670480133
448.76153191627
391.79129172213
335.5674341728
282.53022291555
234.17840186887
190.81156198213
154.33245569568
123.3209218382
97.801053376405
77.295368979478
61.036831778869
48.311715378595
38.450465816179
30.845673205392
24.963850126167
20.388717282997
16.815662443373
14.0075707247
11.777059525083
9.9887494338739
8.5435278002381
7.3641448257264
6.3936849708421
5.5887165077852
4.9155771986463
4.3486352107775
3.8668403234312
3.4566108981764
3.1034976506111
2.7989035133002
2.5338152135235
2.3027216134842
2.0997448220453
1.921213003952
1.7629874467233
1.6227740862474
1.497555686688
1.3858187282841
1.2852803352052
1.1950089572447
1.1132908376623
1.0394178373799
0.97221550954321
0.91107282140821
0.8552573488294
0.80416767714585
0.75737213916821
0.71433689235065
0.6747272187645
0.63814327510377
0.60433281147507
0.57301852269213
0.54396867755346
0.5169724156407
0.49184436869494
0.46842469924723
0.44656719436201
0.42613957010976
0.40702074711685
0.38910352683629
0.37229276219346
0.35650351816483
0.34162723141382
0.35168125696571
1.5965456128697
2.2607191525414
2.27218676943
2.2493765414025
2.2285549093628
2.2102277237511
2.1939362603411
2.1793394680489
2.1662166061211
2.1544882845806
2.1440608358633
2.1347902495032
2.1264668996627
2.1188357465545
2.1116368613744
2.1046404150597
2.0985555094652
2.0914979925393
2.0842279040659
2.0767319095693
2.0689447173485
2.0607520433724
2.0519806740363
2.0423851889461
2.0316400883118
2.0193632852404
2.0051896669949
1.9888986115486
1.9705765372021
1.9506357720634
1.9298143997692
1.9090844359648
1.8893000264349
1.8713833287711
1.8560174983921
1.8436439234504
1.8316531804102
1.8256793417892
1.8210452994571
1.816859368
1.8125886736264
1.8084167781246
1.8038048138349
1.7998180105149
1.7951481865275
1.7903408612794
1.7853511728015
1.7802200266874
1.774968984159
1.769614066371
1.7641637508597
1.7586167960767
1.7530202781053
1.7473465420268
1.7413917685095
1.7352004234943
1.7286926248522
1.7218358385952
1.7145820430711
1.7069265873877
1.6989199318944
1.6906639752233
1.6822718585813
1.6739002594484
1.6657271247049
1.6579807607516
1.6507776482678
1.644269589637
1.6383416383924
1.6326300995533
1.6253826618678
1.6144191546154
618.17339895487
576.30841879427
520.57340154611
458.15246954311
396.24826922856
339.1765696841
287.33659928046
241.47276839146
201.07576598001
165.6737132233
136.37414857364
110.89238256303
89.369719049124
71.653843343507
57.261954444792
45.824643434025
36.809448164242
29.735650898866
24.204017060629
19.873419492343
16.459461254621
13.746993020339
11.587822526424
9.8508615999202
8.4390143321907
7.2842468937041
6.3326673141863
5.5411754194227
4.8775334532049
4.318263800772
3.8429172493617
3.4364870667395
3.0873781428428
2.7852080823289
2.522736118846
2.2932300616755
2.0920560470639
1.9144749709582
1.7575174051562
1.6179554927877
1.4935909955728
1.3822523317903
1.2823283720544
1.1923489246948
1.1110042730456
1.0373865040272
0.97042096210343
0.9095181509363
0.85382953166368
0.80294204307055
0.75623965082122
0.71335248375482
0.67383893143678
0.6373523777477
0.60361369891859
0.57235929858214
0.54336769136684
0.51642325339777
0.49134593185565
0.46797159937784
0.44615311285547
0.42575823577488
0.40666866872097
0.38877892972169
0.37199410880577
0.35622866386608
0.34141024880478
0.35402622754261
1.6245957750318
2.2621007795058
2.2714737805261
2.2486734524661
2.2278980575793
2.2096085645619
2.1933515038124
2.1787928825815
2.1657127257576
2.1540295677374
2.1436455787709
2.1344145752473
2.1261256855241
2.118523594856
2.1113484337272
2.1043700638402
2.0983241595682
2.0912761505205
2.0840172499045
2.0765310009844
2.0687525808663
2.0605699988753
2.0518118352337
2.0422342573884
2.0315146301766
2.019271511211
2.0051383104189
1.988892001554
1.9706130855219
1.9506981254122
1.9298997280541
1.9091736957936
1.8893807334044
1.8714328999502
1.8560140705669
1.8435618796192
1.8314618813047
1.8254258721281
1.8207529862989
1.8165379611859
1.8122551576477
1.8080220764563
1.8033824095854
1.7992602656056
1.7944231625473
1.7894346854391
1.7842107756599
1.7787925932824
1.7732005029831
1.7674565575217
1.7615775551628
1.7555723771497
1.7494856136711
1.7432467679874
1.7366660635443
1.7297788310455
1.7224871996215
1.7147605271225
1.7065590149222
1.6979202383357
1.688921822684
1.6797058324758
1.6704298186346
1.6612974873369
1.6525303995937
1.6443853249934
1.6369722893366
1.6304555933471
1.6246518238893
1.619151412232
1.6121398745957
1.6012281556314
597.29954411838
520.44239161062
438.66570765762
369.12848572014
312.60671283312
266.26929803815
227.72905804016
194.4805436698
165.52851681561
140.10934583068
117.34056598313
97.268888514908
79.904665573636
65.180630035387
52.935943631799
42.909184620835
34.83709866423
28.402239834427
23.290148157807
19.230675823975
16.003844142566
13.428963993174
11.351451705111
9.6731568627922
8.3070257095396
7.1848834209381
6.254387160495
5.4797583032239
4.8295902549843
4.27959599691
3.8118030157708
3.4111786583362
3.0664596214047
2.7678573324452
2.5083176759165
2.2812574339758
2.0818860562908
1.9059695590008
1.7502933197876
1.6117868656108
1.4883197882055
1.3776926328609
1.2784132744038
1.1888697201085
1.1080240617353
1.034707213396
0.96810587602179
0.90742067633694
0.85199566162468
0.80130240843922
0.75477463045699
0.71203646729401
0.67264421392557
0.63629595849272
0.60266032343871
0.57149407022868
0.5425741544169
0.51569906280606
0.49068798684434
0.46737203577659
0.44560400518176
0.42525322652867
0.40620418804518
0.38835142239911
0.3715993320606
0.35586407980352
0.34107311730359
0.35743629661921
1.6609450425136
2.2635899057189
2.2705326332056
2.2477574783721
2.2270416859362
2.2088010573849
2.1925911176271
2.1780815640294
2.1650585472879
2.1534336671804
2.1431061406587
2.1339269169108
2.1256833209771
2.1181189607115
2.1109747599247
2.1040211311063
2.0980143725227
2.090979144905
2.0837340469814
2.0762613287116
2.0684974195425
2.0603320859094
2.0515959397053
2.0420468785993
2.0313625040576
2.0191630023085
2.0050827646178
1.9888957528923
1.9706751240312
1.9508057860173
1.9300390925702
1.9093191127915
1.889509577927
1.8715144622063
1.8560172256816
1.8434641060281
1.831237382498
1.8251135736106
1.8203883468869
1.8161484881575
1.8118276485258
1.8075667292771
1.8028241309367
1.7985162295345
1.7934770144213
1.7882345671695
1.7826908492969
1.7768711115676
1.7707939852178
1.7644879929553
1.7579804968444
1.751284754193
1.7444471075267
1.7373824078866
1.7298946670528
1.7219937321986
1.7135606580779
1.704578829463
1.6950275793801
1.6850066374292
1.6746409873266
1.6641252770481
1.6536831367554
1.6436040413579
1.6341414885662
1.6255560493717
1.6179607257296
1.6115264654987
1.6059713081226
1.6008240083788
1.5941598461327
1.5833449519409
449.01579727337
325.09359584639
272.8276664816
240.96474455046
214.19759056286
191.53240351854
170.32144564819
150.99273019935
132.42087293692
115.06226816339
98.707465049374
83.754259573613
70.288320149207
58.431138012675
48.262011169283
39.713575564017
32.650102346702
26.891745254864
22.238595466158
18.491529119194
15.475065026308
13.041388757954
11.073840595356
9.4659157299142
8.1485327637068
7.0627162701114
6.1617464268739
5.4063156270466
4.7708531903521
4.2327874003711
3.7741851077809
3.3803856739829
3.0410287506325
2.7471004124027
2.4908276889583
2.2666816399684
2.0696100182242
1.8956921078173
1.7414383515788
1.6043208221143
1.4818696776805
1.3721605291835
1.2735514939848
1.1846703986055
1.104334249939
1.0314471556178
0.96522306442915
0.90485504163043
0.84974809497676
0.79927328009439
0.75296926294733
0.71039926872346
0.67117546899714
0.63497242668689
0.60146490982359
0.57041385706939
0.54159089911376
0.51480550990873
0.48987015421587
0.4666220006655
0.4449176108651
0.42462531554225
0.40562730084606
0.38781834155672
0.37110620224661
0.35541077099129
0.34065423308442
0.36234308400403
1.703843659066
2.2651896834919
2.2693889804568
2.2466375639437
2.2259905933849
2.207808913171
2.1916567727445
2.177208476485
2.1642546884327
2.1527018356657
2.1424442540063
2.1333290554313
2.1251412282336
2.1176235695401
2.1105172913094
2.1035946025269
2.0976321096421
2.0906150904054
2.0833888179126
2.075934003563
2.0681876035853
2.0600416577095
2.0513298960013
2.0418136029066
2.0311734193025
2.0190306856364
2.0050185267113
1.9889061997213
1.9707579849824
1.9509447607055
1.9302132831477
1.9094989587871
1.8896714857589
1.8716256455797
1.8560425034839
1.8433507444563
1.830974115851
1.8247339363386
1.819933998574
1.8156450572366
1.8112836350972
1.8069513192436
1.8021237568837
1.7975824719841
1.7922860347848
1.7866995088991
1.7807142736383
1.7743432024634
1.7675978197742
1.7605167612853
1.7531239865184
1.7454540148749
1.7375833474081
1.7293798028549
1.7206433690772
1.7113431227616
1.7013385114759
1.6906476027249
1.6792971738326
1.6674675739469
1.6553438038962
1.6432068126225
1.6313945188112
1.6202553126365
1.61006100275
1.6010789379427
1.5934297768105
1.5872292341114
1.5821079118972
1.5774941561535
1.5713471334896
1.5607323041759
15.292975398968
103.81346229119
127.55333632868
136.53642095731
138.06716855926
134.03817574556
126.29327329425
116.78157342687
106.3524108903
95.464467009717
84.505313187214
73.739655097856
63.493450762387
54.014783408648
45.506298223156
38.083670856591
31.746923365896
26.440670139429
22.055419159045
18.461530041212
15.528356893597
13.136791261559
11.181623980846
9.5823942218778
8.2621094206498
7.1664145414479
6.2555793104914
5.492654243161
4.8487921794053
4.3014955323498
3.8354261093667
3.4357909704575
3.0905014046584
2.7910564954907
2.5303670372021
2.302323383155
2.101564562499
1.9245138166775
1.7675888704264
1.6280286276007
1.5033199520517
1.3916921059553
1.2913627083443
1.2009332306806
1.1191520855032
1.045042241412
0.97770518904948
0.9163370528379
0.86030364863394
0.80901111287214
0.76198196844489
0.71874089870151
0.67890283007474
0.64213119093241
0.60813041194405
0.57663831773088
0.54740355931077
0.52022904639816
0.49493811172679
0.47137067557667
0.44937389168504
0.42881114438279
0.40956415891636
0.39152828419254
0.37460684848707
0.35871057844887
0.34375316503762
0.33640510693111
1.3231127719184
2.2386866198558
2.2733879631038
2.2508784147351
2.2296433202916
2.2109593830459
2.1944017640476
2.1796257431164
2.1663872527388
2.1545781727764
2.1440931118852
2.1347883106263
2.1264603883441
2.1188578821526
2.1117189340149
2.1048092540563
2.0971775667515
2.0901819190155
2.082978678419
2.0755459141543
2.0678210340894
2.0596983840549
2.0510151663045
2.0415365220388
2.0309464442796
2.0188684616255
2.0049352992862
1.9889109672324
1.9708497511368
1.9511072177271
1.9304205545611
1.9097155596944
1.8898657909444
1.8717609188179
1.8561118813087
1.8433416641774
1.8306304530082
1.8241708427384
1.819225203826
1.8148325944248
1.8103688667545
1.8058767733853
1.8008270437908
1.7958078139962
1.7899957711512
1.7837216393698
1.7768484172733
1.7693637379285
1.7612458536429
1.7525218792838
1.7432718917258
1.7336694720792
1.7236535113126
1.7130960234482
1.7017880325141
1.6896068246423
1.6764424856737
1.6623310800503
1.6474822774417
1.6322081875449
1.6169033509608
1.6020071579367
1.5880057761619
1.5752871903416
1.5641580392102
1.5548701462321
1.5475055828477
1.5420407992427
1.5379763009794
1.5345191363862
1.5294382190017
1.5192870937212
6.8300238818417
18.245078001805
32.541245445934
44.467796857602
53.526104439114
59.530686178235
62.68690571882
63.488271878238
61.763461902621
58.753274688292
54.771230037227
50.052829564168
44.944744355303
39.723881832299
34.643001708192
29.904750992052
25.628832145616
21.868121474273
18.630341980394
15.883247539211
13.572625604385
11.639279378932
10.024568312126
8.6747314982043
7.5450706557558
6.5977669167618
5.7981612960057
5.1187922112645
4.5417685180911
4.0486135352037
3.6251675591255
3.2585164713827
2.9408197194838
2.6640185733252
2.4218426535717
2.2085976567945
2.0206165461539
1.8541708080292
1.7062315742467
1.5740688958862
1.4557951265461
1.3496083332784
1.2539890331307
1.167554307159
1.0892665846204
1.0181993917614
0.95351398205387
0.8944850368889
0.84048031012535
0.79101033047553
0.74556709040608
0.70374293887734
0.66515361010595
0.62949941517066
0.59650770986522
0.56592116658956
0.53752084581044
0.51109630383149
0.48648145091138
0.46352077105784
0.44207411512114
0.42201384171324
0.40322495546603
0.38560782301072
0.36907011933141
0.35352860182209
0.33882278328112
0.39916072408763
1.8619435324741
2.2703654730762
2.264825949106
2.2420956575253
2.2217107005195
2.2037659914209
2.1878498634093
2.1736524053429
2.1609831634412
2.1497269978703
2.1397578054231
2.1309056158381
2.1229451223507
2.1156165988204
2.1086648587342
2.1018683793479
2.0960612320819
2.0891190740218
2.081975393179
2.0745990270957
2.0669277324338
2.0588607348797
2.0502433967175
2.0408512047766
2.0303782836664
2.0184547285477
2.0047127378133
1.9889034382465
1.9710581483234
1.9514944712062
1.9309234788429
1.910246839671
1.8903471403262
1.8720929960452
1.8562093152064
1.843136980174
1.8300095323913
1.8231961029949
1.8179847847839
1.8134001039174
1.8087676617446
1.8039982734463
1.7985720839414
1.7927741904656
1.7859876608201
1.7783408514607
1.7696318482931
1.759734712592
1.748630087973
1.7363618701582
1.7231235275927
1.7090866458669
1.6942218799356
1.678378552623
1.6613051344801
1.6428507237906
1.6229968966448
1.6021611257093
1.5809145358014
1.5598688180341
1.5397334931095
1.5211650601175
1.5046972849956
1.4907411577787
1.4795312324178
1.4711772031652
1.4655894844666
1.4624574601654
1.4611146804893
1.4600905210631
1.4572739163211
1.4485579371436
5.4400359238639
8.0335988128119
12.98786822939
18.982537140598
24.626529316444
29.425028011001
33.166654890903
35.731045431681
37.098610501367
37.255213594786
36.401928907375
34.887119220431
32.641878364151
29.969348568548
27.054472497776
24.091370148373
21.229560658821
18.566022394602
16.1585447876
14.030151522644
12.178123229567
10.583714008899
9.2198112231392
8.0568489402598
7.0658174169347
6.221540250338
5.5007169950919
4.8835435263265
4.3537615736532
3.8962982127515
3.5001246511623
3.1562665687085
2.8563478521065
2.5940251089745
2.3629098692908
2.1590522874375
1.978694348536
1.8185622846701
1.6756443956791
1.5477433556463
1.4330971886833
1.329950286128
1.2368409079833
1.1525076823728
1.0760763429386
1.0065723270084
0.9432364133929
0.88534156970253
0.83234052854759
0.7837280251409
0.739036954026
0.69785641879088
0.6598293713049
0.62468327175853
0.59213571628611
0.5619486673818
0.53389697984956
0.50779223919496
0.48347062404635
0.46076966087238
0.43955252166932
0.41969581892171
0.40109216011505
0.38364782930235
0.36726552744817
0.35186373761436
0.33713997398613
0.45211082267281
1.9685944403618
2.2717622852583
2.2606747970179
2.2381059122724
2.2179585121114
2.2002251235174
2.184521719785
2.17054976753
2.1581338056295
2.1471395595877
2.1374241712805
2.1288022803999
2.1210393828263
2.1138742776768
2.1070560410917
2.100368443406
2.0946805720875
2.0878056111039
2.0807378150934
2.0734325220777
2.0658284044408
2.0578304704685
2.0492922685847
2.0400005710436
2.0296625958385
2.0179193226825
2.0044052818935
1.9888580019746
1.9712829042909
1.9519492604077
1.9315343732972
1.9109058755164
1.8909571441871
1.8725324171067
1.856371214544
1.8429388034182
1.8292548759259
1.8219935527364
1.8164451160441
1.8116298508642
1.8068021746284
1.801693249104
1.7957661917527
1.7889793434496
1.7807896497519
1.7710783901945
1.7594746224696
1.7457033757608
1.729651274048
1.7114073383598
1.6913271433189
1.669804326229
1.6469264913534
1.6226596542805
1.5967541002941
1.5692768892168
1.5407426310461
1.512085181773
1.4842684023574
1.4582668926778
1.4348614322004
1.4146494981183
1.3980257612122
1.3851887510697
1.3761450527972
1.3707262616172
1.3686277127209
1.3690603090912
1.3710262441407
1.3731794964556
1.3730173667534
1.3659371498886
4.3480906801962
5.698020067932
7.2131176059872
10.196779167917
13.522300037937
16.694562216295
19.523827736357
21.825013566797
23.564387441707
24.583313526259
24.918336549054
24.627823664808
23.834585359771
22.589663887011
21.015734331886
19.245630664707
17.39889105675
15.574412605361
13.839649356274
12.23980839512
10.796939440724
9.5156264920143
8.3898280191661
7.408218854947
6.5560341838659
5.8175501857343
5.1783375002288
4.624478994259
4.1436216379258
3.7252329654477
3.3602853632975
3.040968158218
2.7603894407996
2.5132904001484
2.2951917788415
2.102047541081
1.9304534970011
1.7770754294526
1.6399362562637
1.5170478037644
1.4065394078218
1.3068528272662
1.2165587575704
1.1347987920593
1.0605037744555
0.99285974663024
0.93105582865139
0.8744968546682
0.82268410919454
0.77508453182509
0.73127866478208
0.69084800397103
0.65350311102034
0.61895965380399
0.58694749808771
0.55723134489795
0.52959308344102
0.50386536837565
0.47987987872444
0.45748487971174
0.43654324979354
0.4169319492319
0.39854922809331
0.38130253371967
0.36510468889291
0.34986744275968
0.33535993238118
0.55309683724706
2.0662011587139
2.2717416974784
2.2558375594267
2.2334186634729
2.2135341851469
2.1960540906216
2.1806090516688
2.1669179631813
2.1548057859511
2.1441213260345
2.1347033553783
2.1263495005764
2.1188151509874
2.1118378686221
2.1051720850644
2.0986091470925
2.0930427004623
2.086252427843
2.0792722407242
2.0720486967603
2.0645227981239
2.056606468803
2.0481617272536
2.0389865992229
2.0288021379646
2.017262973718
2.0040091409833
1.9887656638653
1.9715136738083
1.9524618635463
1.9322488689893
1.9116988440296
1.8917126525558
1.8731116335942
1.8566483940422
1.8428205507348
1.8285716941247
1.8207949574078
1.8148317859742
1.8097166213537
1.8046257056403
1.7991134506282
1.7925202125383
1.7844842848829
1.7743500057225
1.7616443033114
1.7456253751893
1.7257035456142
1.7016283731657
1.6736201427692
1.6424678434801
1.6092841814997
1.5748464707456
1.5392540303785
1.5026692898982
1.4656840114252
1.4294722653046
1.3953705042999
1.3643720348996
1.3372420128639
1.3144240813484
1.2961381003419
1.2824302170802
1.2731996100298
1.26818629992
1.2669523283397
1.2687100794459
1.2728386113139
1.2782116850641
1.2829331857599
1.2847440735423
1.2794357205165
3.5392301691549
4.6558653793964
5.0512016443473
6.4329577022865
8.4108991385282
10.490846743437
12.493952006724
14.272144028386
15.78803262853
16.870887183913
17.576319088932
17.826458431503
17.674477496731
17.177462499874
16.408319143109
15.383232851146
14.222574744418
13.000778713394
11.777311115911
10.597666607564
9.4938447182043
8.4833282768589
7.5715462988119
6.7577802916052
6.0367540139488
5.4009201746766
4.8418779425919
4.3511748955459
3.9203465209635
3.5416647529182
3.2083840744065
2.9145027680296
2.6548389666934
2.4248483513612
2.2204755246995
2.0383411942736
1.8758494326024
1.730402107782
1.599880856013
1.4825018990493
1.3763995523037
1.2804508494166
1.1935681575429
1.1146218978954
1.0427816075219
0.97710523347354
0.91705984180908
0.86207535598989
0.81159298113491
0.76516038459244
0.72231409011705
0.6827767496777
0.64622724798333
0.61237794187495
0.5809812835052
0.55179040498353
0.52464104364126
0.49934887718003
0.47575003414753
0.45370085834257
0.43306680771104
0.4137357419767
0.39560847407962
0.37858637722629
0.36258961288305
0.34753612331457
0.33398917507569
0.75661195961528
2.144680177168
2.2706032354749
2.2503459273416
2.2280927130904
2.2084929070485
2.1913075051648
2.1761665951207
2.1628152065453
2.151056366289
2.1407253752562
2.1316418877637
2.1235863267853
2.1163041126511
2.1095321798217
2.1030314081497
2.0966031730539
2.0911572842195
2.0844663634862
2.0775818618247
2.0704480601668
2.063008520374
2.0551827388861
2.0468421781995
2.0377977047582
2.0277853027073
2.0164747723479
2.0035134356727
1.9886180405383
1.9717392558391
1.9530285593235
1.933070358627
1.9126414686644
1.8926370266684
1.8738715361307
1.8570948427304
1.8428429972216
1.8279976861702
1.8196134845986
1.8131349545926
1.8076445181502
1.8022427750628
1.7963028920176
1.7889431533778
1.7794406732862
1.7667264925705
1.7497485345509
1.7273779902667
1.6982505644653
1.6619770372773
1.6192946989506
1.5724067358533
1.5244498451045
1.4769138223397
1.4304345542442
1.38548938374
1.343249573822
1.3048234156932
1.2710615180384
1.2423754672416
1.2187371975029
1.2000171248855
1.1860514483785
1.1766552603811
1.1715928316513
1.1704444603727
1.1725699156032
1.1773663705132
1.1840882053532
1.1914134204033
1.1974586929454
1.2002178916546
1.1967499063766
2.9165643954375
3.9315584384304
4.0821150009909
4.614248172272
5.7555514316523
7.1337842936435
8.5526853839242
9.8727895784416
11.093642321751
12.04906207322
12.813876760013
13.256371414093
13.361262816219
13.232397969269
12.902081612933
12.352792192399
11.648136528885
10.844612470696
9.9925875467163
9.137038201081
8.305674985487
7.5193349414946
6.790978321189
6.1254007561086
5.5235620301242
4.9833561052286
4.5007143254614
4.0710609640762
3.6892909012394
3.3501531363856
3.0488177259729
2.7808793132237
2.5423206189412
2.3296007992374
2.1395517374499
1.9694409071285
1.8168575799771
1.6795868210239
1.5557858744549
1.4440760944203
1.3430197981348
1.2514119539318
1.1681743838548
1.0922062541252
1.0228598235074
0.95950134591016
0.90145718390933
0.84820141073242
0.79916676827362
0.75394699864922
0.71226089303982
0.67372487435945
0.63806650395791
0.60498391007073
0.57424189782088
0.5456770225612
0.51907519101844