/*--------------------------------*- C++ -*----------------------------------*\
| =========                 |                                                 |
| \\      /  F ield         | OpenFOAM: The Open Source CFD Toolbox           |
|  \\    /   O peration     | Version:  2312                                  |
|   \\  /    A nd           | Website:  www.openfoam.com                      |
|    \\/     M anipulation  |                                                 |
\*---------------------------------------------------------------------------*/
FoamFile
{
    version     2.0;
    format      ascii;
    arch        "LSB;label=32;scalar=64";
    class       volScalarField;
    location    "0.00018";
    object      rhoHat;
}
// * * * * * * * * * * * * * * * * * * * * * * * * * * * * * * * * * * * * * //

dimensions      [1 -3 0 0 0 0 0];

internalField   nonuniform List<scalar> 
109340
(
661.22301465317
661.21819277008
661.20896944905
661.19771718326
661.18516997704
661.17195814212
661.15832378197
661.14435929975
661.13006301945
661.11480160473
661.0974782271
661.07688120305
661.05153264405
661.01964365226
660.97908484887
660.92733878417
660.86141330384
660.77772767723
660.67194607634
660.53875372104
660.37153905484
660.16200192158
659.89961604461
659.57090300615
659.15840108148
658.63921771534
657.98289472737
657.1481761737
656.07790065675
654.69055003806
652.8655201947
650.41581155028
647.0340557747
642.17991762198
634.83389566223
622.93420403304
661.22373351716
661.2175456531
661.20718712775
661.19515586455
661.18221796624
661.16892906271
661.155449038
661.14171915819
661.12735239524
661.11167497104
661.09368584807
661.07211659945
661.0454093812
661.01168978382
660.96873351944
660.91390537734
660.84408331915
660.75551832544
660.64365572076
660.50289137532
660.32623918319
660.10490489526
659.82770891596
659.48029851877
659.04402816702
658.49436991499
657.79856031894
656.91199759443
655.77248495526
654.29058472972
652.33251143088
649.68767870355
646.00211365342
640.63317580285
632.29510848526
618.24512883481
661.22641273021
661.21926523903
661.20787478066
661.19556354623
661.18273812116
661.16964274334
661.15624099668
661.14248862988
661.12810853644
661.11244238732
661.0945024767
661.07301490965
661.04641493595
661.01282363356
660.970015216
660.91535958528
660.84573428083
660.75739459455
660.64578930318
660.50531973628
660.32900095844
660.10803937227
659.83125588588
659.48429433833
659.04850504964
658.4993510694
657.80405646087
656.91800649941
655.77899703913
654.29757384073
652.33987637933
649.69481061413
646.00456893504
640.60545234313
632.10773539208
617.19731905324
661.23013237003
661.22154110805
661.20959627082
661.19695457512
661.18389471967
661.17053682775
661.15691928223
661.14302714631
661.12857656431
661.11290666093
661.0950300499
661.07366591149
661.04724004992
661.01386534818
660.97130611367
660.91692107607
660.84757719271
660.7595168171
660.64816748855
660.50790724886
660.3317006252
660.11068966751
659.83360174363
659.48594335856
659.04887796877
658.49759595389
657.79893629284
656.90773541211
655.76100022903
654.26810466861
652.29333949943
649.6224051411
645.88828223821
640.39247384742
631.57711711187
615.06532095805
661.23597559863
661.22485286608
661.21119212565
661.19770071722
661.18429205689
661.17080679489
661.15714998694
661.14328381529
661.12890853275
661.11335766473
661.09565004218
661.07449487687
661.04829119173
661.01511070428
660.97265633216
660.91819782646
660.84847986903
660.75957903176
660.64663397364
660.50373830651
660.32336184231
660.09600123725
659.80949199351
659.44808450461
658.99122434865
658.41168819841
657.67294447345
656.72508070599
655.4983310493
653.8922087196
651.75599260846
648.85271286585
644.77245868277
638.72027677993
628.80783690143
608.49041324069
661.24679467997
661.22657167545
661.2115012942
661.19769694618
661.1842395602
661.1707515335
661.15709895257
661.14315569914
661.12844806098
661.11203464224
661.09255468555
661.06821748271
661.03678661857
660.99553646135
660.94117845023
660.86975076343
660.77646193606
660.6555217012
660.49998909659
660.30024838262
660.04441378249
659.71721216727
659.29884415029
658.76346450095
658.07708229939
657.19455834167
656.05525597006
654.57645410063
652.64293254002
650.08954092301
646.6693738211
642.00079545745
635.42119245463
625.65131231186
609.58369355213
574.43549090091
602.70839824547
569.53240199126
520.41836130864
457.25289398842
385.83290894679
311.81825554091
240.74242188457
177.12391664945
124.09964736301
82.992548861815
52.862021271342
32.803556138947
19.951956436269
11.987676289544
7.2243200974819
4.3900645041924
2.7079401721096
1.7014720559342
1.09024282551
0.71439809602387
0.47912347835777
0.32799843998473
0.2290018393992
0.16305086859683
0.1183127554219
0.087332407818971
0.065094572333189
0.049557979476529
0.038122588685588
0.029513236402582
0.023410887632091
0.018473921559478
0.014952235698053
0.012024190018732
0.0098937369376348
0.0080879453902636
0.006750734339708
0.0055972349371924
0.0047321978224688
0.0039727944225212
0.003396957768532
0.0028848696354138
0.0024900911549859
0.0021393496725519
0.0018595642033767
0.0016169096929219
0.0014120914638414
0.0012402607278873
0.001089047237817
0.00096326953252357
0.00085236068878325
0.00075729871259345
0.00067479376165869
0.00060302382970079
0.00054027699690706
0.00048527277178856
0.00043687694870942
0.00039420727212391
0.00035649165924323
0.0003230726483312
0.00029338059333683
0.00026693612688361
0.00024333076500888
0.00022221573757575
0.00020328711474421
0.000186281111825
0.00017097418181089
0.00016090065871188
0.0016667336906024
0.0069930973469647
0.0073912350035683
0.0072420241157785
0.0070978530738248
0.0069715033019091
0.0068597050656098
0.0067598847639463
0.0066701377978102
0.0065898689237653
0.006518493918386
0.0064551948903584
0.0063987476073177
0.0063475962374038
0.0063000858636251
0.0062547242454523
0.006204590875432
0.0061600885299411
0.0061145830630358
0.0060679897481077
0.0060198914574183
0.0059695839860212
0.0059160250176604
0.0058577745572221
0.0057929612807697
0.0057194432542635
0.0056352708716276
0.0055394269225759
0.0054327122810824
0.0053180855253434
0.0051995313449604
0.0050828777698071
0.004972686356759
0.0048738475329395
0.0047897639907677
0.0047225780814748
0.0046582285216428
0.0046267627962351
0.0046026029186186
0.0045809793566551
0.0045594596069376
0.0045379728461312
0.0045154031823205
0.0044958477465777
0.0044733603776395
0.0044497520033167
0.004425394757146
0.0044006316847238
0.0043755471478673
0.0043501903097376
0.0043245549279995
0.0042985770806183
0.0042726205570032
0.0042463759557598
0.0042191218808381
0.0041910980993602
0.0041618566388961
0.0041313291160567
0.0040992753689795
0.0040655164194729
0.0040301972226282
0.0039937001584289
0.0039564121100948
0.0039189823243717
0.0038820622887983
0.003846679997016
0.0038131752552331
0.0037822589126839
0.0037535865378511
0.0037259811207591
0.0036917108039431
0.0036418284957438
592.99771401659
551.04083293396
491.59444951821
420.42140264921
344.95170749933
270.62091677767
203.15209889251
145.96993881142
100.58647049228
66.645341094945
42.618803735083
26.436609614596
16.291219048651
9.9505260911025
6.0749362528115
3.7424880430446
2.3356621079889
1.4832318063131
0.96089622290376
0.63560610679831
0.42937644280712
0.29613440248365
0.20827805728623
0.14918142264548
0.10871781095455
0.080525478448187
0.060524065503512
0.046109945598694
0.035605260963106
0.027797769928126
0.021948850634156
0.017506566275378
0.014092249352761
0.011446042542663
0.0093679459078166
0.0077287067240799
0.0064180782241938
0.0053678782976736
0.0045155683956433
0.0038222042953595
0.0032525269797201
0.0027825954966383
0.0023922665954286
0.002065841928887
0.0017923574999499
0.0015608127797753
0.0013651349319062
0.0011977825670541
0.0010551774416436
0.00093230552877788
0.00082656118474311
0.00073487152828522
0.00065526743103517
0.00058591882461934
0.00052525732795972
0.0004720438283865
0.00042521234663451
0.00038389810471195
0.00034734939772679
0.00031493974256219
0.00028612890528884
0.0002604575147942
0.00023752897883211
0.00021700454083079
0.00019859258059329
0.00018204359584972
0.00016711371949035
0.00017546240670369
0.00354568960409
0.0072758945294655
0.0073532167419428
0.0071989755220985
0.0070590080973165
0.0069363908368429
0.0068278086150726
0.0067308677125264
0.0066440089135584
0.0065666218342701
0.006498023728216
0.0064372269154007
0.0063828470241547
0.0063332338552193
0.0062867252825218
0.0062418680547358
0.0062030463036598
0.0061584427095176
0.0061128166951345
0.0060660531090466
0.0060177411988547
0.0059671898288984
0.0059133695865259
0.0058548495758224
0.0057897649450203
0.0057159784833569
0.0056315433496705
0.0055354559107548
0.0054285558698615
0.005313794916761
0.0051952277034748
0.0050787018956715
0.0049688165024173
0.004870411973952
0.0047868879396848
0.0047203215450917
0.0046567371326349
0.0046256635281596
0.004601845093325
0.0045804803787604
0.0045590427497164
0.004537594235962
0.0045147744642295
0.0044950383509157
0.0044720209045113
0.0044481437654684
0.0044234517984345
0.0043982687764723
0.0043726803665727
0.0043467503651846
0.004320488833685
0.0042938944760824
0.0042673395433825
0.0042404101192346
0.0042123498297069
0.0041833791666919
0.0041530647913088
0.0041213323262284
0.0040879728890055
0.0040528751121462
0.0040162144147191
0.0039784167251604
0.003939929184394
0.0039014305858487
0.003863655379815
0.0038276374633928
0.0037938117513627
0.0037629179556173
0.003734571341099
0.0037073340762903
0.0036734326065408
0.0036237302913487
587.73862846788
535.33229074443
464.42716340928
382.80743442505
303.09916166997
230.85444471939
169.20109512724
119.82084633416
82.2233110368
54.519706994325
35.61595715688
22.705982420605
14.257681514302
8.8907424498401
5.5343108963799
3.4612414077397
2.1887102154714
1.4061995987969
0.91955897435331
0.61244174924994
0.41597797404889
0.28824238117895
0.20348301731527
0.146193620731
0.10682259154359
0.079275745930547
0.059693964850995
0.04556379251044
0.035214171662388
0.027534602717216
0.021752492416525
0.017367238472894
0.013989334823464
0.011369210989776
0.009311093542069
0.0076846053347164
0.0063854852611027
0.0053422519929143
0.0044958818145646
0.0038068713220045
0.0032402469140274
0.0027732047787432
0.0023841701106222
0.0020599758504549
0.0017869783126625
0.0015569701529807
0.0013614976886301
0.0011951206095313
0.0010526945751517
0.00093030541669159
0.00082483777221043
0.00073347733908991
0.00065413598518382
0.00058490370461339
0.00052437457929488
0.00047127143409365
0.00042455195279967
0.00038332787171069
0.00034685476330371
0.00031450804479388
0.00028575193577679
0.00026012719069257
0.00023723824024496
0.00021674767183216
0.00019836668119588
0.00018184668420484
0.0001669410915609
0.00017681677554526
0.0036360713443873
0.007283841829409
0.0073501398919498
0.007195818142713
0.0070560596076827
0.0069336294822362
0.0068252385767082
0.0067284877210936
0.0066418316142949
0.0065646482366009
0.0064962451381958
0.0064356269095263
0.0063814037197654
0.0063319215286328
0.0062855139731068
0.0062407167998511
0.0062020119105544
0.006157426668695
0.0061118216038492
0.0060650834050828
0.006016803932305
0.0059662932223365
0.0059125278438428
0.0058540813713903
0.0057890939108645
0.0057154335753427
0.0056311534773363
0.0055352453933715
0.0054285427622758
0.0053137526727141
0.0051953190298355
0.00507878667905
0.0049688403326964
0.0048703038709494
0.0047865834424086
0.0047197680538711
0.0046559385756806
0.0046246233000733
0.0046007461610433
0.0045794445473619
0.004557832131002
0.0045367404169812
0.0045134227590471
0.0044932011137298
0.0044695278052189
0.0044451406636132
0.0044198233980892
0.0043937888782457
0.0043671536559786
0.0043400067402768
0.004312400146385
0.0042843375319694
0.0042560540901111
0.0042274111413183
0.0041974151570878
0.0041662717372692
0.0041335971100072
0.0040992474767749
0.0040630208744894
0.0040249347962709
0.0039852802706148
0.003944591730447
0.0039034537094653
0.0038626464229101
0.0038230440943996
0.0037857304518827
0.0037512635780899
0.003720344919816
0.0036924517576524
0.0036659210999133
0.0036328657442646
0.0035836498813269
576.06726582403
500.56343591189
408.22672597793
316.0009233649
236.1894864112
172.89911754287
123.96515705688
87.455922524238
60.570973105745
41.067827360447
27.788511391481
18.347242244992
11.898129588105
7.6362063331607
4.8687079753227
3.1128490726866
2.0052078028581
1.3064464008099
0.86423053175393
0.58175843554806
0.39847302427459
0.27757749680385
0.19697147741362
0.14216960272464
0.10421480414803
0.077558647282016
0.058555977372721
0.044788283879873
0.034669635264154
0.027149715129173
0.021483241390045
0.017164931901583
0.013843770057218
0.011257923944739
0.0092294777155257
0.0076212419494119
0.0063385870448647
0.0053047554865577
0.0044679050898007
0.0037842335262488
0.0032230536720868
0.0027588973258823
0.0023732125197728
0.0020507720314358
0.0017796462487589
0.0015508560277462
0.0013564784815235
0.0011910215597323
0.0010491811823451
0.00092746115409303
0.00082236860014606
0.00073145257479368
0.00065240944944078
0.00058345260826709
0.00052312417270939
0.00047018578557012
0.00042361250179934
0.00038251244944354
0.00034615084864953
0.00031389882106303
0.0002852213125501
0.0002596610200204
0.00023682725839985
0.00021638554179132
0.00019804798436296
0.00018156587302487
0.00016672869868395
0.00017917790190614
0.0037649162314972
0.0072926375876703
0.0073454138410565
0.0071912116560848
0.007051798906696
0.0069296516245765
0.0068215166309704
0.0067250399832299
0.0066386807852141
0.0065618036664072
0.0064936905657067
0.0064333332124034
0.0063793349106134
0.0063300409180833
0.0062837862872014
0.0062391059523423
0.0062006394931995
0.0061561172737159
0.006110584794353
0.0060639108004352
0.0060156900785531
0.0059652463593731
0.0059115667587406
0.0058532340575885
0.0057884045654131
0.0057149493685689
0.0056309117081061
0.0055352677238132
0.0054288156837412
0.0053141746389238
0.0051958689143046
0.00507935699308
0.0049693615415838
0.0048706563029457
0.0047866531468865
0.0047194211552481
0.0046550115000523
0.0046233622282932
0.0045992757502014
0.0045778191460661
0.004556138697889
0.0045347297581657
0.0045112572680845
0.0044903361074782
0.0044657992910393
0.0044404725504987
0.0044139459940509
0.0043864353927394
0.0043580540766701
0.0043289242722271
0.0042991424625498
0.0042687653673745
0.0042380182675132
0.0042065560715869
0.0041734562110796
0.0041388826454165
0.0041023726689513
0.0040638031730105
0.0040230268876
0.0039802763420056
0.0039359829828796
0.003890877638179
0.003845753976278
0.0038016079311507
0.0037594994484895
0.0037206211309677
0.0036854812687497
0.00365481539173
0.0036277804239924
0.0036025052260946
0.003570874237518
0.0035223972144254
537.82421242023
408.09847753968
289.69269127853
204.94446149103
146.84626215448
106.43720146681
77.776484668564
56.663623916281
41.002254044226
29.341059337896
20.553323089333
14.103993326297
9.5041227871005
6.3146365565297
4.1585019375613
2.7280356284257
1.7953391516272
1.1914938722481
0.79996539969238
0.54459919403707
0.37663801716666
0.26483471894394
0.18898789152626
0.13706781905128
0.10096838236143
0.07544915143473
0.05711218752207
0.043797343008812
0.033988759751924
0.026664156819559
0.021135317852452
0.016912288593027
0.013656011285131
0.01111770748288
0.0091238400815969
0.0075416543022642
0.0062768433068783
0.0052576057556644
0.0044310857087198
0.0037553666083858
0.0032002360414281
0.002740685501732
0.0023586756528753
0.0020387928738594
0.0017700726288239
0.0015428318445267
0.0013499957517806
0.0011855147140254
0.0010446709965179
0.0009236616451811
0.00081917951039778
0.00072874640033327
0.00065009265724669
0.00058151436099496
0.00052146831553246
0.00046876181354027
0.0004223728557603
0.00038143785956857
0.00034522217252297
0.00031309309866234
0.0002845179974818
0.00025904394954807
0.00023628530777159
0.00021590880692962
0.00019762685689334
0.00018119351138035
0.00016639880230246
0.00018264017232283
0.0039351793316453
0.0073020937445341
0.0073391778607288
0.0071852119349747
0.0070462456411926
0.0069244652599054
0.0068166778942826
0.0067205541218831
0.0066345907822885
0.0065581089930435
0.0064903725569612
0.0064303561601755
0.0063766530578957
0.0063276032229234
0.0062815479245928
0.0062370267083423
0.0061988016715149
0.0061543640605368
0.0061089218220194
0.0060623363984749
0.0060142102890239
0.0059638777603079
0.0059103378088805
0.0058521831179243
0.0057875711226085
0.0057143815303036
0.0056306613888593
0.0055353670207994
0.0054292526119279
0.0053148709121678
0.0051967401934576
0.0050802584817098
0.0049701691430319
0.0048712078122717
0.0047867869534295
0.0047190190997848
0.0046539324443005
0.0046218124350337
0.004597443552214
0.0045758502758895
0.0045539685364198
0.004532405809009
0.0045083966369686
0.0044865154377065
0.0044609302243164
0.0044342873280647
0.0044061090178595
0.0043765349430653
0.0043456744583317
0.004313687316772
0.0042807282639101
0.0042468817631804
0.0042123862643377
0.0041768283327173
0.004139260755617
0.0040997308443433
0.0040576891374595
0.0040130993149368
0.0039659283570326
0.003916722882654
0.0038661511090221
0.0038151946087788
0.0037649496882937
0.0037167907971416
0.0036718920884642
0.0036314273510614
0.003595889121365
0.0035660089327376
0.0035404927104321
0.0035171965436489
0.0034875915194534
0.0034402253187356
303.77504314406
158.99165510576
111.85855396224
87.177169547884
68.823995189561
54.980060134253
43.437849417042
34.105892049208
26.205415132511
19.763952069378
14.527879705796
10.446604185729
7.3477022507449
5.0706846827999
3.4542854374469
2.335502538528
1.576238970993
1.0676926797418
0.72910348866278
0.50338969081206
0.3520708279754
0.24971349910502
0.17982264836385
0.13123595704289
0.097138352490415
0.072895883245561
0.055426584614725
0.042627100339536
0.033164053013472
0.026082054198325
0.020718735376086
0.016607239024275
0.013429705529726
0.010950977338076
0.0089966423162631
0.0074452297909726
0.0062028020719822
0.0052008500132021
0.0043862199194071
0.0037205321062319
0.0031724608709567
0.002718647204299
0.0023407026511186
0.00202437401491
0.0017582557703222
0.0015330999733365
0.0013419357771804
0.001178802943704
0.0010391469606933
0.00091897555599718
0.00081525386431935
0.00072538757108764
0.00064724907059177
0.00057908944414886
0.00051939595816586
0.00046698606606554
0.00042083903885326
0.00038011350437372
0.00034406914567608
0.00031208628920631
0.00028363975834944
0.00025827745371693
0.00023561282519324
0.00021531488430349
0.0001971012754578
0.00018073096639126
0.00016598923031258
0.00018767799360903
0.0041410358058869
0.0073122303763564
0.0073316003163275
0.0071778783972096
0.0070394320537734
0.0069180952998038
0.0068107341951631
0.0067150497227826
0.0066295664383702
0.006553572727416
0.0064863022996282
0.0064267070015784
0.0063733670480426
0.0063246190324477
0.0062788077148896
0.0062344850186635
0.0061965336195375
0.0061522146610598
0.0061068941409217
0.0060604248582612
0.0060124129124004
0.0059622063341012
0.0059088225022275
0.0058508736630802
0.0057865342651158
0.0057136894078078
0.0056303766140502
0.0055355222714857
0.0054298272850553
0.0053157647512376
0.0051978289764394
0.0050813749927365
0.0049711832238828
0.00487194528073
0.0047870642897068
0.0047185630462216
0.0046526754410645
0.0046199334244588
0.0045951639984296
0.004573308221212
0.0045512097752014
0.0045292714150593
0.0045048104413317
0.0044817231784204
0.0044548033725635
0.0044263812205096
0.0043959294563787
0.0043635307926366
0.0043292666193742
0.0042933552847559
0.0042559456488447
0.004217236640609
0.0041776191206029
0.0041364584640136
0.0040927983466941
0.0040465036735204
0.0039969480498927
0.0039442908206677
0.0038887559091605
0.0038312923161727
0.0037728604200402
0.0037148363996979
0.0036588206659505
0.0036064109944385
0.0035588134510565
0.0035171784217989
0.0034819893854392
0.0034536911160441
0.0034305992494748
0.0034101409251306
0.0033833860226058
0.0033377402149819
0.34866389832403
16.149743031043
24.375757219891
27.918570834191
28.533548992877
26.876245602215
23.843725921383
20.371904450399
16.881598977835
13.589516635959
10.637800606002
8.0911589006165
5.991759282076
4.3308682316942
3.0698475087464
2.1471109352733
1.48995079412
1.0320532353498
0.71710229022116
0.50175485049113
0.35451096386422
0.25339527031672
0.18335511368272
0.13449863566277
0.099875931145791
0.075060824686085
0.057134387112496
0.044004932192061
0.034260765376547
0.026938986671282
0.021399260779553
0.017158187087381
0.01387194142494
0.011305566533584
0.0092856408790154
0.0076820814681091
0.0063965592664226
0.0053607811052709
0.0045194402098969
0.0038317011826909
0.0032653118991568
0.0027968691599281
0.0024068720513668
0.0020805333587908
0.0018059266313739
0.0015739254632829
0.0013769902336898
0.0012090169845672
0.0010652138187425
0.00094158489789109
0.00083495470021711
0.00074258278960426
0.00066229051997901
0.00059226586464722
0.00053101190050764
0.00047726840558948
0.00042995209578922
0.00038819233497989
0.00035124958184746
0.00031849240251763
0.00028936942880692
0.00026341188347018
0.00024022399397566
0.00021946790131122
0.00020084972830531
0.00018411366953552
0.00016903299734378
0.00016182396707215
0.0024975439561503
0.0071437683780156
0.0073591789482879
0.0072066431783195
0.0070641234269733
0.0069393594556604
0.0068292501197078
0.0067313473659509
0.0066439411665704
0.0065662202735388
0.0064974165621252
0.0064365367714441
0.0063822309777288
0.0063328686458672
0.0062867731722838
0.006242454155001
0.0061938365721566
0.0061496569377635
0.0061044848659475
0.0060581580104655
0.0060102857019171
0.0059602300838399
0.0059070290986152
0.0058493173531207
0.0057852881423748
0.0057128377678852
0.0056299987439117
0.0055356637583903
0.0054304732471153
0.0053168128100856
0.0051991253852499
0.0050827187002753
0.0049724002247828
0.0048728401025349
0.004787598830106
0.0047186665858365
0.0046510836103921
0.0046171662836962
0.0045916160661934
0.0045692086495688
0.0045465716449031
0.0045237985269608
0.0044981762702321
0.0044726289891495
0.0044430433051612
0.0044110771548225
0.0043760692436914
0.0043379888463613
0.0042967718316038
0.0042526060029686
0.0042059424933647
0.0041576765314664
0.0041075509631625
0.0040549755060388
0.0039989819213444
0.0039390415414851
0.0038747385189777
0.0038063942803226
0.0037351454823713
0.0036625822541898
0.0035906136210029
0.0035212830357616
0.003456760078004
0.0033986956843099
0.0033483291319854
0.0033066283552274
0.0032738262386665
0.00324970445357
0.0032320366158383
0.0032173523729655
0.0031961339897382
0.0031539623584285
0.068821021907894
0.4948533258367
1.575659650321
2.9436996154793
4.2660154436725
5.2768069590188
5.8500144822635
5.9982741107344
5.6739020987979
5.1310871460969
4.4558023287657
3.7180152759438
2.9950342575359
2.337217143012
1.7755983642183
1.3215548565333
0.9694718907593
0.70495707513389
0.51102366847404
0.3709726284704
0.27056028693971
0.19873544492228
0.14725076012237
0.11014336436393
0.083235975621347
0.063582192280808
0.049056712216341
0.038198508012694
0.030045027206167
0.023854104931586
0.01910953818059
0.01542738136049
0.012556301425846
0.010296404216827
0.0085035614432489
0.0070672933458438
0.0059116522274314
0.0049747684511705
0.0042100808550452
0.0035810734064272
0.0030614402742344
0.0026297156905417
0.002269115543192
0.0019661024960089
0.0017104517797142
0.0014938409066447
0.0013094724695677
0.0011518524640586
0.0010165311667443
0.00090001465369227
0.0007992514286369
0.00071181626835271
0.00063564925611037
0.00056911941666393
0.00051084308458971
0.00045963645287317
0.00041451860085751
0.00037463922806857
0.00033931131624948
0.00030793941412094
0.00028001515495135
0.00025510103057158
0.00023282206125086
0.00021286015754424
0.00019493804766618
0.00017881616219095
0.00016420445958498
0.00022767110823324
0.0049448191110217
0.0073449152047274
0.0073013886156152
0.0071481672313181
0.0070117170714283
0.0068921644585314
0.0067865403273029
0.006692650203294
0.0066091349247568
0.0065351463184742
0.0064697921601571
0.0064119224859818
0.0063600599521445
0.0063125323912994
0.0062677132481315
0.0062241985203442
0.0061872122290838
0.0061433802734618
0.0060985899109007
0.0060526254393549
0.006005099796266
0.0059554052579394
0.0059026284083021
0.0058454641605521
0.0057821632178592
0.0057106562264839
0.005628966056666
0.0055359025856025
0.0054319662200784
0.0053193250787364
0.0052022807190197
0.0050860213935378
0.0049754183396304
0.0048750452541562
0.004788545343912
0.0047180018264341
0.0046482087300692
0.0046123950756336
0.0045854246042438
0.0045619964332033
0.004538468580751
0.0045142486443035
0.0044866568194686
0.0044570921578981
0.0044224754679618
0.0043834593905494
0.0043390795932159
0.0042887820714743
0.0042325728671155
0.0041707999071525
0.004104549600682
0.0040347871243438
0.0039614874309484
0.0038840411683159
0.003801396825621
0.0037130442143685
0.0036191785508717
0.0035219996871265
0.0034243076903029
0.0033289451095462
0.0032390130176656
0.0031572086531015
0.003085567219258
0.0030255243714821
0.0029777567265084
0.0029424485076184
0.002919027206028
0.0029060763092226
0.0029008024480763
0.0028971241047746
0.0028865125775925
0.0028525437650886
0.043424086486302
0.095434113505847
0.24973308432622
0.53385243975361
0.89894639484698
1.2837971275434
1.6312594152735
1.8931917249301
2.0404727822457
2.0570067869736
1.9629264862962
1.8018796262495
1.5763037128303
1.3276854365365
1.0810059953247
0.8563505662354
0.66430118139292
0.50752430051354
0.38401532799942
0.28919467678562
0.21764529391313
0.16420808360899
0.12448078801217
0.094959953637435
0.072962726076691
0.056513620078675
0.044135882044682
0.034756392210388
0.027600710838401
0.022086994264538
0.017809594039259
0.014471129482099
0.01184291723723
0.009760645504381
0.0080933754364478
0.006752714758679
0.0056680865952159
0.0047848897147706
0.0040599946248938
0.0034619001608263
0.0029664100976154
0.0025534172282742
0.0022072782371081
0.0019155919470997
0.0016691439109264
0.001459811345264
0.0012813052828874
0.0011283507969658
0.00099687476536103
0.00088346739086342
0.00078526872690909
0.00069992058917367
0.00062548291800457
0.00056041731648537
0.00050335962502746
0.00045318667216465
0.00040893138196618
0.00036979669279591
0.00033511173886813
0.00030428405671784
0.00027682036790266
0.00025229805735705
0.00023035842243158
0.00021069547496244
0.00019303089512041
0.00017713113136386
0.000162572889499
0.0002919906816149
0.0055271344501051
0.007353262955812
0.0072739701697029
0.0071221113699429
0.0069874584998222
0.0068694892298913
0.0067654201371066
0.0066731331028516
0.006591361320027
0.0065191364826438
0.0064554633748122
0.0063991003868615
0.0063485188970573
0.0063020436900616
0.0062580800046041
0.0062152612059116
0.006179018576467
0.0061356226016693
0.0060913165899872
0.0060458073494249
0.0059987151113545
0.0059494677593568
0.0058972009772087
0.0058406759377343
0.0057782182648896
0.005707817531293
0.005627502049752
0.0055359923805651
0.0054336289501162
0.0053223021980404
0.0052061288661358
0.0050901252715141
0.0049792392799213
0.0048779347497718
0.0047899455224827
0.0047174814472573
0.004644744044052
0.0046065362718399
0.0045777640207554
0.0045531060674273
0.0045285432862445
0.0045025540332291
0.004472350700031
0.0044376865681048
0.0043958557786201
0.004346299006309
0.0042872636622024
0.0042175594284157
0.0041368922565173
0.0040460468225214
0.0039471283740511
0.0038423787536637
0.0037325335121725
0.0036177243705373
0.0034971570856099
0.0033715501659561
0.0032436185704254
0.0031177065862364
0.0029979490214422
0.0028881914283814
0.0027911942749901
0.0027088011951244
0.002641983781523
0.0025909733646226
0.0025553504629869
0.0025341557428598
0.0025260373769727
0.0025278875014763
0.002535878593334
0.0025448800938213
0.0025453213057631
0.0025198269320761
0.027620621960928
0.047824778691434
0.076736270609984
0.1534685390152
0.27004996237648
0.41179135581806
0.56336085747985
0.70408181135839
0.82077500199435
0.89316863081922
0.91742951862647
0.89581984899312
0.83860602463632
0.75283040382108
0.65112539118228
0.5456345454147
0.44555949122193
0.35668777377819
0.28138674953179
0.21987808449584
0.17092615064804
0.13263411662553
0.10300643196689
0.080236430704155
0.062780073217754
0.049388520305254
0.039097115712882
0.031154491910809
0.024991863848048
0.020183699033886
0.016410199935867
0.013429668315186
0.011057932053772
0.0091605385232723
0.0076346113797445
0.0063996740840291
0.0053941683787926
0.0045683519313886
0.0038882381601295
0.0033254988603291
0.0028571263370678
0.0024652079216967
0.0021352494085431
0.0018569872247991
0.0016210298890311
0.0014201810643349
0.0012483223220122
0.0011007905755797
0.00097380611126774
0.00086402741654423
0.00076881689538233
0.00068589022864707
0.00061351000221044
0.00055016396287777
0.00049455108567709
0.00044558725302668
0.00040234546527385
0.00036408243323993
0.00033013791729858
0.00029994842352321
0.00027303199527362
0.00024897646456667
0.00022743836965022
0.00020812004586196
0.00019075972489235
0.00017512133470643
0.00016085525967036
0.00043678593987972
0.0060882250547558
0.0073522736215343
0.0072420571710543
0.0070915457495948
0.0069589000619326
0.006842820496137
0.0067406275739965
0.0066503180678001
0.0065706267791934
0.0065004806765447
0.0064387722048478
0.0063841589840479
0.0063350566157627
0.0062897894304483
0.0062468019504949
0.0062047794495754
0.0061692981312942
0.0061264480201357
0.0060827010851212
0.006037715986098
0.0059911286534802
0.0059424093077842
0.0058907444009404
0.0058349612830151
0.0057734650573447
0.0057043203154392
0.0056255784559356
0.0055358750879633
0.0054353965358591
0.0053256837589062
0.0052106401291778
0.0050950585814384
0.0049839485806735
0.004881675682789
0.0047920600927573
0.004717483189475
0.0046417455301337
0.0046007823657128
0.0045697948187766
0.0045435398382445
0.0045175873238701
0.004489498997478
0.004455841111606
0.0044147499868101
0.0043629679934427
0.0042982252459469
0.004217070513004
0.004117039301669
0.0039976171606237
0.0038608108031302
0.003711394692016
0.0035554499992154
0.0033971369848591
0.0032373469389757
0.0030771986672666
0.0029195410343936
0.0027693250546812
0.0026315926224649