/*--------------------------------*- C++ -*----------------------------------*\
| =========                 |                                                 |
| \\      /  F ield         | OpenFOAM: The Open Source CFD Toolbox           |
|  \\    /   O peration     | Version:  2312                                  |
|   \\  /    A nd           | Website:  www.openfoam.com                      |
|    \\/     M anipulation  |                                                 |
\*---------------------------------------------------------------------------*/
FoamFile
{
    version     2.0;
    format      ascii;
    arch        "LSB;label=32;scalar=64";
    class       volScalarField;
    location    "0.00018";
    object      T;
}
// * * * * * * * * * * * * * * * * * * * * * * * * * * * * * * * * * * * * * //

dimensions      [0 0 0 1 0 0 0];

internalField   nonuniform List<scalar> 
109340
(
372.99990992063
372.9986466772
372.99643054797
372.99360702895
372.99058560386
372.9875614151
372.98460664697
372.9817575027
372.97897516853
372.97618103768
372.97338164092
372.9705800138
372.96777306117
372.9649531291
372.96210975069
372.95922953335
372.95629539055
372.95328601629
372.95017450962
372.94692717334
372.94350198973
372.93984770464
372.93590080721
372.93158078098
372.92678456783
372.92137835726
372.91518608126
372.90797250087
372.89941681357
372.88907023295
372.87628403574
372.86008082942
372.83891225748
372.81018488755
372.76925044318
372.70735762821
372.99970797134
372.99803118816
372.99547459131
372.99259455687
372.98963917509
372.98670497591
372.98381266792
372.98095203695
372.97811767122
372.9752978504
372.97248481917
372.96967390187
372.96685859108
372.9640300156
372.96117658154
372.95828398743
372.95533467963
372.95230603394
372.94916946869
372.94588941643
372.94242195386
372.93871317685
372.93469611584
372.93028545876
372.92537158071
372.91981153319
372.91341659989
372.90593341059
372.89701443454
372.8861698506
372.87268459777
372.85546591067
372.83274542587
372.80147264279
372.75589444913
372.68456427452
372.99974755023
372.997764718
372.99511077188
372.9922797613
372.98938008897
372.98646520624
372.98354746694
372.9806441364
372.97776861298
372.97491803876
372.97208375419
372.96925840702
372.96643395614
372.96360080158
372.96074734628
372.95785940607
372.95491945384
372.9519051223
372.94878797619
372.94553285879
372.94209582793
372.93842350311
372.93444945094
372.93008849981
372.92523097004
372.91973369354
372.91340788476
372.90600011759
372.89716274286
372.88640561262
372.87301283278
372.85588731471
372.8332335921
372.80188521452
372.75561841723
372.68077253407
372.99970851996
372.99740706133
372.99462113424
372.99169738067
372.98873324849
372.9857557107
372.98278115806
372.97982486183
372.97689876194
372.97400702836
372.97114589845
372.9683088727
372.96548752043
372.96267238291
372.95985375817
372.95701796846
372.95414832118
372.95122314725
372.9482146259
372.94508907873
372.94180299548
372.93830314677
372.93452211252
372.9303734381
372.92574543794
372.92049259435
372.91442318154
372.90728013369
372.89871112422
372.88821923865
372.87507809404
372.85817313051
372.83565050616
372.80415296057
372.7566775716
372.67541427296
372.99949488491
372.99643817542
372.99302009985
372.98967552555
372.98640902506
372.98321798732
372.98011392942
372.97712494141
372.97427075764
372.97154620721
372.96895446824
372.9664951027
372.96416070219
372.9619424567
372.95983061066
372.9578128938
372.95587383532
372.95399326514
372.95214096822
372.95028649628
372.94835169797
372.94625995402
372.94392600854
372.94124681741
372.93809545764
372.93430735147
372.92966776455
372.92389041132
372.9165826189
372.9071911294
372.89490485296
372.87849284887
372.85586700532
372.82317593846
372.77184029422
372.67543483502
373.00336037321
373.01757882362
373.03288962405
373.04808490614
373.06273292801
373.07659641381
373.0895482582
373.10153423453
373.11254378204
373.12258597782
373.13168390775
373.13986423388
373.14715296174
373.15357388615
373.15914579663
373.16388171732
373.16778865578
373.17087075668
373.17317831928
373.17482823897
373.17581114133
373.17607500413
373.17554229222
373.17408920241
373.17159216246
373.16783206186
373.16252093574
373.15526329666
373.14550381965
373.13244543428
373.11489954103
373.09105890755
373.05779424395
373.00925817907
372.93190175807
372.77562132597
372.6091397741
372.45435742941
372.21744849643
371.87872866698
371.42738586523
370.85284236327
370.14151319304
369.27977203506
368.25574192693
367.06447770518
365.70477913398
364.19140936408
362.57308068461
360.86897340638
359.12492251097
357.37267256253
355.64228839878
353.95590155677
352.32728171407
350.76602742887
349.27752370718
347.86224042556
346.51909715919
345.24579598346
344.03895153396
342.89519827996
341.80735319233
340.77537783888
339.79612675251
338.85804159797
337.97165897643
337.11753917057
336.30841897599
335.52760753887
334.78509152292
334.06735750956
333.38306776279
332.7198180141
332.0867365274
331.47088479688
330.88286353539
330.30888308561
329.76031844088
329.22415558427
328.70988871444
328.208428845
327.72377520157
327.25335711415
326.79530086382
326.35153555863
325.91885358373
325.49858442224
325.08931915067
324.69076392872
324.30221055763
323.92328939832
323.55348725857
323.19247086501
322.83985367611
322.49529446312
322.15844121894
321.82898362154
321.50662524001
321.19109328202
320.8821255407
320.57946147421
320.28288097363
320.04455649889
322.00542611335
321.26921080701
320.3407473307
319.43364396284
318.55400429987
317.70132111975
316.87497566563
316.07560008059
315.30553589916
314.5685805812
313.86906887487
313.21055428193
312.59460370858
312.02017510717
311.48371595819
310.97977963853
310.44296593972
309.98561186528
309.53868409604
309.09463879947
308.64571145142
308.18304659591
307.69612313649
307.17282214447
306.60029539212
305.96728768077
305.26766786335
304.50347658657
303.68489963985
302.82609056428
301.93962246094
301.03327691659
300.11181139421
299.18377715832
298.27192676488
297.42430544869
296.55471573601
296.10399411053
295.82540002594
295.6501115263
295.52054457457
295.40356733111
295.28347012719
295.1536677911
295.01102633765
294.85419209992
294.68256825567
294.49556722401
294.29268037759
294.07352431479
293.83769260191
293.58444129797
293.3123026355
293.01877207577
292.70075450766
292.35577298901
291.98308795438
291.58432401315
291.16286406551
290.72393727938
290.27442988688
289.8229960404
289.37912854115
288.95364185355
288.55901184447
288.2092603321
287.92327990876
287.73607616544
287.6731966194
287.82803733464
288.41090375825
289.9211367889
372.56585104236
372.37288127759
372.07880824478
371.67101232347
371.14431955103
370.48817214713
369.69499168916
368.7564623813
367.66784289104
366.42945514132
365.04540196909
363.53238452116
361.9214088209
360.24335070861
358.52872574457
356.80840624888
355.10994800097
353.45382572275
351.85469184279
350.32141453638
348.8585271978
347.46735746498
346.14681248358
344.89431437513
343.70687647225
342.58034173394
341.51073245977
340.49403031069
339.52720859762
338.60591360143
337.72738175269
336.88849950867
336.0861958143
335.31827587064
334.58184966937
333.87536560307
333.1962201044
332.54325187581
331.91419542248
331.30806649468
330.72304565424
330.15817489677
329.61204694027
329.08363637278
328.57204593153
328.07609415308
327.59527188325
327.12836384515
326.67512360274
326.23437570212
325.80588611268
325.38874625985
324.98261173112
324.58690342755
324.20112109945
323.82480798624
323.45753605707
323.09892298049
322.74859501617
322.40621258564
322.07144774426
321.7439931711
321.42355331686
321.10985936917
320.80264211873
320.50166461308
320.20626885844
320.26637136472
321.91083648584
321.02982761462
320.10476745462
319.20476939829
318.3323265002
317.48667128184
316.66741553173
315.87559874314
315.11396726881
314.38653712749
313.69755028407
313.05013378824
312.4452119192
311.88106936606
311.35361002305
310.85704615063
310.44237999859
309.98514121201
309.53831199232
309.09437230855
308.64557189539
308.18307229489
307.69636969751
307.17336071277
306.60120616397
305.96864662156
305.26952841779
304.50585879343
303.68779459908
302.82948036736
301.94351254631
301.03769659624
300.11679711996
299.18931885109
298.27786786953
297.4301747841
296.55932847305
296.10684291543
295.82659498179
295.65001508091
295.519418508
295.40148714115
295.28031200252
295.14931849694
295.00513417528
294.8464225811
294.67248452645
294.4826869415
294.27649396629
294.05351401989
293.81333476234
293.55519498578
293.27759638892
292.97800261852
292.65335610145
292.30132076309
291.92143793316
291.51568659839
291.08784629806
290.64353572422
290.19006368621
289.73615907794
289.29150435627
288.86695565567
288.47483461102
288.12899751991
287.84829649943
287.66727847753
287.61069195227
287.77470053286
288.36973418721
289.89813178867
372.54633385843
372.31180810144
371.9532316054
371.46244732391
370.85018982175
370.11215750398
369.24810963525
368.25684849375
367.13823733824
365.89196981746
364.52651964776
363.05395838414
361.49019908206
359.86239785121
358.19811440638
356.5251275034
354.86887349234
353.24986826841
351.68239066431
350.17526135979
348.73374196145
347.36024627458
346.05414546025
344.81348396316
343.63551789175
342.51686511334
341.45426442987
340.44379814692
339.48175123172
338.56504146513
337.6901058724
336.85452461553
336.05511457659
335.28962289455
334.55555055709
333.85091904567
333.17371425778
332.52223046111
331.89471905405
331.28985194321
330.70604439767
330.14228498797
329.59705029101
329.06971373892
328.5587765368
328.06381638359
327.58350174576
327.11746234004
326.66465634689
326.22460652729
325.79658131924
325.38002232888
324.9743572419
324.57902715475
324.19362663766
323.81767068034
323.450755481
323.09246871487
322.74244759091
322.40035090582
322.06585684868
321.73865480127
321.4184502597
321.10497005401
320.79796132653
320.49720004063
320.20200857708
320.29105149077
321.90209883899
321.01907321443
320.09432150855
319.19481159579
318.32294496377
317.47794397423
316.65942175701
315.86841269317
315.10764274114
314.38109269381
313.69296168675
313.04633574415
312.4421078684
311.87854652186
311.35155603082
310.85536378788
310.44112550626
309.98411831644
309.53750285055
309.09379322623
308.6452695163
308.18313009561
307.69690858146
307.17453569376
306.60319279301
305.97161280158
305.27359561752
304.5110739422
303.69413998791
302.83691924145
301.95205755667
301.04741452886
300.12777338018
299.20154650438
298.29100870677
297.44320722794
296.5696470521
296.11327303565
295.82934989553
295.6499004751
295.51702382865
295.39700643186
295.27346148399
295.13982961995
294.99228327839
294.82942938405
294.65037878846
294.45439397832
294.24088017695
294.00942530328
293.75960683849
293.49063347594
293.20094629856
292.88796260874
292.54873708021
292.18128625886
291.78581188929
291.36509284082
290.92382019064
290.46846532064
290.0069659487
289.54847333931
289.10293060915
288.68118822953
288.29513590415
287.95829238636
287.6894448753
287.52133733364
287.47892468923
287.66268750391
288.28374354379
289.85107666843
372.5071082187
372.17743809887
371.68013833777
371.04087062878
370.28692693891
369.43351844563
368.48758298214
367.45332391939
366.32603227626
365.10317492437
363.79118790275
362.38802102317
360.90222687214
359.35153407675
357.75939357089
356.15166813141
354.5517352353
352.9806073148
351.45346154122
349.98043683303
348.56752985221
347.21688237639
345.92998075408
344.70540289425
343.54062153459
342.43292811707
341.37932596171
340.37669283025
339.4214071709
338.51042466123
337.64072592234
336.80930637998
336.01388207767
335.25163944474
334.52068145137
333.8186264061
333.14392817501
332.49446140195
331.86902538401
331.26579307274
330.68370060871
330.12122083953
329.57745594261
329.05115279416
328.54141609924
328.0473505296
327.56801766419
327.10281009945
326.65076633455
326.21148788048
325.784098401
325.3682215072
324.96312928287
324.56837490393
324.18346702241
323.80798116581
323.44150867818
323.08364175224
322.73402385829
322.39230609654
322.05816424155
321.73128839609
321.4113920776
321.09820514002
320.79147362271
320.49095958134
320.19613820359
320.33017114917
321.88945749339
321.00350607639
320.07928716478
319.18048596106
318.30944120546
317.46537434651
316.64790220935
315.85805181205
315.09852015264
314.37323728964
313.68633983335
313.04085362782
312.43762589412
311.87490135481
311.34858509983
310.85292651085
310.43923013181
309.98256644152
309.5362727385
309.09290983804
308.64480410119
308.1832092715
307.69771553726
307.17630558549
306.6061921874
305.97609695813
305.27974987141
304.51897163513
303.70375614037
302.84820273754
301.96501961968
301.06215673669
300.14443229577
299.22011349794
298.31098614284
297.46308659942
296.58557853465
296.12333718358
295.83379816609
295.64995198902
295.51361899998
295.39041919649
295.26338117798
295.12568810767
294.97307170908
294.80390321232
294.61703108899
294.41155310495
294.1867850599
293.94228757653
293.67763200312
293.39200506939
293.0837825845
292.75036163763
292.38911626634
291.9986787174
291.5803529982
291.13818872703
290.67815018402
290.20799116482
289.73661787532
289.27363407736
288.82909182629
288.41357056231
288.03815978941
287.71585263784
287.46560960258
287.31463323374
287.29510018761
287.50725377386
288.16578141486
289.78939670931
372.40221073888
371.79697977698
370.99570722762
370.1224013226
369.21989729597
368.29041302219
367.32558771761
366.31361814854
365.23787739035
364.09288949253
362.86630886702
361.55727440485
360.1692628135
358.71448114509
357.21288876163
355.68644615378
354.15736890893
352.64626550615
351.16931345111
349.73795462724
348.35960786734
347.0386997347
345.77548053999
344.57056138769
343.42261262759
342.32913476321
341.28711102344
340.29413255219
339.34740612418
338.44362276932
337.58011962821
336.7541724958
335.96336597443
335.20532525262
334.47798264646
333.77928522278
333.10738375856
332.46063636007
331.83748837859
331.23643122061
330.65621724622
330.09551443819
329.55332461967
329.02842878727
328.52006884092
328.02714584574
327.54900686908
327.08473749602
326.63372614998
326.19527981826
325.76874175663
325.35359613564
324.9492082097
324.55514876556
324.17085570154
323.79594620201
323.42999759391
323.07264162083
322.7235096184
322.38224684146
322.04852829495
321.72205079727
321.40253339263
321.08970430492
320.78330120382
320.48308671589
320.18855512346
320.3810845274
321.87358423194
320.98343840467
320.05981041527
319.16189900483
318.29190249842
317.44903482244
316.63291637385
315.84456417893
315.08663770883
314.36300103011
313.6777082873
313.03370540686
312.43177880129
311.87014193904
311.34470100694
310.84973396023
310.43669251796
309.98048203613
309.5346144414
309.09171200261
308.64416162868
308.18329054836
307.69876467861
307.1786368647
306.61016257631
305.98204857147
305.28793306747
304.52948813669
303.71657527116
302.86325705002
301.98231956455
301.08183511723
300.16667258792
299.24490997755
298.33769794254
297.48976643833
296.6073088373
296.13731867309
295.84025141991
295.65048412872
295.50951893
295.38209955051
295.2504414627
295.10730610219
294.94791386472
294.77024196266
294.57279574019
294.35443308734
294.11436561695
293.85212546728
293.56730262163
293.25909498973
292.92584002967
292.56508311439
292.1747821602
291.754612773
291.3074009781
290.83894603021
290.35733405071
289.87177436876
289.39192204603
288.92771078787
288.48887963707
288.08511860668
287.72636021772
287.4247627951
287.19867842332
287.06978217528
287.0796666312
287.32694589091
288.03158709842
289.72426859952
371.79369430302
370.24967162941
369.19659914111
368.32361289312
367.48276293319
366.64736107639
365.78710541616
364.89007804641
363.93270369196
362.90216393318
361.78981696368
360.59516543121
359.32021726117
357.97399766688
356.57334917563
355.13878379543
353.69083686103
352.2492635828
350.831161471
349.44903359072
348.11179419719
346.82458586872
345.59049661161
344.4093916493
343.28107966339
342.20426472163
341.1768042013
340.19579653417
339.25918987519
338.36429433232
337.50841296295
336.68897590035
335.90382173155
335.15086816609
334.42784153356
333.73304986429
333.06461897008
332.42101110537
331.8005562336
331.2020548474
330.62404550797
330.06542251095
329.5250038008
329.0018595315
328.49499183768
328.00349466363
327.52662503629
327.06356053274
326.61369019985
326.17622695975
325.75066380909
325.33636106513
324.93281989237
324.53951547807
324.15594716749
323.78171088364
323.41638958045
323.05962725517
322.71104105842
322.3702977037
322.03707652027
321.71107083375
321.3919924746
321.07956815994
320.77353822609
320.47370676915
320.17946626065
320.44648716917
321.85447516119
320.95910205821
320.03604083604
319.13916565251
318.2704246825
317.42900631641
316.61453164643
315.82800479696
315.07203946555
314.35041862602
313.66709397527
313.02491121138
312.42458040087
311.86427615814
311.33990625803
310.84578412431
310.43350829425
309.97785769905
309.53251766131
309.09018646009
308.64332558866
308.18335330467
307.70002979047
307.18149580249
306.61506143376
305.98941733499
305.29808915393
304.54256411773
303.7325367191
302.88201929944
302.00389058868
301.10637608328
300.19441146783
299.27585092051
298.37107995942
297.5232250843
296.63512977886
296.15559673094
295.84911255135
295.65188365792
295.50510865771
295.3724412258
295.23507950559
295.0851571175
294.91728208344
294.72889352865
294.51804483318
294.28327758788
294.02369911075
293.73880448633
293.42829204504
293.09145406752
292.72669028367
292.33191614858
291.9061169462
291.4506472171
290.97067500308
290.47472429488
289.97286601314
289.4755629931
288.99304479998
288.53505564199
288.10995093177
287.72587434396
287.39106686276
287.11660158164
286.91770148372
286.81657289902
286.8594300616
287.14533742276
287.90088687082
289.66946194637
362.97992698919
366.58890727989
366.33197273315
365.91530189728
365.42891160432
364.85591494158
364.20290044894
363.47665109742
362.68085762145
361.81040938124
360.85443343457
359.80932217674
358.6781274774
357.46645782029
356.1875898915
354.86008287094
353.50368467758
352.13759277946
350.77975587396
349.4450884784
348.14424033181
346.88483013523
345.67100442636
344.50560403874
343.38854689899
342.31894813882
341.29641023567
340.31879172052
339.38401381832
338.48940599568
337.63322768448
336.81308452561
336.02658065364
335.27176625442
334.54684901447
333.84996100113
333.17922646947
332.53327575297
331.91053759273
331.30966572022
330.7292672727
330.16833182499
329.62565045084
329.10026830639
328.59116568489
328.09757429013
327.61863800733
327.15358777247
326.70174101175
326.26241663459
325.8350542236
325.41899613953
325.01374793191
324.61878175162
324.23365801662
323.857923297
323.49113591529
323.13293545223
322.78296720402
322.44090056376
322.10639516463
321.77914046645
321.45885304012
321.14527527916
320.83819755497
320.53730221944
320.2423208071
320.04932379804
321.99537513466
321.16361528105
320.23642632875
319.3336339873
318.4593078219
317.61276382649
316.79338540649
316.00177630276
315.2401200569
314.5118964614
313.82101402239
313.17058559737
312.56181948316
311.9934634588
311.46192915692
310.96189107971
310.42967009996
309.97468215681
309.52996751964
309.08831482615
308.64227389699
308.18337100549
307.70147866458
307.18484333973
306.62084202426
305.99814877366
305.31015758261
304.55813560408
303.7515749754
302.90442220626
302.02966102481
301.13569964396
300.22755961603
299.31284682223
298.41107107002
297.56343522625
296.68791954601
296.19100001088
295.86722105144
295.65614030263
295.49860092565
295.35629491006
295.20859445742
295.04620179487
294.86271237919
294.65448517748
294.41869658982
294.15327139333
293.85681333407
293.52896118212
293.16989258356
292.77932451462
292.35615965859
291.89993562563
291.41250461602
290.89891905179
290.36924344631
289.83658012698
289.31407950192
288.8132645218
288.3442245209
287.91450012675
287.52771039262
287.18903028517
286.90283290943
286.67658956921
286.52364680176
286.46930954466
286.56243164468
286.90666411712
287.7403891204
289.62456171316
353.86014124006
359.05475053744
359.88540912863
360.27968667744
360.44350109296
360.42034082071
360.21543003456
359.85659942698
359.36644033472
358.76207353928
358.0503335482
357.2411866476
356.33853387636
355.34565642658
354.27404700183
353.14018836459
351.96203729572
350.75788842698
349.54487726676
348.33832500755
347.15044674218
345.9898115252
344.86242080755
343.77195800468
342.72052665052
341.70895857966
340.73708889075
339.80351844542
338.90777662892
338.04813738834
337.22293097182
336.4300528521
335.66813212723
334.93553046666
334.23057575574
333.55153208311
332.89716154184
332.26608514501
331.65692297743
331.06833855547
330.49931150462
329.94879004285
329.41576022982
328.89921095746
328.39835707467
327.9124054294
327.44059716811
326.9821908493
326.53652372848
326.10303486927
325.68109055023
325.27016070584
324.86969365886
324.47926338753
324.09842377496
323.7267481298
323.36384127107
323.00930739793
322.66282140729
322.32404861589
321.99268184637
321.66842292098
321.35099382429
321.04011779568
320.73558304477
320.43707774921
320.14306226189
320.84043928981
321.77213399452
320.86024858269
319.93980249366
319.04706416668
318.18329714884
317.34764181687
316.53973501889
315.76053551508
315.01247816575
314.29901837781
313.62368206168
312.98889086173
312.39503144209
311.84011703891
311.32006559987
310.82934009284
310.41998928666
309.96661686677
309.52343107461
309.08344214767
308.63941607316
308.18314372835
307.70477478799
307.19281856104
306.63482515817
306.01944011471
305.33974413429
304.5964628701
303.79857410708
302.95983438531
302.09346283661
301.20831588087
300.30965964021
299.40457907473
298.51063421029
297.66486739097
296.78186288839
296.25793208028
295.9053090541
295.67028595366
295.49407515545
295.33536063382
295.17028935383
294.98653702218
294.77588809836
294.53225018241
294.2506822805
293.92778799929
293.56228829021
293.15539552861
292.70934558988
292.22590878223
291.70756077607
291.15974920587
290.59199433274
290.01900453418
289.46135063549
288.93628955498
288.45691226373
288.03019712477
287.6584678695
287.33880185814
287.06526988662
286.83019605139
286.63167154289
286.47401607716
286.37108044843
286.35795671828
286.48578889562
286.86962307061
287.76878320033
289.74760013107
349.47377231203
354.04231440814
355.07661228705
355.72696720843
356.15361611004
356.41902345847
356.51769797538
356.47119525548
356.26827225246
355.92714476171
355.46799661635
354.89888769049
354.21593309839
353.43623279993
352.57100093167
351.63135509287
350.63243572586
349.59101584028
348.52331430295
347.44408617319
346.36621108128
345.30080760012
344.25554239063
343.23596009444
342.24547648462
341.28644242094
340.35994340784
339.46604738567
338.60462110142
337.77462018478
336.97492380513
336.20487330097
335.46302882125
334.74820644979
334.05873257075
333.39355381392
332.75159988217
332.13156945787
331.53221059539
330.95241937016
330.39140104381
329.84808484964
329.32153826559
328.81084468273
328.31537467146
327.83432535779
327.36698405423
326.91264466958
326.47073109316
326.04067696162
325.62190770836
325.21388002511
324.81610944201
324.42819224524
324.0496863802
323.68018912158
323.31930119723
322.96667982856
322.62199300581
322.28490351922
321.95510312412
321.63230475619
321.31625828027
321.00673399622
320.70351583519
320.40630758238
320.11266756862
321.29123044477
321.69113762435
320.77242661753
319.85526548528
318.96643909458
318.10709507176
317.27647053161
316.47426593138
315.70142270212
314.9602317643
314.25386741056
313.58548008365
312.95711214578
312.36886155293
311.81860145942
311.30226423598
310.81444821375
310.40753243574
309.95612656205
309.51481117378
309.07686658268
308.63532487051
308.1823022248
307.70829222773
307.20213135239
306.65159761094
306.04532438645
305.37602789391
304.64376814973
303.85685629931
303.02876079684
302.17294313011
301.298805956
300.41197359921
299.51903869986
298.63547384356
297.79383842324
296.90465829926
296.35112257123
295.96419204909
295.69919975704
295.49923335914
295.32007546928
295.13360970908
294.9234898977
294.6779817978
294.38762952957
294.0449525924
293.64534335089
293.18880875121
292.68213267446
292.13439967028
291.55361596767
290.95121866014
290.34483491115
289.75829418974
289.22083203719
288.75796732145
288.37960279246
288.08388929034
287.86079150328
287.69283624046
287.5552477314
287.42836596572
287.29733988396
287.15803938638
287.01903738556
286.9046654252
286.85274082283
286.93962941204
287.29740961023
288.17821563483
290.12086031049
346.78017270331
350.42912184359
351.45489797806
352.15155198844
352.66517347297
353.04865840203
353.30096289102
353.41692601239
353.40951212431
353.26686130011
352.99114699531
352.60780857566
352.12334384162
351.53091894666
350.84257545368
350.07501413281
349.23922382134
348.34947807224
347.42088343957
346.46756143226
345.50209038388
344.53501003686
343.57560546208
342.63085824558
341.70572123115
340.80342383871
339.92634081863
339.07571574132
338.2520574013
337.45531651157
336.68519169687
335.9411097574
335.22201740982
334.52709887516
333.85574607778
333.20675850913
332.57928471726
331.97197966116
331.38407172748
330.81485561577
330.26328501362
329.72852266655
329.2096060897
328.7060233326
328.21699353795
327.74182230394
327.27979710883
326.83032003018
326.39293204207
325.96701158717
325.55204414065
325.14749703405
324.75297974687
324.3680895604
323.99239504012
323.62550213521
323.26703445605
322.91668480793
322.57412499545
322.23903487628
321.91110976623
321.59007317335
321.27570126381
320.96778802442
320.66604495878
320.37023969603
320.0744829068
321.64717906538
321.59316757644
320.66829037396
319.75499914529
318.87097396992
318.01700742148
317.19241880671
316.3969933929
315.63166266473
314.8985531328
314.20051267611
313.54025384978
312.91937647785
312.33764454713
311.79277445215
311.28072377248
310.7962558076
310.39211448816
309.94298573052
309.50384537178
309.06828926803
308.62966154152
308.18045865441
307.71157870984
307.21224881372
306.67053106219
306.07507484278
305.41820056337
304.69919519651
303.9255457801
303.11030746055
302.26715163765
301.40610994925
300.53327760316
299.65485761941
298.78425962011
297.94950438734
297.05766447027
296.47483628478
296.050269258
295.75003144565
295.52114971572
295.31726226468
295.10549509111
294.8642278784
294.57669594399
294.22848353528
293.80925644226
293.31384033993
292.74815945109
292.13836397263
291.50838276827
290.88306315094
290.28710850473
289.75283308515
289.31741777819
289.01245678291
288.84490706934
288.79178727849
288.81915477691
288.88536043512
288.94956022618
288.97720004007
288.943299092
288.83400968744
288.65322214456
288.44141931951
288.21522641255
288.02526082402
287.96967741195
288.23501630865
288.99061594421
290.70977489477
345.22222234494
347.55831596242
348.5968886855
349.2632478287
349.79430074923
350.21918464693
350.53830985505
350.75118258342
350.84508986887
350.83459432943
350.70732333805
350.46645028993
350.11274652081
349.67906722641
349.14670725337
348.52426324446
347.83077122587
347.07842514123
346.27760963333
345.44189352315
344.58363971425
343.71374575032
342.84068857778
341.97219056686
341.11417273786
340.27099286213
339.44580808324
338.64088652142
337.85752017084
337.09644718762
336.35790570975
335.641757775
334.94773930558
334.2754126398
333.62406454324
332.99278221968
332.38118419875
331.78848084506
331.21374863872
330.65642798343
330.11543984851
329.59020616525
329.08027615493
328.5848007189
328.10320675569
327.63469490268
327.17881315805
326.73510822822
326.30294798025
325.88184642538
325.4712434396
325.07080546496
324.68012972202
324.29877041688
323.92634990755
323.56246830027
323.20685055466
322.85916439293
322.51908122915
322.18630559663
321.86055429862
321.54157738419
321.22915296444
320.92300134262
320.62287425282
320.32859722335
320.02680645069
321.9148139243
321.47424251541
320.54796214739
319.63946309927
318.76112657915
317.91351314306
317.09600840462
316.30847429577
315.55181739035
314.82796704487
314.13939843492
313.48833403653
312.87588526732
312.30145440444
311.76259675239
311.25531169593
310.77455808973
310.37348500039
309.92690397315
309.49020703316
309.05734912192
308.62202469006
308.17715693113
307.71410370061
307.22254622825
306.69088768393
306.10783668623
305.46530895003
304.76173240821
304.00360667593
303.20342447281
302.37498612964
301.52900123118
300.67215145983
299.81040010812
298.95523663247
298.13029879345
297.24084505311
296.63182390809
296.16917153046
295.83014027618
295.56776947156
295.3350753342
295.09478262581
294.81939229089
294.4857010267
294.0707026854
293.55143502117
292.94762256307
292.28981253251
291.62877367435
291.02473609864
290.51734005023
290.13139952022
289.89892612764
289.84882606705
289.97733451993
290.23971188605
290.57190442599
290.90725133956
291.19241328213
291.38673448984
291.46099865404
291.39746978842
291.19318749545
290.89375909196
290.51452607702
290.10043413367
289.72007872251
289.48604581505
289.56716650151
290.11913283493
291.42188853467
344.47049464203
345.14882191478
346.24469062303
346.86770807367
347.37932218249
347.80989817019
348.15664729063
348.41721363115
348.5779388693
348.63894991929
348.62076448757
348.48451351867
348.23726846844
347.9089833758
347.50644100066
347.0132658572
346.44117108852
345.80677943172
345.11957251561
344.39217219653
343.63369084982
342.85513639467
342.06570092936
341.27244360404
340.48159507536
339.69832658124
338.92643268376
338.16880393109
337.42741769781
336.70362095735
335.99827491009
335.31182496219
334.64436200849
333.99575519083
333.36571862044
332.75390167145
332.15986270612
331.58289194468
331.02227537583
330.47778541723
329.94872398433
329.43440202129
328.93438594257
328.4478158472
327.9742247359
327.51330827896
327.0644405559
326.62714740027
326.2008448643
325.78505507824
325.37953678446
324.98380763695
324.5974749019
324.22012247901
323.8513799455
323.49101659629
323.13866479328
322.79401164063
322.45674873123
322.12658918404
321.80332758035
321.4866966143
321.17642184527
320.87231813027
320.57410822839
320.28144494344
320.01095469495
322.04581134541
321.33688791293
320.41156164101
319.50894836487
318.63730668381
317.79708325246
316.9877610846
316.20926891157