/*--------------------------------*- C++ -*----------------------------------*\
| =========                 |                                                 |
| \\      /  F ield         | OpenFOAM: The Open Source CFD Toolbox           |
|  \\    /   O peration     | Version:  2312                                  |
|   \\  /    A nd           | Website:  www.openfoam.com                      |
|    \\/     M anipulation  |                                                 |
\*---------------------------------------------------------------------------*/
FoamFile
{
    version     2.0;
    format      ascii;
    arch        "LSB;label=32;scalar=64";
    class       volScalarField;
    location    "0.00018";
    object      TpSat;
}
// * * * * * * * * * * * * * * * * * * * * * * * * * * * * * * * * * * * * * //

dimensions      [0 0 0 1 0 0 0];

internalField   nonuniform List<scalar> 
109340
(
372.99990992063
372.9986466772
372.99643054797
372.99360702895
372.99058560386
372.9875614151
372.98460664697
372.9817575027
372.97897516853
372.97618103768
372.97338164092
372.9705800138
372.96777306117
372.9649531291
372.96210975069
372.95922953335
372.95629539055
372.95328601629
372.95017450962
372.94692717334
372.94350198973
372.93984770464
372.93590080721
372.93158078098
372.92678456783
372.92137835726
372.91518608126
372.90797250087
372.89941681357
372.88907023295
372.87628403574
372.86008082942
372.83891225748
372.81018488755
372.76925044318
372.70735762821
372.99970797134
372.99803118816
372.99547459131
372.99259455687
372.98963917509
372.98670497591
372.98381266792
372.98095203695
372.97811767122
372.9752978504
372.97248481917
372.96967390187
372.96685859108
372.9640300156
372.96117658154
372.95828398743
372.95533467963
372.95230603394
372.94916946869
372.94588941643
372.94242195386
372.93871317685
372.93469611584
372.93028545876
372.92537158071
372.91981153319
372.91341659989
372.90593341059
372.89701443454
372.8861698506
372.87268459777
372.85546591067
372.83274542587
372.80147264279
372.75589444913
372.68456427452
372.99974755023
372.997764718
372.99511077188
372.9922797613
372.98938008897
372.98646520624
372.98354746694
372.9806441364
372.97776861298
372.97491803876
372.97208375419
372.96925840702
372.96643395614
372.96360080158
372.96074734628
372.95785940607
372.95491945384
372.9519051223
372.94878797619
372.94553285879
372.94209582793
372.93842350311
372.93444945094
372.93008849981
372.92523097004
372.91973369354
372.91340788476
372.90600011759
372.89716274286
372.88640561262
372.87301283278
372.85588731471
372.8332335921
372.80188521452
372.75561841723
372.68077253407
372.99970851996
372.99740706133
372.99462113424
372.99169738067
372.98873324849
372.9857557107
372.98278115806
372.97982486183
372.97689876194
372.97400702836
372.97114589845
372.9683088727
372.96548752043
372.96267238291
372.95985375817
372.95701796846
372.95414832118
372.95122314725
372.9482146259
372.94508907873
372.94180299548
372.93830314677
372.93452211252
372.9303734381
372.92574543794
372.92049259435
372.91442318154
372.90728013369
372.89871112422
372.88821923865
372.87507809404
372.85817313051
372.83565050616
372.80415296057
372.7566775716
372.67541427296
372.99949488491
372.99643817542
372.99302009985
372.98967552555
372.98640902506
372.98321798732
372.98011392942
372.97712494141
372.97427075764
372.97154620721
372.96895446824
372.9664951027
372.96416070219
372.9619424567
372.95983061066
372.9578128938
372.95587383532
372.95399326514
372.95214096822
372.95028649628
372.94835169797
372.94625995402
372.94392600854
372.94124681741
372.93809545764
372.93430735147
372.92966776455
372.92389041132
372.9165826189
372.9071911294
372.89490485296
372.87849284887
372.85586700532
372.82317593846
372.77184029422
372.67543483502
373.00336037321
373.01757882362
373.03288962405
373.04808490614
373.06273292801
373.07659641381
373.0895482582
373.10153423453
373.11254378204
373.12258597782
373.13168390775
373.13986423388
373.14715296174
373.15357388615
373.15914579663
373.16388171732
373.16778865578
373.17087075668
373.17317831928
373.17482823897
373.17581114133
373.17607500413
373.17554229222
373.17408920241
373.17159216246
373.16783206186
373.16252093574
373.15526329666
373.14550381965
373.13244543428
373.11489954103
373.09105890755
373.05779424395
373.00925817907
372.93190175807
372.77562132597
372.6091397741
372.45435742941
372.2174485128
371.87872871906
371.42738555431
370.85284207177
370.14151302666
369.27977232781
368.25574212152
367.06447651249
365.70478606847
364.191426873
362.57307413519
360.86897578163
359.12492072868
357.37267239345
355.64229092238
353.95589901926
352.32728082209
350.76602821749
349.2775211789
347.86223122262
346.51908696168
345.24582512916
344.0390508424
342.89508559762
341.80707894697
340.77602128633
339.7957276019
338.85831535289
337.97144096442
337.11753369113
336.30836916385
335.52738089805
334.78512244968
334.06705500775
333.38309491594
332.71956096857
332.08669416857
331.47078593435
330.88271518438
330.30901947117
329.76006818424
329.22463371332
328.70954880754
328.20922453061
327.72343164413
327.25354552323
326.79508779222
326.35149801177
325.91891036178
325.49856956176
325.08932733788
324.69076202191
324.30221541726
323.92329129584
323.55349261663
323.19247484949
322.83985853062
322.4952982706
322.15844454144
321.82898586196
321.50662664515
321.19109339294
320.88212403448
320.57945833334
320.28287238977
320.04459267884
322.00549344625
321.26921156334
320.34074809081
319.43364540191
318.55400626511
317.70132340618
316.87497807152
316.0756024396
315.30553807915
314.56858249867
313.86907049502
313.21055560995
312.59460477519
312.02017595684
311.48371664142
310.97978020648
310.44296674457
309.98561261496
309.53868478768
309.09463945431
308.64571208393
308.183047212
307.69612373256
307.17282270891
306.60029590805
305.96728812978
305.26766824559
304.50347688663
303.68489985812
302.82609070474
301.93962252025
301.03327688883
300.11181125959
299.18377692144
298.27192640799
297.42430505338
296.55471548188
296.10399399486
295.82539999464
295.6501115263
295.52054458148
295.40356733111
295.28347011067
295.15366775794
295.01102630008
294.85419205525
294.68256820087
294.49556716573
294.29268031752
294.07352425308
293.83769253826
293.58444122733
293.31230256486
293.01877199586
292.70075441565
292.35577288387
291.9830878322
291.58432388104
291.16286392653
290.72393713209
290.27442973123
289.82299587911
289.37912837729
288.95364168886
288.55901168512
288.20926018376
287.92327977529
287.73607604909
287.6731965292
287.82803729557
288.41090378438
289.92113723245
372.56585104236
372.37288127759
372.07880839575
371.67101376278
371.14431927808
370.48817145674
369.69499201335
368.75646232663
367.66784299237
366.42945599933
365.04540735784
363.53238121434
361.92140982759
360.24335216623
358.52872456927
356.80840682139
355.10994787144
353.45382518713
351.85469223207
350.32141325729
348.85852694684
347.46735765515
346.14681175003
344.8943124894
343.70687666006
342.58034932641
341.51072727285
340.49402798258
339.52722645724
338.60589058926
337.72741207812
336.88847507954
336.08621984185
335.31825318123
334.58187316652
333.87534775283
333.19624374662
332.54323270362
331.91422542951
331.30804110957
330.72307806999
330.15814079135
329.61207110118
329.08360179786
328.57205759184
328.07607701798
327.59528200337
327.12837467492
326.6751293555
326.2343829963
325.80588428831
325.38875543736
324.98260814011
324.58690673263
324.20112251604
323.82481163187
323.45753951519
323.09892704471
322.74859869703
322.40621587012
322.07145027719
321.74399499841
321.42355425592
321.10985921118
320.80264043414
320.5016607416
320.20626281493
320.26656596036
321.91085676337
321.02982848158
320.10476868901
319.20477121741
318.33232873966
317.48667374749
316.66741804226
315.87560115587
315.11396947361
314.38653906065
313.69755192505
313.05013514907
312.44521303152
311.88107027177
311.35361076893
310.85704678386
310.44238085712
309.98514200253
309.53831271409
309.0943729827
308.64557253676
308.18307291004
307.69637028433
307.17336126206
306.60120666197
305.96864705267
305.26952876372
304.50585905162
303.68779477217
302.82948046209
301.94351256299
301.03769653265
300.11679696786
299.18931859906
298.27786750931
297.43017439224
296.55932822804
296.10684281244
295.82659496587
295.65001509986
295.51941853101
295.40148715908
295.28031200252
295.14931849075
295.00513415096
294.84642254726
294.67248448296
294.48268689225
294.27649391289
294.05351396273
293.81333469874
293.55519491982
293.27759631632
292.97800253578
292.65335600624
292.3013206543
291.92143780755
291.51568646204
291.08784615467
290.64353557405
290.1900635284
289.73615891288
289.29150419128
288.86695549192
288.47483445277
288.12899737096
287.84829636494
287.66727835972
287.61069186274
287.77470048943
288.36973421482
289.89813223662
372.54633385843
372.31180810144
371.95323151145
371.46244104976
370.85019149511
370.11215790393
369.24811025449
368.25684819257
367.13823767154
365.89196971775
364.52651919846
363.05395829989
361.49019996731
359.86239650274
358.19811521546
356.52512875351
354.86887250986
353.24986795854
351.68239143435
350.1752602595
348.73374213996
347.36024698618
346.05414491422
344.81348421446
343.63551619699
342.5168671849
341.45427097777
340.4437856227
339.48175894184
338.56504134693
337.69010198733
336.85453357351
336.05510193022
335.28963848884
334.55553647505
333.85093543849
333.17369862798
332.52224504898
331.89470500741
331.28986176935
330.70603332937
330.14228848755
329.59704910942
329.06970978997
328.55878721806
328.06380547806
327.58351997039
327.11744824358
326.66467401896
326.22459819113
325.79659153189
325.38001921719
324.97435793509
324.57902924206
324.19362701772
323.81767383087
323.45075773456
323.09247207224
322.74245031537
322.40035350404
322.06585873956
321.73865620895
321.41845089195
321.10496979327
320.79795955659
320.49719631285
320.20200464761
320.29124981593
321.90211808068
321.01907407156
320.09432274152
319.1948134048
318.32294718666
317.47794642108
316.65942424914
315.86841508933
315.10764493167
314.38109461481
313.69296331708
313.04633709517
312.4421089715
311.87854741883
311.35155676841
310.85536441243
310.4411263642
309.98411910459
309.53750356765
309.09379389374
308.64527014873
308.18313069995
307.69690915621
307.17453622997
306.60319327655
305.97161321701
305.27359595258
304.51107419115
303.69414015232
302.83691932736
301.95205756708
301.04741446226
300.12777322338
299.20154625218
298.29100835261
297.44320683552
296.5696468026
296.11327292816
295.82934987609
295.64990049033
295.51702384713
295.39700644476
295.27346148399
295.13982960948
294.99228325194
294.82942934672
294.65037874239
294.45439392502
294.24088011839
294.00942524385
293.75960676632
293.49063340163
293.20094621681
292.88796251713
292.54873697682
292.18128614326
291.78581175844
291.36509270024
290.92382004491
290.46846517041
290.00696579392
289.54847318155
289.10293045208
288.68118807544
288.29513575573
287.95829224735
287.68944475082
287.52133722322
287.47892460715
287.66268746882
288.28374358169
289.85107712692
372.5071082187
372.17743809887
371.68013831706
371.04086220275
370.28692638401
369.43351939562
368.48758320788
367.45332375685
366.32603243176
365.103175093
363.79118778647
362.38802124238
360.90222658925
359.35153406878
357.75939449065
356.15166733032
354.5517352049
352.98060755484
351.45346060552
349.980435679
348.56753043059
347.21688257248
345.92998004959
344.70540387533
343.54062221676
342.43292680411
341.37932903433
340.37669446728
339.42140084794
338.51043348901
337.64071649517
336.80931361454
336.0138759107
335.25164668225
334.52067685391
333.8186318461
333.14392278355
332.49446845757
331.86901759279
331.26580051979
330.68368863448
330.12122972648
329.57744271781
329.05116136154
328.54140561522
328.04735723304
327.56801587134
327.1028124173
326.65077201585
326.21148444231
325.78410522397
325.36821665366
324.96313344619
324.56837266441
324.1834686324
323.80798241238
323.44151019338
323.08364394913
322.73402559271
322.39230785572
322.0581654531
321.73128934904
321.41139246412
321.09820486206
320.79147185075
320.49095626758
320.19613456803
320.33038230392
321.88947511576
321.00350692016
320.07928839261
319.18048775147
318.30944340098
317.46537676367
316.64790467293
315.85805418198
315.0985223198
314.37323919004
313.68634144513
313.04085496159
312.437626981
311.87490223653
311.34858582294
310.85292712215
310.43923097934
309.98256721859
309.53627344375
309.09291049259
308.64480471973
308.18320986162
307.69771609824
307.176306109
306.60619265988
305.97609736479
305.27975019974
304.51897187968
303.70375630215
302.84820282268
301.96501963107
301.06215667217
300.14443214398
299.22011325213
298.31098580803
297.4630862086
296.58557827938
296.12333706918
295.83379814052
295.64995199969
295.51361901487
295.39041920614
295.26338117229
295.12568809089
294.9730716764
294.80390316849
294.61703103521
294.4115530428
294.18678499102
293.94228750452
293.67763192227
293.39200498156
293.08378248884
292.75036153348
292.38911615138
291.99867859207
291.58035286033
291.13818858404
290.67815003825
290.20799101782
289.73661772767
289.2736339315
288.82909168229
288.41357042279
288.03815965471
287.71585251791
287.46560949737
287.31463314148
287.29510012687
287.50725375367
288.16578146582
289.78939718562
372.40221073888
371.79697976326
370.99570722762
370.12240137502
369.21990252215
368.29041346112
367.3255884265
366.31361774544
365.23787734971
364.09288945819
362.86630900933
361.55727437378
360.16926261844
358.71448146344
357.21288861766
355.68644587543
354.15736951632
352.64626502259
351.16931269189
349.73795487321
348.35960738228
347.03869850755
345.77547942712
344.57056189913
343.42261267718
342.32913405424
341.2871105903
340.29413465882
339.34740418398
338.44362245224
337.58012051335
336.75416907441
335.96337172561
335.20532079041
334.4779881619
333.77927944279
333.10739011151
332.46063148475
331.83749266325
331.23642575419
330.65621855645
330.09551144063
329.55332231732
329.02842939051
328.52006333353
328.02715099574
327.54900063107
327.08474419916
326.63372135137
326.19528395575
325.76874033085
325.35359563628
324.94920894808
324.55514665433
324.17085744463
323.79594554358
323.42999885882
323.07264236668
322.72351060172
322.38224777966
322.04852900775
321.72205141621
321.40253368679
321.0897041327
320.78329987309
320.48308424811
320.1885511779
320.3813048039
321.87360108942
320.98343924481
320.05981164077
319.16190077126
318.29190465842
317.44903720105
316.63291880026
315.8445665148
315.08663984535
314.36300290319
313.67770987427
313.03370671747
312.43177986628
311.87014280014
311.34470171075
310.84973455318
310.43669335014
309.98048279762
309.53461513026
309.09171263987
308.64416222921
308.1832911202
307.69876522195
307.17863737243
306.61016303582
305.98204896805
305.28793338861
304.529488377
303.71657543113
302.86325713563
301.98231957844
301.08183505647
300.16667244287
299.2449097391
298.3376976137
297.48976604832
296.60730857471
296.13731855067
295.84025138769
295.65048413389
295.50951894048
295.38209955743
295.25044145454
295.10730607899
294.94791382667
294.77024191186
294.57279567818
294.35443301527
294.1143655356
293.85212537902
293.56730252469
293.2590948849
292.92583991722
292.56508299555
292.17478203259
291.75461263903
291.3074008346
290.83894588712
290.35733390788
289.87177423187
289.39192190737
288.92771065728
288.48887951222
288.0851184884
287.72636010616
287.42476269506
287.19867833832
287.06978210902
287.07966659126
287.32694589091
288.03158717302
289.72426909816
371.79369429723
370.24967152493
369.19659896425
368.32361168729
367.4827613892
366.64736454203
365.78710522013
364.89007743805
363.93270371022
362.90216371301
361.78981715776
360.59516544466
359.32021727027
357.97399780832
356.57334913264
355.13878406349
353.69083700095
352.24926294833
350.83116137011
349.44903364236
348.11179314863
346.82458511744
345.59049747715
344.40939215478
343.2810796162
342.2042655108
341.17680456094
340.19579671005
339.25919054386
338.36429164364
337.50841497938
336.6889736594
335.90382445634
335.15086591266
334.4278431825
333.73304852792
333.06462213008
332.42100876531
331.80055843651
331.20205028302
330.62404821662
330.06541682861
329.52500607304
329.00185380754
328.49499339743
328.00349198176
327.52662494121
327.06356110807
326.61368718518
326.17622963888
325.75065950123
325.33636312841
324.93281713643
324.53951602224
324.15594669189
323.78171023634
323.41639007371
323.05962691288
322.71104158053
322.37029791089
322.03707694066
321.71107129486
321.39199287073
321.07956817974
320.77353744417
320.47370475199
320.17946304554
320.44673775923
321.85449025429
320.95910293309
320.03604206433
319.13916739034
318.27042680054
317.42900864955
316.61453402878
315.82800709213
315.0720415651
314.3504204659
313.66709553199
313.02491249378
312.42458143926
311.86427699443
311.33990693837
310.84578469514
310.43350910501
309.97785844185
309.5325183309
309.09018707761
308.643326169
308.18335385617
307.70003031407
307.18149629212
306.61506187774
305.98941771921
305.29808946618
304.54256435264
303.73253687663
302.88201938541
302.00389060555
301.10637602754
300.1944113301
299.27585069039
298.37107963823
297.52322469934
296.63512951463
296.15559660323
295.84911251148
295.65188365792
295.50510865771
295.3724412258
295.23507949759
295.08515709187
294.91728204116
294.72889347104
294.51804476159
294.28327750329
294.02369901784
293.73880437635
293.4282919299
293.09145394534
292.72669015541
292.33191601536
291.90611680684
291.45064707515
290.97067485825
290.4747241556
289.97286587966
289.47556286955
288.99304468502
288.53505553476
288.10995083167
287.72587425165
287.39106678108
287.11660150301
286.91770142218
286.81657285699
286.85943004007
287.14533744183
287.90088696431
289.66946247332
362.97992699864
366.5889071621
366.33197265085
365.91530204551
365.42891302097
364.85591620752
364.20290100845
363.47665087312
362.68085724712
361.8104090739
360.85443344278
359.80932239744
358.67812751097
357.46645779152
356.18758988322
354.8600830877
353.50368462894
352.13759246177
350.77975613069
349.44508846152
348.14423948762
346.88483010833
345.67100482119
344.50560363207
343.38854575589
342.31894864971
341.29641069073
340.31879070491
339.38401364998
338.48940526771
337.63322804608
336.81308372537
336.02658045538
335.27176632299
334.54684869821
333.84996249799
333.17922651182
332.53327578835
331.91053652826
331.30966415521
330.7292674573
330.16832927061
329.62565091388
329.10026398478
328.59116689966
328.0975708203
327.61863900229
327.15358549184
326.70173987398
326.26241612174
325.83505137835
325.41899714201
325.01374516052
324.61878270696
324.23365669135
323.85792304954
323.49113562161
323.13293466433
322.78296726892
322.44090025268
322.10639542804
321.7791408577
321.45885366676
321.14527579188
320.83819757564
320.53730147194
320.24231914139
320.04941958317
321.9954176991
321.16361647832
320.23642742497
319.33363557731
318.4593098137
317.61276607097
316.79338774057
316.00177858442
315.24012216962
314.51189833047
313.82101561428
313.1705869129
312.56182054772
311.99346431198
311.46192984437
310.96189164659
310.42967088891
309.97468287838
309.52996816743
309.08831542145
308.64227445496
308.18337153464
307.70147916642
307.18484380918
306.62084245075
305.99814914385
305.3101578847
304.55813583265
303.75157512996
302.90442229257
302.02966104504
301.1356995944
300.22755948675
299.31284660197
298.41107075864
297.56343484035
296.68791927714
296.19099987218
295.86722100462
295.6561402955
295.49860092565
295.35629491006
295.20859443597
295.04620176391
294.86271233204
294.6544851128
294.41869650677
294.15327129221
293.85681321248
293.52896105093
293.16989244017
292.77932436358
292.35615950273
291.89993546724
291.4125044611
290.89891890917
290.36924330972
289.8365800052
289.31407939861
288.8132644325
288.34422444497
287.91450006095
287.52771033475
287.18903023199
286.9028328622
286.67658952562
286.52364676152
286.46930952037
286.56243164468
286.90666415405
287.74038923721
289.62456228184
353.86014123251
359.05475004348
359.88540969337
360.27968709759
360.44350183477
360.42034070848
360.21542918288
359.85659904086
359.36643981419
358.76207300988
358.05033433734
357.24118648556
356.33853426826
355.34565662456
354.27404691631
353.14018841978
351.96203724121
350.75788866904
349.54487713517
348.33832450639
347.15044673007
345.98981142827
344.86242009371
343.77195764287
342.72052750923
341.70896009456
340.73708916252
339.80351929562
338.90777746944
338.04813796209
337.22293145018
336.43005378922
335.66813295074
334.93553062072
334.23057727397
333.55153171281
332.89716156031
332.26608362757
331.65692305277
331.06833769855
330.49931096709
329.94878939083
329.41575897555
328.89921081435
328.39835525678
327.91240540881
327.44059477155
326.98218992914
326.53652129389
326.10303293472
325.68108971897
325.27015935636
324.86969463584
324.47926291551
324.09842448941
323.72674790293
323.36384076844
323.00930729262
322.66282096218
322.32404906338
321.99268240046
321.66842409339
321.35099524741
321.04011926107
320.73558455672
320.43707895875
320.14305860841
320.84083496502
321.77214353858
320.86024939747
319.93980363383
319.04706576968
318.18329910735
317.34764398243
316.53973723871
315.76053765851
315.01248012449
314.29902008902
313.62368350028
312.98889203432
312.3950323777
311.84011777918
311.32006619055
310.82934057923
310.41999002595
309.96661753975
309.523431673
309.08344269306
308.63941658104
308.18314420749
307.70477524074
307.19281898407
306.63482554335
306.01944045081
305.33974441086
304.59646308153
303.79857425245
302.95983447015
302.09346286284
301.20831584411
300.30965952914
299.40457887634
298.51063392153
297.66486699267
296.78186259882
296.25793191288
295.9053089768
295.67028591532
295.49407512651
295.33536060313
295.17028931304
294.98653696817
294.77588802471
294.53225008567
294.25068215853
293.92778785098
293.56228812589
293.15539534821
292.70934539913
292.2259085896
291.70756058873
291.15974903107
290.59199418511
290.0190044227
289.46135054396
288.93628949508
288.45691223405
288.03019711238
287.6584678695
287.33880185814
287.06526988094
286.83019603925
286.63167152459
286.47401605877
286.37108042678
286.35795670815
286.48578890485
286.869623124
287.76878334233
289.74760074673
349.47377231817
354.04231480393
355.07660994796
355.72696948277
356.15361589012
356.41902426942
356.5176973157
356.47119446666
356.2682729935
355.92714387781
355.46799703868
354.89890044334
354.21593843002
353.43623215705
352.57100193053
351.63135620534
350.63243554027
349.59101534328
348.52331455985
347.4440860451
346.36621110679
345.3008074721
344.25554164435
343.2359601418
342.24547648462
341.2864420002
340.3599434208
339.46604758286
338.60462127186
337.77461952154
336.97492386752
336.20487471113
335.46303019299
334.74820776699
334.05873448618
333.39355453343
332.75160010591
332.13157006651
331.53221075765
330.9524191712
330.3914006223
329.84808441364
329.32153848679
328.81084390489
328.31537451056
327.83432393777
327.36698314953
326.91264272355
326.47072918373
326.04067545271
325.62190643781
325.21388049304
324.81610990996
324.42819364938
324.04968743885
323.68018978089
323.31930185306
322.96667984874
322.62199371766
322.2849043567
321.95510457417
321.63230665938
321.31626023929
321.0067358825
320.70351712671
320.40630823292
320.11266691761
321.29160927194
321.69114334643
320.77242727075
319.85526652717
318.96644058898
318.10709690775
317.27647256885
316.47426802549
315.70142472506
314.96023361093
314.25386901752
313.58548142549
312.95711322855
312.36886240528
311.8186021223
311.3022647554
310.81444863295
310.40753312216
309.95612718026
309.51481171637
309.07686707147
308.63532532131
308.18230264732
307.70829262553
307.20213172342
306.65159794865
306.04532468149
305.37602813745
304.64376833817
303.85685642738
303.02876087487
302.17294315773
301.29880592896
300.41197350506
299.51903852407
298.6354735806
297.79383806047
296.90465799254
296.35112237161
295.96419194057
295.69919969798
295.49923331222
295.32007541974
295.13360964725
294.92348981255
294.67798168788
294.38762939468
294.04495242554
293.64534315536
293.1888085346
292.68213244613
292.13439944775
291.55361575934
290.95121848075
290.3448347754
289.75829410282
289.22083198981
288.75796732799
288.37960283256
288.08388934824
287.86079155759
287.69283628066
287.55524775256
287.42836596572
287.29733986045
287.15803934691
287.01903734027
286.90466537417
286.85274078914
286.93962939898
287.29740964272
288.17821577822
290.12086096797
346.78017272554
350.4291209517
351.45489863306
352.15155200767
352.66517365052
353.04865797785
353.30096289102
353.41693093087
353.40951778244
353.26687150639
352.99115009349
352.60780446271
352.12335823341
351.53093291729
350.8425810543
350.07500797205
349.23922256448
348.34948003323
347.42088441311
346.4675605963
345.50208830675
344.53500933658
343.57560599331
342.63085882966
341.70572164803
340.80342418511
339.92634119453
339.07571516507
338.25205625838
337.45531615859
336.68519235725
335.94111038466
335.22201751607
334.5270995696
333.85574667954
333.20675772906
332.57928408113
331.97198008224
331.38407201212
330.81485595981
330.26328511028
329.72852384199
329.20960634192
328.70602363634
328.21699325669
327.74182223666
327.27979649516
326.83031887842
326.39293094498
325.96701057254
325.55204408912
325.14749727716
324.75298097574
324.3680909977
323.99239643083
323.62550354883
323.26703538981
322.91668587425
322.57412606974
322.23903636944
321.91111167395
321.59007513815
321.27570324128
320.96778934306
320.66604600154
320.37023891924
320.07448588573
321.64754277688
321.59317144726
320.66829109717
319.75500016466
318.87097538423
318.01700914361
317.19242071457
316.39699535671
315.63166456023
314.89855485798
314.20051416875
313.5402550846
312.91937746127
312.33764530808
311.79277503163
311.28072421487
310.79625615498
310.39211510262
309.94298628929
309.50384585383
309.06828969445
308.62966192846
308.18045901293
307.71157904558
307.21224912672
306.67053134737
306.07507509185
305.41820076838
304.6991953512
303.92554588934
303.1103075235
302.26715165932
301.40610992523
300.53327752122
299.65485746462
298.78425938465
297.94950408576
297.05766415564
296.47483606376
296.05026912722
295.75003136367
295.52114964835
295.31726219284
295.10549500159
294.86422776454
294.57669580207
294.22848335998
293.80925623643
293.31384010015
292.74815918898
292.13836371712
291.50838254881
290.88306298001
290.2871084021
289.75283304838
289.31741781934
289.01245685885
288.84490718753
288.79178739927
288.81915486652
288.88536048993
288.94956024211
288.97720001982
288.94329903853
288.83400960745
288.65322205819
288.44141920994
288.21522630646
288.02526072945
287.96967736428
288.23501629037
288.99061605393
290.70977548842
345.22222240805
347.55831632604
348.59688772994
349.26324823437
349.79430073535
350.21918380995
350.53830988179
350.75118124626
350.84509076293
350.83458371763
350.70731923223
350.46650915388
350.11274346989
349.67904166732
349.14674295912
348.52426382656
347.83078296281
347.07842620453
346.27760803099
345.44189638203
344.58363968627
343.71374468845
342.84068763894
341.97218960904
341.11417218503
340.27099288026
339.44580816876
338.6408868579
337.85752064273
337.09644740879
336.35790528368
335.64175720024
334.9477396673
334.27541356159
333.62406471115
332.99278234846
332.38118368335
331.78848056639
331.21374804675
330.65642704714
330.1154397215
329.59020620032
329.08027600357
328.58480038274
328.10320744133
327.63469612587
327.17881300016
326.73510784515
326.30294789738
325.88184699456
325.47124444275
325.0708062796
324.68013091284
324.29877167629
323.92635132716
323.56246957556
323.20685172296
322.85916554329
322.51908267155
322.18630729808
321.86055598833
321.5415791144
321.22915438302
320.92300229725
320.62287484192
320.32859801006
320.02681532422
321.91502456738
321.47424475225
320.54796286485
319.63946412925
318.76112794573
317.91351477215
317.09601019218
316.30847612764
315.55181915393
314.82796864291
314.13939980642
313.4883351572
312.87588614487
312.3014550687
311.76259724411
311.25531205825
310.77455836264
310.37348555374
309.92690447193
309.49020745325
309.05734948393
308.62202500996
308.17715722074
307.71410396749
307.22254647512
306.69088790842
306.10783688196
305.46530910914
304.76173252518
304.00360675509
303.2034245137
302.37498613698
301.52900120256
300.67215138445
299.81039997154
298.95523642521
298.13029852261
297.24084471554
296.63182367078
296.1691713789
295.83014017372
295.56776938279
295.33507523979
295.09478251199
294.81939215022
294.48570085058
294.07070247519
293.55143476801
292.94762228379
292.28981225838
291.62877345403
291.02473595914
290.51734001062
290.13139957376
289.89892624655
289.84882621643
289.97733467553
290.23971203484
290.57190454742
290.90725142646
291.1924133247
291.38673448378
291.46099860025
291.39746968933
291.19318738097
290.89375893238
290.51452590012
290.1004339551
289.72007856124
289.48604570867
289.56716645128
290.11913288015
291.42188900258
344.47049462757
345.14882125231
346.24469105521
346.8677077693
347.37932105424
347.80989835953
348.15664655516
348.4172135566
348.57792288623
348.638914586
348.62077801211
348.48456974228
348.23724984154
347.90900713184
347.50640667811
347.01325722771
346.44115847394
345.80677113539
345.11957252263
344.39217174837
343.63369306181
342.8551375235
342.06570031256
341.27244349268
340.48159501956
339.69832597284
338.9264314897
338.16880288995
337.4274175438
336.70362094829
335.99827436736
335.31182452317
334.64436218757
333.99575563234
333.36571895777
332.75390159081
332.15986272493
331.58289141228
331.02227475762
330.47778453494
329.94872292559
329.43440095859
328.9343847284
328.44781534343
327.9742248729
327.51330850963
327.06444018552
326.62714745287
326.2008461297
325.78505620567
325.37953791664
324.98380896887
324.59747573066
324.2201235548
323.85138091265
323.49101748189
323.13866576487
322.79401311432
322.45675013906
322.12659081759
321.80332919953
321.48669814109
321.17642305658
320.87231879517
320.57410854934
320.28144513643
320.0109913984
322.04589645882
321.33688944427
320.41156238719
319.50894941416
318.63730802236
317.79708480823