/*--------------------------------*- C++ -*----------------------------------*\
| =========                 |                                                 |
| \\      /  F ield         | OpenFOAM: The Open Source CFD Toolbox           |
|  \\    /   O peration     | Version:  2312                                  |
|   \\  /    A nd           | Website:  www.openfoam.com                      |
|    \\/     M anipulation  |                                                 |
\*---------------------------------------------------------------------------*/
FoamFile
{
    version     2.0;
    format      ascii;
    arch        "LSB;label=32;scalar=64";
    class       volScalarField;
    location    "0.00018";
    object      Y.Liq;
}
// * * * * * * * * * * * * * * * * * * * * * * * * * * * * * * * * * * * * * //

dimensions      [0 0 0 0 0 0 0];

internalField   nonuniform List<scalar> 
109340
(
0.99999
0.99999
0.99999
0.99999
0.99998999999996
0.99998999999894
0.99998999996973
0.99998999940597
0.99998999595034
0.99998998498204
0.99998995985145
0.99998991200742
0.99998983109038
0.99998970492877
0.99998951942107
0.99998925829031
0.99998890265324
0.99998843037127
0.99998781511703
0.9999870250874
0.99998602126112
0.99998475515981
0.99998316593502
0.99998117650609
0.99997868822431
0.99997557341998
0.99997166467178
0.99996673884249
0.99996049239374
0.99995250145427
0.99994215390992
0.99992852687798
0.99991015080941
0.99988452750624
0.99984708949316
0.99978882153925
0.99999
0.99999
0.99999
0.99999
0.99998999999994
0.99998999999829
0.99998999995108
0.99998999912418
0.99998999464704
0.99998998137876
0.99998995216205
0.99998989796895
0.99998980797058
0.99998966950912
0.99998946795353
0.99998918640539
0.99998880523725
0.99998830137829
0.99998764728943
0.99998680956926
0.99998574710194
0.99998440865837
0.99998272978397
0.99998062863617
0.99997800020241
0.99997470816701
0.99997057312551
0.99996535489381
0.99995872485717
0.99995022070635
0.99993916823825
0.9999245373591
0.99990465574565
0.99987659872223
0.99983476159193
0.99976743437324
0.99999
0.99999
0.99999
0.99999
0.99998999999997
0.99998999999925
0.99998999997502
0.99998999932898
0.99998999530241
0.99998998275366
0.99998995449012
0.99998990144188
0.99998981273881
0.99998967568665
0.99998947562585
0.99998919564649
0.99998881612182
0.99998831399991
0.99998766177025
0.99998682606809
0.99998576579998
0.99998442973211
0.99998275339902
0.99998065492054
0.99997802923436
0.99997473994746
0.99997060754323
0.99996539171334
0.99995876374821
0.9999502612566
0.99993920987666
0.99992457839899
0.99990468400387
0.99987653751744
0.99983419703579
0.99976414589215
0.99999
0.99999
0.99999
0.99999
0.99998999999999
0.99998999999985
0.9999899999929
0.99998999952964
0.99998999599928
0.99998998427072
0.99998995711574
0.99998990542096
0.99998981827406
0.99998968293885
0.99998948470802
0.99998920661361
0.99998882895892
0.99998832860555
0.99998767792177
0.99998684337258
0.9999857835848
0.99998444688934
0.99998276821083
0.99998066480875
0.99997803043252
0.99997472702518
0.9999705727394
0.99996532399984
0.99995864750138
0.99995007427507
0.99993892004055
0.99992413781188
0.99990400860733
0.99987542079415
0.99983188460266
0.99975661976101
0.99999
0.99999
0.99999
0.99999
0.99999
0.99998999999999
0.99998999999923
0.9999899996603
0.99998999657355
0.99998998569747
0.99998995978319
0.99998990960131
0.99998982402379
0.99998969000241
0.99998949237944
0.99998921354767
0.99998883293851
0.99998832625212
0.99998766416893
0.99998681109152
0.99998572267468
0.99998434313564
0.99998260184021
0.99998040837357
0.9999776460275
0.99997416232865
0.99996975553866
0.99996415446452
0.99995698705454
0.99994772902024
0.99993561440799
0.99991947302772
0.99989737604887
0.99986578033682
0.99981694723486
0.99972734210925
0.99999
0.99999
0.99999
0.99999
0.99999
0.99999
0.99998999999188
0.99998999919615
0.99998999380648
0.99998997670947
0.99998993788044
0.99998986455301
0.99998974122101
0.99998954947056
0.99998926760917
0.99998887005545
0.99998832643604
0.99998760045782
0.9999866489069
0.99998541537837
0.99998382780982
0.99998179519047
0.99997920083728
0.99997589399705
0.99997167853926
0.999966297049
0.99995940804933
0.99995055202486
0.99993909861053
0.99992415987527
0.99990443772373
0.99987795729747
0.99984144220494
0.99978883299327
0.9997065083241
0.99954755857117
0.99969285831754
0.99953430463592
0.99928347913862
0.99891870360548
0.99842930975483
0.99780539372561
0.99703316870007
0.99609887774988
0.99499095039984
0.99370576246241
0.99224565663309
0.99062280474471
0.98889664595047
0.98708825116229
0.98524692854326
0.98340777298126
0.9816027492055
0.97985456542635
0.97817703339513
0.97657862034882
0.97506338917317
0.97363128804696
0.97227982287953
0.97100532547961
0.96980332731516
0.96866929323896
0.96759812340912
0.96658524457065
0.96562715025684
0.96471764417455
0.96385514726636
0.96303441205569
0.96225338591626
0.9615085201274
0.96079732622884
0.96011745451972
0.95946650537762
0.95884262913042
0.95824387407698
0.95766857293701
0.95711532349532
0.95658245667215
0.95606907674929
0.95557351710767
0.95509524373637
0.95463270303748
0.95418551492524
0.95375238415306
0.95333287099663
0.95292604001788
0.95253132420222
0.95214805118315
0.95177565647641
0.95141359477531
0.95106136098117
0.95071849115133
0.9503845468518
0.95005912190979
0.94974183566063
0.94943233057028
0.94913027111407
0.94883534114825
0.94854724067019
0.94826568785295
0.94799041708821
0.94772117353345
0.94745771333867
0.94718179904871
0.94558324814564
0.94432026933372
0.94330210934061
0.94231903995577
0.94136142302777
0.94042802263965
0.93951973898336
0.93864071122344
0.93779821797501
0.93700107117114
0.93625702531383
0.93557034929778
0.93494065735942
0.93436326165035
0.93383052539448
0.93333343844139
0.9328049539132
0.93235374590564
0.93191103821955
0.93146927613487
0.9310212783261
0.93055878611719
0.93007209066672
0.92954941464229
0.92897667948685
0.92833840445297
0.92762047254077
0.92681473464146
0.92592380165271
0.92496340921327
0.92396109795916
0.92295232233548
0.92197662756912
0.92107414516081
0.92028685413659
0.91965855091699
0.91913609379724
0.91893743353047
0.91885002342985
0.91881291699848
0.91878897931514
0.91875983630517
0.91871688107884
0.91865728119834
0.91858004119584
0.91848516402261
0.91837292515776
0.91824381393921
0.91809842098861
0.91793749831944
0.91776189385643
0.91757232219854
0.91736884438824
0.91715010612551
0.91691282034723
0.91665278077323
0.91636608245781
0.9160503439443
0.91570461362207
0.91532996658899
0.91492950202649
0.91450831245246
0.91407334105697
0.91363305184911
0.91319857508159
0.91278350677934
0.91240141507642
0.91206597437034
0.91178836570107
0.91157374234539
0.91141865844999
0.91131901432104
0.99965075611754
0.99945064849738
0.99913645735921
0.998695056337
0.998122512016
0.9974105636212
0.99655050675198
0.99553446780591
0.99435910115175
0.99302656293269
0.99154282749386
0.98992826757243
0.98821552139613
0.98644095936653
0.98463773971643
0.98283851335288
0.9810729799738
0.97936175222317
0.97771912659172
0.97615335861057
0.9746679013861
0.97326296627108
0.97193643202834
0.9706847610459
0.96950392636122
0.96838891631974
0.96733517510472
0.96633820102139
0.9653937657821
0.96449789199181
0.96364680136024
0.9628372338792
0.96206593805438
0.96133019484468
0.96062731958151
0.95995504801062
0.95931116368337
0.95869375148781
0.9581009906872
0.95753128847726
0.95698312464067
0.95645516249402
0.95594612377952
0.95545489295507
0.95498039058557
0.95452167260482
0.95407782896335
0.95364804888538
0.95323156218551
0.95282766269784
0.95243569161723
0.95205503208437
0.95168511727512
0.95132541375713
0.95097543183462
0.95063471024552
0.95030282016654
0.94997936046671
0.9496639573726
0.94935625802717
0.94905593171535
0.94876266669285
0.94847616831336
0.94819616086126
0.9479223859514
0.94765460161749
0.94739258607159
0.9470177611685
0.94518611082001
0.94405349541959
0.94304698263295
0.94207056549307
0.94111933156389
0.94019242338369
0.9392914618886
0.93842142268613
0.93759013330794
0.93680635112204
0.93607709840981
0.9354054848418
0.93478993858516
0.93422488051515
0.93370220050244
0.93321278343293
0.93280447983505
0.93235335056459
0.93191071267525
0.93146903084033
0.93102113741902
0.93055878980796
0.9300722968038
0.92954990107863
0.9289775441908
0.92833975895795
0.92762242443056
0.92681736024
0.92592711966886
0.92496737023784
0.92396559117119
0.92295718677528
0.92198167305134
0.92107914748886
0.92029151641938
0.9196624444253
0.91913843323729
0.91893851021937
0.91885017081575
0.91881237935762
0.91878778667105
0.91875777526503
0.91871357870921
0.91865225013474
0.91857267576681
0.91847475875245
0.91835869606073
0.91822493400992
0.91807405128569
0.91790681746456
0.9177241208786
0.91752672440303
0.91731471021667
0.91708658226504
0.91683881153929
0.91656694385432
0.91626694458971
0.91593649136382
0.91557486999904
0.91518356555098
0.91476619704971
0.9143284657909
0.91387797382831
0.91342387109166
0.91297828715168
0.91255501779775
0.91216802495881
0.91183112038279
0.91155515227791
0.91134449703044
0.91119432819876
0.91109929964033
0.99963322297195
0.99938928917626
0.9990018598675
0.99847085201343
0.99780560547286
0.99700447765701
0.99606789996413
0.99499562488122
0.99378894598995
0.99244941882825
0.99098632898767
0.98941569758691
0.98775582878428
0.98603675827917
0.98428867342788
0.98254146320966
0.98082208948584
0.97915096639783
0.97754239570711
0.97600486657796
0.97454254014498
0.9731565746444
0.97184565367366
0.97060679248081
0.96943626599192
0.96832996471732
0.96728383500589
0.96629336852804
0.96535446461504
0.9644633522076
0.96361644501371
0.9628104333123
0.96204231324077
0.96130927509328
0.96060883558485
0.95993864540685
0.95929664503109
0.95868086037891
0.95808957549557
0.95752114028113
0.9569741154749
0.95644713019838
0.95593897053132
0.95544849591362
0.95497467365979
0.95451654797941
0.95407322980648
0.9536439155833
0.95322783259776
0.95282429367297
0.95243262910911
0.95205224298566
0.95168256302594
0.95132306986758
0.95097327258112
0.95063271493035
0.95030096954385
0.94997763733853
0.9496623463096
0.94935474516105
0.94905450388096
0.94876131199281
0.94847487718717
0.94819492514344
0.9479211986726
0.94765345797325
0.94739148070316
0.94700860135133
0.94517162595935
0.94404268528643
0.94303619369344
0.94205999009567
0.94110920891792
0.94018295226012
0.93928282626685
0.93841377984208
0.93758358461875
0.93680091912611
0.93607272268236
0.93540203770967
0.93478725298251
0.93422278090924
0.93370052919651
0.93321141812429
0.93280344987099
0.93235248291563
0.93190999718205
0.93146849060482
0.93102082569259
0.93055879498064
0.93007274578606
0.92955096450269
0.92897943667166
0.92834272501944
0.92762670060413
0.92682311551928
0.92593439920737
0.92497607224957
0.92397547432934
0.92296790241201
0.92199280582216
0.92109020509723
0.92030184982874
0.91967110998037
0.91914367479621
0.91894094541043
0.91885053441909
0.91881122090767
0.91878518154915
0.91875325588682
0.91870631368277
0.91864114914105
0.91855638258259
0.91845168121396
0.91832705685173
0.91818284771395
0.91801959785219
0.91783811240507
0.91763937217451
0.91742425352505
0.91719287965021
0.91694340729524
0.91667177801655
0.91637298777305
0.91604274855491
0.91567890939372
0.9152813378605
0.91485248981752
0.91439719515252
0.91392255437322
0.91343765571704
0.91295334778883
0.9124836548656
0.91204290947657
0.91164587942122
0.9113065699145
0.91103503330776
0.91083384671238
0.91069504082189
0.91061052722708
0.99959467449244
0.99924788601587
0.99870849152108
0.99801442296811
0.99719650609178
0.99627095700927
0.99524708568258
0.99413013458395
0.9929166391533
0.99160457572607
0.99020045793925
0.98870590828676
0.98713117156426
0.9854961941227
0.98382707275362
0.98215021374648
0.98049141903425
0.97887204225555
0.97730682106111
0.97580544996215
0.97437326883366
0.97301207426813
0.97172147490847
0.97049946828551
0.96934293439537
0.96824825010365
0.96721159412958
0.96622935034465
0.96529754859913
0.96441250747691
0.96357088125392
0.96276945984127
0.96200535954174
0.9612758742624
0.9605785705503
0.95991118205608
0.95927166908523
0.95865813951124
0.95806887635636
0.95750227681976
0.95695690038924
0.9564314080684
0.95592459875406
0.95543534426372
0.95496263558253
0.95450551262647
0.95406311628418
0.9536346292481
0.95321930631848
0.95281644853894
0.95242540607887
0.95204557867887
0.95167640527503
0.95131737099644
0.95096798944194
0.95062781127055
0.95029641115085
0.94997339339156
0.94965838766286
0.94935104504964
0.94905103755596
0.94875805715698
0.94847181405784
0.94819203591843
0.94791846737591
0.94765086989627
0.94738902317469
0.94699422797667
0.94515061525324
0.94402668074341
0.94302048323937
0.9420446869467
0.94109459216917
0.94016928527494
0.93927036659169
0.93840275263529
0.9375741372367
0.93679308534923
0.936066415211
0.93539707089138
0.93478338392503
0.93421975478896
0.93369811726573
0.93320944148637
0.9328018878621
0.93235116066378
0.9319089028175
0.93146765981695
0.9310203392984
0.93055878690303
0.93007340822485
0.92955255578436
0.92898228175648
0.92834719475412
0.92763315515491
0.92683181565422
0.92594542054216
0.92498926225448
0.9239904686702
0.92298417678916
0.92200973292757
0.92110703832593
0.92031760570695
0.91968437555729
0.91915180157088
0.91894478132471
0.91885117674287
0.91880952180311
0.91878127153012
0.91874643171294
0.91869528916323
0.91862421040221
0.91853139669863
0.91841611582284
0.91827806065548
0.9181173679763
0.9179345034682
0.91773031805744
0.91750594183208
0.9172624440025
0.91699999536777
0.91671614854345
0.91640605162429
0.91606384701586
0.91568493387688
0.91526756004336
0.91481265854665
0.91432435662802
0.91380951369255
0.91327751458831
0.91273977938705
0.91221039797509
0.91170510057664
0.91123957148984
0.91082953217489
0.91048899051446
0.91022649161741
0.91004159735676
0.90992141787003
0.90985362905485
0.99946717448544
0.99882231458959
0.99796058714083
0.99701953503357
0.99604488711865
0.99504025694396
0.99399752389531
0.99290617575293
0.99174938326741
0.9905220049641
0.98921324659525
0.98782290227515
0.9863554951839
0.98482492903606
0.98325334481275
0.98166461398517
0.9800817006388
0.97852623260613
0.97701448029988
0.97555752444227
0.97416210816912
0.97283142111118
0.97156605301734
0.97036489243697
0.96922574198838
0.96814565973544
0.96712128817773
0.96614921466491
0.9652261755236
0.96434864656352
0.96351344484982
0.9627175986096
0.96195832972085
0.96123309305255
0.96053951702928
0.95987544513961
0.95923887403412
0.95862799194761
0.95804109979312
0.95747665569532
0.95693322257182
0.95640950738892
0.95590431001544
0.95541653827293
0.95494518143946
0.9544893059926
0.9540480558323
0.95362062619715
0.95320627970294
0.95280431899003
0.95241410659723
0.95203504059415
0.95166657138359
0.95130818439811
0.95095940138042
0.95061977689481
0.95028888985067
0.94996634711881
0.9496517797848
0.94934484126676
0.94904520577772
0.94875256801939
0.94846664075186
0.94818715409757
0.94791385485837
0.94764650471433
0.94738488565954
0.9469735169334
0.9451231842254
0.94400553628385
0.94299987661964
0.94202470251937
0.94107553530367
0.94015147509349
0.93925413026861
0.93838838216347
0.93756182654189
0.93678288048568
0.93605820242885
0.93539060629139
0.93477834827326
0.93421581374666
0.93369497113234
0.93320685570475
0.93279979581466
0.9323493816816
0.93190742341882
0.93146652849187
0.93101966416764
0.93055874676658
0.93007425934233
0.92955464255289
0.92898603775629
0.92835311541117
0.92764172397806
0.92684338699755
0.92596010357624
0.92500685972403
0.92401049884039
0.9230059421634
0.92203239607191
0.92112960169495
0.92033875743992
0.91970226710648
0.91916295435941
0.91895015722585
0.91885220547909
0.91880736753007
0.91877613591817
0.91873738276024
0.91868055713059
0.91860140204705
0.91849750659076
0.91836753145243
0.91821066025851
0.91802668086978
0.91781590192086
0.91757922159226
0.91731799330829
0.91703358390815
0.91672616669015
0.91639239326685
0.91602635527576
0.9156210505943
0.9151716210373
0.91467715041409
0.9141403873743
0.91356808943988
0.91297019113244
0.91235941412149
0.91175083165546
0.911162619974
0.91061237941395
0.91011755239908
0.9096947039668
0.90935729480512
0.90911130907148
0.90895182114638
0.90885906505331
0.90881472188869
0.99859888168765
0.99703615649521
0.99596098585072
0.99504733246289
0.99415790707225
0.99326576173749
0.99234394577991
0.99138023664441
0.99035354280725
0.98925187210348
0.98806867380128
0.98680358181896
0.98545956212106
0.98404698758558
0.9825844786282
0.98109435973163
0.9795982354684
0.97811697761092
0.97666749735246
0.97526247341944
0.97391021785018
0.97261533733501
0.9713797977482
0.97020350515151
0.96908509552062
0.9680223928525
0.96701270207162
0.96605305459321
0.9651405516355
0.96427205439323
0.96344460335255
0.96265545376784
0.96190199760213
0.9611818357049
0.96049271325225
0.95983256298452
0.9591994693447
0.95859167437091
0.95800754150393
0.95744556917376
0.95690436623719
0.95638267002869
0.9558793076543
0.95539321210485
0.95492338685382
0.95446892357763
0.95402897074474
0.95360274351818
0.95318950691805
0.95278857728771
0.95239932034393
0.95202114166541
0.9516534977387
0.95129587799673
0.9509478117933
0.95060885628814
0.95027859581797
0.94995663908405
0.94964261939926
0.94933619205442
0.94903703299106
0.94874483931494
0.94845932630683
0.94818022630124
0.94790728684852
0.94764027126288
0.94737896029317
0.94694418554369
0.94508942720254
0.94397934546648
0.94297445466374
0.94200010730172
0.94105210527667
0.94012958446712
0.93923417373165
0.93837071777265
0.93754669520064
0.93677034120775
0.9360481153876
0.935382669001
0.93477216463089
0.93421096976777
0.93369109656696
0.93320366135557
0.93279717139489
0.93234713955214
0.93190554861102
0.93146508265432
0.93101878252367
0.93055865227577
0.93007527109438
0.92955718925078
0.92899065973274
0.92836043186298
0.92765234236999
0.92685775789768
0.92597837433741
0.92502879476912
0.92403550427092
0.92303314943069
0.9220607598863
0.92115787813496
0.92036531927875
0.91972484127251
0.91917735845825
0.91895727163761
0.91885377095293
0.91880487191542
0.91876987465815
0.91872619828573
0.91866216450319
0.91857265082721
0.91845437273045
0.91830511362882
0.91812326617752
0.91790803501004
0.91765943531274
0.91737840043878
0.91706661628238
0.91672590363551
0.91635627596547
0.91595324937531
0.91550954303631
0.91501677787778
0.91447012456105
0.91387028915466
0.91322302869601
0.91253904815449
0.91183267222487
0.91112122208189
0.91042542680726
0.90976695380061
0.90916605368572
0.90864177414325
0.90821094362988
0.90788537422744
0.9076670691492
0.90754484865222
0.90749002485636
0.90747612197387
0.98757107621937
0.99286045734413
0.99274104835731
0.99237730374358
0.99190081491576
0.99131116357823
0.99062860829573
0.98986390192675
0.98901976496222
0.98809403232904
0.98707890749268
0.98597357798099
0.98478304729185
0.98351424646102
0.98218130521977
0.98080397114338
0.97940354328931
0.97800015272796
0.976613025048
0.97525663002701
0.97394139317745
0.972674280203
0.97145922660183
0.97029779904941
0.96918996820177
0.96813452919699
0.96712957487047
0.96617275284431
0.96526159194938
0.96439332264116
0.96356529238113
0.96277494607893
0.96201984755172
0.96129772568609
0.96060643621381
0.95994397918876
0.95930849423282
0.95869824794405
0.95811164645221
0.95754721367174
0.95700358674657
0.95647950712685
0.95597381732907
0.95548545193635
0.95501342442536
0.9545568273491
0.95411481089339
0.95368659128837
0.95327143284527
0.95286865244721
0.95247761174989
0.95209771676405
0.95172841878882
0.95136920616015
0.95101960545146
0.95067917172163
0.95034748853421
0.95002416161417
0.94970882057277
0.94940111706796
0.94910072386145
0.94880733528018
0.94852066433158
0.94824044114613
0.94796641202873
0.94769833616635
0.94743598387868
0.94713812164773
0.94540221195572
0.94420670868858
0.94319206253608
0.9422117375049
0.94125859873731
0.94033138998034
0.93943104839158
0.93856159682869
0.93772987619653
0.93694396288736
0.93621075149901
0.93553375791818
0.93491211326846
0.93434097217896
0.93381282686549
0.93331898897886
0.93279400922778
0.93234442436924
0.93190326430494
0.93146330430915
0.93101767221859
0.93055847639185
0.93007641023968
0.92956015463313
0.92899609656309
0.92836908174901
0.92766493717095
0.92687484744105
0.92600014962607
0.92505498896104
0.92406541790467
0.92306574743795
0.92209479303788
0.92119186415766
0.92039733164986
0.91975217181819
0.91920502238437
0.91897125501956
0.91885730045374
0.9188007435025
0.91875872751213
0.91870592247095
0.91862839527859
0.91851922641812
0.91837326314321
0.91818635159713
0.91795504558949
0.91767708049202
0.91735166027789
0.9169797219063
0.91656375620365
0.91610662013014
0.91560768887335
0.91506052009093
0.91445518187867
0.91378108102893
0.91303456951906
0.91222099355974
0.91135348403877
0.91045136433488
0.9095381517509
0.90864144817832
0.90779120800448
0.90701470721997
0.9063360672365
0.90577572393665
0.90534920048307
0.90506304101388
0.90491066746338
0.90486801033447
0.90488942440795
0.90493262019306
0.97725385952295
0.98477277862972
0.98576018070469
0.98627862019017
0.98651668218282
0.98653624577499
0.98635533098641
0.98599378844237
0.98549255637846
0.98486767279606
0.98412587284807
0.98327936675431
0.98233610077162
0.98130327196794
0.98019399021249
0.97902547835734
0.97781706606492
0.97658763335606
0.97535440739002
0.97413386250427
0.97293790576649
0.9717749199834
0.97065053744645
0.96956791844804
0.96852856486419
0.96753282474064
0.96658002242776
0.96566901518467
0.9647981541828
0.96396545769774
0.96316895486886
0.96240666455326
0.96167662309078
0.96097692474438
0.96030577433661
0.95966146390375
0.95904238233799
0.95844700718223
0.95787392000194
0.95732181006496
0.95678946665717
0.95627574627001
0.95577959396034
0.9553000326731
0.9548361549868
0.95438711269272
0.95395211801545
0.95353043072214
0.95312136226301
0.9527242675201
0.95233854975029
0.95196365154312
0.95159905247678
0.95124426790786
0.95089884396125
0.95056235797951
0.95023441048256
0.94991462398196
0.94960264127345
0.94929812632495
0.94900076485733
0.94871026289774
0.9484263442823
0.94814874715311
0.94787722104143
0.94761152500625
0.94735140698652
0.94676303623722
0.94495407006773
0.94387116923084
0.94286996086539
0.94189935686426
0.94095630413701
0.94004015487496
0.93915267057503
0.9382985863644
0.93748492702707
0.93671918554188
0.93600699171188
0.935350313478
0.93474692564012
0.93419113103851
0.93367513360412
0.9331903921312
0.93278603104431
0.93233751512995
0.93189739041598
0.93145865711867
0.93101465500317
0.93055774824282
0.93007891053299
0.92956714439448
0.929009171248
0.92839008535077
0.92769570840613
0.9269167981153
0.92605381921987
0.92511978290994
0.92413965041554
0.92314687001888
0.92217971296172
0.92127694723842
0.92047796182405
0.91982212435326
0.91925528313358
0.91899851270687
0.91886604734342
0.91879570136644
0.9187412733474
0.91867246331804
0.9185706941695
0.91842501734807
0.9182259655666
0.9179644443399
0.91763188071111
0.91722139430633
0.91672926219553
0.9161560828614
0.91550657489551
0.91478617559977
0.91399395145355
0.9131207546067
0.91215281457783
0.91107915259124
0.90990481985647
0.908651968538
0.9073529230788
0.9060466447816
0.90477736549883
0.90358922206427
0.90252181054983
0.90160833180216
0.90087316057967
0.90033228550088
0.89999231049173
0.89984474125517
0.89986744468462
0.89999269728598
0.90017229285662
0.90032664884385
0.97196925233209
0.97952591760637
0.98071238306209
0.98145938034192
0.98196619059477
0.98229747732581
0.98244178533319
0.98241755457855
0.98223132715265
0.98188384812475
0.98141783385221
0.98083561251739
0.98013219796388
0.9793280600309
0.97843802850144
0.97747497925978
0.97645576349155
0.97539775582936
0.97431772703292
0.97323045309717
0.97214931004143
0.97108507890837
0.9700454390476
0.96903562828134
0.96805882936382
0.96711681468168
0.96621033749212
0.9653392741696
0.96450287314602
0.96370007088644
0.9629295855411
0.96219000989028
0.96147990409196
0.96079776199088
0.96014212388619
0.95951157285343
0.95890472316705
0.95832024438224
0.95775688958052
0.95721349730887
0.95668897958843
0.95618231333295
0.95569252985221
0.95521873411254
0.95476009025382
0.95431581360562
0.95388515717127
0.95346743251704
0.95306199243376
0.95266822921698
0.95228557598985
0.95191350537725
0.95155152591415
0.95119917291542
0.95085600830051
0.95052161917429
0.9501956199769
0.94987764769593
0.94956735814303
0.94926442654067
0.94896854711515
0.94867943427326
0.94839681996393
0.94812045092504
0.947850086598
0.94758549590764
0.94732618264608
0.94656252757553
0.94483796419143
0.94377402887267
0.94277688518587
0.9418101902289
0.94087183855194
0.93996148831223
0.93908108217256
0.93823529508129
0.9374307745809
0.93667436622377
0.93597096509701
0.93532193293339
0.93472470783799
0.93417354916714
0.93366084439961
0.93317836466748
0.93277573182701
0.93232848548383
0.9318895994617
0.931452352541
0.93101034221117
0.93055624623831
0.93008138332967
0.92957515316074
0.92902469766345
0.92841543948326
0.92773322976191
0.92696834065611
0.92612018310126
0.92520035875239
0.92423243097503
0.92324871398334
0.92228676402596
0.92138472665035
0.92058092140556
0.91991307578344
0.9193229892561
0.91903814242726
0.9188818381384
0.91879336802752
0.91872283091602
0.91863387243653
0.91850072712898
0.91830555836524
0.91803116192856
0.91765887787584
0.9171691071489
0.91654448095155
0.91577420650693
0.91485780557647
0.91380543748795
0.91263087598708
0.91133900129482
0.90992158434411
0.90836713985102
0.9066757599033
0.90487880388545
0.90303230243974
0.90119732658696
0.89944106292377
0.89782420275357
0.89639858598243
0.89520453048687
0.89426944468675
0.89360668293583
0.89321778284453
0.89309138533296
0.89318395708571
0.89344326964646
0.89380964870496
0.8941822309491
0.89443555808757
0.96773617362943
0.97572808737622
0.97697767484027
0.97775682776542
0.97833897581364
0.97877102462944
0.97907995672876
0.97923116619251
0.97923736366202
0.97911810802572
0.97884169340043
0.97845434756067
0.97796929006089
0.97736729495132
0.97666638330357
0.97588545957262
0.97503770279424
0.97413831475215
0.97320338226038
0.97224750810273
0.97128313776211
0.9703207406323
0.96936977706047
0.96843685193208
0.96752668706139
0.96664250018683
0.96578623862855
0.96495882649619
0.96416054160485
0.96339114998279
0.96264998835192
0.96193621055824
0.96124884817593
0.96058681357534
0.95994899741278
0.95933428628254
0.95874155362687
0.95816971380631
0.95761770472067
0.95708451634223
0.95656921099476
0.95607089153254
0.95558869018638
0.9551217759933
0.95466938773162
0.95423081571393
0.95380537507489
0.95339241385857
0.9529913290042
0.95260156422313
0.95222259188614
0.95185391718356
0.9514950733125
0.95114562200761
0.95080514956979
0.95047326218317
0.95014958783792
0.94983377705213
0.94952550218678
0.94922445326822
0.9489303366436
0.94864287637106
0.94836181375743
0.94808690509795
0.9478179191511
0.94755464478767
0.94729571702178
0.94629754550868
0.9447055737627
0.94365803824029
0.94266565348952
0.94170396526493
0.94077152285622
0.93986830763644
0.93899647346981
0.93816062267144
0.93736695772369
0.93662156458334
0.93592848106631
0.93528836763172
0.93469828355966
0.93415245647317
0.93364350606772
0.93316358004895
0.93276289111145
0.93231707532475
0.93187960082898
0.9314440712381
0.93100438025708
0.9305535701798
0.93008336147752
0.92958362121455
0.92904199293842
0.92844431371732
0.92777651916546
0.927028372159
0.92619808586623
0.92529560079398
0.92434277127017
0.92337050562613
0.92241540596872
0.92151495879453
0.92070638825533
0.92002583868667
0.91941063218718
0.91909362770487
0.91890833496765
0.91879711651432
0.91870665095356
0.91859369883838
0.91842221885504
0.91816276877603
0.9177844521216
0.91725090401027
0.91652087059995
0.91555483839925
0.91432728627402
0.91283632120241
0.91110809414253
0.90918900825366
0.9071108744579
0.90488108687646
0.90250731682641
0.90002708929364
0.89752003615877
0.895079506211
0.89278995228576
0.89072598497868
0.88894172510925
0.88747473788016
0.88634799763195
0.88557016851562
0.88513579889435
0.88502731483582
0.88518384490974
0.88556093488029
0.88609703704267
0.88669328790294
0.88721122584094
0.88752382883812
0.96379252533421
0.9727078107542
0.97403125201332
0.97480788477556
0.97539576220141
0.97586414003719
0.97622653062535
0.97647599619935
0.97659575591647
0.97659920158772
0.97649400163585
0.9762442976145
0.97589572420518
0.97546971708202
0.97493621600409
0.97430860197881
0.97361040624938
0.97285527366029
0.97205319056069
0.97121889046905
0.97036542160126
0.96950337134372
0.96864107083242
0.96778647046075
0.96694509300341
0.96612107051156
0.96531742893313
0.96453615033778
0.96377839761931
0.96304469263795
0.96233506674788
0.96164922470592
0.96098665391009
0.960346693276
0.9597285833015
0.95913150511856
0.95855456753657
0.95799691029037
0.95745766491619
0.95693598381062
0.95643107049357
0.95594216545348
0.95546853159793
0.95500943871522
0.9545641839507
0.95413213116628
0.95371267055277
0.95330520990162
0.95290919055876
0.95252408447382
0.95214940951579
0.95178470545098
0.95142953519409
0.95108348498098
0.95074616001528
0.95041719147939
0.95009622761961
0.94978293740502
0.94947701109762
0.94917815626017
0.94888609478362
0.94860056240996
0.94832131096897
0.94804810643825
0.94778072772136
0.947518962111
0.94725916076171
0.94598035754554
0.94455728640964
0.9435240861238
0.94253706790253
0.94158134943112
0.9406560020843
0.93976129902977
0.93889957378121
0.93807529756421
0.93729413385143
0.93656130178926
0.93587988467227
0.93524977884916
0.93466764845382
0.93412771480885
0.93362288145789
0.93314573313637
0.93274717521053
0.93230292030085
0.93186700762324
0.93143340411564
0.93099633041509
0.93054923555435
0.93008428918896
0.92959189413598
0.9290602679565
0.92847574956546
0.92782443672703
0.92709559775777
0.92628615151519
0.92540415521542
0.92446944540728
0.92351126040698
0.92256492541235
0.92166725467906
0.92085439170105
0.92016094916121
0.91952057627177
0.91916854627305
0.91894979233843
0.91881124653841
0.91869735531325
0.91855732435873
0.91834211262293
0.91800414289958
0.91748870670758
0.91672893475125
0.91564545933469
0.91415778571375
0.9122145910056
0.90981648472997
0.90704804970304
0.90405431957398