/*--------------------------------*- C++ -*----------------------------------*\
| =========                 |                                                 |
| \\      /  F ield         | OpenFOAM: The Open Source CFD Toolbox           |
|  \\    /   O peration     | Version:  2312                                  |
|   \\  /    A nd           | Website:  www.openfoam.com                      |
|    \\/     M anipulation  |                                                 |
\*---------------------------------------------------------------------------*/
FoamFile
{
    version     2.0;
    format      ascii;
    arch        "LSB;label=32;scalar=64";
    class       volScalarField;
    location    "0.00018";
    object      Ybar.Liq;
}
// * * * * * * * * * * * * * * * * * * * * * * * * * * * * * * * * * * * * * //

dimensions      [0 0 0 0 0 0 0];

internalField   nonuniform List<scalar> 
109340
(
0.99909188573221
0.99908824433553
0.99908127878237
0.99907278102288
0.99906330508426
0.99905332692027
0.99904302933266
0.9990324818297
0.99902168200528
0.99901014911854
0.9989970510963
0.99898146808988
0.9989622781426
0.99893812328151
0.99890738710564
0.9988681585772
0.99881816614952
0.99875469109677
0.99867444075176
0.99857337797807
0.99844647897831
0.9982874342513
0.99808823799713
0.99783863275834
0.99752531960418
0.99713084725856
0.99663197072143
0.99599716066024
0.9951826580388
0.99412592820266
0.99273421597348
0.99086324381392
0.98827489546961
0.98454824787347
0.97888255157039
0.96963659843062
0.9990924290623
0.99908775616767
0.9990799333681
0.99907084712826
0.99906107592149
0.99905103940241
0.99904085831335
0.99903048791968
0.99901963437192
0.99900778602637
0.99899418293663
0.99897786213791
0.99895764100788
0.99893209668228
0.99889954072075
0.99885797269258
0.99880502237434
0.99873784315562
0.99865297599237
0.99854616366818
0.99841209730279
0.99824409105187
0.99803364105446
0.99776982262953
0.99743843229044
0.99702076731411
0.99649181554011
0.99581747753134
0.99495011710625
0.99382108477662
0.99232741474211
0.99030648843866
0.98748378448611
0.98335796255793
0.97691724114704
0.9659699772233
0.99909445312552
0.99908905561149
0.99908045331499
0.99907115550306
0.99906146920863
0.99905157888351
0.99904145698241
0.99903106974578
0.99902020640602
0.99900836698166
0.99899480158383
0.99897854310037
0.99895840367448
0.99893295701814
0.99890051354869
0.99885907669897
0.9988062759355
0.99873926792719
0.9986545962703
0.99854800791697
0.99841419491753
0.99824647196522
0.99803633563984
0.99777285873446
0.99744183472583
0.99702455420353
0.99649599571322
0.99582205024674
0.99495507639553
0.99382641262019
0.99233303677917
0.99031194377273
0.9874856744518
0.98333665430081
0.97677220610192
0.96514947793863
0.99909726330283
0.99909077542639
0.99908175446912
0.99907220711389
0.99906234379088
0.99905225521425
0.99904197035383
0.99903147767581
0.99902056139069
0.99900871959204
0.99899520261092
0.99897903808305
0.99895903099772
0.99893374885853
0.99890149457801
0.99886026312552
0.99880767594547
0.99874087989754
0.99865640247998
0.99854997296911
0.99841624507919
0.99824848461889
0.99803811707328
0.99777411078267
0.99744211691835
0.99702321817275
0.99649209894712
0.99581423002965
0.99494136417902
0.99380393665736
0.99229749420285
0.99025653857171
0.98739645596866
0.9831726268473
0.97636101754493
0.9634774470668
0.9991016780084
0.99909327855716
0.99908296201037
0.99907277320134
0.9990626467136
0.99905246216057
0.99904214779372
0.99903167483494
0.99902081558094
0.99900906395192
0.99899567495969
0.99897966864574
0.99895982965843
0.99893469424376
0.99890251870386
0.99886123044674
0.99880835806005
0.99874092248732
0.99865523194591
0.99854679945793
0.99840990287573
0.99823731718299
0.99801978912031
0.99774533026429
0.99739828163219
0.99695788240961
0.99639623758503
0.99567517447247
0.9947412324145
0.99351722382797
0.99188702941092
0.98966738961319
0.98653988875282
0.98188339884671
0.97421084303328
0.95829990180448
0.99910984703822
0.99909455226031
0.99908314875309
0.99907270174509
0.999062517406
0.99905231073674
0.9990419807065
0.99903143169889
0.99902030390853
0.99900788247966
0.99899313419359
0.99897469952494
0.99895088067625
0.99891960850989
0.99887838648741
0.99882420670405
0.99875343080292
0.998661660847
0.99854362285032
0.99839200975125
0.99819778304279
0.9979493211912
0.99763154640786
0.99722475663546
0.99670300656522
0.9960317849755
0.9951646360222
0.99403801893761
0.99256313982779
0.99061220692456
0.9879932068331
0.98440736964339
0.97933214010542
0.97174863354521
0.95915012478452
0.93101376240508
0.95371966749964
0.92702612238445
0.88604276190118
0.83038118593175
0.76259284022404
0.6853436887601
0.60195802601961
0.51608991239006
0.43174857769259
0.35284596721418
0.28139664036627
0.22148935256984
0.17258668861748
0.13365509544792
0.103660193885
0.08073172288175
0.063347624620345
0.050169190259291
0.040125009504982
0.03245409077858
0.026557470704667
0.021957380962622
0.018334256407143
0.015460420405091
0.013161557220814
0.011301233007331
0.0097514882759404
0.008504102987841
0.0074550088161678
0.0065563381329224
0.0058367109995213
0.0051826794404823
0.0046607112261802
0.0041779128801098
0.0037883617037801
0.0034240264354553
0.0031271353277987
0.0028465388660705
0.0026165350778085
0.0023966971064086
0.0022155679642819
0.0020411858249883
0.0018958800559073
0.0017568387029179
0.0016375260509802
0.0015265838178383
0.0014262897524358
0.0013363941455493
0.0012520053859479
0.0011772382364245
0.0011071653308957
0.0010433914442421
0.00098472399625406
0.00093070892217653
0.00088079478244211
0.00083460583105612
0.00079175712640572
0.00075197016514585
0.00071497472492763
0.00068052730863274
0.00064839892700833
0.00061839079057538
0.00059032628918845
0.00056404892089087
0.00053941306437576
0.00051628495868763
0.00049454994778048
0.00047969006492032
0.0015425767472451
0.003157611805169
0.0032445079566682
0.0032099223871488
0.0031762002860287
0.0031462467334115
0.0031194141483758
0.0030951896762067
0.0030731982849886
0.003053355960609
0.0030355730328621
0.0030196936726268
0.0030054530301728
0.0029924945936557
0.0029804271436722
0.0029688900134405
0.0029561332361595
0.0029448025601819
0.002933211159153
0.002921323769571
0.0029090251372991
0.0028961271585239
0.002882354263803
0.0028673255973349
0.0028505429891799
0.0028314271493959
0.002809431506485
0.0027842315836081
0.0027559610655631
0.0027253212330021
0.0026933165338093
0.0026614825851729
0.0026310880177088
0.0026035377969866
0.0025798830201187
0.002560854517145
0.0025426292147153
0.0025337553627883
0.0025270124848527
0.0025210193188856
0.0025150587867937
0.002509086352763
0.002502781144364
0.002497275308002
0.0024909179763635
0.0024842087414874
0.0024772497535791
0.0024701363060806
0.0024628920290879
0.0024555310663385
0.0024480521347819
0.0024404373517638
0.0024327894974176
0.0024250184669725
0.002416912570691
0.0024085325064028
0.0023997419322458
0.0023905144863127
0.0023807753227978
0.0023704687438016
0.0023596352600904
0.0023483879833679
0.0023368452404023
0.0023252067992344
0.0023136796638899
0.0023025898584934
0.0022920615137613
0.0022823320342456
0.0022733189123982
0.0022646767472519
0.0022540434702312
0.002238634388067
0.94598555211157
0.91181453599891
0.86109284896721
0.79614681510673
0.72095083622984
0.63834075977967
0.55283513865425
0.46837712657314
0.38857763092122
0.3160838950254
0.25257719708347
0.19876656156723
0.15589855150433
0.12173036867257
0.095027742457235
0.074518406608494
0.058816460202974
0.046829577598195
0.03766087172006
0.030605466978253
0.025135888575464
0.020859656373951
0.017481918414404
0.014785827076368
0.012614643809333
0.010850308794702
0.0094016422663045
0.0082018851959148
0.0072038014237292
0.0063622186444633
0.0056509094736265
0.0050446491242395
0.0045242554965952
0.0040758575538528
0.0036859984500788
0.003346838883099
0.003048868053319
0.0027873921649738
0.002555754052598
0.0023506665527043
0.0021678067575971
0.0020045444291245
0.0018581475307311
0.0017262857306487
0.0016075664146007
0.0014997815561647
0.001402296064359
0.0013132378432886
0.0012323174270022
0.0011581031332965
0.0010902260352309
0.0010277754303322
0.00097032606429063
0.0009173716371336
0.00086842637063721
0.00082311505392992
0.00078108219891396
0.00074204135656503
0.0007057185503807
0.00067188022218339
0.00064031033842684
0.00061081712937405
0.00058322442080955
0.0005573755464323
0.00053312925582983
0.00051036109969712
0.000488918051327
0.00050088276700682
0.0022494320364159
0.0032203713847725
0.0032357163800613
0.0031999470386263
0.0031670908532639
0.0031379215431228
0.0031117762750275
0.0030881796381176
0.0030668337360673
0.0030476497380285
0.0030305125666077
0.0030152232030216
0.0030014752964889
0.0029888865383892
0.0029770612549562
0.0029656461691828
0.0029557645149722
0.0029444085234926
0.002932786948223
0.0029208571692092
0.0029085053308832
0.0028955463465435
0.0028817076312819
0.0028666103798696
0.0028497577918373
0.0028305714552422
0.0028085051312246
0.0027832373786308
0.0027549115326467
0.0027242274389921
0.0026922082040391
0.0026603960702034
0.0026300712056793
0.0026026270636423
0.0025791148532341
0.002560248023664
0.0025422253686516
0.0025334558193844
0.0025268046351475
0.0025208812784968
0.002514942185192
0.0025089788776854
0.0025026024134782
0.0024970436861623
0.0024905350591587
0.0024837457445479
0.0024766867388409
0.0024694477228327
0.0024620524738775
0.0024545190822021
0.0024468507510191
0.0024390472888921
0.0024312139771424
0.0024232306493898
0.0024148748703223
0.0024062011158621
0.0023970764945558
0.0023874724455541
0.0023773228409989
0.0023665915948924
0.0023553284724447
0.0023436600813338
0.002331723536585
0.0023197288579378
0.0023079099240988
0.0022965963043531
0.0022859424156454
0.0022761962856208
0.0022672636966912
0.002258718908607
0.0022481799529053
0.0022327958640804
0.94177316814106
0.89869647902382
0.83690490538026
0.75961282458749
0.6756940023534
0.58945788763912
0.50440759235842
0.42424121004196
0.35122160663292
0.28580397863725
0.23083103130028
0.18416130658035
0.14581054808948
0.11504192593276
0.090684802936357
0.071652906718755
0.05692887557443
0.045592413760629
0.036838569957866
0.030040310942808
0.024739017345197
0.020578701195487
0.017278704884243
0.014636426873469
0.012503773137664
0.010765455963286
0.0093366998568717
0.0081529779932152
0.0071639834263704
0.006331917798706
0.0056254873719777
0.0050244651619585
0.0045076499494183
0.0040621108952012
0.0036747613870859
0.0033372479980843
0.0030410937457879
0.0027807120767403
0.0025501616722021
0.0023459345356212
0.0021637004306483
0.0020011507418276
0.0018549935719943
0.0017238273093296
0.0016051475316498
0.001497930239565
0.0014004233406795
0.001311774937788
0.001230864343649
0.0011568581761325
0.0010890871247708
0.0010267985358566
0.00096948668600092
0.00091657548927829
0.00086769534914881
0.00082244050229298
0.00078047466534768
0.00074148938160243
0.00070521529936278
0.00067141905186154
0.00063988792521866
0.0006104292427606
0.00058286698233874
0.00055704520644919
0.00053282562211766
0.00051008469893887
0.00048866517894642
0.0005028097201746
0.0022779038850052
0.0032221112823062
0.0032350208879082
0.0031992273277976
0.003166412369195
0.0031372811252387
0.0031111763107179
0.0030876210725944
0.0030663205042953
0.0030471829111715
0.0030300907346646
0.0030148429191037
0.0030011316315314
0.0029885735090682
0.0029767717811781
0.0029653705028018
0.0029555164340742
0.0029441642594136
0.0029325471059971
0.0029206228553866
0.0029082783360313
0.002895328809406
0.0028815032174734
0.0028664239460496
0.0028495955361806
0.0028304410388704
0.002808414366057
0.0027831930696412
0.0027549190050526
0.002724229388735
0.0026922462243039
0.0026604336734682
0.0026300933389173
0.002602613743659
0.0025790472391343
0.002560109915207
0.0025420145828608
0.0025331742652232
0.0025265034003296
0.0025205946374443
0.0025146046975834
0.0025087366656726
0.0025022178894814
0.002496518291583
0.0024898187185954
0.0024828760564775
0.0024756282183635
0.0024681333298827
0.0024604232605742
0.0024525227653296
0.0024444465913521
0.0024361957247264
0.0024278361561549
0.0024193251331214
0.0024103710472293
0.0024010226095911
0.0023911597221685
0.0023807328797289
0.0023696772312698
0.0023579940773235
0.0023457677684996
0.0023331585539772
0.0023203466739616
0.0023075761063142
0.0022951273743603
0.002283349337096
0.0022724377137306
0.0022626329610677
0.0022537993337567
0.0022454390521747
0.0022351195756932
0.0022198181043526
0.93235743914879
0.86896087775267
0.78452066385185
0.68999701655809
0.59628745584826
0.50994176731293
0.4315699822527
0.36228698264736
0.30131847619029
0.24794643436263
0.20381335912739
0.165484820253
0.13315785416704
0.10658771695414
0.08503701061044
0.067937666092475
0.054481006847413
0.043939305292067
0.035708825625988
0.029275149073945
0.024210798725668
0.020192914618813
0.016998910976648
0.014432789694874
0.012349614166172
0.01064778072152
0.0092469312757705
0.0080830302258463
0.0071081683394564
0.0062873420133007
0.0055904312145503
0.00499500911452
0.0044840507952233
0.0040421111034695
0.0036585630411375
0.0033234135017103
0.0030298661936357
0.0027709034593737
0.0025421874226365
0.0023389260575422
0.0021579329962451
0.0019959655795919
0.0018507120514605
0.0017199602426536
0.0016018410913623
0.0014949776023683
0.0013978322274821
0.0013095170823521
0.00122880313819
0.0011550836343843
0.0010874516959262
0.0010253767475761
0.0009682032867321
0.00091543508349016
0.00086665779894579
0.00082149053865762
0.00077960880916425
0.00074069866239447
0.00070449788722278
0.00067076714551406
0.00063929237377968
0.0006098809871594
0.00058236096214126
0.00055657882973846
0.00053239666848099
0.00050969001450359
0.00048835359602039
0.00050615185410148
0.0023178858147897
0.0032240289104127
0.003233953820432
0.0031981772496918
0.0031654317152888
0.0031363583271338
0.0031103073291918
0.0030868118246523
0.0030655777007946
0.0030465099440452
0.003029484728821
0.0030142976417858
0.003000638931263
0.0029881248446641
0.0029763588142452
0.0029649846410445
0.0029551869442569
0.0029438491204638
0.0029322486552165
0.002920339211675
0.0029080083704755
0.0028950747739438
0.0028812700349446
0.00286621894141
0.0028494302195327
0.0028303279314767
0.0028083638169483
0.00278321170785
0.0027550046055073
0.0027243569217888
0.0026924104807119
0.0026606064294572
0.0026302553426005
0.0026027316032571
0.0025790880001186
0.0025600341996007
0.0025417726527134
0.0025328340994094
0.0025261004913537
0.0025201449447511
0.0025141321780121
0.0025081713908276
0.0025016025865686
0.0024956992923985
0.0024887462297524
0.0024815240758648
0.0024739158036988
0.0024659793843643
0.0024577449398482
0.0024492459059981
0.0024405091251573
0.0024315503039588
0.0024224322739264
0.0024130516797694
0.0024031343204312
0.0023927145702992
0.0023816470679528
0.0023698865316989
0.0023573828621772
0.0023442003414907
0.0023304662066309
0.0023164019818443
0.0023022547352601
0.002288340583797
0.0022750032286233
0.0022626329037914
0.002251417096337
0.0022416123240447
0.0022329843668122
0.002224965082334
0.0022150264901741
0.0021998509266029
0.90082072816175
0.78444201094791
0.66063277476261
0.55539891938535
0.46990111561226
0.39985553092523
0.34162793142022
0.29143612141188
0.24776645447841
0.20946344458543
0.17519629926791
0.14502746075533
0.1189633434596
0.096893558156964
0.078567550063521
0.063584239507595
0.05154044308083
0.041954327039199
0.034350381553869
0.028321172569035
0.02353557371275
0.019722144021856
0.016649522228073
0.014170482148027
0.012155006538839
0.010501424627732
0.0091317957911469
0.0079927810160596
0.00703776427306
0.0062306597608999
0.0055448128148156
0.0049579799971654
0.0044534305537278
0.0040167710471787
0.003637491698654
0.0033059536203989
0.0030150218458064
0.0027585185640761
0.0025316542658157
0.0023299570018287
0.0021502543643807
0.0019893441634518
0.0018450156598213
0.001714912671842
0.001597512175731
0.0014910924404972
0.0013944770796701
0.0013064766561035
0.0012261507779313
0.0011527078954116
0.0010853347032288
0.0010234725418904
0.00096647767628287
0.00091390887305788
0.00086528119556015
0.00082024218996281
0.00077846419564404
0.00073965478015698
0.00070354977992556
0.00066990354421219
0.00063850173333106
0.00060915412812439
0.00058169267084887
0.00055596394812597
0.00053182903846826
0.00050916593489804
0.00048786915893106
0.0005110130350465
0.0023696835384736
0.003226082459842
0.0032325455579528
0.0031968090174579
0.0031641531395261
0.0031351548210721
0.0031091772123561
0.0030857585822824
0.0030646131645418
0.003045635605818
0.0030286974158085
0.003013589743913
0.0030000000841956
0.0029875431490365
0.002975823664985
0.0029644864535378
0.0029547456638379
0.0029434271005447
0.0029318473090817
0.0029199583090481
0.0029076496293873
0.002894742585355
0.0028809718401415
0.0028659648224732
0.0028492308149013
0.0028301963125651
0.0028083143242611
0.0027832539941386
0.0027551372506698
0.0027245612343362
0.0026926653138349
0.0026608738009948
0.0026305012856111
0.0026029107158727
0.002579153559172
0.0025599499244551
0.0025414933537133
0.0025324168905866
0.0025255986675066
0.0025195999867292
0.0025135263405721
0.0025075163076263
0.0025007893251961
0.0024946064313863
0.0024873433480722
0.0024797297570198
0.0024716280990329
0.0024630734915693
0.002454093465967
0.0024447308169726
0.0024350279576848
0.002425007719966
0.0024147357044643
0.0024040862567745
0.0023927740875509
0.002380796232934
0.0023679782113113
0.0023542973043707
0.0023397352734607
0.0023244496058195
0.0023086408151383
0.0022926110402773
0.0022767067727125
0.0022613707897701
0.0022469934656648
0.0022339721986784
0.0022224986847407
0.0022128355274915
0.0022046061699087
0.0021971473016592
0.0021877661380775
0.0021727987222937
0.6767150323344
0.48919009681353
0.41010149111232
0.36187559316331
0.3213912935035
0.28712582808359
0.25509541241406
0.22592936982729
0.19793792805318
0.17180241285854
0.14720894736603
0.12475073228538
0.10455289260568
0.086792627956797
0.071582433418263
0.05881508968101
0.048281310399248
0.039706661591884
0.032787900938378
0.027224466315762
0.022752112298317
0.019148711904156
0.016239230938428
0.013864597805675
0.011921377393766
0.010321551105334
0.0089955254762266
0.0078848851996609
0.0069515499641664
0.006162029984308
0.0054897004681471
0.0049129044903505
0.0044162466085118
0.003986431917524
0.0036119593710331
0.0032846781947642
0.0029971252207134
0.0027435372793262
0.002518760882022
0.0023190880421509
0.0021408707159788
0.0019813019904553
0.0018379487910921
0.0017088169719946
0.0015921527080681
0.001486366429334
0.0013902942167275
0.0013027609367496
0.00122289392487
0.0011497706486274
0.0010827226523222
0.0010211037728285
0.00096435501304381
0.00091199550404541
0.00086355489294943
0.00081868242481335
0.00077704524929535
0.00073836586233697
0.0007023705107942
0.00066882254263555
0.00063751278698523
0.00060824976791301
0.00058086208432834
0.00055519672853138
0.00053111954586202
0.00050851396350454
0.00048726685466994
0.00051800473425668
0.002430831398013
0.0032282762179868
0.0032308329322833
0.0031951356054096
0.0031625836705689
0.0031336760608843
0.0031077884935379
0.0030844656964856
0.0030634278893311
0.0030445617722854
0.0030277313248005
0.0030127217944111
0.0029992171223069
0.0029868308673466
0.0029751683710364
0.0029638773009609
0.0029542009251685
0.0029429095371777
0.0029313577593008
0.0029194956625044
0.0029072137418097
0.0028943367718596
0.0028806040617031
0.0028656480789404
0.0028489826430848
0.0028300360269285
0.0028082593294669
0.0027833145383666
0.0027553101641473
0.0027248225446004
0.0026929837064271
0.0026612052841522
0.002630809958481
0.002603147547177
0.0025792653343682
0.0025598574796776
0.0025411698878704
0.0025319117722185
0.0025249745642632
0.0025188965963924
0.0025127563459672
0.0025066339065163
0.0024997695513802
0.0024932348569637
0.0024855764220794
0.0024774341530379
0.0024686540759221
0.0024592528594358
0.0024492477824501
0.0024386961575764
0.0024276370614736
0.002416124425841
0.0024042657028387
0.002391867822476
0.0023786369157444
0.0023645114525984
0.0023492884230583
0.0023329986441604
0.0023156980799855
0.002297666330498
0.002279197401745
0.0022607228029377
0.0022427584508772
0.0022258339797007
0.0022103680043461
0.0021967677991945
0.0021852335649816
0.0021759460321768
0.002168398558387
0.0021617764969883
0.0021532112260115
0.0021386134404147
0.02279956454348
0.15558361890477
0.19113232259423
0.20451365642465
0.20670433683545
0.20055208123576
0.18883422784941
0.17447860158366
0.15876264185975
0.14237726833782
0.12590468540558
0.10974345000104
0.094381894088789
0.080189907462469
0.067467846223572
0.056384756474348
0.046936524251673
0.039036009805985
0.032516028770894
0.027180141128441
0.022831185843728
0.019289942403827
0.016398626860049
0.014036564955331
0.01208884818994
0.010474304984954
0.0091336094005884
0.0080117978965677
0.007065998367865
0.00626283208533
0.0055794775553707
0.0049940418466236
0.004488644601139
0.0040507009313166
0.0036697307777572
0.0033367091990261
0.003043748379773
0.0027855554401666
0.0025568637487173
0.0023536046135191
0.002172086349588
0.0020097046758173
0.0018638381130194
0.0017324408386814
0.0016136678836202
0.0015060960385554
0.0014083991578111
0.0013194087366056
0.0012381900272287
0.0011638772291055
0.0010957715996495
0.0010331768714504
0.00097553427839511
0.00092234820851446
0.00087319076576675
0.00082767694643855
0.0007854418288159
0.00074619755535496
0.00070968626610926
0.00067567507457115
0.00064394117434725
0.00061428603517167
0.00058653745963132
0.00056054324288707
0.00053616281496918
0.00051326644776583
0.00049172884787204
0.00048105332145155
0.0018881160012179
0.0031912556037406
0.0032372762266979
0.003201889940046
0.0031684719264986
0.0031388242526663
0.0031123353350939
0.0030885196757424
0.0030670460010072
0.0030477797462963
0.0030305866885077
0.0030152676815357
0.0030015259882597
0.0029889854905886
0.0029772484085253
0.0029659536318206
0.002953552958747
0.0029422934622262
0.0029307758874514
0.0029189468287361
0.0029066976776858
0.0028938567758886
0.0028801686349257
0.0028652714815039
0.0028486841713193
0.0028298382471071
0.0028081840966347
0.0027833756919752
0.0027555063582924
0.0027251296193242
0.0026933629890711
0.0026616039792726
0.0026311803631222
0.0026034344434762
0.0025794540041217
0.002559923409307
0.0025407731263284
0.0025311724962093
0.0025240043700751
0.0025177616812627
0.0025114604417992
0.0025050914513576
0.0024978823983712
0.0024906317219658
0.0024821841098746
0.0024729880402808
0.0024628460478022
0.0024517367761048
0.0024396301896502
0.0024265689555899
0.0024126731936814
0.0023981932537656
0.0023830456632133
0.0023670398807
0.0023498648694246
0.0023313299751169
0.0023112804317012
0.0022897875986191
0.0022671795440637
0.0022439398910174
0.0022206716484629
0.0021980453944379
0.002176796624558
0.0021575151124853
0.0021406688567387
0.0021266401816055
0.0021155680046135
0.0021074268626322
0.0021015129616335
0.0020966827257577
0.0020897787697139
0.0020759879851641
0.010076464537898
0.027123597101401
0.048423637079192
0.066204407413423
0.079708325649982
0.088650746499485
0.093333070035392
0.094491082233896
0.091877346067395
0.087344350227638
0.081363544219904
0.074290977508449
0.066645906287823
0.058842923376863
0.0512592298039
0.044196098115342
0.037830442837308
0.032239080596281
0.027431410353953
0.023357554008846
0.019935282447914
0.017075325898563
0.014689580248381
0.012697496586219
0.011032202007334
0.00963721766624
0.0084609627827649
0.0074625899598598
0.0066154183935839
0.0058920390351138
0.0052714508896107
0.004734561325583
0.0042697279366946
0.0038650448840219
0.0035112432288126
0.0031999392778373
0.0029257007816053
0.0026830419495278
0.0024674977192913
0.0022750625232397
0.0021029512538654
0.0019485181056876
0.0018095309144457
0.0016839614183986
0.0015702880953691
0.0014671491646094
0.001373319542771
0.0012877339234442
0.0012094702150011
0.0011378091447714
0.0010720096407733
0.0010114763009742
0.00095564725154954
0.00090408618709263
0.00085639334273057
0.00081219470473434
0.00077117021974769
0.00073301356998335
0.00069748274476467
0.00066435089117198
0.00063341427547269
0.00060448694469881
0.00057740176532073
0.00055201372951947
0.00052818858563076
0.00050580535216287
0.00048463312868553
0.00057047838966451
0.0026561004970648
0.0032352983011134
0.0032239911820589
0.0031883459415816
0.0031561915973182
0.0031276492703743
0.0031021294366487
0.0030791989305697
0.0030586032321891
0.0030401958704266
0.0030238092911666
0.0030092025793942
0.0029960441206894
0.0029839439537021
0.0029725133810684
0.0029614102164278
0.0029519605398528
0.0029407806927723
0.0029293512562083
0.0029176064164043
0.0029054387081151
0.0028926841148408
0.0028790994370079
0.002864338317743
0.0028479346801383
0.0028293297851456
0.002807972962214
0.0027834985341874
0.0027559647437625
0.002725868564439
0.0026942880668192
0.002662585221619
0.0026320995708009
0.002604143272447
0.0025798214937306
0.0025598399438861
0.0025400567635569
0.0025299015516088
0.0025223139031277
0.0025157668605507
0.002509197622641
0.0025024004189865
0.0024946037446656
0.0024861748028131
0.002476233953508
0.0024649368437931
0.002451984150436
0.0024371875236277
0.0024205158942224
0.0024020382461753
0.0023820417171207
0.0023607847243832
0.0023382315217375
0.0023141589555846
0.0022881950895125
0.002260118666904
0.0022299318306639
0.0021982773638155
0.0021660274998874
0.002134117929617
0.0021036202774958
0.0020755231227963
0.0020506285873612
0.0020295517868034
0.0020126462773647
0.0020000783425388
0.0019917265811189
0.0019871404252099
0.0019853610436719
0.0019842384448403
0.0019807952736261
0.001969266837681
0.0079824839493401
0.011879649012108
0.019228796675358
0.028124813577155
0.036505457646195
0.04363271102842
0.049187795295632
0.052989254596712
0.055006607601489
0.055219272348744
0.053928955294521
0.051654045153596
0.048295425960079
0.044305318282545
0.039959990150626
0.035548707670464
0.031293531212393
0.02733793293277
0.023766847614622
0.020613447197444
0.017872668322701
0.015515822729184
0.013501957307237
0.011786646524457
0.010326476006595
0.0090837956017501
0.0080238653886021
0.007117209853728
0.0063396439543318
0.0056688209718392
0.0050883650555387
0.0045849658532769
0.0041462395444631
0.0037627957962396
0.0034252196923173
0.0031276673924068
0.0028645910427683
0.0026311666662053
0.0024229687864936
0.0022367605765902
0.0020699467287863
0.0019199494185804
0.0017846231519666
0.0016621190939976
0.0015511491790332
0.0014502881308141
0.0013584214434793
0.0012744871997901
0.0011976823431
0.0011272679530529
0.0010625615392874
0.0010029626039667
0.00094795072046551
0.00089712641830807
0.00085007836410788
0.00080645884784336
0.0007659397771269
0.00072824661945344
0.00069314018211545
0.00066038439024834
0.00062977983820461
0.00060114707852661
0.00057432980446825
0.00054919153752619
0.00052559100462636
0.00050340965477968
0.00048221301303353
0.00064598648041043
0.002807971440704
0.0032369701629265
0.0032177736640332
0.003182379468397
0.0031505860699347
0.0031223697532023
0.0030971809336046
0.003074602471066
0.0030543998346011
0.0030363972260426
0.0030204010511319
0.0030061468328431
0.0029932891115706
0.0029814359619283
0.0029702055416904
0.0029592643152405
0.0029499890452686
0.0029389091632989
0.002927591733909
0.0029159528224536
0.0029038870454035
0.0028912394328694
0.0028777792834112
0.0028631772255463
0.0028469867021772
0.0028286649820683
0.0028076643818991
0.0027835982665122
0.0027564849922717
0.0027267496688118
0.0026954192816655
0.0026638057087282
0.0026332623941735
0.0026050667359163
0.0025803423462914
0.0025598247074394
0.002539202858295
0.0025283483360502
0.0025202274636151
0.0025133109890827
0.0025064272251865
0.0024991045379271
0.0024905287471218
0.0024805956144121
0.0024685088163753
0.0024540585872802
0.0024366860555861
0.0024159752451858
0.0023917555298639
0.0023641669882609
0.0023337474028226
0.002301094754931
0.0022663614705891
0.0022295004974992
0.0021901639468039
0.0021484716086054
0.0021052287586513
0.0020618581481337
0.0020198161591587
0.0019805659446864
0.0019452740601968
0.0019148262577648
0.0018898030480602
0.0018704931358069
0.001856902103928
0.0018487833436126
0.001845689422808
0.001846461089501
0.0018496453990668
0.0018533038592539
0.0018538475466439
0.0018447942063603
0.0063524790120716
0.0083933779355727
0.010638685325326
0.015051161208053
0.019971530312669
0.024667409957484
0.028856699523146
0.032262524939712
0.034833749917249
0.03633528194584
0.036820272987863
0.036376864501892
0.035187346140722
0.033329034417839
0.03098497053854
0.028352832291932
0.02561003288463
0.022903482677469
0.020332991200884
0.017965015699349
0.015831642084884
0.013939097036467
0.01227797783314
0.010831084891391
0.0095762053943574
0.0084898021195115
0.0075503141468757
0.0067370133471519
0.0060315258044098
0.0054182045054555
0.0048836587407016
0.0044163187886927
0.0040059909470013
0.0036448892941709
0.0033263925822437
0.0030445301727213
0.0027942791994461
0.002570740029902
0.0023709918224948
0.0021921055384072
0.0020313333211713
0.0018863854822157
0.001755168295613
0.0016364137568753
0.0015285569435908
0.0014304033020896
0.0013407675286371
0.0012587767951752
0.0011836997197512
0.0011147577841937
0.0010513373283905
0.0009928282243786
0.00093880634777096
0.00088885671509132
0.00084258510543653
0.00079964829445101
0.00075972859874955
0.00072258149144455
0.00068796195170796
0.00065564896404566
0.00062544307768463
0.00059716534473313
0.00057066756053556
0.00054581508274337
0.0005224810115465
0.00050053744982623
0.00047965120490242
0.00078997294205884
0.0029468474847407
0.0032365540290084
0.0032105183606306
0.0031753646948591
0.0031439739381098
0.0031161489855081
0.0030913618784829
0.0030692202392839
0.0030494884216099
0.0030319642923665
0.0030164255335897
0.0030025815340166
0.0029900716258949
0.0029785023686512
0.0029675004976243
0.0029567445982561
0.0029476475510603
0.002936693164859
0.0029255049814321
0.0029139879857395
0.0029020409560662
0.0028895196942894
0.0028762065196567
0.0028617891673723
0.0028458418803233
0.0028278421045926
0.0028072497679336
0.002783658638008
0.0027570489197298