/*--------------------------------*- C++ -*----------------------------------*\
| =========                 |                                                 |
| \\      /  F ield         | OpenFOAM: The Open Source CFD Toolbox           |
|  \\    /   O peration     | Version:  2312                                  |
|   \\  /    A nd           | Website:  www.openfoam.com                      |
|    \\/     M anipulation  |                                                 |
\*---------------------------------------------------------------------------*/
FoamFile
{
    version     2.0;
    format      ascii;
    arch        "LSB;label=32;scalar=64";
    class       volScalarField;
    location    "0.00018";
    object      yPlus;
}
// * * * * * * * * * * * * * * * * * * * * * * * * * * * * * * * * * * * * * //

dimensions      [0 0 0 0 0 0 0];

internalField   uniform 0;

boundaryField
{
    inlet
    {
        type            calculated;
        value           uniform 0;
    }
    outlet
    {
        type            calculated;
        value           uniform 0;
    }
    nozzleWalls
    {
        type            calculated;
        value           nonuniform List<scalar> 
144
(
35.085684552606
34.671869209186
34.241475054161
33.816947269312
33.40466464593
33.006751690363
32.623959112695
32.256216508698
31.903531045207
31.565887173213
31.24337797877
30.93619815288
30.644639227389
30.36909618967
30.110069910573
29.868140159817
29.64391813069
29.437411625835
29.245677704725
29.066559249964
28.899778884753
28.745351113075
28.60335287936
28.47389709892
28.357239278187
28.253827229428
28.16440908543
28.090194195289
28.033122164187
27.996373881128
27.98568196863
28.010000193494
28.088767164034
28.269602970411
28.72063281213
30.876792248296
35.324623285499
34.98703264147
34.564453968817
34.13441204953
33.71261229862
33.303791594893
32.909622430796
32.53061975426
32.166634846234
31.817708204912
31.483834980076
31.165136107312
30.861830195568
30.574233754258
30.302769741925
30.047960547378
29.810402078122
29.59068022896
29.388224641499
29.199737990286
29.023708274855
28.860011696409
28.708682352793
28.569806082623
28.443519378229
28.330120932411
28.230123034064
28.1443692935
28.074221342118
28.021866295988
27.990937634071
27.987968153715
28.023456655024
28.121305592568
28.343889696707
28.943185787421
35.177402049056
34.77858054082
34.348965679316
33.92206357883
33.506440692311
33.104819517362
32.718227217533
32.346743093112
31.990293225338
31.648884734369
31.322577320639
31.011541618189
30.716044504285
30.436454189045
30.173247519044
29.926985770875
29.698284333799
29.487494642359
29.292397278123
29.110180710698
28.940317798991
28.782796580695
28.637681668835
28.505073677855
28.385183767193
28.278403509911
28.185395445638
28.10723239796
28.045637208084
28.003409835833
27.985471492231
27.999839389194
28.062196360892
28.209733619651
28.559087257078
29.829291643973
35.259802590396
34.88399355543
34.456732788791
34.02790910731
33.609099184139
33.203838762555
32.813441598992
32.438212688397
32.077994403386
31.732825691711
31.402730806383
31.087855997452
30.788443917344
30.504836693451
30.237483866262
29.986929213253
29.753780903953
29.538549777834
29.339905516208
29.15457319649
28.981627713051
28.821017242902
28.672791974528
28.537044827877
28.413946258834
28.303838809688
28.207306789435
28.125301360933
28.059354243415
28.011937242236
27.987203670098
27.992600535765
28.040666583414
28.161060952539
28.437688164743
29.278949175166
)
;
    }
    tipWalls
    {
        type            calculated;
        value           nonuniform List<scalar> 
304
(
9.2156832395017
3.0184038964739
4.5538427195477
4.8725692066827
4.7604925571705
4.4751787106615
4.0557932497763
3.3749136072749
2.3452652614519
1.2828091267716
0.35205282093118
0.5731901682387
0.57277755205671
0.51220631639525
0.44842301554488
0.39555576137095
0.35475632829044
0.32325331023873
0.29783999135753
0.27624908109993
0.2573076166931
0.24042864994404
0.2252781748821
0.21167569059608
0.19952039546739
0.18873003195069
0.17915488956549
0.17062541001736
0.16296884585614
0.15602947376286
0.14968542793934
0.14385305840283
0.13848007988831
0.13353352499429
0.12898983070689
0.1248252797175
0.1210102964067
0.11750792858913
0.11427758151403
0.11128673492628
0.10851521783858
0.10595058616242
0.10357635476052
0.10136075203913
0.099261368857566
0.097228915541268
0.095216496846414
0.093188565444831
0.091128581113123
0.089048799946589
0.086993274245836
0.085040527392164
0.083283511900904
0.081790274830894
0.080561706353075
0.079521058029571
0.078560497891429
0.077553296216609
0.076403933507447
0.075067289108763
0.073576599454301
0.072038690507679
0.070579272641024
0.069426882134182
0.069788820602641
0.13451739189292
0.13327647550643
0.13148510013979
0.12983987039215
0.12823746799921
0.12659760489707
0.12490176906786
0.12319531083581
0.12161248702258
0.12041679245421
0.1203129438336
0.12323254237703
0.22826439725287
0.22770056304257
0.2254121081527
0.22321977899719
0.22143923655465
0.22002388516135
0.21893110816208
0.21816131934444
0.21763342380069
0.21740176682449
0.21747255278687
0.21800046664031
0.21915245075337
0.22115451611473
0.22419860560046
0.22839980849481
0.23382591187893
0.23980993584683
0.24391982863954
0.23652176411556
1.5837255154015
4.03142256308
4.7985409151108
4.8464411776565
4.6317180254911
4.2867833207879
3.7584571215213
2.9028989780536
1.7791903830626
0.82830174751252
0.46286127631033
0.58900404917342
0.54685282997613
0.47893915685391
0.42049245021984
0.3737765858892
0.33801494292923
0.31000742264582
0.28667008366439
0.26648534742708
0.24863176361798
0.2326484938255
0.21829537194801
0.20541889665701
0.19396334447537
0.18380094132226
0.17477036556463
0.16669839849794
0.1594180269587
0.15278913330287
0.14670912079447
0.14111154274252
0.13595506954678
0.13121271902305
0.12686183215379
0.12287618348781
0.1192226734294
0.11586105928132
0.11275376643671
0.10987439885321
0.10720783150583
0.10474118990465
0.10245130912239
0.10029950605944
0.098239901587285
0.096222756225132
0.094206101705328
0.092162357233532
0.090089310077673
0.088013780578478
0.085998188179507
0.084132178351869
0.082501907503328
0.081146094715512
0.080024107626175
0.079038960544644
0.078069679237536
0.077000638809356
0.075759032961925
0.074335734938563
0.072806021188166
0.071290167799121
0.069936634259196
0.069173808306126
0.069630870950461
0.13421315678945
0.13236161161296
0.13064967884082
0.12903962519349
0.12742476107552
0.12575519370066
0.12404452513841
0.12237636205
0.12094770139335
0.12013971175514
0.12113179053182
0.12343560515155
22.54914516352
2.1408147857133
4.3319387943371
4.8514037335338
4.8097122370134
4.556543541933
4.1781817865452
3.579839892833
2.6313548656313
1.5184386858013
0.5925053685269
0.53495536385347
0.5836650085281
0.53003903116034
0.4628087426475
0.40783813513438
0.36399313315097
0.33040809458596
0.30378987274106
0.28137804414356
0.26183061371106
0.24447601280568
0.22891353414823
0.21494012676661
0.20242557048928
0.19130728837115
0.18144385504374
0.17266930873746
0.16481016391103
0.15770440470853
0.15122083243546
0.14526644671443
0.13978229715338
0.13473153707213
0.13008922065209
0.12583236536796
0.12193311418039
0.11835651228259
0.11506164878203
0.11201329985133
0.10918824837272
0.10657306784071
0.10415346791079
0.10190203513247
0.099777954424582
0.097733467171957
0.095719913797413
0.093698370224079
0.091646320325782
0.089568845669086
0.087501069034051
0.085513920129996
0.083699846561145
0.082137381126829
0.080847058635797
0.079769053262671
0.078800377127381
0.077815443055022
0.076708167915096
0.075418683398311
0.073958588829468
0.072421022070077
0.070928550313874
0.069658537775102
0.069279247997497
3.2905906672066
3.6245025116017
4.702415189528
4.8683840485217
4.7000745454191
4.3852698955615
3.9169302095636
3.1512421385268
2.0550029826554
1.0586890053766
0.35764739485322
0.58668949118298
0.56009506401529
0.49608987087686
0.43398478823383
0.38418683034945
0.34611953320848
0.31648069532232
0.29214231612213
0.27128914027428
0.25290790222721
0.23648597846365
0.22174054397352
0.20850200275223
0.19670041907231
0.18622881922289
0.17693130418539
0.16863596048304
0.16117217763711
0.1543915565828
0.1481818357969
0.14246828760422
0.13720446651479
0.13236069951266
0.12791416987813
0.1238400704527
0.12010704675022
0.11667630583885
0.11350841621746
0.11057383507631
0.1078551408604
0.10534008040216
0.10300919706142
0.10082683362792
0.098748947617614
0.096725559426897
0.094712029648002
0.092676538605165
0.090609426087054
0.088530090512138
0.086491815699808
0.084579482771738
0.082884008565566
0.081460122588399
0.080288099194886
0.079278307290742
0.078317480247925
0.077282039217768
0.076087569008635
0.074705870839697
0.073191825610396
0.071661025266974
0.070246652946372
0.069251057035133
0.071236289703262
)
;
    }
    wedge1
    {
        type            wedge;
    }
    wedge2
    {
        type            wedge;
    }
    defaultFaces
    {
        type            empty;
    }
}


// ************************************************************************* //
