/*--------------------------------*- C++ -*----------------------------------*\
| =========                 |                                                 |
| \\      /  F ield         | OpenFOAM: The Open Source CFD Toolbox           |
|  \\    /   O peration     | Version:  2312                                  |
|   \\  /    A nd           | Website:  www.openfoam.com                      |
|    \\/     M anipulation  |                                                 |
\*---------------------------------------------------------------------------*/
FoamFile
{
    version     2.0;
    format      ascii;
    arch        "LSB;label=32;scalar=64";
    class       volScalarField;
    location    "0.006";
    object      alphat;
}
// * * * * * * * * * * * * * * * * * * * * * * * * * * * * * * * * * * * * * //

dimensions      [1 -1 -1 0 0 0 0];

internalField   nonuniform List<scalar> 
48128
(
6.2785e-09
9.18692e-09
3.29239e-08
3.21787e-07
1.42848e-06
3.48356e-06
5.63227e-06
7.42447e-06
8.84398e-06
9.96777e-06
1.09221e-05
1.17857e-05
1.25771e-05
1.33788e-05
1.4208e-05
1.50787e-05
1.60142e-05
1.70352e-05
1.81636e-05
1.94348e-05
2.09547e-05
2.27199e-05
2.47548e-05
2.70746e-05
2.98471e-05
3.30474e-05
3.67674e-05
4.09891e-05
4.58822e-05
5.15121e-05
5.78982e-05
6.5052e-05
7.3109e-05
8.1561e-05
9.05466e-05
9.96425e-05
0.000109165
0.000117703
0.000126367
0.000134453
0.000141498
0.000148266
0.000157316
0.000167085
0.000176451
0.00018476
0.000192213
0.000198963
0.00020489
0.000210526
0.000215578
0.000220459
0.000224456
0.000222207
0.000212089
0.000203087
0.000194569
0.000187004
0.000179629
0.000172571
0.000166216
0.000159857
0.00015417
0.000148914
0.000143855
0.000139416
0.000134936
0.000130903
0.000126851
0.000123224
0.000119833
0.000116592
0.00011368
0.000110927
0.000108397
0.000106029
0.000103803
0.000101931
9.99496e-05
9.81248e-05
9.7016e-05
9.56668e-05
9.40157e-05
9.25297e-05
9.16918e-05
9.05505e-05
8.93323e-05
8.80349e-05
8.68062e-05
8.66477e-05
8.59334e-05
8.49694e-05
8.39283e-05
8.29707e-05
8.29047e-05
8.23736e-05
8.15605e-05
8.0837e-05
8.0399e-05
7.98571e-05
7.91976e-05
7.85978e-05
7.85047e-05
7.81452e-05
7.76273e-05
7.71679e-05
7.68566e-05
7.64642e-05
7.60743e-05
7.56602e-05
7.52188e-05
7.47184e-05
7.42373e-05
7.38251e-05
7.34244e-05
7.33041e-05
7.31413e-05
7.29661e-05
7.27969e-05
7.2606e-05
7.23537e-05
7.20216e-05
7.16658e-05
7.13917e-05
7.11634e-05
7.0981e-05
7.10605e-05
7.10336e-05
7.10595e-05
7.10687e-05
7.1063e-05
7.10343e-05
7.09623e-05
7.08563e-05
7.07013e-05
7.05052e-05
7.02568e-05
7.00012e-05
6.97866e-05
6.961e-05
6.94534e-05
6.93495e-05
6.92319e-05
6.91572e-05
6.90557e-05
6.89477e-05
6.88275e-05
6.87158e-05
6.86024e-05
6.84679e-05
6.83439e-05
6.82057e-05
6.80849e-05
6.79556e-05
6.78301e-05
6.77155e-05
6.76059e-05
6.75104e-05
6.7414e-05
6.73315e-05
6.72484e-05
6.71786e-05
6.71068e-05
6.70435e-05
6.69803e-05
6.69207e-05
6.68566e-05
6.67897e-05
6.67232e-05
6.66567e-05
6.65674e-05
6.64918e-05
6.63992e-05
6.63169e-05
6.6236e-05
6.61549e-05
6.60764e-05
6.59982e-05
6.59235e-05
6.58555e-05
6.57869e-05
6.57285e-05
6.56714e-05
6.56207e-05
6.55717e-05
6.55291e-05
6.54884e-05
6.54512e-05
6.54179e-05
6.53895e-05
6.53618e-05
6.53318e-05
6.52956e-05
6.52485e-05
6.51696e-05
6.5101e-05
6.50317e-05
6.49579e-05
6.48901e-05
6.4829e-05
6.4772e-05
6.47263e-05
6.46895e-05
6.46605e-05
6.46355e-05
6.46133e-05
6.45933e-05
6.45754e-05
6.45595e-05
6.45367e-05
6.45053e-05
6.44738e-05
6.4448e-05
6.43741e-05
6.43341e-05
6.42931e-05
6.42464e-05
6.42056e-05
6.41639e-05
6.41248e-05
6.40854e-05
6.40474e-05
6.40111e-05
6.39762e-05
6.39422e-05
6.39093e-05
6.38767e-05
6.38441e-05
6.38112e-05
6.37783e-05
6.37454e-05
6.37127e-05
6.36801e-05
6.36482e-05
6.36171e-05
6.35873e-05
6.35577e-05
6.35312e-05
6.34994e-05
6.3423e-05
4.79558e-08
1.6142e-07
5.19374e-07
1.73627e-06
4.47559e-06
8.91663e-06
1.48462e-05
2.12344e-05
2.80619e-05
3.51462e-05
4.23728e-05
4.95063e-05
5.65762e-05
6.39675e-05
7.17751e-05
8.01696e-05
8.94937e-05
9.99508e-05
0.000111862
0.000125408
0.000141384
0.000159353
0.000181671
0.000206245
0.000234673
0.000266711
0.000302935
0.000343324
0.000381592
0.00042437
0.000471246
0.000521135
0.000574351
0.000629619
0.00068891
0.000747875
0.000811327
0.000868893
0.000924501
0.000978531
0.00102493
0.00106944
0.00111082
0.00115028
0.00118573
0.00121667
0.00124276
0.00126443
0.00128245
0.00129911
0.00131239
0.00132476
0.0013319
0.00133771
0.00133957
0.00134296
0.00134239
0.00134169
0.00133786
0.00133006
0.00132356
0.00131121
0.00129883
0.00128657
0.00127159
0.00125902
0.00124326
0.00122867
0.00121167
0.00119514
0.00117869
0.00116148
0.00114513
0.00112864
0.00111297
0.00109743
0.00108218
0.0010685
0.0010539
0.00104072
0.00103037
0.00101917
0.00100565
0.000993788
0.000984793
0.000974087
0.000962928
0.000951334
0.000941095
0.000935307
0.000926759
0.000916683
0.00090638
0.00089761
0.00089269
0.000885577
0.000876806
0.000868595
0.000861888
0.000854953
0.000847326
0.00084045
0.000835881
0.000830096
0.000823437
0.000817063
0.000811767
0.000806009
0.000800289
0.000794529
0.00078837
0.00078195
0.000775041
0.000769066
0.000762636
0.000758005
0.000753593
0.000749345
0.000745534
0.000741829
0.000737662
0.000732971
0.000728072
0.000723223
0.000718862
0.000714621
0.000712536
0.00071025
0.000708548
0.000707069
0.000704013
0.00070121
0.000698718
0.000695985
0.000693025
0.000689899
0.000686339
0.000682626
0.000678611
0.000674675
0.000670717
0.000666787
0.000663011
0.00065932
0.000655749
0.00065236
0.000648956
0.00064568
0.000642632
0.000639452
0.000636444
0.000633355
0.000630437
0.000627527
0.000624647
0.000621828
0.000619075
0.000616368
0.000613729
0.000611206
0.000608717
0.000606445
0.00060419
0.000602119
0.000600098
0.000598222
0.000596417
0.00059472
0.000593054
0.000591487
0.000590028
0.000588534
0.000587053
0.000585573
0.000584099
0.000582635
0.000581168
0.00057971
0.000578255
0.000576808
0.000575374
0.000573951
0.000572557
0.000571262
0.000569956
0.000568777
0.00056763
0.000566547
0.000565552
0.000564575
0.000563698
0.000562959
0.000562214
0.000561504
0.000560864
0.000560104
0.000559342
0.000558519
0.00055764
0.000556673
0.000555752
0.000554659
0.000553713
0.000552857
0.000552003
0.000551188
0.000550467
0.000549804
0.000549229
0.000548734
0.000548346
0.000547925
0.000547605
0.00054717
0.0005467
0.000546247
0.000545763
0.000545233
0.000544686
0.000544098
0.000543496
0.000542888
0.000542267
0.000541662
0.000541055
0.000540479
0.000539912
0.00053937
0.000538836
0.000538329
0.000537833
0.00053736
0.000536905
0.000536467
0.000536046
0.000535638
0.000535252
0.000534877
0.000534554
0.000533966
1.32992e-07
1.19778e-06
2.85601e-06
7.05144e-06
1.52755e-05
2.9596e-05
5.03789e-05
7.41551e-05
9.94901e-05
0.000124484
0.000148014
0.00017009
0.000190865
0.000211421
0.000231454
0.00025204
0.000273891
0.000297469
0.000323343
0.000352148
0.000384832
0.000421041
0.000461887
0.000506003
0.000554676
0.000607793
0.00066401
0.000724215
0.000786765
0.000854543
0.00092737
0.00100295
0.00108227
0.00116138
0.0012469
0.0013285
0.00141512
0.00149361
0.00157147
0.00164344
0.00170526
0.00176749
0.00182276
0.00187565
0.00192275
0.00196453
0.00200167
0.00203373
0.00206209
0.00208789
0.00210944
0.00212908
0.00214241
0.00215375
0.00215786
0.00216289
0.0021618
0.00216041
0.0021551
0.00214633
0.00213674
0.00212201
0.00210746
0.00209226
0.002074
0.00205785
0.00203728
0.0020181
0.00199567
0.00197386
0.00195164
0.00192857
0.0019065
0.00188413
0.0018625
0.001841
0.00181988
0.00180112
0.00178006
0.00176139
0.00174747
0.00173174
0.00171213
0.00169407
0.00168114
0.00166584
0.0016487
0.00163136
0.00161458
0.00160647
0.00159395
0.00157818
0.00156258
0.00154733
0.00153964
0.00152868
0.00151474
0.00150089
0.00148983
0.00147838
0.00146593
0.00145381
0.00144599
0.00143616
0.00142483
0.00141353
0.00140408
0.00139393
0.00138375
0.00137332
0.0013622
0.00135052
0.00133832
0.00132707
0.00131591
0.00130727
0.00129878
0.00129059
0.001283
0.00127559
0.0012674
0.0012582
0.00124871
0.00123958
0.00123136
0.00122342
0.00121844
0.0012132
0.00120897
0.00120522
0.0012019
0.00119875
0.00119532
0.00119163
0.00118735
0.00118242
0.00117659
0.00117041
0.00116424
0.00115838
0.00115259
0.00114739
0.0011422
0.00113761
0.00113292
0.00112849
0.00112391
0.00111963
0.00111536
0.0011108
0.00110653
0.001102
0.00109765
0.00109326
0.00108886
0.00108458
0.00108039
0.00107637
0.00107247
0.00106879
0.0010652
0.00106189
0.00105875
0.00105581
0.00105307
0.00105048
0.00104806
0.00104562
0.00104335
0.00104112
0.00103865
0.00103633
0.00103377
0.00103126
0.00102872
0.00102616
0.00102356
0.00102096
0.00101837
0.00101584
0.00101335
0.00101092
0.00100864
0.00100643
0.0010044
0.00100243
0.00100067
0.00099894
0.000997447
0.000996032
0.000994885
0.000993781
0.000992739
0.000991633
0.000990252
0.000988773
0.000987146
0.000985378
0.000983516
0.000981615
0.000979722
0.000977859
0.000976134
0.000974594
0.000973198
0.000971972
0.000970927
0.000970043
0.000969379
0.000968786
0.00096814
0.000967534
0.000966951
0.000965979
0.000965101
0.000964177
0.000963135
0.000962069
0.000960954
0.000959807
0.00095863
0.000957489
0.000956337
0.000955268
0.000954199
0.000953223
0.000952262
0.000951375
0.000950487
0.00094966
0.000948835
0.000948064
0.000947291
0.000946575
0.00094585
0.000945205
0.000944525
0.000943942
0.000943323
0.000942237
4.0013e-07
3.85188e-06
8.86849e-06
2.00326e-05
4.08416e-05
7.63384e-05
0.000120918
0.000168712
0.000214005
0.000254492
0.00029024
0.000322636
0.00035173
0.000379673
0.000406856
0.000434423
0.000463125
0.000493707
0.000526851
0.000563119
0.000603123
0.000647012
0.000695174
0.00074718
0.000803288
0.000863109
0.000925892
0.000992498
0.00106259
0.00113645
0.00121486
0.00129376
0.00137772
0.00145501
0.00154173
0.00162376
0.00170936
0.00178445
0.00185999
0.0019085
0.00196044
0.00202758
0.00207387
0.00213892
0.00218177
0.00223862
0.00227157
0.00231513
0.00234116
0.00237748
0.00240843
0.00243422
0.00245397
0.00247176
0.00248281
0.00249427
0.00249988
0.0025043
0.00250412
0.0025026
0.00249693
0.00248864
0.00248121
0.00247212
0.00246134
0.0024505
0.0024354
0.00242081
0.00240299
0.00238592
0.00236757
0.00234882
0.00233089
0.00231269
0.00229475
0.00227678
0.00225919
0.00224394
0.00222607
0.00220937
0.00219918
0.00218674
0.00216991
0.00215288
0.00214233
0.00212957
0.00211415
0.00209811
0.00208047
0.00207471
0.0020646
0.00205071
0.00203599
0.00201985
0.00201359
0.00200429
0.00199147
0.00197748
0.00196668
0.00195572
0.00194355
0.00193033
0.00192328
0.001914
0.00190288
0.00189096
0.00188121
0.00187083
0.00186016
0.00184884
0.00183656
0.0018234
0.00180961
0.00179685
0.00178435
0.00177513
0.00176601
0.00175722
0.00174886
0.00174062
0.00173129
0.00172048
0.00170916
0.00169844
0.00168902
0.00167971
0.00167418
0.0016684
0.00166396
0.00166005
0.00165646
0.00165296
0.00164896
0.00164457
0.00163936
0.00163329
0.00162594
0.00161802
0.00161016
0.0016028
0.00159548
0.00158894
0.00158248
0.00157681
0.00157089
0.00156535
0.00155953
0.00155409
0.00154869
0.00154286
0.00153728
0.00153141
0.00152576
0.00151997
0.00151414
0.00150848
0.0015029
0.00149761
0.00149238
0.00148752
0.0014827
0.00147832
0.00147409
0.00147017
0.00146648
0.00146296
0.00145963
0.00145626
0.0014531
0.00144996
0.00144644
0.00144315
0.0014395
0.00143594
0.00143232
0.00142867
0.00142499
0.00142132
0.00141765
0.0014141
0.00141058
0.00140719
0.00140397
0.0014009
0.00139801
0.00139526
0.00139272
0.00139029
0.00138813
0.00138613
0.00138442
0.00138278
0.0013812
0.00137954
0.00137746
0.00137525
0.00137286
0.00137029
0.00136761
0.0013649
0.00136222
0.00135961
0.00135718
0.00135504
0.00135309
0.00135138
0.0013499
0.00134864
0.00134765
0.00134677
0.00134578
0.00134487
0.00134398
0.00134254
0.00134122
0.00133987
0.00133837
0.00133685
0.00133528
0.00133369
0.00133206
0.00133049
0.00132892
0.00132746
0.001326
0.00132468
0.00132337
0.00132217
0.00132096
0.00131984
0.00131871
0.00131767
0.0013166
0.00131563
0.00131463
0.00131376
0.00131283
0.00131206
0.00131123
0.00130976
9.3061e-07
8.75906e-06
2.03126e-05
4.3406e-05
8.47008e-05
0.000145012
0.000210251
0.000272721
0.000328227
0.000376516
0.000419524
0.000456705
0.000490329
0.00052245
0.000553304
0.000584231
0.000615794
0.000649086
0.000684596
0.000722949
0.000764659
0.000809963
0.000858914
0.000911214
0.000966794
0.00102602
0.00108745
0.00115181
0.00121892
0.00128611
0.00135813
0.00142323
0.00146698
0.00150086
0.00153364
0.00157329
0.00161502
0.00165023
0.0017026
0.00173871
0.00176095
0.00182956
0.00185072
0.00190596
0.0019246
0.00197477
0.00199187
0.00202887
0.00204975
0.00208501
0.00211178
0.00214107
0.0021698
0.00221037
0.00225521
0.00228955
0.00232389
0.00235231
0.00237862
0.00241385
0.00243019
0.00245398
0.00249484
0.00251762
0.00253378
0.00253327
0.00252857
0.00252328
0.00251479
0.0025071
0.00249721
0.0024871
0.0024775
0.00246737
0.00245707
0.00244661
0.00243628
0.002428
0.00241763
0.00240616
0.00240223
0.00239626
0.00238644
0.00237427
0.00236857
0.00236145
0.002352
0.00234063
0.00232676
0.00232437
0.00231967
0.00231206
0.00230153
0.0022886
0.00228517
0.0022804
0.00227252
0.0022621
0.00225418
0.00224687
0.0022379
0.00222703
0.00222252
0.0022169
0.00220925
0.00219993
0.00219246
0.00218473
0.00217644
0.00216709
0.0021567
0.00214523
0.00213308
0.00212206
0.00211082
0.00210359
0.00209659
0.00208982
0.00208311
0.00207639
0.00206839
0.00205885
0.00204852
0.00203885
0.0020306
0.00202227
0.00201812
0.00201415
0.00201159
0.00200936
0.00200731
0.00200527
0.0020026
0.00199933
0.00199518
0.0019899
0.0019831
0.00197545
0.00196789
0.00196089
0.00195389
0.00194773
0.00194166
0.00193651
0.00193103
0.00192595
0.00192049
0.00191541
0.00191032
0.00190475
0.00189935
0.00189354
0.00188799
0.00188226
0.00187646
0.0018708
0.00186521
0.00185993
0.0018547
0.00184986
0.0018451
0.00184079
0.00183669
0.00183287
0.00182933
0.00182593
0.00182271
0.00181942
0.00181632
0.00181314
0.00180954
0.00180615
0.0018023
0.00179855
0.00179471
0.00179081
0.00178686
0.00178291
0.00177893
0.0017751
0.00177127
0.00176765
0.00176419
0.00176093
0.00175784
0.00175497
0.00175229
0.00174979
0.00174758
0.00174556
0.00174384
0.00174219
0.00174058
0.00173888
0.00173662
0.00173419
0.00173151
0.00172863
0.00172562
0.00172254
0.00171954
0.0017166
0.00171391
0.00171159
0.0017095
0.00170771
0.00170617
0.00170493
0.00170397
0.00170315
0.00170216
0.00170131
0.00170046
0.00169889
0.00169745
0.00169598
0.00169433
0.00169266
0.00169092
0.00168918
0.00168738
0.00168568
0.00168396
0.0016824
0.00168082
0.00167944
0.00167804
0.00167681
0.00167553
0.0016744
0.00167321
0.00167216
0.00167105
0.00167007
0.00166904
0.00166819
0.00166724
0.00166651
0.00166569
0.00166416
1.76885e-06
1.62345e-05
3.81422e-05
7.71988e-05
0.000142835
0.000218443
0.000295324
0.000365359
0.00042637
0.000479902
0.000526108
0.0005658
0.000602097
0.000636183
0.000668384
0.000700227
0.0007319
0.000764787
0.000799306
0.000836019
0.000875449
0.000917928
0.000962993
0.00101116
0.0010618
0.00111451
0.00116772
0.001222
0.00125668
0.00127497
0.001295
0.00131242
0.00132172
0.00133442
0.00134731
0.00136239
0.00139462
0.00140815
0.00144754
0.00146839
0.00146442
0.00151343
0.0015129
0.00154145
0.00153906
0.00156805
0.00157467
0.00160038
0.00162251
0.00164477
0.00166787
0.00169482
0.00171794
0.00176197
0.00179745
0.00184035
0.00186676
0.00190533
0.00192896
0.00197167
0.001999
0.00202863
0.00208152
0.00210662
0.00215506
0.00219113
0.00221099
0.00225437
0.00227701
0.00231625
0.00233535
0.00236814
0.00239412
0.00239717
0.0023991
0.00240024
0.00240102
0.00240284
0.00240299
0.00240077
0.00240458
0.00240688
0.00240666
0.00240296
0.00240367
0.00240397
0.00240297
0.00239874
0.00239184
0.00239348
0.00239513
0.00239532
0.00239143
0.00238457
0.0023846
0.00238513
0.00238374
0.002379
0.00237556
0.00237321
0.00236909
0.00236295
0.00236174
0.00236082
0.00235824
0.00235347
0.00234976
0.00234609
0.00234178
0.00233594
0.0023292
0.00232132
0.00231288
0.00230527
0.00229726
0.00229331
0.00228998
0.00228674
0.00228302
0.00227909
0.00227391
0.00226745
0.00226007
0.00225316
0.0022476
0.00224189
0.00224036
0.00223962
0.00224002
0.00224048
0.00224109
0.00224166
0.00224148
0.00224055
0.00223871
0.00223563
0.00223095
0.00222517
0.00221952
0.00221438
0.00220922
0.00220489
0.00220057
0.00219722
0.00219358
0.00219023
0.00218648
0.00218295
0.00217946
0.00217544
0.00217151
0.00216702
0.00216282
0.00215841
0.00215388
0.00214951
0.00214516
0.00214111
0.00213711
0.00213345
0.00212991
0.00212674
0.00212379
0.00212112
0.0021187
0.00211641
0.00211428
0.00211207
0.00210995
0.00210777
0.00210513
0.00210259
0.00209955
0.00209654
0.00209344
0.00209023
0.00208693
0.0020836
0.00208021
0.00207697
0.0020737
0.00207069
0.0020678
0.00206517
0.00206266
0.00206043
0.00205837
0.00205654
0.00205497
0.00205362
0.00205255
0.00205155
0.00205053
0.00204947
0.00204766
0.00204563
0.00204337
0.00204082
0.00203811
0.00203533
0.0020326
0.00202996
0.00202763
0.00202571
0.00202401
0.00202267
0.00202157
0.00202087
0.0020204
0.00202013
0.00201962
0.00201929
0.00201895
0.00201773
0.00201664
0.00201551
0.00201417
0.0020128
0.00201133
0.00200988
0.00200833
0.00200692
0.00200546
0.0020042
0.0020029
0.00200184
0.00200075
0.00199985
0.00199889
0.00199811
0.00199724
0.00199653
0.00199573
0.0019951
0.00199437
0.00199387
0.00199324
0.00199289
0.00199241
0.00199129
2.86461e-06
2.61383e-05
6.17317e-05
0.000119646
0.000200808
0.00028622
0.000369107
0.000442724
0.000506719
0.000563676
0.000610613
0.000652165
0.000689793
0.000724452
0.000756497
0.000787365
0.000817307
0.000847566
0.00087869
0.00091115
0.000945595
0.000981954
0.00102032
0.00106057
0.00110207
0.00112617
0.00112723
0.00113544
0.00113919
0.00114398
0.00114013
0.00114153
0.00113149
0.00112835
0.00114403
0.00113681
0.00116555
0.00115075
0.0011671
0.00116258
0.00113869
0.00114843
0.00113082
0.00113715
0.00113575
0.00114446
0.00115469
0.00116668
0.00119282
0.00120042
0.00122766
0.00125131
0.00127161
0.00131652
0.00133621
0.0013817
0.00139742
0.00144248
0.00146007
0.00150496
0.00153376
0.00156972
0.00161545
0.0016402
0.00168284
0.00172085
0.00174557
0.0017899
0.00182095
0.00186158
0.00189201
0.00193182
0.00196536
0.00199571
0.0020295
0.00206102
0.00209337
0.00211814
0.00215186
0.00218153
0.00218749
0.00220705
0.00224387
0.00226908
0.00227745
0.00228816
0.00229707
0.0023025
0.00230543
0.00231241
0.00232156
0.00233033
0.00233436
0.00233584
0.00234042
0.00234718
0.00235278
0.00235524
0.00235766
0.00236123
0.002363
0.00236351
0.00236644
0.00237098
0.0023741
0.00237519
0.00237627
0.00237746
0.00237795
0.00237659
0.00237467
0.00237162
0.00236821
0.00236509
0.0023618
0.00236179
0.00236288
0.00236385
0.00236385
0.00236342
0.00236211
0.00235989
0.00235657
0.00235368
0.00235158
0.00234981
0.00235156
0.00235439
0.00235821
0.00236187
0.00236564
0.00236937
0.00237223
0.00237435
0.00237537
0.0023754
0.00237376
0.00237102
0.00236832
0.00236603
0.00236369
0.00236208
0.00236044
0.00235971
0.00235878
0.00235801
0.00235684
0.00235574
0.00235469
0.00235315
0.0023516
0.00234937
0.00234742
0.00234526
0.00234292
0.00234076
0.00233856
0.00233663
0.00233472
0.00233311
0.00233161
0.00233044
0.00232946
0.00232871
0.00232818
0.00232776
0.00232744
0.00232707
0.00232668
0.00232628
0.00232539
0.00232454
0.0023231
0.00232165
0.00232009
0.00231838
0.00231654
0.00231464
0.00231261
0.00231078
0.00230882
0.00230717
0.0023056
0.00230431
0.00230312
0.00230221
0.00230146
0.00230096
0.00230067
0.00230066
0.00230083
0.00230109
0.00230127
0.00230146
0.00230072
0.00229973
0.0022985
0.00229694
0.0022952
0.00229337
0.00229157
0.00228987
0.00228852
0.00228759
0.00228687
0.00228651
0.0022864
0.00228674
0.00228725
0.00228801
0.00228851
0.00228915
0.00228979
0.00228944
0.00228919
0.00228891
0.00228838
0.00228782
0.0022871
0.00228644
0.00228563
0.00228497
0.00228423
0.00228373
0.00228315
0.00228285
0.00228248
0.00228236
0.00228212
0.00228211
0.00228196
0.00228201
0.00228191
0.00228202
0.00228198
0.00228221
0.00228227
0.00228265
0.00228289
0.00228274
4.11442e-06
3.78836e-05
8.89104e-05
0.000163177
0.000253278
0.000344411
0.00042987
0.000505164
0.000571178
0.000629033
0.000676767
0.000719443
0.000757552
0.000791823
0.000822621
0.000851222
0.000877963
0.000903859
0.00092971
0.000955919
0.000982752
0.00101077
0.0010395
0.00103862
0.00103046
0.00101714
0.00100864
0.00100889
0.00099763
0.000991784
0.000970893
0.000957452
0.000956043
0.000941986
0.000967936
0.000934676
0.000934493
0.000896456
0.000880739
0.000872056
0.000856407
0.00084003
0.000832888
0.000822965
0.000830692
0.000824976
0.000840601
0.000839003
0.000868062
0.000865687
0.000898513
0.000913288
0.000933153
0.000972114
0.000982464
0.00101837
0.00103361
0.00107695
0.00109542
0.00113894
0.00116149
0.00120371
0.00123779
0.00125926
0.00129357
0.00132111
0.00134458
0.0013767
0.00140551
0.00143712
0.00146587
0.00150173
0.00152925
0.001561
0.00159285
0.00162633
0.00165877
0.00168866
0.00172316
0.00175372
0.00177508
0.0018007
0.0018349
0.00186819
0.00189012
0.00191555
0.00194638
0.00198055
0.00200921
0.00201912
0.00203606
0.00206089
0.00209546
0.00212403
0.0021304
0.00214363
0.00216684
0.00219582
0.00221584
0.00223022
0.00223965
0.00224807
0.00225679
0.00226724
0.00227687
0.00228475
0.00229168
0.00229845
0.00230441
0.00230862
0.00231226
0.00231498
0.00231762
0.0023199
0.00232265
0.00232741
0.00233329
0.00233891
0.00234332
0.00234702
0.00235028
0.00235288
0.0023545
0.00235655
0.00235853
0.00236147
0.00236692
0.00237332
0.00238062
0.00238779
0.00239493
0.00240202
0.00240816
0.00241371
0.00241808
0.00242148
0.00242356
0.00242441
0.00242533
0.00242645
0.00242757
0.00242914
0.00243076
0.00243304
0.00243527
0.00243758
0.00243951
0.00244141
0.00244329
0.00244476
0.00244619
0.00244687
0.00244772
0.00244845
0.00244892
0.00244956
0.00245012
0.0024509
0.00245165
0.00245263
0.00245371
0.00245505
0.00245655
0.00245823
0.00246009
0.00246204
0.00246404
0.002466
0.00246786
0.00246973
0.00247117
0.00247262
0.00247333
0.00247401
0.00247457
0.00247496
0.00247516
0.0024753
0.00247525
0.00247539
0.00247536
0.00247563
0.00247596
0.00247657
0.00247725
0.00247819
0.0024793
0.00248065
0.00248217
0.00248398
0.00248588
0.00248789
0.00248976
0.00249164
0.00249252
0.00249311
0.00249345
0.00249345
0.00249323
0.00249292
0.00249263
0.00249243
0.0024926
0.00249318
0.00249395
0.00249508
0.00249644
0.00249825
0.0025002
0.00250239
0.00250436
0.00250639
0.00250844
0.00250944
0.0025105
0.00251153
0.00251227
0.00251299
0.00251349
0.00251407
0.00251446
0.00251501
0.00251545
0.00251614
0.00251672
0.00251761
0.00251839
0.00251944
0.00252035
0.00252151
0.00252248
0.00252369
0.00252469
0.00252592
0.00252696
0.00252831
0.00252943
0.00253091
0.00253222
0.00253361
5.41308e-06
5.06857e-05
0.00011669
0.000202033
0.000297847
0.000392042
0.00047825
0.00055405
0.000621097
0.000679045
0.000727636
0.000770956
0.000809041
0.000842261
0.000870944
0.000896206
0.000918369
0.00093848
0.000957303
0.000974862
0.000992309
0.000982001
0.00095717
0.000929974
0.00091532
0.000900407
0.000884372
0.000878816
0.000853396
0.000838355
0.000820702
0.000806305
0.000827909
0.000791697
0.000792793
0.000744056
0.00072731
0.000688777
0.000664366
0.000641649
0.000642208
0.000609448
0.000618281
0.000599228
0.000621818
0.000611248
0.000638425
0.000634482
0.000666615
0.000664288
0.000698743
0.000697014
0.00073016
0.000752384
0.000761108
0.000771885
0.000783147
0.000795781
0.000807519
0.000823299
0.000838463
0.000855709
0.000876492
0.00089585
0.000919026
0.0009423
0.00096526
0.00099191
0.00101846
0.00104854
0.00107815
0.00111057
0.00114376
0.00117845
0.00121296
0.0012493
0.00128492
0.0013218
0.00135203
0.00137858
0.00139839
0.0014184
0.00144486
0.00147426
0.00149811
0.00152257
0.00154976
0.00158123
0.00161366
0.00163271
0.00165227
0.00167632
0.00170938
0.00174285
0.00176386
0.00178125
0.00180636
0.00183756
0.0018663
0.00188955
0.0019167
0.00194273
0.00195935
0.00197554
0.0019966
0.00202135
0.00204153
0.00205823
0.0020723
0.00209065
0.0021138
0.00213915
0.00216506
0.00218168
0.00219183
0.00220255
0.00221395
0.00222482
0.0022345
0.0022433
0.00225159
0.00225977
0.002267
0.00227451
0.00228128
0.00228947
0.00229899
0.0023092
0.00232012
0.00233112
0.0023418
0.00235245
0.00236204
0.00237124
0.00237909
0.00238627
0.00239229
0.00239723
0.00240213
0.00240709
0.002412
0.0024172
0.00242234
0.00242799
0.00243365
0.00243933
0.00244466
0.00244992
0.00245501
0.00245986
0.0024646
0.00246863
0.00247267
0.00247669
0.00248038
0.00248419
0.00248786
0.00249169
0.00249543
0.00249934
0.00250328
0.00250746
0.00251173
0.00251615
0.0025207
0.00252531
0.00252993
0.00253454
0.00253897
0.00254342
0.00254752
0.00255161
0.00255486
0.00255806
0.0025611
0.00256399
0.00256662
0.0025692
0.00257154
0.00257404
0.00257635
0.00257893
0.00258156
0.00258443
0.00258737
0.00259055
0.00259388
0.00259743
0.00260113
0.0026051
0.00260911
0.00261318
0.0026171
0.00262099
0.00262392
0.00262645
0.00262879
0.00263077
0.00263252
0.00263418
0.00263584
0.00263758
0.00263971
0.00264221
0.00264488
0.00264788
0.00265107
0.00265471
0.00265845
0.00266241
0.00266621
0.00266996
0.00267375
0.00267651
0.00267926
0.00268199
0.00268439
0.00268677
0.00268891
0.00269112
0.00269313
0.00269527
0.00269728
0.00269954
0.00270167
0.00270411
0.00270642
0.00270902
0.00271143
0.00271412
0.00271659
0.0027193
0.00272176
0.00272447
0.00272695
0.00272974
0.00273227
0.00273519
0.00273788
0.00274135
6.67887e-06
6.29949e-05
0.00014228
0.000234938
0.000334197
0.000429213
0.000515073
0.000590647
0.000658475
0.000717027
0.000766549
0.000810163
0.000847708
0.000879215
0.000904814
0.000925445
0.000941483
0.000954028
0.000963579
0.000949913
0.000917732
0.000876856
0.000845017
0.000820763
0.000804153
0.000785651
0.000764643
0.000755137
0.000730539
0.000714932
0.000725924
0.000699072
0.00070771
0.000661675
0.00063777
0.000591388
0.000558526
0.000520662
0.000493163
0.000461376
0.000468924
0.000448127
0.000467695
0.000463086
0.000500772
0.000510497
0.000524297
0.00052625
0.000527294
0.000527957
0.000527339
0.000528162
0.000531653
0.00053656
0.000538111
0.000541024
0.000543948
0.000547872
0.00055322
0.000559038
0.000567039
0.000575214
0.000587893
0.000597176
0.000609844
0.00062162
0.00063465
0.000649925
0.000665901
0.000683972
0.000702668
0.000723723
0.000745207
0.000768481
0.000793437
0.000819342
0.000847341
0.000875549
0.000905899
0.000936256
0.000966952
0.000998309
0.00103199
0.00106632
0.00110053
0.00113503
0.00117079
0.00120663
0.0012423
0.00127575
0.00131044
0.00134405
0.00136907
0.0013992
0.00142285
0.00143856
0.00145889
0.00148627
0.00151397
0.00153731
0.0015632
0.00158999
0.00161078
0.00162845
0.00165095
0.00167672
0.00170156
0.00172204
0.00174017
0.00176514
0.00179154
0.00182107
0.00185217
0.00188231
0.00191145
0.00192632
0.00194113
0.00195324
0.00196485
0.00198105
0.00200086
0.00202512
0.00205186
0.00207937
0.00210302
0.00212319
0.00213606
0.00214695
0.00215429
0.00216743
0.00217762
0.00218927
0.00219935
0.00221455
0.00222556
0.00224388
0.00226241
0.00228785
0.00230587
0.00231665
0.00232593
0.00233517
0.00234418
0.00235355
0.00236289
0.00237226
0.0023812
0.00239012
0.00239871
0.00240723
0.00241552
0.00242328
0.00243083
0.00243833
0.00244545
0.00245264
0.00245964
0.00246674
0.00247373
0.00248085
0.00248791
0.00249515
0.00250239
0.00250978
0.00251719
0.00252466
0.00253208
0.00253953
0.00254673
0.00255399
0.0025609
0.00256781
0.00257385
0.00257981
0.00258555
0.00259118
0.0025965
0.00260176
0.00260675
0.00261186
0.00261677
0.0026219
0.00262709
0.00263246
0.0026379
0.00264355
0.00264934
0.00265532
0.00266145
0.0026678
0.00267414
0.00268049
0.0026867
0.00269282
0.00269801
0.00270281
0.00270741
0.00271168
0.00271571
0.00271964
0.00272358
0.00272758
0.00273196
0.00273668
0.00274153
0.00274668
0.00275198
0.00275768
0.00276345
0.00276943
0.00277531
0.00278102
0.00278682
0.00279162
0.00279638
0.0028011
0.00280547
0.00280982
0.00281392
0.00281806
0.00282199
0.00282604
0.00282994
0.00283406
0.00283806
0.00284234
0.00284649
0.00285092
0.00285516
0.00285967
0.00286393
0.00286845
0.00287267
0.00287715
0.00288136
0.00288587
0.00289014
0.00289475
0.00289911
0.0029051
7.83302e-06
7.39217e-05
0.000164134
0.000261575
0.000362068
0.000456508
0.000542707
0.000618989
0.000687271
0.000745981
0.000795869
0.000839213
0.000875568
0.000904489
0.000925807
0.000940154
0.000948068
0.000946801
0.000901465
0.000849643
0.000807766
0.000770764
0.000741106
0.000717063
0.000703853
0.000687638
0.000667588
0.000659096
0.000656341
0.000641036
0.000657004
0.000616477
0.000595796
0.000550508
0.000508304
0.000461169
0.000413935
0.000377751
0.000342573
0.000320219
0.000313271
0.000307085
0.000327346
0.000336387
0.000368263
0.000385847
0.000394677
0.0004009
0.000407171
0.000410208
0.000413049
0.000414233
0.00041497
0.000417031
0.000415796
0.000415038
0.000414898
0.000416566
0.000418115
0.000422177
0.000425951
0.000431513
0.000437957
0.000443389
0.000449183
0.000454861
0.000460937
0.000468886
0.000475628
0.000483852
0.000491793
0.000501197
0.000510482
0.000521023
0.000532668
0.000545038
0.000558678
0.000573155
0.000588905
0.000605595
0.000623327
0.000642159
0.00066277
0.00068486
0.000708411
0.000732852
0.00075887
0.000786327
0.00081439
0.000843199
0.000872562
0.000903974
0.000936601
0.000970019
0.00100349
0.00103605
0.00107058
0.0011053
0.00114132
0.00117482
0.00120986
0.00124368
0.00127713
0.00130955
0.00134388
0.00137648
0.0013975
0.00141981
0.00143688
0.00145962
0.00148433
0.00151157
0.00153865
0.00156765
0.00159691
0.00161303
0.00162795
0.00164175
0.00165828
0.00167806
0.0017013
0.00172718
0.00175605
0.00178651
0.00181688
0.00183883
0.00185643
0.00187122
0.00188279
0.00189745
0.00190914
0.00192331
0.00193515
0.00195149
0.00196421
0.00198659
0.00200969
0.002038
0.00205984
0.0020823
0.00210292
0.00212103
0.00213806
0.00215344
0.00216919
0.00218504
0.00220163
0.00221804
0.0022321
0.00224849
0.0022639
0.00228126
0.00229551
0.00231096
0.00232677
0.00234255
0.00235764
0.00237294
0.00238737
0.00240207
0.00241369
0.00242433
0.00243481
0.00244537
0.00245581
0.00246632
0.00247669
0.00248715
0.0024973
0.00250748
0.00251726
0.0025271
0.00253608
0.002545
0.00255363
0.00256216
0.00257035
0.00257846
0.00258629
0.0025942
0.00260188
0.00260976
0.00261765
0.00262571
0.00263378
0.00264209
0.00265049
0.00265908