/*--------------------------------*- C++ -*----------------------------------*\
| =========                 |                                                 |
| \\      /  F ield         | OpenFOAM: The Open Source CFD Toolbox           |
|  \\    /   O peration     | Version:  2312                                  |
|   \\  /    A nd           | Website:  www.openfoam.com                      |
|    \\/     M anipulation  |                                                 |
\*---------------------------------------------------------------------------*/
FoamFile
{
    version     2.0;
    format      ascii;
    arch        "LSB;label=32;scalar=64";
    class       volScalarField;
    location    "0.006";
    object      cSound;
}
// * * * * * * * * * * * * * * * * * * * * * * * * * * * * * * * * * * * * * //

dimensions      [0 1 -1 0 0 0 0];

internalField   nonuniform List<scalar> 
48128
(
300.87
300.918
301.057
301.173
301.19
301.199
301.214
301.104
300.783
300.22
299.549
298.906
298.267
297.717
297.307
296.96
296.67
296.451
296.309
296.248
296.327
296.554
296.939
297.448
298.104
298.91
299.852
300.9
302.026
303.279
304.65
306.134
307.707
309.332
310.957
312.568
314.123
315.613
317.091
318.175
319.067
321.523
322.134
322.609
323.046
323.408
323.691
323.904
324.09
324.22
324.319
324.368
324.434
324.455
324.471
324.435
324.384
324.296
324.197
324.115
323.997
323.946
323.914
323.888
323.874
323.818
323.783
323.733
323.717
323.715
323.727
323.766
323.821
323.884
323.971
324.069
324.192
324.318
324.426
324.606
324.897
325.031
325.141
325.283
325.573
325.722
325.83
325.907
326.073
326.525
326.709
326.839
326.927
327.083
327.509
327.686
327.831
327.961
328.211
328.375
328.515
328.668
329.018
329.214
329.382
329.538
329.761
329.943
330.099
330.247
330.372
330.484
330.616
330.774
330.983
331.262
331.501
331.721
331.925
332.112
332.267
332.394
332.533
332.709
332.895
333.089
333.42
333.672
333.955
334.196
334.433
334.637
334.819
334.991
335.15
335.285
335.391
335.506
335.641
335.781
335.929
336.089
336.245
336.418
336.583
336.744
336.903
337.063
337.212
337.354
337.5
337.633
337.771
337.899
338.027
338.156
338.288
338.421
338.554
338.694
338.83
338.974
339.121
339.272
339.418
339.568
339.713
339.855
339.995
340.123
340.249
340.371
340.483
340.594
340.7
340.801
340.899
340.995
341.091
341.187
341.283
341.381
341.481
341.583
341.688
341.798
341.907
342.019
342.133
342.252
342.371
342.485
342.595
342.688
342.779
342.86
342.929
342.992
343.054
343.117
343.184
343.251
343.326
343.406
343.492
343.583
343.677
343.774
343.875
343.969
344.058
344.146
344.219
344.285
344.356
344.421
344.478
344.536
344.59
344.645
344.699
344.754
344.81
344.867
344.925
344.984
345.043
345.103
345.162
345.222
345.281
345.34
345.398
345.456
345.512
345.57
345.626
345.684
345.735
345.771
300.806
300.867
300.912
300.903
300.837
300.736
300.481
299.96
299.119
298.041
296.979
295.991
295.05
294.278
293.718
293.283
292.959
292.755
292.681
292.758
292.964
293.327
293.838
294.522
295.383
296.42
297.62
298.976
300.506
302.157
303.867
305.636
307.415
309.216
310.933
312.657
314.232
315.409
317.29
318.226
319.059
319.99
320.588
321
321.327
321.553
321.692
321.755
321.735
321.633
321.501
321.306
321.131
320.938
320.749
320.534
320.303
320.051
319.789
319.528
319.245
319.009
318.803
318.606
318.42
318.21
318.006
317.797
317.604
317.432
317.271
317.131
317.013
316.908
316.817
316.739
316.689
316.661
316.608
316.584
316.731
316.731
316.69
316.656
316.806
316.813
316.783
316.736
316.681
317.001
317.044
317.039
317.017
316.98
317.281
317.334
317.344
317.35
317.466
317.503
317.519
317.525
317.745
317.813
317.86
317.904
318.007
318.065
318.114
318.15
318.166
318.153
318.149
318.168
318.197
318.345
318.453
318.564
318.675
318.767
318.841
318.874
318.906
318.97
319.046
319.141
319.371
319.529
319.731
319.915
320.089
320.251
320.393
320.514
320.611
320.69
320.736
320.776
320.833
320.905
320.977
321.08
321.175
321.294
321.394
321.494
321.591
321.691
321.782
321.868
321.954
322.032
322.114
322.189
322.265
322.344
322.425
322.51
322.597
322.691
322.784
322.886
322.988
323.096
323.202
323.311
323.415
323.518
323.618
323.712
323.795
323.879
323.952
324.027
324.097
324.164
324.228
324.292
324.356
324.421
324.488
324.558
324.631
324.706
324.785
324.869
324.954
325.044
325.137
325.236
325.334
325.429
325.518
325.595
325.657
325.718
325.768
325.812
325.855
325.901
325.949
326.006
326.068
326.135
326.21
326.291
326.375
326.464
326.555
326.64
326.721
326.799
326.869
326.92
326.981
327.037
327.086
327.137
327.184
327.233
327.282
327.332
327.383
327.436
327.49
327.546
327.601
327.658
327.715
327.772
327.829
327.886
327.943
327.999
328.055
328.113
328.169
328.227
328.28
328.307
300.744
300.733
300.7
300.624
300.524
300.314
299.891
299.196
298.269
297.229
296.158
295.206
294.348
293.663
293.198
292.851
292.623
292.518
292.541
292.689
292.976
293.422
294.031
294.815
295.777
296.907
298.174
299.553
301.041
302.628
304.263
305.978
307.64
309.432
310.909
312.521
314.044
315.068
316.198
317.026
317.715
318.268
318.645
318.888
319.048
319.111
319.085
318.993
318.828
318.595
318.345
318.055
317.804
317.564
317.329
317.075
316.812
316.534
316.257
315.974
315.678
315.433
315.223
315.022
314.83
314.607
314.394
314.177
313.977
313.798
313.627
313.476
313.342
313.219
313.106
313.006
312.93
312.872
312.786
312.724
312.83
312.79
312.711
312.642
312.745
312.713
312.647
312.556
312.469
312.736
312.734
312.689
312.623
312.554
312.797
312.806
312.773
312.747
312.813
312.811
312.782
312.752
312.921
312.945
312.946
312.949
313.004
313.02
313.025
313.017
312.995
312.942
312.902
312.879
312.866
312.964
313.021
313.08
313.137
313.181
313.208
313.2
313.192
313.209
313.24
313.279
313.462
313.575
313.731
313.869
314
314.122
314.228
314.317
314.385
314.433
314.453
314.466
314.492
314.525
314.564
314.623
314.677
314.755
314.822
314.886
314.95
315.016
315.082
315.137
315.197
315.249
315.307
315.358
315.409
315.464
315.52
315.581
315.643
315.712
315.78
315.857
315.935
316.017
316.099
316.182
316.263
316.341
316.418
316.489
316.552
316.615
316.669
316.724
316.775
316.824
316.87
316.916
316.962
317.01
317.059
317.112
317.167
317.226
317.288
317.355
317.425
317.498
317.576
317.659
317.741
317.822
317.896
317.961
318.013
318.061
318.101
318.135
318.168
318.204
318.243
318.289
318.341
318.398
318.463
318.534
318.609
318.688
318.769
318.846
318.919
318.989
319.053
319.098
319.152
319.204
319.247
319.293
319.336
319.381
319.425
319.471
319.518
319.566
319.616
319.667
319.719
319.772
319.825
319.879
319.933
319.987
320.04
320.094
320.148
320.203
320.257
320.313
320.365
320.391
300.56
300.558
300.479
300.394
300.245
299.928
299.4
298.699
297.826
296.844
295.851
294.952
294.169
293.555
293.157
292.87
292.711
292.674
292.754
292.958
293.304
293.804
294.462
295.277
296.238
297.328
298.541
299.857
301.261
302.766
304.271
305.984
307.309
309.155
310.363
311.547
312.659
313.572
314.399
315.009
315.481
315.783
315.933
315.985
315.953
315.843
315.654
315.411
315.092
314.738
314.382
314.018
313.714
313.456
313.218
312.951
312.7
312.432
312.193
311.953
311.701
311.515
311.378
311.239
311.107
310.928
310.764
310.595
310.445
310.318
310.192
310.085
309.989
309.901
309.819
309.748
309.7
309.661
309.59
309.535
309.644
309.612
309.537
309.475
309.567
309.54
309.478
309.387
309.306
309.541
309.542
309.5
309.429
309.362
309.568
309.572
309.534
309.505
309.549
309.539
309.498
309.461
309.61
309.619
309.607
309.599
309.632
309.635
309.623
309.601
309.565
309.502
309.453
309.418
309.394
309.475
309.514
309.552
309.583
309.603
309.609
309.583
309.559
309.556
309.568
309.588
309.742
309.831
309.958
310.067
310.171
310.265
310.346
310.411
310.459
310.489
310.494
310.49
310.501
310.519
310.54
310.578
310.613
310.669
310.715
310.759
310.803
310.847
310.891
310.927
310.966
310.997
311.035
311.07
311.105
311.144
311.184
311.228
311.273
311.325
311.377
311.437
311.496
311.561
311.624
311.69
311.754
311.816
311.877
311.934
311.984
312.032
312.074
312.117
312.155
312.191
312.225
312.259
312.292
312.328
312.365
312.406
312.449
312.495
312.546
312.601
312.658
312.72
312.786
312.858
312.929
312.999
313.063
313.118
313.162
313.202
313.234
313.261
313.286
313.315
313.346
313.384
313.429
313.478
313.535
313.598
313.665
313.737
313.81
313.88
313.947
314.011
314.069
314.111
314.16
314.207
314.246
314.288
314.327
314.367
314.408
314.45
314.493
314.538
314.584
314.631
314.68
314.729
314.779
314.83
314.88
314.931
314.982
315.033
315.085
315.137
315.189
315.243
315.293
315.319
300.402
300.365
300.281
300.196
299.971
299.565
299.042
298.388
297.525
296.573
295.65
294.843
294.154
293.62
293.285
293.062
292.96
292.961
293.073
293.301
293.657
294.15
294.78
295.541
296.433
297.45
298.583
299.82
301.104
302.556
303.687
305.495
306.501
307.714
308.705
309.614
310.45
311.101
311.669
311.99
312.166
312.281
312.15
312.012
311.755
311.502
311.142
310.778
310.299
309.854
309.429
309.027
308.703
308.469
308.272
308.023
307.831
307.606
307.442
307.282
307.099
306.999
306.977
306.919
306.886
306.77
306.685
306.602
306.532
306.493
306.44
306.412
306.382
306.357
306.333
306.315
306.316
306.324
306.288
306.264
306.393
306.392
306.345
306.313
306.411
306.413
306.379
306.314
306.26
306.463
306.497
306.479
306.429
306.381
306.553
306.577
306.554
306.538
306.576
306.576
306.544
306.518
306.647
306.662
306.655
306.652
306.677
306.681
306.668
306.646
306.61
306.552
306.506
306.471
306.449
306.524
306.559
306.589
306.608
306.618
306.619
306.589
306.56
306.551
306.555
306.573
306.705
306.782
306.891
306.982
307.07
307.148
307.213
307.262
307.297
307.318
307.316
307.303
307.306
307.315
307.328
307.356
307.381
307.426
307.461
307.493
307.525
307.558
307.589
307.615
307.642
307.661
307.687
307.708
307.729
307.756
307.784
307.817
307.85
307.89
307.929
307.975
308.021
308.072
308.122
308.175
308.227
308.279
308.328
308.379
308.421
308.46
308.493
308.527
308.557
308.584
308.609
308.635
308.66
308.687
308.715
308.747
308.782
308.82
308.861
308.908
308.957
309.011
309.068
309.132
309.194
309.256
309.313
309.361
309.399
309.432
309.458
309.48
309.5
309.523
309.549
309.582
309.621
309.665
309.716
309.773
309.834
309.9
309.968
310.032
310.094
310.154
310.207
310.246
310.291
310.335
310.371
310.41
310.446
310.483
310.521
310.56
310.6
310.642
310.685
310.73
310.776
310.822
310.87
310.918
310.966
311.015
311.064
311.113
311.162
311.213
311.263
311.316
311.364
311.389
300.201
300.174
300.109
299.977
299.686
299.256
298.772
298.079
297.252
296.383
295.559
294.841
294.237
293.781
293.49
293.3
293.217
293.225
293.334
293.547
293.87
294.307
294.863
295.543
296.351
297.286
298.313
299.48
300.443
301.858
302.699
303.771
304.615
305.42
306.093
306.6
307.098
307.338
307.611
307.607
307.433
307.423
307.015
306.765
306.25
305.9
305.43
304.994
304.497
304.01
303.609
303.233
302.909
302.762
302.594
302.427
302.27
302.141
302.037
301.991
301.893
301.877
302.015
302.007
302.134
302.086
302.093
302.142
302.142
302.239
302.252
302.345
302.388
302.442
302.495
302.543
302.61
302.675
302.694
302.717
302.86
302.921
302.926
302.943
303.054
303.103
303.114
303.098
303.082
303.252
303.341
303.357
303.344
303.329
303.466
303.532
303.538
303.549
303.592
303.614
303.606
303.604
303.71
303.753
303.766
303.78
303.807
303.825
303.82
303.811
303.785
303.743
303.713
303.688
303.679
303.751
303.792
303.821
303.837
303.848
303.855
303.829
303.807
303.802
303.808
303.833
303.949
304.019
304.12
304.201
304.279
304.347
304.404
304.446
304.475
304.493
304.492
304.476
304.479
304.486
304.497
304.52
304.542
304.581
304.61
304.637
304.664
304.69
304.717
304.737
304.758
304.771
304.791
304.805
304.819
304.838
304.858
304.881
304.906
304.936
304.968
305.006
305.044
305.088
305.13
305.176
305.22
305.264
305.307
305.35
305.386
305.42
305.446
305.474
305.498
305.52
305.54
305.56
305.579
305.601
305.624
305.651
305.68
305.712
305.748
305.789
305.833
305.882
305.933
305.991
306.048
306.104
306.156
306.199
306.233
306.262
306.285
306.304
306.32
306.34
306.363
306.392
306.427
306.468
306.516
306.569
306.626
306.688
306.752
306.813
306.871
306.928
306.978
307.015
307.058
307.099
307.134
307.171
307.205
307.241
307.277
307.314
307.353
307.393
307.434
307.477
307.521
307.567
307.612
307.659
307.706
307.753
307.801
307.849
307.897
307.947
307.996
308.047
308.096
308.12
299.968
299.983
299.913
299.738
299.406
299.005
298.494
297.824
297.051
296.267
295.534
294.889
294.35
293.949
293.679
293.496
293.406
293.397
293.473
293.635
293.879
294.23
294.699
295.292
295.999
296.865
297.61
298.679
299.303
300.087
300.697
301.275
301.64
301.841
301.982
301.813
301.937
301.601
301.657
301.417
301.08
301.077
300.578
300.342
299.878
299.572
299.077
298.68
298.305
297.876
297.476
297.073
296.658
296.624
296.406
296.377
296.197
296.225
296.116
296.241
296.264
296.231
296.604
296.611
296.975
297.057
297.066
297.348
297.383
297.647
297.712
297.932
298.046
298.15
298.279
298.381
298.52
298.635
298.728
298.811
298.964
299.077
299.177
299.253
299.38
299.482
299.567
299.61
299.64
299.802
299.919
300.003
300.041
300.064
300.187
300.287
300.349
300.394
300.457
300.511
300.545
300.569
300.663
300.74
300.789
300.826
300.866
300.901
300.916
300.927
300.919
300.906
300.901
300.897
300.903
300.977
301.031
301.068
301.091
301.107
301.125
301.111
301.11
301.118
301.134
301.162
301.271
301.345
301.437
301.514
301.589
301.654
301.707
301.75
301.784
301.801
301.813
301.8
301.808
301.818
301.831
301.854
301.877
301.913
301.942
301.969
301.996
302.021
302.048
302.067
302.088
302.1
302.118
302.131
302.142
302.157
302.173
302.191
302.212
302.237
302.265
302.3
302.333
302.373
302.412
302.455
302.496
302.537
302.576
302.614
302.648
302.678
302.7
302.725
302.746
302.765
302.782
302.8
302.817
302.836
302.857
302.881
302.907
302.937
302.97
303.009
303.05
303.096
303.145
303.2
303.254
303.307
303.357
303.397
303.429
303.456
303.477
303.496
303.511
303.53
303.552
303.58
303.614
303.654
303.699
303.75
303.806
303.866
303.927
303.987
304.043
304.098
304.147
304.184
304.226
304.267
304.301
304.337
304.371
304.406
304.442
304.479
304.517
304.556
304.598
304.64
304.684
304.728
304.774
304.82
304.866
304.913
304.961
305.009
305.057
305.106
305.155
305.207
305.255
305.28
299.743
299.759
299.69
299.484
299.138
298.744
298.248
297.609
296.905
296.196
295.53
294.943
294.456
294.083
293.813
293.618
293.498
293.443
293.451
293.517
293.671
293.928
294.303
294.813
295.285
296.038
296.449
296.956
297.306
297.544
297.568
297.412
297.074
296.412
296.242
295.422
295.424
294.743
294.828
294.477
293.88
293.722
293.045
292.707
292.328
291.92
291.551
291.154
290.928
290.561
290.443
290.339
289.934
290.252
289.783
290.048
289.686
290.032
289.792
290.197
290.282
290.326
290.837
290.847
291.38
291.565
291.61
292.044
292.166
292.53
292.687
293
293.204
293.391
293.611
293.798
294.01
294.197
294.38
294.543
294.724
294.893
295.079
295.224
295.375
295.525
295.679
295.785
295.874
296.025
296.179
296.33
296.428
296.508
296.623
296.77
296.884
296.981
297.078
297.172
297.249
297.318
297.408
297.524
297.609
297.679
297.745
297.804
297.85
297.886
297.911
297.942
297.968
297.997
298.013
298.104
298.174
298.222
298.258
298.285
298.314
298.331
298.361
298.378
298.415
298.442
298.555
298.632
298.722
298.801
298.877
298.946
299.005
299.055
299.093
299.119
299.152
299.151
299.168
299.186
299.203
299.232
299.258
299.297
299.331
299.362
299.393
299.424
299.451
299.477
299.5
299.516
299.535
299.549
299.561
299.575
299.59
299.608
299.629
299.654
299.682
299.717
299.751
299.791
299.831
299.873
299.915
299.957
299.997
300.034
300.067
300.096
300.118
300.142
300.164
300.183
300.2
300.219
300.236
300.256
300.277
300.301
300.328
300.359
300.392
300.431
300.472
300.518
300.567
300.622
300.674
300.727
300.776
300.817
300.849
300.877
300.899
300.92
300.936
300.956
300.979
301.008
301.042
301.083
301.129
301.18
301.235
301.295
301.356
301.415
301.472
301.527
301.576
301.615
301.658
301.699
301.734
301.771
301.806
301.842
301.879
301.916
301.955
301.996
302.038
302.081
302.125
302.171
302.217
302.264
302.311
302.359
302.407
302.455
302.504
302.555
302.605
302.657
302.706
302.733
299.52
299.51
299.438
299.209
298.892
298.525
298.033
297.44
296.796
296.148
295.534
294.989
294.531
294.166
293.879
293.649
293.473
293.336
293.236
293.208
293.267
293.422
293.628
293.989
294.187
294.45
294.582
294.554
294.289
293.772
292.973
291.866
291.202
289.893
289.651
288.506
288.294
287.203
286.861
286.324
285.448
284.863
284.192
283.57
283.322
282.678
282.717
282.183
282.542
282.04
282.449
282.669
282.469
283.416
283.102
283.68
283.205
283.806
283.505
284.128
284.198
284.476
284.946
284.939
285.602
285.83
285.897
286.419
286.58
287.013
287.216
287.618
287.896
288.16
288.464
288.732
289.023
289.286
289.549
289.792
290.028
290.255
290.516
290.736
290.944
291.154
291.378
291.559
291.72
291.894
292.092
292.3
292.47
292.618
292.761
292.944
293.112
293.264
293.406
293.542
293.665
293.775
293.889
294.036
294.161
294.269
294.37
294.461
294.544
294.618
294.689
294.763
294.831
294.895
294.941
295.041
295.129
295.192
295.248
295.298
295.348
295.398
295.454
295.498
295.552
295.593
295.709
295.792
295.888
295.975
296.061
296.138
296.209
296.272
296.327
296.373
296.422
296.443
296.473
296.503
296.532
296.568
296.603
296.649
296.692
296.733
296.773
296.811
296.846
296.88
296.909
296.931
296.953
296.969
296.983
297
297.018
297.04
297.065
297.096
297.129
297.168
297.208
297.253
297.298
297.345
297.391
297.437
297.482
297.523
297.558
297.589
297.614
297.641
297.665
297.688
297.709
297.731
297.752
297.775
297.799
297.827
297.857
297.89
297.926
297.968
298.012
298.06
298.112
298.169
298.223
298.278
298.329
298.372
298.407
298.439
298.464
298.488
298.508
298.531
298.557
298.589
298.626
298.669
298.717
298.77
298.827
298.888
298.951
299.012
299.07
299.127
299.178
299.221
299.265
299.308
299.346
299.385
299.423
299.462
299.501
299.54
299.581
299.624
299.668
299.713
299.759
299.806
299.854
299.903
299.952
300.002
300.052
300.102
300.153
300.205
300.257
300.31
300.362
300.391
299.286
299.246
299.168
298.935
298.663
298.324
297.851
297.303
296.71
296.109
295.536
295.018
294.57
294.192
293.868
293.577
293.311
293.06
292.863
292.728
292.658
292.626
292.609
292.597
292.529
292.318
291.877
291.148
290.045
288.567
287.24
285.462
284.836
283.06
282.523
280.589
280.071
278.212
277.623
276.538
276.032
274.746
274.666
273.352
274.009
272.727
273.797
272.877
274.103
273.461
274.691
274.85
275.407
276.542
276.284
277.405
277.14
277.986
277.662
278.503
278.473
279.133
279.51
279.449
280.216
280.438
280.502
281.062
281.194
281.652
281.822
282.261
282.538
282.829
283.158
283.438
283.769
284.064
284.374
284.66
284.938
285.2
285.525
285.805
286.075
286.34
286.627
286.883
287.12
287.343
287.585
287.852
288.089
288.304
288.504
288.723
288.941
289.151
289.353
289.541
289.721
289.882
290.035
290.221
290.389
290.544
290.693
290.826
290.95
291.074
291.193
291.31
291.418
291.516
291.602
291.709
291.816
291.9
291.979
292.059
292.139
292.228
292.31
292.387
292.462
292.53
292.653
292.75
292.857
292.96
293.061
293.155
293.245
293.329
293.409
293.484
293.552
293.597
293.641
293.687
293.734
293.785
293.835
293.895
293.952
294.008
294.062
294.113
294.16
294.205
294.241
294.27
294.297
294.321
294.345
294.372
294.399
294.431
294.464
294.502
294.545
294.594
294.645
294.7
294.754
294.811
294.866
294.92
294.971
295.018
295.059
295.098
295.129
295.163
295.194
295.223
295.251
295.279
295.307
295.337
295.367
295.401
295.437
295.476
295.517
295.564
295.613
295.667
295.724
295.786
295.845
295.903
295.959
296.007
296.047
296.085
296.115
296.144
296.17
296.199
296.23
296.266
296.308
296.355
296.407
296.463
296.524
296.588
296.654
296.719
296.78
296.84
296.896
296.943
296.991
297.038
297.08
297.122
297.164
297.206
297.249
297.292
297.336
297.382
297.429
297.478
297.527
297.577
297.628
297.68
297.732
297.784
297.837
297.891
297.944
297.999
298.054
298.11
298.164
298.197
299.055
298.979
298.887
298.69
298.465
298.14
297.697
297.191
296.639
296.075
295.531
295.026
294.57
294.157
293.773
293.391
293.007
292.655
292.342
292.003
291.729
291.452
291.174
290.814
290.248
289.414
288.204
286.597
284.731
282.419
281.166
278.906
277.882
275.393
274.055
271.594
270.212
268.196
266.865
265.657
265.318
263.267
264.039
261.982
263.855
262.615
264.759
263.87
266.056
265.522
267.676
267.545
269.233
270.133
269.985
271.48
271.479
272.789
272.53
273.541
273.46
274.469
274.79
274.705
275.542
275.75
275.877
276.418
276.497
276.973
277.08
277.518
277.716
278.042
278.316
278.548
278.856
279.106
279.404
279.648
279.921
280.167
280.497
280.75
281.052
281.335
281.642
281.923
282.205
282.473
282.741
283.049
283.328
283.598
283.855
284.108
284.366
284.641
284.897
285.141
285.375
285.593
285.799
286.022
286.238
286.445
286.644
286.823
286.991
287.156
287.3
287.432
287.573
287.722
287.864
288.001
288.142
288.261
288.377
288.495
288.609
288.72
288.827
288.953
289.07
289.178
289.323
289.444
289.568
289.697
289.821
289.938
290.054
290.168
290.275
290.386
290.466
290.532
290.594
290.657
290.729
290.806
290.882
290.963
291.041
291.118
291.19
291.258
291.317
291.373
291.421
291.464
291.507
291.55
291.591
291.635
291.679
291.727
291.776
291.829
291.884
291.945
292.009
292.078
292.148
292.219
292.285
292.352
292.411
292.469
292.524
292.575
292.619
292.663
292.705
292.746
292.784
292.823
292.861
292.9
292.94
292.983
293.028
293.076
293.126
293.181
293.238
293.3
293.365
293.433
293.5
293.564
293.627
293.682
293.73
293.775
293.813
293.85
293.883
293.919
293.957
294
294.047
294.1
294.158
294.22
294.286
294.355
294.426
294.496
294.562
294.626
294.688
294.742
294.795
294.847
294.894
294.942
294.988
295.035
295.083
295.131
295.18
295.23
295.282
295.334
295.388
295.442
295.497
295.553
295.609
295.666
295.722
295.78
295.837
295.896
295.955
296.014
296.071
296.108
298.835
298.73
298.624
298.477
298.293
297.978
297.569
297.1
296.581
296.044
295.515
295.01
294.53
294.058
293.59
293.091
292.594
292.036
291.525
291.041
290.529
290.015
289.336
288.451
287.242
285.646
283.52
281.059
278.946
276.166
274.711
271.637
269.9
266.579
264.664
261.315
259.326
256.594
255.53
253.979
254.471
252.196
254.45
252.995
255.706
254.367
257.64
256.479
259.59
258.426
261.159
260.525
263.256
264.205
264.315
266.324
266.529
268.131
268.138
269.302
269.289
270.491
270.808
270.767
271.661
271.766
272.213
272.621
272.661
273.185
273.25
273.697
273.828
274.188
274.412
274.588
274.858
275.042
275.289
275.466
275.691
275.863
276.133
276.305
276.579
276.791
277.053
277.278
277.529
277.764
278.002
278.282
278.525
278.804
279.066
279.324
279.593
279.894
280.171
280.448
280.718
280.978
281.231
281.487
281.742
282
282.236
282.461
282.635
282.792
282.94
283.108
283.276
283.457
283.658
283.859
284.055
284.227
284.386
284.52
284.638
284.783
284.939
285.1
285.291
285.464
285.656
285.823
285.985
286.15
286.309
286.461
286.607
286.763
286.894
287.041
287.146
287.239
287.327
287.416
287.504
287.593
287.687
287.793
287.895
287.994
288.084
288.171
288.251
288.332
288.408
288.477
288.544
288.612
288.678
288.745
288.813
288.883
288.954
289.028
289.103
289.182
289.263
289.347
289.431
289.517
289.6
289.683
289.761
289.837
289.909
289.978
290.039
290.099
290.157
290.213
290.266
290.319
290.372
290.425
290.478
290.535
290.592
290.653
290.716
290.782
290.852
290.924
290.999
291.078
291.154
291.227
291.299
291.364
291.422
291.478
291.525
291.572
291.614
291.66
291.707
291.758
291.814
291.875
291.94
292.01
292.083
292.159
292.236
292.312
292.386
292.456
292.526
292.587
292.647
292.705
292.759
292.813
292.866
292.92
292.973
293.028
293.083
293.138
293.196
293.254
293.312
293.372
293.432
293.493
293.554
293.616
293.677
293.74
293.802
293.865
293.929
293.992
294.054
294.096
298.639
298.506
298.408
298.305
298.141
297.846
297.469
297.03
296.537
296.015
295.486
294.968
294.455
293.885
293.284
292.58
291.915
291.276
290.587
289.87
289.11
288.177
286.953
285.434
283.461
281.069
278.091
275.069
272.96
269.548
267.442
263.592
260.981
257.254
253.952
250.652
248.235
246.25
244.593
242.965
243.149
241.796
243.725
242.748
245.981
245.258
249.703
248.723
253.032
252.022
256.006
255.334
259.002
260.13
260.199
262.478
262.256
264.079
264.147
265.666
265.823
267.112
267.489
267.558
268.453
268.445
269.27
269.588
269.593
270.187
270.234
270.708
270.816
271.209
271.418
271.566
271.822
271.957
272.182
272.301
272.505
272.621
272.832
272.953
273.183
273.333
273.531
273.683
273.877
274.034
274.203
274.388
274.532
274.768
274.935
275.126
275.315
275.549
275.753
275.984
276.208
276.433
276.658
276.891
277.129
277.382
277.608
277.819
277.958
278.162
278.359
278.587
278.807
279.038
279.235
279.437
279.662
279.847
280.004
280.172
280.359
280.566
280.788
281.005
281.218
281.47
281.708
281.93
282.144
282.358
282.562
282.76
282.942
283.14
283.288
283.45
283.592
283.722
283.842
283.96
284.075
284.187
284.3
284.418
284.539
284.659
284.778
284.891
284.999
285.109
285.215
285.314
285.409
285.505
285.6
285.694
285.789
285.884
285.981
286.079
286.177
286.279
286.381
286.485
286.589
286.694
286.797
286.899
286.996
287.093
287.185
287.275
287.355
287.436
287.512
287.587
287.659
287.731
287.802
287.872
287.944
288.018
288.092
288.169
288.248
288.33
288.414
288.501
288.59
288.681
288.769
288.854
288.937
289.015
289.085
289.154
289.214
289.273
289.329
289.387
289.445
289.509
289.575
289.647
289.722
289.802
289.884
289.968
290.054
290.139
290.222
290.3
290.379
290.45
290.518
290.585
290.647
290.71
290.771
290.833
290.894
290.956
291.018
291.081
291.145
291.21
291.275
291.341
291.408
291.475
291.542
291.61
291.678
291.746
291.814
291.883
291.953
292.021
292.089
292.137
298.483
298.324
298.25
298.176
298.023
297.75
297.399
296.984
296.504
295.987
295.44
294.872
294.285
293.49
292.764
292.006
291.219
290.373
289.473
288.487
287.293
285.848
283.98
281.735
278.874
275.901
272.212
269.056
266.505
262.337
259.355
254.994
251.428
247.19
243.934
240.773
237.89
235.194
232.851
231.177
230.039
229.115
228.968
229.517
231.59
232.919
237.33
238.584
244.712
243.994
250.013
249.039
254.577
255.791
256.597
258.584
259.013
260.869
260.984
262.792
262.905
264.238
264.659
264.91
265.728
265.731
266.783
267.106
267.114
267.791
267.835
268.356
268.469
268.895
269.106
269.247
269.505
269.615
269.838
269.928
270.131
270.22
270.409
270.508
270.715
270.823
271.001
271.112
271.277
271.393
271.516
271.635
271.725
271.901
272.003
272.145
272.255
272.406
272.518
272.683
272.812
272.949
273.077
273.211
273.343
273.494
273.595
273.742
273.835
274.035
274.218
274.442
274.661
274.883
275.066
275.219
275.376
275.514
275.685
275.883
276.112
276.364
276.635
276.899
277.148
277.397
277.675
277.933
278.187
278.438
278.678
278.916
279.13
279.362
279.518
279.709
279.884
280.055
280.209
280.361
280.505
280.646
280.788
280.929
281.073
281.218
281.363
281.503
281.638
281.776
281.91
282.037
282.159
282.283
282.406
282.528
282.649
282.77
282.892
283.014
283.137
283.262
283.387
283.513
283.639
283.764
283.889
284.01
284.126
284.243
284.356
284.466
284.567
284.668
284.764
284.859
284.953
285.045
285.136
285.227
285.318
285.411
285.504
285.599
285.696
285.795
285.896
285.999
286.105
286.21
286.312
286.411
286.507
286.6
286.684
286.769
286.844
286.919
286.99
287.063
287.137
287.215
287.295
287.38
287.468
287.56
287.654
287.75
287.846
287.942
288.035
288.123
288.213
288.295
288.375
288.451
288.525
288.598
288.67
288.741
288.812
288.883
288.955
289.027
289.1
289.173
289.247
289.321
289.396
289.471
289.546
289.622
289.697
289.773
289.849
289.925
290.002
290.077
290.151
290.205
298.374
298.196
298.144
298.086
297.95
297.697
297.363
296.951
296.461
295.93
295.329
294.646
293.938
293.113
292.291
291.368
290.371
289.307
288.155
286.735
285.024
282.995
280.385
277.352
273.46
270.447
266.226
262.881
259.299
254.765
250.804
246.221
242.033
238.163
234.682
231.302
228.273
225.393
222.855
220.423
218.147
215.994
214.046
212.301
210.794
209.629
208.806
209.077
217.384
223.353
233.587
236.909
246.554
249.525
252.111
254.543
255.973
257.696
258.363
260.188
260.776
261.865
262.09
263.045
263.559
263.57
264.756
265.082
265.1
265.865
265.906
266.492
266.625
267.066
267.286
267.439
267.697
267.787
268.022
268.096
268.306
268.381
268.57
268.662
268.851
268.944
269.118
269.208
269.365
269.445
269.581
269.669
269.732
269.876
269.942
270.081
270.16
270.271
270.35
270.476
270.559
270.658
270.728
270.803
270.865
270.93
270.963
271.059
271.085
271.252
271.374
271.531
271.693
271.836
271.957
272.034
272.108
272.161
272.27
272.414
272.597
272.807
273.041
273.274
273.491
273.68
273.884
274.1
274.337
274.579
274.804
275.048
275.245
275.467
275.651
275.888
276.098
276.324
276.521
276.712
276.893
277.067
277.241
277.409
277.58
277.751
277.923
278.09
278.252
278.416
278.575
278.729
278.877
279.028
279.177
279.325
279.472
279.619
279.765
279.911
280.058
280.205
280.352
280.498
280.644
280.788
280.931
281.07
281.204
281.339
281.47
281.599
281.72
281.84
281.955
282.07
282.183
282.295
282.405
282.515
282.624
282.735
282.845
282.957
283.07
283.185
283.302
283.421
283.543
283.663
283.779
283.892
284.002
284.11
284.21
284.31
284.401
284.492
284.58
284.669
284.76
284.854
284.95
285.049
285.152
285.259
285.366
285.474
285.582
285.69
285.795
285.895
285.997
286.093
286.185
286.273
286.359
286.445
286.529
286.612
286.695
286.778
286.861
286.944
287.028
287.112
287.196
287.281
287.366
287.451
287.535
287.62
287.705
287.79
287.875
287.96
288.046
288.129
288.211
288.274
298.323
298.115
298.087
298.038
297.92
297.671
297.335
296.912
296.386
295.812
295.164
294.431
293.637
292.721
291.703
290.578
289.37
288.054
286.505
284.57
282.26
279.575
276.069
272.414
267.802
264.956
260.222
256.203
251.755
247.028
242.517
238.303
234.332
230.454
226.932
223.885
221.097
218.449
215.893
213.488
211.325
209.364
207.596
205.983
204.568
203.283
202.159
201.209
200.613
200.329
200.633
200.823
212.623
226.457
237.163
245.464
250.33
253.331
255.676
257.555
258.633
259.547
260.31
261.035
261.682
262.019
262.996
263.428
263.478
264.31
264.32
264.984
265.123
265.58
265.813
265.993
266.232
266.314
266.566
266.628
266.852
266.921
267.116
267.208
267.382
267.47
267.64
267.721
267.874
267.94
268.084
268.161