/*--------------------------------*- C++ -*----------------------------------*\
| =========                 |                                                 |
| \\      /  F ield         | OpenFOAM: The Open Source CFD Toolbox           |
|  \\    /   O peration     | Version:  2312                                  |
|   \\  /    A nd           | Website:  www.openfoam.com                      |
|    \\/     M anipulation  |                                                 |
\*---------------------------------------------------------------------------*/
FoamFile
{
    version     2.0;
    format      ascii;
    arch        "LSB;label=32;scalar=64";
    class       volScalarField;
    location    "0.006";
    object      k;
}
// * * * * * * * * * * * * * * * * * * * * * * * * * * * * * * * * * * * * * //

dimensions      [0 2 -2 0 0 0 0];

internalField   nonuniform List<scalar> 
48128
(
0.345283
0.507573
1.82557
18.1136
81.8914
206.689
351.126
488.648
613.562
723.359
819.32
904.754
982.081
1052.98
1120.1
1185.14
1248.65
1311.28
1373.74
1436.56
1502.52
1572.98
1649.26
1726.37
1813.08
1905.01
2005.75
2112.47
2227.42
2358.41
2498.31
2650.72
2816.98
2972.15
3118.63
3245.07
3354.61
3412.97
3453.73
3460.5
3426.33
3452.72
3499.64
3574.39
3633.84
3653.77
3647.22
3625.64
3589.81
3552.06
3508.83
3465.81
3414.28
3356.94
3289.94
3225.86
3158.84
3098.64
3036.95
2972.2
2915.12
2853.31
2791.4
2733.33
2673.76
2622.78
2570.52
2523.7
2476.18
2431.56
2389.69
2348.45
2310.22
2273.2
2238.84
2206.53
2175
2146.99
2118.65
2094.72
2071.13
2048.17
2024
2005.72
1987.42
1968.38
1951.08
1933.4
1922.09
1909.74
1895.77
1881.69
1867.28
1859.07
1850
1839.55
1827.81
1819.77
1811.54
1803.4
1794.49
1789.75
1784.24
1777.72
1770.49
1765.43
1760.31
1754.95
1750.31
1745.73
1741.71
1737.58
1734.69
1731.68
1730.12
1728.46
1726.37
1724.07
1721.72
1719.23
1716.58
1713.86
1711.54
1710.18
1708.57
1708.39
1707.6
1706.25
1704.43
1702.33
1699.83
1697.09
1694.28
1691.39
1688.52
1685.74
1683.37
1681.53
1680.53
1679.67
1679.3
1678.82
1678.3
1677.52
1676.48
1675.27
1673.98
1672.69
1671.35
1670.07
1668.83
1667.7
1666.75
1665.79
1665.06
1664.33
1663.73
1663.1
1662.46
1661.75
1660.99
1660.13
1659.19
1658.14
1657.02
1655.79
1654.51
1653.18
1651.92
1650.59
1649.42
1648.36
1647.43
1646.69
1646.1
1645.6
1645.24
1644.91
1644.71
1644.51
1644.33
1644.12
1643.86
1643.52
1643.11
1642.6
1641.99
1641.28
1640.47
1639.53
1638.48
1637.36
1636.19
1634.98
1633.94
1633.19
1632.73
1632.42
1632.43
1632.49
1632.62
1632.73
1632.69
1632.52
1632.17
1631.61
1630.85
1629.92
1628.82
1627.6
1626.33
1625.23
1624
1622.98
1622.4
1621.78
1621.39
1621.02
1620.76
1620.51
1620.24
1619.96
1619.65
1619.29
1618.87
1618.39
1617.86
1617.27
1616.64
1615.97
1615.28
1614.57
1613.86
1613.13
1612.42
1611.69
1610.97
1610.23
1609.22
1608.59
0.943527
2.26766
10.3625
42.3345
121.496
250.733
403.501
556.255
707.416
855.126
1000.83
1145.6
1290.74
1440.99
1599.77
1768.92
1952.43
2152.1
2371.75
2613.31
2882.11
3172.48
3502.93
3848.92
4229.19
4632.82
5062.02
5509.55
5954.13
6425.45
6913.16
7403.16
7889.64
8357.74
8813.61
9217.22
9587.8
9840.63
10047.6
10171.4
10204.8
10247.2
10263.3
10242.2
10161.8
10020.1
9834.55
9616.99
9381.42
9144.11
8901.36
8662.74
8414.89
8163.68
7905.9
7661.94
7413.83
7179.32
6946.17
6711.12
6491.51
6270.21
6056.13
5852.51
5652.54
5467.44
5288.13
5118.03
4953.87
4797.14
4648.29
4506.01
4371
4243.44
4122.87
4009.03
3901.04
3801.16
3703.28
3614.42
3534.23
3456.1
3377.16
3304.39
3240.77
3176.5
3114.54
3052.38
2998.02
2952.05
2904.23
2855.71
2806.72
2763.53
2728.22
2691.17
2652.98
2615.46
2582.72
2550.72
2518.36
2488.14
2463.49
2437.99
2412.01
2386.25
2363.67
2341.06
2319.11
2297.77
2276.31
2255.29
2233.93
2214.63
2195.69
2179.85
2165.39
2151.43
2138.59
2126.16
2113.38
2100.2
2086.72
2074.14
2062.2
2051.53
2044.07
2036.95
2030.68
2024.94
2019.24
2013.32
2007.03
2000.4
1993.33
1985.67
1977.46
1969.05
1960.58
1952.76
1944.9
1937.97
1931.1
1925.01
1919.04
1913.51
1907.94
1902.84
1897.87
1892.83
1888.05
1883.21
1878.66
1874.11
1869.7
1865.41
1861.36
1857.45
1853.9
1850.41
1847.33
1844.33
1841.73
1839.19
1837.01
1834.9
1833.04
1831.14
1829.46
1827.74
1825.93
1824.08
1822.12
1820.12
1818.1
1816.04
1813.97
1811.87
1809.85
1807.82
1805.93
1804.03
1802.41
1800.76
1799.41
1798.04
1796.92
1795.78
1794.89
1794.01
1793.45
1792.87
1792.32
1791.64
1790.71
1789.61
1788.31
1786.85
1785.27
1783.66
1782.01
1780.46
1779.15
1777.93
1776.9
1776
1775.37
1774.82
1774.54
1774.28
1773.93
1773.58
1773.05
1772.26
1771.43
1770.49
1769.45
1768.34
1767.18
1766
1764.81
1763.65
1762.51
1761.46
1760.44
1759.53
1758.65
1757.85
1757.05
1756.31
1755.57
1754.88
1754.18
1753.52
1752.84
1752.22
1751.56
1750.97
1750.18
1749.03
2.61214
11.3732
38.2819
110.975
252.874
472.305
743.186
1024.05
1303.08
1573.22
1834.19
2088.14
2337.46
2586.4
2840.64
3102.6
3379.73
3674.39
3992.06
4335.56
4710.81
5114.76
5550.72
6013.57
6508.98
7035.58
7586.78
8170.18
8785.88
9428.95
10096.6
10763.2
11422.8
12043.3
12643.2
13155.5
13614.3
13911.1
14113.5
14208.2
14192.9
14130.5
14000.7
13805.5
13558.8
13265.1
12940.2
12590.4
12233.9
11875.1
11516.5
11162
10805.8
10449
10084.7
9735.84
9385.01
9052.64
8727.43
8409.64
8104.37
7811.52
7528.1
7256.99
6995.97
6749.26
6513.14
6288.19
6073.14
5867.04
5671.29
5484.32
5306.86
5138.77
4979.33
4828.75
4685.58
4551.88
4422.24
4301.03
4192.92
4087.04
3982.19
3882.15
3794.31
3707.85
3622.49
3540.32
3460.97
3395.93
3329.67
3262.45
3197.34
3133.49
3081.95
3029.48
2976.38
2923.38
2876.46
2830.58
2785.18
2740.64
2703.03
2664.88
2626.79
2588.85
2554.73
2521.09
2488.31
2456.51
2424.74
2393.78
2362.51
2333.25
2304.37
2278.68
2254.2
2230.64
2208.47
2187.42
2166.46
2145.27
2124.24
2103.99
2085.06
2066.32
2051.24
2036.47
2023.15
2010.72
1999.24
1988.21
1977.38
1966.57
1955.57
1944.1
1932.08
1919.89
1907.52
1895.73
1883.78
1872.92
1862.07
1852.14
1842.31
1833.06
1823.76
1815
1806.51
1797.95
1789.72
1781.54
1773.64
1765.93
1758.27
1750.94
1743.73
1736.91
1730.27
1723.98
1718
1712.25
1706.97
1701.82
1697.13
1692.55
1688.33
1684.12
1680.23
1676.37
1672.43
1668.55
1664.61
1660.7
1656.8
1652.92
1649.05
1645.23
1641.44
1637.76
1634.16
1630.69
1627.42
1624.22
1621.3
1618.42
1615.88
1613.32
1611.08
1608.87
1607.04
1605.24
1603.6
1601.87
1599.91
1597.85
1595.67
1593.35
1590.91
1588.44
1585.95
1583.48
1581.27
1579.17
1577.24
1575.52
1574.02
1572.74
1571.63
1570.7
1569.74
1568.81
1567.81
1566.55
1565.25
1563.88
1562.42
1560.91
1559.35
1557.78
1556.18
1554.63
1553.07
1551.62
1550.19
1548.89
1547.61
1546.44
1545.28
1544.2
1543.14
1542.14
1541.16
1540.22
1539.3
1538.43
1537.56
1536.78
1535.87
1534.4
7.81775
33.6321
96.8823
238.261
487.038
843.8
1244.4
1634.08
1996.35
2332.56
2650.54
2956.91
3256.15
3553.58
3854.89
4163.14
4486.88
4829.97
5199.02
5595.66
6026.49
6493.08
7000.14
7548.17
8137.24
8767.75
9431.59
10134.8
10879.5
11646.9
12440.8
13223.4
13986
14683.4
15330
15857.2
16277.4
16522.3
16625.6
16607
16493.7
16277.3
15988
15626.2
15223.2
14787
14345.1
13892.1
13456.4
13010.7
12581.6
12148.8
11737.1
11326.5
10915.2
10519.6
10131.1
9760.03
9402.15
9060.06
8725.01
8415.8
8114.34
7826.5
7552.98
7289.16
7040.38
6800.33
6572.84
6353.7
6145.23
5946.25
5757.29
5578.5
5408.12
5246.65
5093.25
4948.77
4809.71
4676.18
4558.78
4443.52
4330.2
4219.01
4121.66
4027.08
3932.61
3842.15
3750.46
3677.23
3603.64
3529.11
3456.42
3382.38
3323.1
3263.82
3204.01
3143.54
3089.45
3036.86
2985.04
2932.63
2888.57
2844.23
2800.23
2755.88
2715.57
2676.16
2637.54
2600.02
2562.63
2526.17
2489.44
2454.88
2420.68
2390.01
2360.38
2331.77
2304.5
2278.48
2252.77
2226.82
2201.24
2176.36
2153.29
2129.82
2110.33
2091.07
2073.61
2057.13
2041.72
2026.92
2012.46
1998.23
1984.06
1969.58
1954.66
1939.7
1924.61
1910.2
1895.62
1882.05
1868.55
1855.97
1843.46
1831.59
1819.71
1808.41
1797.47
1786.44
1775.81
1765.28
1755.05
1745.08
1735.15
1725.68
1716.28
1707.38
1698.6
1690.27
1682.21
1674.48
1667.18
1660.11
1653.48
1647.03
1640.96
1634.96
1629.31
1623.75
1618.13
1612.66
1607.14
1601.76
1596.41
1591.14
1585.89
1580.76
1575.64
1570.71
1565.82
1561.15
1556.61
1552.24
1548.07
1544.03
1540.29
1536.59
1533.26
1529.96
1527.05
1524.16
1521.53
1518.82
1515.98
1513.1
1510.16
1507.12
1504.02
1500.87
1497.75
1494.64
1491.64
1488.87
1486.24
1483.83
1481.6
1479.61
1477.78
1476.18
1474.55
1473.06
1471.54
1469.83
1468.1
1466.33
1464.49
1462.63
1460.72
1458.81
1456.87
1454.99
1453.1
1451.32
1449.56
1447.92
1446.31
1444.81
1443.33
1441.94
1440.57
1439.28
1438.01
1436.81
1435.62
1434.51
1433.41
1432.41
1431.32
1429.64
18.175
73.7741
191.721
425.051
800.229
1269.93
1723.71
2140.2
2528.12
2894.04
3244.29
3583.47
3915.85
4245.8
4578.45
4919.5
5276.29
5653.9
6060.53
6500.23
6981.63
7509.66
8086.95
8715.26
9392.55
10121.8
10885.8
11686.5
12527.6
13380.5
14247.7
15084.1
15870.7
16553.5
17120.8
17542.6
17766.5
17824.9
17743.7
17550.8
17270.2
16862.1
16393.4
15865.1
15316.3
14753.8
14188.4
13635.9
13118.2
12593.5
12121.4
11638.4
11221.4
10802.3
10419.8
10035.6
9684.37
9339.06
9017.8
8717.19
8413.19
8147.85
7883.17
7635.09
7397.46
7159.92
6940.8
6721.25
6516.8
6315.54
6125
5942.11
5767.03
5601.41
5442.48
5291.57
5147.26
5011.27
4880.7
4751.03
4638.98
4529.63
4421.82
4312.98
4217.48
4125.69
4034.14
3944.45
3851.94
3777.83
3705.85
3633.03
3559.98
3484.44
3423.3
3364.12
3304.17
3242.95
3187.02
3133.28
3079.95
3025.06
2978.66
2933.44
2888.06
2841.98
2799.37
2758
2717.38
2677.68
2638.3
2599.86
2561.06
2524.59
2487.84
2455.16
2423.55
2392.92
2363.48
2335.24
2307.41
2279.36
2251.73
2224.52
2199.22
2173.22
2151.42
2129.99
2110.39
2091.65
2073.97
2056.87
2040.27
2023.91
2007.81
1991.48
1974.74
1958.05
1941.24
1925.24
1909.07
1893.92
1878.87
1864.75
1850.76
1837.36
1824.02
1811.23
1798.78
1786.31
1774.2
1762.2
1750.51
1739.16
1727.82
1717
1706.21
1696.01
1685.88
1676.26
1666.87
1657.86
1649.22
1640.89
1632.96
1625.25
1617.92
1610.71
1603.8
1597.05
1590.27
1583.69
1577.06
1570.61
1564.23
1557.97
1551.73
1545.66
1539.59
1533.76
1527.95
1522.42
1516.98
1511.77
1506.71
1501.84
1497.23
1492.71
1488.57
1484.45
1480.73
1477
1473.61
1470.12
1466.57
1463.03
1459.48
1455.88
1452.23
1448.55
1444.94
1441.32
1437.81
1434.54
1431.38
1428.45
1425.66
1423.12
1420.73
1418.59
1416.43
1414.46
1412.5
1410.4
1408.28
1406.17
1404.01
1401.84
1399.64
1397.45
1395.24
1393.1
1390.95
1388.91
1386.9
1385
1383.14
1381.39
1379.66
1378.03
1376.42
1374.9
1373.39
1371.97
1370.57
1369.26
1367.96
1366.77
1365.56
1363.66
34.6391
131.597
319.963
652.965
1135.39
1622.46
2079.37
2504.16
2904.43
3287.53
3657.8
4018.78
4374.09
4727.75
5083.88
5450.78
5832.53
6237.49
6675.67
7153.13
7679.41
8262.37
8901.12
9599.87
10351.9
11162.1
12002.6
12866.9
13761
14645.6
15507.5
16299.5
16995
17535.8
17902.8
18114
18043.3
17842.4
17402.1
16805.2
16132.4
15390.6
14604.5
13838
13054.1
12385.5
11703.9
11127.8
10567.2
10045
9612.07
9167.44
8835.47
8497.04
8232.24
7956.26
7730.5
7498.42
7299.64
7115.12
6923.03
6770.01
6613.45
6470.83
6333.33
6189.26
6054.19
5913.87
5782.29
5648.91
5520.02
5395.14
5272.08
5153.77
5036.02
4923.63
4812.86
4708.63
4606.09
4501.2
4410.09
4323.19
4234.79
4143.79
4062.23
3985.66
3908.63
3830.87
3749.9
3683.58
3621.85
3558.75
3494.15
3426.41
3370
3317.15
3263.22
3207.81
3155.87
3106.3
3056.67
3005.09
2961
2918.93
2876.35
2832.97
2792.02
2752.46
2713.56
2675.15
2637.32
2600.19
2562.7
2527.11
2490.82
2458.85
2427.96
2397.99
2368.85
2340.73
2313.08
2285.36
2257.9
2230.44
2204.8
2178.35
2156.21
2134.44
2114.32
2094.87
2076.45
2058.58
2041.18
2024.02
2007.12
1990.13
1972.74
1955.36
1937.86
1921.24
1904.46
1888.72
1873.04
1858.29
1843.81
1829.79
1815.9
1802.44
1789.32
1776.28
1763.51
1750.82
1738.46
1726.45
1714.44
1702.98
1691.51
1680.65
1669.82
1659.55
1649.42
1639.74
1630.34
1621.31
1612.63
1604.19
1596.11
1588.18
1580.48
1573
1565.55
1558.27
1550.94
1543.81
1536.78
1529.88
1523
1516.32
1509.64
1503.23
1496.82
1490.73
1484.71
1478.96
1473.34
1467.92
1462.78
1457.7
1453.01
1448.32
1444.05
1439.74
1435.78
1431.77
1427.72
1423.65
1419.67
1415.65
1411.6
1407.56
1403.58
1399.61
1395.78
1392.17
1388.65
1385.35
1382.16
1379.25
1376.45
1373.93
1371.37
1369.04
1366.75
1364.34
1361.92
1359.55
1357.13
1354.73
1352.31
1349.92
1347.52
1345.19
1342.86
1340.65
1338.45
1336.38
1334.35
1332.43
1330.53
1328.74
1326.96
1325.28
1323.61
1322.03
1320.47
1319.02
1317.57
1316.25
1314.94
1312.9
56.5143
203.412
470.652
895.041
1403
1882.08
2331.35
2752.77
3155.52
3545.39
3925.45
4299.6
4670.81
5042.11
5415.9
5800.8
6200.68
6626.41
7089.26
7596.87
8158.63
8784.46
9472.88
10228
11033.1
11895
12777.1
13649.3
14532.6
15381
16139.4
16808.2
17277.5
17550.7
17415.2
17073.8
16425.3
15604.8
14573
13488.9
12335.5
11364.1
10336.1
9566.62
8774.62
8190.35
7590.65
7134.6
6694.85
6314.17
6015.97
5713.92
5518.3
5317.01
5183.62
5043.68
4946.65
4845.35
4770.65
4707.48
4641.36
4602.19
4560.92
4528.23
4497.48
4461.47
4432.43
4400.12
4369.9
4337.15
4302.68
4266.53
4227.61
4186.78
4143.32
4098.55
4051.77
4003.35
3952.29
3897.55
3844.82
3795.42
3744.11
3689.63
3637.1
3587.99
3537.42
3484.49
3428.27
3379.11
3335.83
3290.92
3243.43
3192.88
3148.02
3107.56
3066.18
3023.21
2981.3
2941.32
2901.05
2859.24
2822.06
2787.4
2752.24
2716.32
2681.32
2647.6
2614.23
2580.99
2548.55
2516.25
2483.66
2452.07
2419.83
2391.22
2363.7
2336.84
2310.4
2284.71
2259.78
2234.81
2209.6
2184.32
2160.38
2135.93
2115.03
2094.49
2075.49
2056.96
2039.31
2022.18
2005.38
1988.84
1972.36
1956.07
1939.28
1922.47
1905.54
1889.39
1873.09
1857.77
1842.45
1828.03
1813.97
1800.17
1786.64
1773.3
1760.38
1747.59
1734.95
1722.37
1710.11
1698.18
1686.22
1674.8
1663.36
1652.47
1641.6
1631.26
1621.02
1611.23
1601.68
1592.45
1583.58
1574.88
1566.56
1558.35
1550.4
1542.62
1534.95
1527.37
1519.77
1512.35
1505.07
1497.87
1490.74
1483.79
1476.83
1470.17
1463.5
1457.14
1450.88
1444.86
1439.01
1433.31
1427.93
1422.57
1417.59
1412.6
1408.01
1403.38
1399.09
1394.79
1390.46
1386.08
1381.85
1377.57
1373.29
1369.07
1364.87
1360.74
1356.75
1352.96
1349.23
1345.73
1342.31
1339.19
1336.15
1333.4
1330.61
1328.05
1325.56
1322.95
1320.33
1317.8
1315.22
1312.69
1310.14
1307.65
1305.13
1302.7
1300.28
1297.97
1295.69
1293.53
1291.41
1289.39
1287.42
1285.54
1283.68
1281.91
1280.16
1278.5
1276.86
1275.32
1273.8
1272.4
1271.03
1268.93
82.0886
282.679
627.623
1106.06
1599.8
2062.83
2497.09
2907.9
3304.14
3691.43
4073.52
4453.92
4834.62
5216.91
5601.36
5996.38
6407.28
6845.66
7325.02
7853.82
8438.37
9095.73
9817.35
10607.3
11435.8
12299.7
13184.6
14012.7
14820.5
15556.4
16088.8
16396.1
16258.5
15862.3
15050.6
13920.6
12603.5
11245.3
9940.57
8873.12
7754.68
6941.71
6102.98
5524.95
4934.7
4525.35
4116.56
3822.09
3554.15
3332.38
3161.3
2999.51
2900.79
2801.66
2742.26
2683.86
2652.61
2623.33
2608.82
2603.42
2606.05
2616.42
2630.13
2648.31
2669.01
2688.65
2712.79
2738.54
2767.44
2795.43
2823.71
2852.3
2874.96
2898
2915.48
2931.68
2943.33
2951.41
2957.36
2956.89
2954.9
2952.5
2948.44
2940.79
2930.92
2920.21
2907.93
2892.68
2873.73
2853.52
2835.67
2817.15
2796.13
2772.22
2747.64
2725.75
2703.9
2680.53
2656.43
2632.34
2607.49
2581.35
2556.28
2533.38
2510.15
2485.95
2461.37
2437.37
2413.34
2389.29
2365.43
2341.35
2316.9
2292.64
2268.02
2245.32
2223.74
2202.43
2181.41
2160.65
2140.81
2120.73
2100.32
2079.67
2059.6
2039.29
2021.29
2003.61
1987.41
1971.39
1956.07
1941.12
1926.47
1911.99
1897.53
1883.17
1868.45
1853.56
1838.55
1824.11
1809.53
1795.63
1781.8
1768.66
1755.9
1743.3
1730.95
1718.72
1706.83
1695.09
1683.45
1671.81
1660.43
1649.34
1638.22
1627.53
1616.83
1606.57
1596.35
1586.52
1576.83
1567.47
1558.38
1549.47
1540.94
1532.5
1524.45
1516.44
1508.74
1501.13
1493.7
1486.28
1478.86
1471.57
1464.42
1457.35
1450.34
1443.49
1436.65
1430.05
1423.5
1417.18
1411.03
1405.03
1399.27
1393.59
1388.23
1382.89
1377.89
1372.88
1368.23
1363.54
1359.16
1354.8
1350.43
1346
1341.69
1337.37
1333.06
1328.83
1324.62
1320.52
1316.52
1312.72
1308.97
1305.44
1301.97
1298.8
1295.69
1292.86
1290.01
1287.36
1284.79
1282.13
1279.45
1276.87
1274.25
1271.7
1269.13
1266.63
1264.11
1261.68
1259.26
1256.94
1254.66
1252.5
1250.38
1248.37
1246.4
1244.53
1242.68
1240.91
1239.16
1237.49
1235.85
1234.3
1232.78
1231.37
1230
1227.92
109.597
363.893
773.053
1262.78
1736.39
2178.12
2591.83
2985.39
3368
3745.75
4123.29
4503.21
4886.38
5272.23
5660.16
6058.08
6472.52
6915.58
7403.43
7945.74
8543.7
9217.06
9949.68
10744.7
11574
12404.1
13245.2
13967.9
14552
14960.5
14914.4
14609.2
13813.5
12627.8
11190.6
9659.45
8289.05
7024.47
5919.75
5079.57
4262.48
3700.07
3169
2813.26
2474.96
2245.91
2031.87
1880.99
1746.54
1641.32
1554.75
1480.82
1432.36
1383.91
1353.02
1321.58
1304.56
1287.75
1280.58
1279.27
1284.23
1294.28
1308.28
1327.62
1350.69
1376.92
1407.76
1441.17
1478.53
1517.62
1559.54
1602.63
1646.05
1690.9
1732.81
1775.66
1813.94
1852.56
1888.82
1923.34
1952.59
1982.08
2010.61
2036.93
2059.29
2080.56
2100.31
2117.86
2131.37
2140.89
2150.58
2159.31
2167.82
2172.28
2173.99
2175.79
2178.43
2178.39
2177.3
2175.06
2171.35
2165.53
2158.71
2151.64
2144.35
2135.84
2126.29
2116.08
2105.44
2094.45
2083.14
2071.55
2059.33
2046.38
2032.52
2018.86
2005.73
1992.54
1979.58
1966.47
1953.76
1940.71
1927.22
1913.18
1898.96
1884.4
1871.2
1857.95
1846.11
1834.16
1822.79
1811.48
1800.58
1789.58
1778.69
1767.69
1756.48
1744.86
1733.05
1721.48
1709.83
1698.47
1687.24
1676.43
1665.91
1655.52
1645.27
1635.13
1625.15
1615.31
1605.56
1595.72
1586.04
1576.58
1567.07
1557.83
1548.6
1539.64
1530.75
1522.07
1513.56
1505.23
1497.15
1489.16
1481.51
1473.89
1466.64
1459.37
1452.39
1445.49
1438.75
1432.02
1425.23
1418.53
1411.94
1405.42
1398.96
1392.59
1386.28
1380.12
1374.05
1368.13
1362.41
1356.79
1351.4
1346.08
1341.04
1336
1331.28
1326.53
1322.08
1317.61
1313.41
1309.23
1305.04
1300.82
1296.67
1292.56
1288.44
1284.42
1280.4
1276.51
1272.7
1269.09
1265.5
1262.14
1258.79
1255.74
1252.72
1249.99
1247.22
1244.64
1242.15
1239.57
1236.97
1234.48
1231.96
1229.51
1227.04
1224.65
1222.25
1219.92
1217.61
1215.4
1213.22
1211.16
1209.14
1207.23
1205.36
1203.58
1201.83
1200.15
1198.49
1196.9
1195.34
1193.86
1192.42
1191.08
1189.76
1187.83
137.639
436.933
889.915
1370.63
1821.89
2238.04
2625.89
2997.47
3363.65
3729.3
4096.9
4469.4
4847.13
5228.63
5612.8
6007.07
6418.69
6860.29
7350.83
7900.32
8499.19
9167.81
9896.48
10670.4
11470.5
12210.2
12904.9
13376.9
13544.8
13404
12813.6
11824.7
10436.1
8859.01
7402.41
5988.89
4891.9
3926.88
3185.91
2620.83
2175.13
1858.79
1599.95
1427.2
1275.79
1178.74
1084.43
1019.99
954.722
907.384
859.813
823.488
793.653
763.513
739.43
714.36
696.171
677.441
666.108
654.873
649.473
646.309
646.646
649.371
654.316
662.13
673.207
686.712
703.431
722.486
744.701
769.246
796.328
825.965
857.26
890.651
925.177
961.07
997.539
1035.04
1071.1
1107.76
1144.77
1182.83
1219.12
1254.67
1289.6
1323.31
1355.85
1384.61
1413.17
1441.21
1469.68
1495.3
1518.34
1538.87
1560.1
1579.3
1597.97
1613.32
1628.69
1640.88
1651.77
1661.02
1670.68
1678.25
1685.3
1690.86
1695.71
1700.44
1704.45
1708.56
1711.36
1712.59
1711.8
1710.34
1708.28
1705.58
1702.49
1699.12
1695.67
1691.94
1687.72
1682.59
1676.73
1670.14
1663.42
1656.36
1649.95
1643.4
1637.2
1630.89
1624.88
1618.75
1612.76
1606.7
1600.48
1593.8
1586.81
1579.54
1572.05
1564.46
1556.81
1549.4
1542.13
1534.9
1527.71
1520.48
1513.37
1506.31
1499.25
1492.06
1484.87
1477.77
1470.61
1463.51
1456.43
1449.45
1442.52
1435.66
1428.91
1422.25
1415.77
1409.31
1403.12
1396.9
1390.99
1385.03
1379.3
1373.6
1368.05
1362.47
1356.83
1351.2
1345.64
1340.12
1334.64
1329.19
1323.8
1318.49
1313.27
1308.14
1303.19
1298.3
1293.6
1288.95
1284.54
1280.12
1275.96
1271.77
1267.83
1263.84
1260.1
1256.37
1252.63
1248.87
1245.15
1241.49
1237.81
1234.23
1230.64
1227.17
1223.77
1220.55
1217.33
1214.3
1211.27
1208.51
1205.75
1203.28
1200.76
1198.41
1196.16
1193.82
1191.46
1189.21
1186.94
1184.72
1182.5
1180.34
1178.17
1176.08
1173.99
1172
1170.04
1168.18
1166.37
1164.66
1162.98
1161.4
1159.83
1158.34
1156.87
1155.45
1154.06
1152.74
1151.46
1150.28
1149.08
1147.4
164.547
496.845
973.211
1436.97
1863.39
2251.04
2616.33
2968.95
3315.62
3661.58
4011.66
4369.04
4733.62
5103.41
5477.74
5863.6
6269.81
6707.66
7190.23
7730.86
8320.43
8968.61
9677.34
10418.8
11155.3
11741.9
12169.1
12230.7
11937
11289.8
10135.9
8660.17
7114.4
5612.33
4418.89
3384.14
2634.31
2043.57
1631.38
1332.55
1133.74
987.567
887.993
817.076
761.752
727.573
690.77
662.202
631.822
606.947
580.602
556.779
533.781
510.004
489.229
467.873
451.544
435.883
423.584
413.075
404.135
397.561
391.323
387.245
383.104
380.721
379.655
379.841
381.069
383.25
386.841
391.662
397.921
405.659
414.74
425.427
437.562
451.353
466.631
483.637
501.971
521.954
543.575
567.291
592.312
618.709
646.319
675.245
704.958
734.547
764.521
795.159
826.824
858.347
889.788
919.181
949.17
978.23
1007.9
1034.41
1061.25
1086.1
1110.08
1132.17
1154.89
1175.77
1196.67
1215.42
1233.06
1250.87
1267.63
1284.4
1299.43
1313.59
1325.37
1335.25
1344.13
1351.64
1358.77
1365.59
1372.59
1379.08
1385.64
1390.5
1394.65
1396.54
1398.27
1398.59
1398.95
1398.87
1398.76
1398.47
1398.26
1397.92
1397.81
1397.67
1397.5
1396.92
1395.91
1394.42
1392.45
1390.07
1387.41
1384.57
1381.68
1378.68
1375.61
1372.4
1369.13
1365.78
1362.35
1358.69
1354.91
1351.04
1347.06
1342.99
1338.85
1334.66
1330.42
1326.16
1321.87
1317.54
1313.26
1308.95
1304.76
1300.53
1296.47
1292.36
1288.39
1284.39
1280.49
1276.52
1272.49
1268.41
1264.34
1260.26
1256.18
1252.08
1248
1243.93
1239.93
1235.96
1232.11
1228.29
1224.62
1220.97
1217.5
1214.02
1210.73
1207.41
1204.26
1201.07
1198.08
1195.09
1192.07
1189.04
1186.03
1183.08
1180.1
1177.19
1174.28
1171.45
1168.68
1166.05
1163.4
1160.9
1158.38
1156.08
1153.77
1151.72
1149.64
1147.68
1145.83
1143.91
1141.96
1140.1
1138.23
1136.4
1134.56
1132.77
1130.98
1129.24
1127.51
1125.85
1124.22
1122.68
1121.19
1119.78
1118.41
1117.12
1115.85
1114.64
1113.44
1112.29
1111.17
1110.1
1109.07
1108.12
1107.14
1105.82
189.532
543.308
1025.51
1468.24
1867.07
2235.89
2578.5
2905.34
3226.73
3548.53
3876.29
4213.28
4559.42
4912.82
5273.97
5650.98
6047.82
6472.68
6940.86
7466.26
8044.53
8688.24
9389.3
10085.8
10703.4
11051.4
11046.9
10766.6
10005.1
8813.41
7309.55
5717.91
4375.59
3241.35
2424.5
1789.38
1370.65
1066.64
881.846
747.733
669.379
606.079
570.914
541.898
524.401
509.335
493.999
480.32
464.858
450.066
433.406
416.166
398.225
379.836
366.408
352.614
342.073
331.665
322.792
314.569
307.021
300.941
295.105
290.248
285.459
281.06
277.491
273.862
271.073
268.236
266.015
264.19
262.707
261.898
261.305
261.474
262.011
263.118
264.796
267.196
270.26
274.151
278.941
284.848
291.763
299.8
308.937
319.362
330.968
343.658
357.473
372.55
389.295
407.372
426.789
447.175
468.737
491.457
515.444
540.029
565.224
590.656
616.333
641.716
667.572
693.56
720.1
745.72
771.222
796.832
821.763
846.307
869.7
892.48
913.664
932.616
950.627
967.334
984.225
1000.25
1016.41
1031.25
1046.26
1059.11
1071.69
1081.27
1090.4
1097.65
1104.74
1110.79
1116.91
1122.45
1128.16
1133.84
1139.8
1145.92
1152.26
1158.38
1163.74
1168.58
1172.79
1176.31
1179.42
1181.85
1184.27
1186.17
1188.09
1189.53
1190.84
1191.89
1192.89
1193.5
1193.86
1194.02
1193.94
1193.69
1193.25
1192.62
1191.83
1190.88
1189.78
1188.55
1187.19
1185.73
1184.2
1182.59
1180.97
1179.28
1177.6
1175.87
1174.16
1172.38
1170.49
1168.51
1166.47
1164.37
1162.21
1159.97
1157.68
1155.35
1153.01
1150.64
1148.33
1145.99
1143.73
1141.46
1139.28
1137.07
1134.97
1132.83
1130.79
1128.7
1126.76
1124.79
1122.78
1120.75
1118.72
1116.71
1114.67
1112.67
1110.65
1108.68
1106.75
1104.9
1103.03
1101.25
1099.43
1097.78
1096.1
1094.66
1093.2
1091.82
1090.55
1089.21
1087.84
1086.53
1085.21
1083.91
1082.6
1081.32
1080.04
1078.79
1077.54
1076.35
1075.18
1074.08
1073.01
1072.02
1071.06
1070.17
1069.3
1068.47
1067.66
1066.87
1066.1
1065.37
1064.69
1064.05
1063.38
1062.54
211.273
573.559
1049.6
1468.19
1851.94
2198.6
2514.67
2813.2
3106.51
3401.39
3703.7
4016.87
4341.34
4676.17
5023.56
5384.68
5767.9
6179.06
6637.41
7169.02
7768.9
8434.03
9132.88
9733.6
10144.7
10103
9773.89
9019.5
7775.91
6224.98
4707.28
3394.28
2448.5
1742.22
1274.75
953.376
756.852
622.568
538.183
477.235
437.702
405.427
387.438
369.194
359.235
349.512
344.363
338.281
331.724
326.156
317.383
309.613
301.078
297.058
292.384
286.948
281.384
275.478
269.62
263.538
257.885
252.716
247.79
243.452
239.466
235.446
232.015
228.535
225.396
222.227
219.258
216.477
213.77
211.382
208.935
206.786
204.595
202.753
200.879
199.384
197.934
196.779
195.846
195.233
195.051
195.229
195.693
196.564
197.853
199.573
201.771
204.505
207.963
212.144
217.134
222.868
229.452
236.985
245.63
255.271
265.97
277.654
290.343
303.987
318.739
334.662
351.964
370.357
389.951
410.655
432.342
454.797
477.685
500.856
523.971
546.091
567.948
589.546
611.455
632.996
654.765
675.362
696.2
714.844
733.541
749.495
764.685
778.008
791.145
803.086
815.196
826.643
838.368
849.916
861.714
873.243
884.93
896.276
906.963
916.969
926.514
935.108
943.438
950.812
958.129
964.725
971.371
977.46
983.399
989.087
994.699
999.884
1004.65
1009.16
1013.33
1017.19
1020.77
1024.05
1027.08
1029.82
1032.36
1034.59
1036.7
1038.5
1040.23
1041.65
1043.09
1044.27
1045.43
1046.44
1047.43
1048.34
1049.05
1049.66
1050.11
1050.48
1050.71
1050.81
1050.77
1050.64
1050.42
1050.12
1049.78
1049.37
1048.93
1048.47
1047.99
1047.47
1046.95
1046.37
1045.79
1045.14
1044.54
1043.92
1043.23
1042.53
1041.8
1041.07
1040.31
1039.53
1038.73
1037.92
1037.11
1036.3
1035.46
1034.62
1033.75
1032.94
1032.12
1031.47
1030.81
1030.21
1029.69
1029.15
1028.56
1027.99
1027.41
1026.82
1026.22
1025.62
1025
1024.37
1023.74
1023.13
1022.54
1022
1021.47
1021.01
1020.56
1020.18
1019.81
1019.47
1019.13
1018.81
1018.49
1018.2
1017.94
1017.71
1017.44
1017.2
230.537
591.013
1048.64
1455.48
1819.7
2142.34
2431.23
2700.93
2964.85
3231.27
3506.51
3794.17
4095.56
4412.05
4739.05
5081.94
5455.54
5871.76
6352.48
6926.59
7580.85
8266.58
8917.36
9325.51
9368.9
9025.13
8230.73
6925.45
5378.35
3849.76
2718.82
1870.28
1320.93
947.206
721.019
572.977
478.27
412.537
368.842
332.351
303.515
278.586
257.909
237.519
221.367
206.864
197.786
192.752
194.057
198.009
205.268
214.544
226.902
241.424
241.436
239.658
237.428
234.518
231.248
227.594
223.859
220.065
216.362
212.881
209.569
206.368
203.536
200.594
197.829
195.047
192.365
189.773
187.225
184.868
182.453
180.167
177.84
175.665
173.454
171.42
169.358
167.467
165.56
163.848
162.19
160.715
159.301
157.974
156.829
155.689
154.783
153.855
153.244
152.738
152.602
152.678
152.947
153.491
154.391
155.643
157.292
159.336
161.824
164.785
168.303
172.476
177.429
183.175
189.884
197.578
206.311
216.06
226.771
238.38
250.743
263.74
277.463
292.076
307.68
324.257
341.721
359.845
378.473
397.201
416.206
433.963
451.618
468.053
484.373
499.923
515.731
531.299
547.234
563.232
579.583
595.431
611.467
626.973
642.092
656.42
670.512
683.562
696.442
708.324
720.115
731.13
742.089
752.468
762.586
772.178
781.494
790.448
798.944
807.141
814.997
822.483
829.68
836.491
843.072
849.242
855.261
860.819
866.355
871.448
876.475
881.055
885.627
889.85
893.99
897.918
901.773
905.523
909.045
912.437
915.602
918.685
921.565
924.286
926.819
929.175
931.401
933.452
935.44
937.235
939.012
940.622
942.248
943.688
945.161
946.401
947.667
948.736
949.81
950.854
951.788
952.731
953.606
954.496
955.289
956.083
956.775
957.447
958.042
958.606
959.05
959.462
959.77
960.078
960.373
960.728
961.097
961.494
961.934
962.406
962.782
963.173
963.535
963.878
964.191
964.474
964.708
964.915
965.082
965.245
965.401
965.57
965.752
965.958
966.184
966.438
966.706
966.985
967.258
967.523
967.782
968.042
968.32
968.621
968.84
969.35
246.628
592.791
1038.6
1429.52
1773.49
2072.41
2334.77
2576.22
2810.93
3048.4
3296.51
3558.93
3837.73
4132.67
4439.3
4773.26
5160.34
5617.54
6161.14
6805.37
7517.26
8162.43
8662.49
8678.67
8406.13
7577.84
6208.97
4612.09
3252.66
2199.74
1509.27
1048.09
764.353
586.155
474.625
400.178
347.676
306.287
272.769
243.566
218.963
197.438
178.51
162.27
148.5
136.724
127.64
120.84
119.315
120.429
123.227
128.899
137.146
147.668
159.98
173.206
191.072
198.225
198.434
197.542
195.939
193.698
191.165
188.615
186.009
183.608
181.314
178.841
176.471
174.069
171.7
169.408
167.158
165.055
162.897
160.858
158.784
156.807
154.804
152.924
151.023
149.235
147.423
145.742
144.054
142.496
140.949
139.452
138.008
136.579
135.222
133.828
132.549
131.274
130.175
129.093
128.092
127.115
126.272
125.513
124.866
124.317
123.827
123.505
123.229
123.262
123.471
123.915
124.654
125.721
127.158
128.977
131.197
133.813
136.817
140.203
144.071
148.556
153.75
159.717
166.49
174.063
182.398
191.42
201.036
211.057
221.485
232.262
243.417
254.969
267.117
279.856
293.39
307.564
322.571
338.11
354.232
370.639
387.241
403.507
419.896
435.591
451.323
466.347
481.347
495.749
510.08
523.934
537.534
550.549
563.18
575.539
587.461
599.05
610.305
621.145
631.688
641.775
651.61
660.952
670.099
678.711
687.187
695.046
702.807
710.039
717.24
724.044
730.762
737.226
743.626
749.887
755.993
761.929
767.717
773.407
778.882
784.133
789.202
794.004
798.676
803.063
807.399
811.428
815.448
819.192
822.972
826.479
830.043
833.275
836.533
839.539
842.485
845.382
848.137
850.906
853.568
856.255
858.8
861.36
863.77
866.144
868.372
870.541
872.519
874.423
876.164
877.848
879.457
881.098
882.704
884.319
885.948
887.622
889.171
890.73
892.234
893.703
895.122
896.489
897.789
899.026
900.202
901.33
902.428
903.501
904.574
905.633
906.701
907.768
908.84
909.891
910.929
911.929
912.912
913.863
914.817
915.792
916.634
918.074
259.689
588.107
1019.39
1393.03
1717.25
1993.84
2231.07
2445.47
2652.37
2862.38
3084.67
3323.63
3581.95
3855.63
4154.89
4505.46
4945.14
5484.58
6101
6798.27
7525.43
7993.76
8097.49
7761.77
6951.36
5568.11
4049.27
2758.05
1863.83
1261.03
887.211
655.702
513.496
421.952
359.991
314.221
277.768
246.608
219.377
195.215
174.379
156.458
141.436
128.618
117.959
109.124
102.043
96.1705
92.8157
91.1224
89.3181
89.1601
91.026
95.4647
102.49
111.927
123.873
136.881
149.34
165.682
170.859
170.383
168.983
167.191
165.164
163.147
161.201
159.096
157.195
155.243
153.266
151.351
149.461
147.676
145.849
144.139
142.401
140.736
139.048
137.454
135.843
134.324
132.788
131.343
129.881
128.522
127.156
125.85
124.551
123.279
122.046
120.781
119.568