/*--------------------------------*- C++ -*----------------------------------*\
| =========                 |                                                 |
| \\      /  F ield         | OpenFOAM: The Open Source CFD Toolbox           |
|  \\    /   O peration     | Version:  2312                                  |
|   \\  /    A nd           | Website:  www.openfoam.com                      |
|    \\/     M anipulation  |                                                 |
\*---------------------------------------------------------------------------*/
FoamFile
{
    version     2.0;
    format      ascii;
    arch        "LSB;label=32;scalar=64";
    class       volScalarField;
    location    "0.006";
    object      nut;
}
// * * * * * * * * * * * * * * * * * * * * * * * * * * * * * * * * * * * * * //

dimensions      [0 2 -1 0 0 0 0];

internalField   nonuniform List<scalar> 
48128
(
1.71259e-07
2.51171e-07
9.01684e-07
8.87076e-06
3.95914e-05
9.75411e-05
0.000160482
0.000216047
0.000262955
0.000301962
0.000335316
0.000364963
0.000391749
0.000417241
0.000442229
0.000467242
0.000492694
0.000518958
0.000546403
0.000575512
0.000608046
0.000643987
0.000683642
0.000725831
0.000773815
0.00082582
0.000882888
0.000943524
0.00100886
0.00108019
0.00115497
0.00123311
0.00131469
0.00139058
0.00146187
0.00152428
0.00157996
0.00161725
0.00164796
0.00166693
0.00167216
0.00169036
0.00171601
0.00174788
0.00177399
0.0017881
0.00179401
0.00179493
0.00179109
0.00178611
0.00177895
0.00177141
0.00176083
0.00170288
0.00159184
0.00149366
0.00140519
0.00132772
0.00125568
0.00119032
0.00113171
0.00107684
0.00102805
0.000983346
0.000942178
0.00090551
0.00087075
0.000839377
0.000809471
0.000782644
0.000757901
0.000734796
0.000713909
0.000694485
0.000676646
0.000660175
0.000644732
0.000631278
0.000617787
0.00060537
0.000596118
0.000586111
0.000575335
0.000565658
0.000558702
0.000550713
0.000542867
0.000534719
0.000527314
0.00052407
0.000518779
0.000512816
0.000506463
0.000500877
0.000498676
0.000494734
0.000489906
0.0004856
0.00048246
0.00047898
0.000475085
0.000471665
0.000470166
0.000467666
0.000464667
0.000461982
0.000459888
0.000457551
0.00045531
0.000453016
0.000450786
0.000448412
0.000446319
0.000444479
0.000442804
0.00044218
0.000441285
0.000440291
0.000439265
0.000438132
0.000436849
0.000435373
0.000433922
0.000432879
0.000431953
0.000431248
0.000431443
0.000431111
0.000430886
0.000430488
0.000429987
0.000429354
0.000428569
0.000427686
0.000426708
0.000425637
0.000424518
0.000423477
0.000422685
0.000422057
0.000421516
0.000421176
0.000420752
0.000420468
0.000420071
0.000419619
0.000419131
0.000418679
0.00041819
0.000417682
0.0004172
0.000416708
0.000416294
0.000415854
0.000415458
0.000415106
0.000414783
0.00041451
0.000414224
0.00041399
0.000413735
0.000413518
0.00041328
0.000413059
0.000412818
0.000412577
0.000412314
0.000412028
0.000411758
0.000411453
0.00041113
0.000410837
0.000410534
0.000410282
0.000410053
0.000409835
0.000409646
0.000409465
0.000409314
0.000409186
0.000409063
0.000408971
0.000408873
0.000408788
0.000408695
0.000408614
0.000408521
0.000408423
0.000408322
0.000408218
0.000408099
0.000407946
0.000407785
0.000407541
0.000407262
0.000407043
0.000406855
0.000406678
0.000406564
0.000406486
0.000406432
0.000406416
0.000406417
0.000406414
0.000406404
0.000406376
0.000406327
0.000406258
0.00040617
0.000406036
0.000405861
0.00040571
0.000405538
0.000405269
0.00040515
0.000405028
0.000404913
0.000404826
0.000404749
0.000404686
0.000404624
0.000404567
0.000404513
0.000404458
0.000404401
0.000404339
0.00040427
0.000404196
0.000404114
0.000404029
0.000403939
0.000403848
0.000403755
0.000403664
0.000403575
0.000403488
0.000403401
0.00040332
0.000403197
0.00040299
1.30682e-06
4.41136e-06
1.42087e-05
4.77562e-05
0.000123713
0.000249111
0.000421474
0.000614098
0.000826564
0.00104955
0.00127521
0.00149946
0.00172074
0.00194535
0.0021768
0.00241941
0.00268124
0.00296567
0.00327822
0.00362075
0.0040123
0.00442662
0.00492402
0.00543501
0.00599196
0.00657826
0.00719838
0.00783891
0.00834833
0.00888371
0.00941281
0.00991634
0.0103876
0.010814
0.0112178
0.011552
0.0118619
0.0120366
0.0121878
0.0122517
0.0122246
0.0121921
0.012115
0.0120216
0.0118948
0.0117361
0.0115477
0.0113417
0.0111279
0.0109211
0.0107117
0.0105103
0.0102981
0.0100887
0.00987909
0.00969143
0.00949885
0.00932152
0.00914063
0.00895328
0.00878471
0.00859834
0.00841848
0.00824745
0.00807338
0.00791816
0.00775897
0.00761071
0.00745979
0.00731413
0.00717441
0.00703568
0.0069035
0.00677514
0.00665324
0.00653596
0.00642156
0.00631506
0.00621044
0.00611395
0.00602172
0.00593326
0.0058427
0.0057621
0.0056855
0.00560775
0.00553392
0.0054608
0.00539662
0.00533411
0.00527047
0.0052072
0.00514488
0.0050921
0.00504119
0.00498919
0.00493638
0.00488722
0.0048404
0.00479518
0.0047495
0.00470893
0.00466998
0.00463042
0.00459088
0.00455314
0.00451819
0.00448279
0.00444895
0.00441578
0.00438273
0.00434983
0.00431545
0.00428482
0.00425146
0.004223
0.00419612
0.00417038
0.00414695
0.00412426
0.00410136
0.00407805
0.0040548
0.00403081
0.00400816
0.00398597
0.00396933
0.00395306
0.00393826
0.00392487
0.00390242
0.00388183
0.00386416
0.00384588
0.00382783
0.00381031
0.00379279
0.00377514
0.00375572
0.00373637
0.00371649
0.00369606
0.00367642
0.00365638
0.00363716
0.00361892
0.00360092
0.00358351
0.00356715
0.00355105
0.00353552
0.00352027
0.00350569
0.00349144
0.0034775
0.00346378
0.00345041
0.00343703
0.00342399
0.00341132
0.00339877
0.00338706
0.00337535
0.00336439
0.00335362
0.00334346
0.00333374
0.0033246
0.00331576
0.00330726
0.00330017
0.00329257
0.00328576
0.0032789
0.0032722
0.00326567
0.00325924
0.00325291
0.00324669
0.00324038
0.00323422
0.00322791
0.00322165
0.00321574
0.00320965
0.00320405
0.00319848
0.00319309
0.00318801
0.00318279
0.00317799
0.00317382
0.00316983
0.00316602
0.00316356
0.0031606
0.00315792
0.00315517
0.00315229
0.00314893
0.00314579
0.00314154
0.00313779
0.00313416
0.00313033
0.00312645
0.00312285
0.00311936
0.00311609
0.00311329
0.00311118
0.00310905
0.00310718
0.00310597
0.00310421
0.00310259
0.00310111
0.00309933
0.00309756
0.00309557
0.00309352
0.00309141
0.00308918
0.00308697
0.0030847
0.00308252
0.00308033
0.00307824
0.00307616
0.00307421
0.0030723
0.00307049
0.00306879
0.00306716
0.00306562
0.0030641
0.00306272
0.0030613
0.00306013
0.00305874
3.61997e-06
3.26935e-05
7.80964e-05
0.000193706
0.000422717
0.000828331
0.00143198
0.00214376
0.00292227
0.00370582
0.00445329
0.00514855
0.00579787
0.00642074
0.00701048
0.00759817
0.00820061
0.0088253
0.00948286
0.0101789
0.0109295
0.0117125
0.0125477
0.0133758
0.0142208
0.0150667
0.0158716
0.0166452
0.0173338
0.0180173
0.0186592
0.0192277
0.0197177
0.0200997
0.0204381
0.0206492
0.0208168
0.020799
0.0207328
0.0205794
0.0203195
0.0200754
0.0197737
0.019466
0.0191298
0.0187694
0.0183984
0.0180226
0.0176547
0.017297
0.0169495
0.016614
0.016281
0.0159527
0.015619
0.0153103
0.0149986
0.0147117
0.0144298
0.0141528
0.0138913
0.0136292
0.0133734
0.0131298
0.0128867
0.0126637
0.01244
0.0122293
0.0120192
0.0118145
0.0116175
0.0114232
0.0112365
0.0110553
0.0108809
0.0107135
0.0105494
0.0103962
0.0102418
0.0101015
0.00996711
0.00983595
0.00970145
0.00957785
0.0094625
0.0093464
0.00923082
0.00911999
0.00901668
0.00892138
0.00882265
0.00872144
0.00862573
0.00853558
0.00845437
0.00837048
0.00828485
0.0082022
0.0081254
0.00804951
0.00797417
0.00790346
0.00783713
0.00776892
0.00770051
0.00763382
0.00757216
0.00750937
0.00744898
0.00738909
0.00732935
0.00726952
0.00720868
0.00715069
0.00709275
0.00703931
0.00698755
0.0069376
0.00689104
0.00684594
0.00680042
0.00675386
0.0067079
0.0066618
0.00661833
0.00657586
0.00653895
0.00650321
0.00646994
0.00643957
0.00641145
0.00638476
0.00635885
0.00633291
0.00630632
0.00627846
0.00624994
0.00622092
0.00619147
0.00616275
0.00613403
0.00610708
0.00608001
0.00605476
0.00602954
0.00600567
0.00598151
0.00595882
0.00593613
0.00591339
0.00589165
0.00586984
0.00584862
0.00582758
0.00580678
0.00578637
0.00576645
0.00574706
0.00572813
0.00571005
0.00569229
0.00567544
0.0056593
0.0056438
0.00562923
0.00561508
0.00560201
0.00558882
0.00557669
0.00556449
0.00555241
0.00554068
0.00552886
0.00551723
0.00550564
0.00549412
0.00548265
0.00547129
0.00546009
0.00544901
0.00543829
0.00542754
0.00541742
0.00540738
0.00539807
0.00538876
0.00538029
0.00537172
0.00536411
0.00535653
0.00535016
0.00534381
0.00533816
0.00533219
0.00532634
0.00532032
0.00531397
0.00530733
0.00530053
0.00529351
0.0052865
0.00527939
0.00527252
0.00526596
0.00525984
0.00525419
0.00524911
0.00524454
0.00524069
0.00523729
0.00523375
0.00523074
0.00522735
0.00522402
0.00522069
0.00521716
0.0052135
0.00520969
0.00520579
0.00520174
0.00519757
0.00519356
0.0051894
0.00518558
0.00518168
0.00517814
0.00517458
0.00517136
0.00516809
0.0051651
0.00516211
0.00515937
0.00515662
0.00515414
0.00515162
0.00514943
0.0051471
0.00514513
0.00514292
0.00514023
1.08528e-05
0.000105006
0.000242235
0.000550783
0.00113326
0.00214505
0.00345043
0.00489401
0.00630715
0.00759109
0.00873363
0.00976712
0.0106838
0.0115304
0.012326
0.013101
0.0138764
0.0146656
0.0154803
0.0163227
0.0171982
0.0180894
0.0189965
0.0198825
0.0207446
0.021557
0.022303
0.0229892
0.0235933
0.0241483
0.0246289
0.0249974
0.0252489
0.0253499
0.0253936
0.0252998
0.0251402
0.0248251
0.0244603
0.0237904
0.023216
0.0228373
0.0222736
0.0219393
0.0214231
0.0210777
0.0205509
0.0201696
0.0196802
0.0193136
0.0189599
0.0185977
0.0182522
0.0179093
0.017571
0.0172551
0.0169473
0.0166604
0.0163846
0.016123
0.0158662
0.0156292
0.0153944
0.0151732
0.0149578
0.0147518
0.014552
0.0143574
0.0141686
0.0139823
0.0138028
0.0136276
0.013458
0.0132956
0.0131368
0.0129852
0.0128355
0.0126956
0.0125534
0.01242
0.0122974
0.0121763
0.0120511
0.01193
0.0118214
0.0117125
0.0116008
0.0114939
0.011385
0.0112964
0.0112025
0.0111047
0.0110105
0.0109148
0.0108367
0.0107543
0.0106696
0.0105842
0.0105065
0.0104292
0.0103522
0.0102753
0.0102082
0.0101378
0.0100669
0.00999522
0.00993007
0.00986319
0.0097985
0.00973323
0.00966793
0.00960187
0.00953469
0.00946989
0.00940624
0.00934756
0.0092901
0.00923455
0.00918184
0.00913072
0.00907857
0.00902435
0.00897039
0.00891685
0.00886676
0.00881674
0.00877337
0.00873109
0.00869223
0.00865616
0.0086223
0.00858952
0.00855723
0.00852498
0.00849188
0.00845703
0.00842118
0.00838452
0.00834738
0.00831149
0.0082754
0.00824151
0.00820769
0.00817607
0.00814405
0.00811386
0.00808298
0.00805397
0.00802487
0.0079956
0.00796719
0.00793885
0.00791113
0.00788347
0.00785606
0.00782918
0.00780271
0.00777721
0.00775186
0.00772792
0.00770398
0.00768153
0.00765964
0.00763871
0.00761883
0.00759932
0.00758113
0.00756265
0.00754558
0.00752825
0.00751086
0.00749406
0.00747707
0.00746038
0.00744375
0.00742723
0.00741081
0.00739462
0.00737861
0.00736294
0.00734763
0.00733254
0.0073181
0.00730397
0.00729057
0.00727743
0.00726505
0.00725286
0.00724172
0.00723079
0.00722113
0.0072116
0.00720287
0.00719386
0.00718475
0.00717552
0.00716596
0.00715612
0.00714615
0.00713599
0.00712601
0.007116
0.00710619
0.00709703
0.0070884
0.00708049
0.00707321
0.00706659
0.00706078
0.00705564
0.00705015
0.00704557
0.0070404
0.00703521
0.00703008
0.0070248
0.00701944
0.00701399
0.00700845
0.00700289
0.00699715
0.00699173
0.00698611
0.006981
0.00697574
0.00697104
0.00696624
0.00696197
0.00695757
0.00695363
0.00694956
0.00694593
0.00694219
0.00693891
0.00693548
0.00693264
0.00692952
0.006927
0.00692417
0.00692068
2.51907e-05
0.000238451
0.000555426
0.00119678
0.0023614
0.00409765
0.00603331
0.00795085
0.0097096
0.0112702
0.0126641
0.0138635
0.0149265
0.0158984
0.016798
0.0176585
0.0185004
0.0193403
0.0201867
0.0210421
0.0219047
0.0227605
0.023598
0.0243822
0.0251076
0.0257684
0.0263418
0.0268299
0.0272089
0.0274715
0.0276166
0.0276218
0.0269386
0.0261137
0.0251847
0.0243911
0.0235771
0.022757
0.0221498
0.0214124
0.0205634
0.0202646
0.0195228
0.0191687
0.0185077
0.0181761
0.0175999
0.0172421
0.0167905
0.0164867
0.0161713
0.0159067
0.0156913
0.0155661
0.0155062
0.0153845
0.0153049
0.0152044
0.0151292
0.0151177
0.0150228
0.0150013
0.0150677
0.0150517
0.0150015
0.0148642
0.0147349
0.0146008
0.0144746
0.0143465
0.0142236
0.0141026
0.0139844
0.0138722
0.0137604
0.0136543
0.0135476
0.0134489
0.0133477
0.0132463
0.0131601
0.0130744
0.0129847
0.0128911
0.0128115
0.0127326
0.012651
0.0125685
0.0124801
0.0124155
0.0123485
0.012278
0.0122044
0.012126
0.0120674
0.012007
0.0119431
0.0118761
0.0118147
0.0117551
0.0116935
0.0116289
0.0115761
0.0115228
0.0114665
0.011408
0.011355
0.0113009
0.011248
0.0111938
0.0111394
0.0110838
0.0110268
0.0109722
0.0109166
0.0108677
0.0108196
0.010773
0.0107281
0.0106846
0.0106397
0.0105927
0.0105448
0.0104974
0.0104531
0.0104079
0.0103702
0.0103338
0.0103009
0.0102699
0.0102409
0.0102124
0.0101845
0.0101558
0.0101269
0.0100953
0.0100625
0.0100282
0.00999341
0.00995988
0.00992589
0.00989413
0.00986236
0.00983288
0.00980275
0.00977447
0.00974521
0.0097178
0.00968994
0.009662
0.00963452
0.00960687
0.00957988
0.00955283
0.00952597
0.00949955
0.00947343
0.00944831
0.00942323
0.00939952
0.00937591
0.00935359
0.00933204
0.0093112
0.00929159
0.00927213
0.00925405
0.0092355
0.00921837
0.00920069
0.00918297
0.0091656
0.00914806
0.00913072
0.00911342
0.00909609
0.00907885
0.00906179
0.00904486
0.00902838
0.00901214
0.00899639
0.00898111
0.00896641
0.00895224
0.00893862
0.0089256
0.00891299
0.00890141
0.00889008
0.00888002
0.00887006
0.0088609
0.00885142
0.00884173
0.00883193
0.00882158
0.00881095
0.00880022
0.00878917
0.00877849
0.0087677
0.00875727
0.00874766
0.00873861
0.00873044
0.00872287
0.00871626
0.0087103
0.00870533
0.00869962
0.00869533
0.00869014
0.00868478
0.00867955
0.00867409
0.00866857
0.00866298
0.00865727
0.00865167
0.0086458
0.0086404
0.00863472
0.00862975
0.00862453
0.00862006
0.0086154
0.00861146
0.00860727
0.00860373
0.00859991
0.00859672
0.00859324
0.00859043
0.00858731
0.00858502
0.00858227
0.00858045
0.00857812
0.00857538
4.78094e-05
0.000441977
0.00104533
0.00213765
0.00400515
0.00621072
0.00852787
0.0107167
0.0126787
0.0144267
0.0159403
0.0172311
0.0183796
0.0194111
0.0203483
0.0212244
0.0220569
0.0228646
0.023656
0.0244316
0.0251862
0.0259092
0.0265751
0.0271755
0.0276966
0.0281076
0.0283995
0.0285777
0.0281088
0.0272998
0.0263315
0.0253779
0.0241573
0.0230491
0.0219143
0.0208746
0.020069
0.0191117
0.018484
0.0177274
0.0167454
0.0163618
0.0155706
0.0151027
0.0144068
0.0140215
0.013505
0.0131866
0.0128746
0.0125985
0.0123664
0.0121954
0.0120291
0.0120131
0.0119563
0.0119604
0.011893
0.0119167
0.0118781
0.0119552
0.0119739
0.0120252
0.012187
0.0122195
0.0123823
0.0124827
0.0125225
0.0126832
0.0127532
0.0129002
0.0129561
0.0130848
0.0131739
0.0131454
0.0131101
0.0130756
0.0130359
0.013001
0.0129595
0.0129129
0.0128797
0.0128464
0.0128066
0.0127609
0.0127245
0.0126908
0.0126534
0.0126098
0.0125594
0.0125283
0.0124984
0.0124643
0.0124249
0.0123785
0.0123476
0.0123177
0.0122841
0.0122469
0.0122115
0.0121789
0.0121424
0.0121019
0.0120721
0.0120436
0.0120113
0.0119764
0.0119446
0.0119121
0.0118802
0.0118461
0.0118125
0.0117767
0.0117398
0.0117037
0.0116657
0.0116351
0.0116048
0.0115757
0.0115466
0.0115188
0.0114895
0.0114589
0.0114262
0.0113934
0.0113629
0.0113307
0.0113069
0.0112836
0.0112636
0.0112443
0.011227
0.0112096
0.011193
0.0111749
0.0111571
0.0111362
0.011114
0.0110898
0.0110651
0.0110413
0.011017
0.0109946
0.0109718
0.0109513
0.0109302
0.0109103
0.0108896
0.01087
0.0108501
0.0108298
0.0108098
0.0107891
0.0107691
0.0107489
0.0107287
0.0107089
0.0106892
0.0106703
0.0106514
0.0106335
0.0106159
0.0105992
0.0105832
0.0105677
0.0105534
0.0105391
0.010526
0.0105124
0.0104999
0.0104869
0.0104739
0.0104608
0.0104474
0.0104341
0.0104208
0.0104072
0.0103937
0.0103802
0.0103667
0.0103537
0.0103407
0.0103284
0.0103163
0.0103049
0.0102939
0.0102836
0.0102737
0.0102643
0.0102558
0.0102475
0.0102404
0.0102333
0.0102269
0.0102203
0.0102132
0.0102059
0.0101981
0.0101898
0.0101814
0.0101727
0.0101642
0.0101556
0.0101476
0.0101403
0.0101335
0.0101277
0.0101224
0.0101183
0.0101146
0.0101122
0.0101087
0.010107
0.0101041
0.010101
0.0100979
0.0100946
0.0100911
0.0100876
0.0100838
0.0100804
0.0100764
0.0100731
0.0100693
0.0100664
0.0100632
0.0100609
0.0100582
0.0100564
0.0100543
0.0100529
0.0100512
0.0100502
0.0100487
0.010048
0.0100469
0.0100468
0.0100461
0.0100465
0.0100463
0.0100466
7.74252e-05
0.000712871
0.00169774
0.00332964
0.00566309
0.00818753
0.0107322
0.0130701
0.0151524
0.0170264
0.0185781
0.0199327
0.0211219
0.0221699
0.0230985
0.0239373
0.0247045
0.0254193
0.026091
0.0267191
0.0272972
0.0278085
0.0282499
0.0285934
0.0288362
0.0284809
0.0274485
0.0265854
0.0254497
0.0243957
0.0230541
0.0218815
0.0204509
0.0192137
0.018295
0.0170868
0.0163978
0.0152558
0.0145001
0.0136503
0.0126788
0.0120693
0.0113167
0.0108247
0.0103287
0.00993474
0.00960808
0.00931978
0.00916832
0.00891584
0.0088222
0.00872817
0.0086251
0.00868933
0.00859421
0.00867551
0.0086017
0.00871406
0.00868842
0.00881737
0.0088823
0.00899783
0.0091449
0.00920628
0.00935891
0.00949417
0.00958425
0.00976627
0.0098995
0.0100666
0.0101984
0.0103739
0.0105147
0.0106448
0.0107911
0.0109273
0.0110643
0.0111616
0.0113037
0.011431
0.011426
0.0114921
0.0116484
0.0117566
0.0117724
0.0118001
0.0118165
0.0118258
0.0118275
0.0118377
0.0118517
0.0118616
0.0118647
0.0118608
0.0118636
0.0118705
0.0118738
0.0118736
0.0118714
0.0118721
0.011868
0.0118609
0.0118591
0.0118604
0.0118577
0.0118528
0.0118475
0.0118419
0.011836
0.0118277
0.0118205
0.0118102
0.0117991
0.0117868
0.0117726
0.0117645
0.0117566
0.0117492
0.0117408
0.0117332
0.0117252
0.0117159
0.0117037
0.0116911
0.0116789
0.0116655
0.0116589
0.0116522
0.0116485
0.0116446
0.0116427
0.0116402
0.0116385
0.0116351
0.0116321
0.0116266
0.0116196
0.0116105
0.0116007
0.0115914
0.0115812
0.0115728
0.0115635
0.0115563
0.0115486
0.0115414
0.0115336
0.011526
0.0115185
0.0115105
0.0115022
0.0114931
0.0114845
0.0114756
0.0114664
0.0114575
0.0114485
0.0114401
0.0114315
0.0114237
0.011416
0.011409
0.0114025
0.0113964
0.0113911
0.0113857
0.0113814
0.0113765
0.0113724
0.011368
0.0113634
0.0113584
0.011353
0.0113476
0.011342
0.0113361
0.01133
0.0113239
0.0113175
0.0113117
0.0113055
0.0113003
0.0112949
0.0112904
0.0112859
0.0112822
0.0112788
0.0112759
0.0112736
0.0112715
0.0112704
0.0112693
0.0112686
0.011268
0.0112664
0.0112645
0.0112623
0.0112594
0.0112565
0.0112531
0.0112498
0.0112466
0.0112438
0.0112417
0.0112399
0.0112391
0.0112387
0.0112396
0.0112406
0.0112431
0.0112444
0.0112474
0.0112493
0.0112508
0.0112522
0.0112534
0.0112544
0.0112554
0.0112559
0.0112568
0.011257
0.0112579
0.0112583
0.0112597
0.0112605
0.0112623
0.0112637
0.0112661
0.011268
0.0112708
0.011273
0.0112761
0.0112785
0.0112819
0.0112846
0.0112885
0.0112916
0.011296
0.0112997
0.0113056
0.000111359
0.00103662
0.00245589
0.00456455
0.00718307
0.00991822
0.0125869
0.0150075
0.017174
0.0190902
0.0206744
0.0220655
0.0232674
0.024302
0.0251874
0.025949
0.0266065
0.0271794
0.0276776
0.0281012
0.0284372
0.0286864
0.0288434
0.0280564
0.0269846
0.0257385
0.024521
0.0235222
0.0221566
0.0209642
0.0194039
0.0180752
0.0169705
0.0157023
0.0150846
0.0137324
0.0128447
0.0116373
0.0107227
0.0100036
0.00930615
0.00860666
0.00811361
0.00760734
0.00732456
0.00693522
0.00676682
0.00647919
0.00644383
0.00621215
0.00624026
0.00615789
0.00612914
0.00620159
0.00611092
0.00617994
0.00614725
0.00628147
0.00629418
0.00644412
0.00649804
0.0066614
0.00676454
0.00682674
0.00694808
0.00704196
0.00713822
0.00726519
0.00739353
0.0075217
0.0076512
0.00780925
0.00792701
0.00807125
0.00821313
0.008365
0.00850805
0.00863958
0.00879102
0.00892893
0.00901633
0.009123
0.00926881
0.00942124
0.00951506
0.00962456
0.00975704
0.00991341
0.0100469
0.0100806
0.0101431
0.010239
0.0103949
0.0105275
0.0105465
0.0105942
0.0106881
0.0108198
0.010908
0.0109665
0.0110029
0.0110365
0.0110684
0.0111039
0.0111352
0.0111641
0.0111906
0.0112157
0.0112401
0.0112623
0.0112847
0.0113039
0.0113225
0.0113387
0.0113532
0.0113707
0.0113883
0.0114058
0.0114216
0.0114378
0.0114539
0.0114689
0.0114807
0.0114917
0.011501
0.011509
0.0115212
0.0115329
0.0115474
0.0115611
0.0115762
0.0115907
0.011606
0.0116197
0.0116338
0.0116456
0.0116565
0.0116653
0.0116728
0.0116807
0.0116872
0.0116949
0.0117016
0.0117099
0.0117179
0.0117259
0.0117334
0.0117407
0.0117479
0.0117547
0.011761
0.0117662
0.0117717
0.0117768
0.0117813
0.0117861
0.0117904
0.0117952
0.0117995
0.0118043
0.0118091
0.0118143
0.0118198
0.0118254
0.0118317
0.0118378
0.0118446
0.011851
0.0118579
0.0118645
0.0118709
0.0118768
0.011882
0.0118871
0.0118919
0.0118963
0.0119003
0.0119044
0.0119078
0.0119119
0.0119153
0.0119196
0.0119237
0.0119285
0.0119333
0.0119387
0.0119443
0.0119503
0.0119567
0.0119633
0.0119705
0.0119777
0.0119852
0.0119927
0.0119993
0.0120052
0.0120111
0.0120161
0.0120211
0.0120256
0.0120302
0.0120348
0.0120397
0.0120452
0.0120508
0.0120574
0.0120641
0.0120721
0.0120801
0.0120894
0.0120977
0.0121075
0.0121163
0.0121244
0.0121325
0.0121404
0.0121479
0.0121555
0.0121624
0.0121698
0.0121763
0.0121836
0.0121902
0.0121977
0.0122046
0.0122126
0.01222
0.0122285
0.0122362
0.0122451
0.0122531
0.0122622
0.0122703
0.0122795
0.0122878
0.0122974
0.012306
0.0123161
0.0123253
0.0123393
0.00014694
0.00139309
0.00323881
0.00568147
0.00849519
0.0113691
0.014095
0.0165556
0.01877
0.0206982
0.0223112
0.0237201
0.0249176
0.0259174
0.0267312
0.027381
0.027888
0.0282723
0.0285428
0.0287002
0.0287542
0.0279008
0.0265707
0.0251235
0.0239295
0.0226866
0.0213853
0.020319
0.0187423
0.017465
0.016123
0.0148964
0.0143368
0.0129508
0.0121235
0.0107574
0.00984435
0.00879231
0.00796662
0.00720647
0.00680894
0.00609062
0.00584456
0.00536813
0.00529115
0.00495507
0.00494512
0.00471924
0.0047615
0.00459155
0.0046781
0.00453574
0.00463007
0.00462881
0.00458183
0.00453283
0.00451152
0.00449245
0.00448931
0.00450718
0.00453611
0.00457434
0.00462483
0.00468881
0.00476397
0.00484882
0.00494611
0.00505298
0.0051701
0.00529649
0.0054316
0.00557354
0.00572525
0.00588578
0.00604315
0.00621124
0.00637261
0.00654245
0.00667572
0.0067958
0.00688259
0.00696802
0.00707927
0.00721244
0.00732059
0.00742955
0.00754769
0.00768964
0.00784202
0.00792702
0.00800957
0.00810787
0.00825512
0.00841093
0.00850672
0.00858165
0.008689
0.00882996
0.00896177
0.00906659
0.00919008
0.00931017
0.0093843
0.00945274
0.009542
0.00965268
0.00974506
0.00982123
0.0098879
0.00998079
0.0100976
0.0102252
0.010355
0.01044
0.01049
0.0105379
0.0105842
0.0106302
0.010674
0.0107179
0.0107601
0.0108017
0.0108396
0.0108766
0.0109091
0.0109412
0.010974
0.0110061
0.0110403
0.0110737
0.0111074
0.0111407
0.011174
0.0112066
0.0112387
0.0112698
0.0112991
0.0113272
0.0113537
0.01138
0.0114048
0.0114302
0.0114545
0.0114796
0.0115044
0.0115292
0.0115533
0.0115771
0.0116003
0.0116235
0.0116457
0.011667
0.0116878
0.0117086
0.0117282
0.0117481
0.0117671
0.0117865
0.0118052
0.0118242
0.0118429
0.0118618
0.0118808
0.0118997
0.011919
0.011938
0.0119576
0.0119766
0.011996
0.0120151
0.0120341
0.0120524
0.0120699
0.0120871
0.0121038
0.0121204
0.0121362
0.012152
0.0121671
0.0121826
0.0121975
0.012213
0.0122283
0.012244
0.0122598
0.0122759
0.0122923
0.0123088
0.0123256
0.0123425
0.0123597
0.0123768
0.0123943
0.0124114
0.0124279
0.0124434
0.0124591
0.012474
0.0124887
0.0125031
0.0125173
0.0125316
0.0125461
0.012561
0.0125759
0.0125915
0.012607
0.0126238
0.0126404
0.0126582
0.012675
0.0126933
0.0127105
0.0127271
0.0127435
0.0127599
0.0127756
0.0127915
0.0128066
0.0128222
0.0128368
0.0128521
0.0128665
0.012882
0.0128966
0.0129124
0.0129274
0.0129436
0.0129589
0.0129754
0.0129908
0.0130074
0.0130228
0.0130394
0.0130549
0.0130717
0.0130874
0.0131045
0.0131207
0.0131451
0.000182128
0.00174074
0.0039697
0.00664235
0.00958821
0.0125279
0.0152669
0.0177399
0.0199886
0.0219394
0.0235797
0.0249937
0.0261703
0.0271118
0.0278215
0.0283186
0.0286264
0.028767
0.0287478
0.0279801
0.0265983
0.0249002
0.0234129
0.0220834
0.0209239
0.0196408
0.0183109
0.0172341
0.0157957
0.0145984
0.0139539
0.0127166
0.0120416
0.0107001
0.00962871
0.00846651
0.00746645
0.00657048
0.0058189
0.00511315
0.00484986
0.00436464
0.00428776
0.00401679
0.00409664
0.00398411
0.00390045
0.00376545
0.00362235
0.00351818
0.00341036
0.0033272
0.00326116
0.00319197
0.00313954
0.00308284
0.00304664
0.00300826
0.00299249
0.00297553
0.00297854
0.00298374
0.00300575
0.00302829
0.00306152
0.00309866
0.0031463
0.00320177
0.00326631
0.00333773
0.00341804
0.00350527
0.00360037
0.00370327
0.00381339
0.00392975
0.00405396
0.0041815
0.00431704
0.0044553
0.0045958
0.00473914
0.00488859
0.00504466
0.00520159
0.00535964
0.00552051
0.00568273
0.00584731
0.0060022
0.00616049
0.00630872
0.00641762
0.00655445
0.00666386
0.00673496
0.00682336
0.00694469
0.00707073
0.00717747
0.00729489
0.00741796
0.00751409
0.00759303
0.0076917
0.00780671
0.00792154
0.00801737
0.00810608
0.00822919
0.00835925
0.00850326
0.00865363
0.00879906
0.00893763
0.00900624
0.00907113
0.00912597
0.00918176
0.00926206
0.00935885
0.00947545
0.00960276
0.00973259
0.00984342
0.00993183
0.00998236
0.0100204
0.0100411
0.010087
0.010121
0.0101616
0.0101998
0.0102623
0.0103109
0.0103953
0.0104821
0.0106041
0.0106911
0.0107444
0.0107901
0.0108349
0.0108781
0.0109217
0.0109645
0.0110073
0.0110489
0.0110902
0.0111306
0.0111712
0.01121
0.0112484
0.0112857
0.0113228
0.0113586
0.0113944
0.0114291
0.0114641
0.0114981
0.0115323
0.0115658
0.0115996
0.0116329
0.0116661
0.0116993
0.0117322
0.0117653
0.0117979
0.0118306
0.011863
0.0118953
0.0119269
0.0119575
0.0119878
0.0120175
0.0120471
0.0120757
0.0121042
0.0121319
0.0121599
0.0121872
0.0122149
0.0122422
0.01227
0.0122976
0.0123255
0.0123535
0.0123815
0.0124098
0.0124379
0.0124663
0.0124943
0.0125228
0.0125505
0.012578
0.0126043
0.0126309
0.0126567
0.0126824
0.0127077
0.0127329
0.012758
0.0127833
0.0128088
0.0128342
0.01286
0.0128856
0.0129121
0.0129384
0.0129659
0.0129924
0.0130201
0.0130469
0.0130733
0.0130992
0.0131252
0.0131505
0.0131759
0.0132005
0.0132254
0.0132494
0.013274
0.0132977
0.0133222
0.0133459
0.0133707
0.0133946
0.0134197
0.0134438
0.0134692
0.0134934
0.0135187
0.0135427
0.0135678
0.0135917
0.0136169
0.013641
0.0136664
0.0136907
0.0137274
0.000214817
0.00205471
0.00460447
0.00743442
0.0104506
0.0133999
0.0161651
0.018672
0.0209402
0.0228963
0.0245446
0.0259455
0.0270795
0.0279325
0.0284975
0.0287891
0.0288355
0.0285555
0.0268893
0.0250035
0.0233643
0.0218064
0.0204427
0.0191584
0.0181579
0.0169965
0.0157734
0.0147843
0.0139188
0.0128833
0.012418
0.0111128
0.0100745
0.00884123
0.00767809
0.00656405
0.00556522
0.00474657
0.00408272
0.00354387
0.00326267
0.00301661
0.00298841
0.00292277
0.00301006
0.00299101
0.00289498
0.00281831
0.0027341
0.0026671
0.00259528
0.00253263
0.00247271
0.00240792
0.00235643
0.00230236
0.00226715
0.0022345
0.00221338
0.0021981
0.00218841
0.00218644
0.00218533
0.00219211
0.00219705
0.00220964
0.00222328
0.00224507
0.00226561
0.00229187
0.00232041
0.00235322
0.00238926
0.00243073
0.00247671
0.00252783
0.00258372
0.00264499
0.00271137
0.00278362
0.00286077
0.00294392
0.00303333
0.00313001
0.00323324
0.00334198
0.00345695
0.0035782
0.00370312
0.00383299
0.00396572
0.00410561
0.00424921
0.00439759
0.00454931
0.00469813
0.0048529
0.00500671
0.00516847
0.00532003
0.00547809
0.00563117
0.00578458
0.00593216
0.00608573
0.00623098
0.006328
0.00643218
0.0065165
0.00662653
0.00674451
0.00687241
0.0069993
0.0071354
0.00727199
0.00734781
0.00741606
0.00748188
0.00756216
0.00765831
0.00776928
0.00789014
0.00802301
0.00816355
0.00830306
0.00840047
0.00847505
0.00853454
0.00857854
0.00863457
0.00867881
0.00873426
0.00878284
0.00885274
0.00891061
0.00901364
0.00911878
0.00925005
0.0093529
0.00945839
0.00955566
0.00964149
0.00972221
0.00979424
0.00986725
0.00994034
0.0100173
0.010093
0.0101588
0.0102351
0.0103062
0.0103883
0.0104565
0.0105303
0.010606
0.0106813
0.0107533
0.0108261
0.0108945
0.0109637
0.0110184
0.011068
0.0111165
0.011165
0.0112126
0.0112602
0.0113073
0.0113542
0.0114007
0.0114469
0.0114929
0.0115382
0.0115827
0.0116268
0.0116701
0.0117131
0.0117552
0.0117971
0.011838
0.011879
0.0119193
0.0119597
0.0119998
0.0120401
0.0120801
0.0121204
0.0121606
0.0122009
0.0122411
0.0122812
0.0123212
0.0123607
0.0124007
0.0124397
0.0124786
0.0125164
0.0125544
0.0125917
0.0126291
0.012666
0.0127028
0.0127394
0.0127762
0.0128129
0.0128495
0.0128861
0.0129224
0.0129594
0.012996
0.0130337
0.0130707
0.0131085
0.0131457
0.0131824
0.0132187
0.0132551
0.0132908
0.0133265
0.0133614
0.0133965
0.0134308
0.0134654
0.0134992
0.0135336
0.0135672
0.0136018
0.0136355
0.0136703
0.0137042
0.0137392
0.0137731
0.013808
0.0138415
0.0138761
0.0139094
0.0139438
0.0139772
0.0140117
0.0140451
0.0140954
0.000244175
0.00232278
0.00512212
0.00805255
0.0110825
0.0140727
0.0168525
0.0193565
0.0216108
0.0235646
0.0252101
0.0265843
0.0276534
0.028383
0.0287531
0.0287725
0.0274814
0.0258007
0.023703
0.0217939
0.0203742
0.0189024
0.0178268
0.0168149
0.0161601
0.0151942
0.0141408
0.013446
0.013009
0.0118906
0.0110995
0.00985452
0.00860693
0.00735303
0.00601239
0.00501524
0.00406233
0.0034323
0.00290672
0.00250685
0.00227902
0.00210946
0.00206295
0.00207817
0.00218733
0.00230046
0.00228905
0.00223965
0.00218821
0.00214291
0.00209513
0.00204809
0.00200018
0.00195108
0.00192596
0.00190008
0.00188617
0.00187307
0.00186395
0.0018577
0.00185251
0.001852
0.00185122
0.0018534
0.00185451
0.00185697
0.0018609
0.00186481
0.00187077
0.00187621
0.00188369
0.0018918
0.0019014
0.00191238
0.00192481
0.00193932
0.00195559
0.001973
0.00199235
0.00201481
0.00203779
0.00206461
0.00209505
0.00212967
0.0021681
0.00221076
0.00225769
0.00230966
0.00236628
0.00242745
0.00249347
0.00256519
0.00264402
0.00272894
0.00281908
0.00291652
0.00301868
0.00312852
0.00324288
0.00336474
0.00348946
0.00362022
0.0037534
0.00389091
0.00403075
0.00417689
0.00432681
0.00447793
0.00463225
0.00479022
0.00494807
0.00510811
0.00526573
0.00542427
0.00557849
0.00572396
0.0058676
0.00600642
0.00614885
0.00626013
0.00637123
0.00648144
0.00660293
0.00672307
0.00685498
0.00695831
0.00702527
0.00708481
0.00714594
0.0072012
0.00725952
0.0073219
0.00738248
0.00745613
0.00753711
0.00764578
0.00775105