/*--------------------------------*- C++ -*----------------------------------*\
| =========                 |                                                 |
| \\      /  F ield         | OpenFOAM: The Open Source CFD Toolbox           |
|  \\    /   O peration     | Version:  2312                                  |
|   \\  /    A nd           | Website:  www.openfoam.com                      |
|    \\/     M anipulation  |                                                 |
\*---------------------------------------------------------------------------*/
FoamFile
{
    version     2.0;
    format      ascii;
    arch        "LSB;label=32;scalar=64";
    class       volScalarField;
    location    "0.006";
    object      omega;
}
// * * * * * * * * * * * * * * * * * * * * * * * * * * * * * * * * * * * * * //

dimensions      [0 0 -1 0 0 0 0];

internalField   nonuniform List<scalar> 
48128
(
2.01614e+06
2.02083e+06
2.02462e+06
2.04194e+06
2.06842e+06
2.11899e+06
2.18794e+06
2.26177e+06
2.33333e+06
2.39553e+06
2.44343e+06
2.47903e+06
2.50691e+06
2.52367e+06
2.53286e+06
2.53646e+06
2.53433e+06
2.52676e+06
2.51415e+06
2.49614e+06
2.47107e+06
2.44256e+06
2.41247e+06
2.37847e+06
2.34304e+06
2.30681e+06
2.27181e+06
2.23892e+06
2.20785e+06
2.18333e+06
2.16309e+06
2.14961e+06
2.1427e+06
2.13734e+06
2.13332e+06
2.12892e+06
2.12322e+06
2.11036e+06
2.09576e+06
2.07596e+06
2.04905e+06
2.0426e+06
2.03941e+06
2.04499e+06
2.0484e+06
2.04338e+06
2.033e+06
2.01994e+06
2.00426e+06
1.98871e+06
1.97241e+06
1.95652e+06
1.93902e+06
1.92014e+06
1.89912e+06
1.87887e+06
1.85806e+06
1.83915e+06
1.81994e+06
1.80006e+06
1.78222e+06
1.76323e+06
1.74411e+06
1.72598e+06
1.70745e+06
1.69127e+06
1.67482e+06
1.65988e+06
1.64481e+06
1.63051e+06
1.61701e+06
1.6037e+06
1.59122e+06
1.5791e+06
1.56775e+06
1.55703e+06
1.54651e+06
1.53701e+06
1.52747e+06
1.51933e+06
1.51097e+06
1.50293e+06
1.49469e+06
1.48841e+06
1.48178e+06
1.47507e+06
1.46906e+06
1.46295e+06
1.45908e+06
1.45423e+06
1.44915e+06
1.44423e+06
1.4392e+06
1.43639e+06
1.43273e+06
1.42886e+06
1.42474e+06
1.42193e+06
1.41888e+06
1.41593e+06
1.41279e+06
1.41116e+06
1.40892e+06
1.4065e+06
1.40395e+06
1.40216e+06
1.40026e+06
1.39834e+06
1.3967e+06
1.39511e+06
1.3938e+06
1.39251e+06
1.39172e+06
1.39084e+06
1.39051e+06
1.38995e+06
1.38922e+06
1.38841e+06
1.38756e+06
1.38667e+06
1.38579e+06
1.38498e+06
1.38437e+06
1.38409e+06
1.38366e+06
1.38373e+06
1.38334e+06
1.3828e+06
1.38201e+06
1.38109e+06
1.38003e+06
1.37888e+06
1.37774e+06
1.3766e+06
1.37554e+06
1.37457e+06
1.37383e+06
1.37334e+06
1.37315e+06
1.37298e+06
1.37299e+06
1.37291e+06
1.37283e+06
1.3726e+06
1.3723e+06
1.37193e+06
1.37154e+06
1.37115e+06
1.37074e+06
1.37037e+06
1.37002e+06
1.36973e+06
1.3695e+06
1.36927e+06
1.36914e+06
1.369e+06
1.36891e+06
1.36879e+06
1.36867e+06
1.36851e+06
1.36832e+06
1.36808e+06
1.36781e+06
1.36749e+06
1.36713e+06
1.36673e+06
1.36631e+06
1.36587e+06
1.36546e+06
1.36501e+06
1.36466e+06
1.36434e+06
1.36409e+06
1.36392e+06
1.3638e+06
1.36373e+06
1.36371e+06
1.3637e+06
1.36375e+06
1.36378e+06
1.36383e+06
1.36385e+06
1.36386e+06
1.36382e+06
1.36375e+06
1.36364e+06
1.36347e+06
1.36326e+06
1.363e+06
1.36269e+06
1.36232e+06
1.36192e+06
1.36152e+06
1.36109e+06
1.36079e+06
1.36059e+06
1.36052e+06
1.36051e+06
1.36064e+06
1.36078e+06
1.36094e+06
1.36109e+06
1.36116e+06
1.36117e+06
1.3611e+06
1.36094e+06
1.36069e+06
1.36036e+06
1.35996e+06
1.35952e+06
1.35906e+06
1.35867e+06
1.35821e+06
1.35791e+06
1.35775e+06
1.35757e+06
1.3575e+06
1.35743e+06
1.35741e+06
1.35739e+06
1.35736e+06
1.35733e+06
1.35729e+06
1.35722e+06
1.35713e+06
1.35701e+06
1.35687e+06
1.3567e+06
1.35652e+06
1.35632e+06
1.35612e+06
1.3559e+06
1.35568e+06
1.35546e+06
1.35524e+06
1.35501e+06
1.35478e+06
1.35454e+06
1.3542e+06
1.35408e+06
722000
514051
729304
886470
982080
1.00651e+06
957357
905808
855851
814756
784835
764010
750103
740736
734920
731137
728180
725670
723486
721758
718318
716682
711396
708172
705811
704262
703217
702847
713212
723285
734442
746562
759523
772866
785684
797888
808285
817556
824394
830205
834775
840479
847155
851984
854306
853784
851645
847935
843055
837288
830994
824218
817127
809190
800267
790589
780497
770188
759922
749571
738955
729234
719385
709614
700146
690493
681551
672478
664077
655874
647898
640452
633157
626325
619678
613381
607491
601920
596299
591176
586915
582496
578014
573469
570006
566448
562809
558962
555536
553430
551038
548415
545536
542709
541186
539399
537435
535163
533575
531935
530237
528388
527517
526516
525393
524088
523146
522234
521272
520354
519383
518477
517659
516855
516455
516185
516046
515883
515702
515526
515289
515002
514629
514570
514501
514688
514966
515285
515628
515826
516047
516159
516133
516083
516007
515878
515650
515415
515230
515232
515228
515343
515515
515768
515977
516199
516415
516644
516877
517116
517304
517517
517736
517965
518200
518463
518736
519040
519361
519695
520078
520408
520804
521143
521521
521863
522207
522532
522840
523189
523383
523599
523780
523964
524148
524328
524510
524684
524865
525057
525256
525478
525715
525949
526202
526443
526696
526940
527191
527434
527664
527889
528051
528269
528246
528271
528313
528328
528339
528379
528420
528525
528662
528805
528960
529124
529292
529476
529615
529763
529867
529921
529996
529905
529859
529826
529774
529736
529691
529670
529652
529640
529642
529650
529667
529689
529716
529742
529772
529791
529815
529825
529838
529834
529836
529823
529818
529804
529752
529579
721591
347873
490188
572902
598209
570189
518990
477687
445915
424527
411873
405579
403158
402819
405199
408335
412131
416348
420977
425935
431020
436694
442370
449588
457708
466963
478010
490842
506864
523326
541106
559773
579319
599178
618610
637093
654003
668832
680730
690407
698484
703874
708046
709210
708777
706740
703332
698591
692953
686542
679460
671842
663707
655001
645671
635902
625726
615337
604821
594204
583415
573146
562916
552712
542881
532960
523563
514191
505288
496596
488167
480105
472289
464823
457622
450715
444154
437840
431782
425780
420676
415521
410473
405325
400984
396714
392435
388193
383840
380651
377400
374072
370675
367109
364539
361925
359256
356415
354009
351646
349275
346765
344900
343018
341118
339129
337385
335726
334047
332450
330826
329289
327731
326297
324890
323707
322602
321529
320484
319521
318577
317637
316677
315829
315043
314228
313696
313149
312700
312245
311824
311399
310966
310532
310097
309645
309135
308618
308088
307611
307103
306681
306261
305899
305548
305221
304900
304590
304325
304047
303772
303508
303259
303030
302795
302597
302393
302227
302066
301920
301812
301695
301622
301539
301485
301430
301380
301338
301294
301262
301208
301146
301076
301002
300927
300852
300776
300702
300625
300561
300492
300448
300404
300372
300349
300332
300333
300335
300345
300356
300373
300393
300402
300414
300377
300330
300278
300216
300142
300073
300000
299937
299908
299882
299865
299860
299865
299881
299891
299907
299926
299920
299925
299873
299817
299758
299687
299617
299542
299473
299405
299337
299277
299218
299168
299120
299080
299039
299005
298969
298937
298902
298870
298832
298799
298758
298724
298686
298638
298508
720343
320288
399951
432586
429767
393371
360652
333893
316522
307277
303487
302742
304775
308193
312744
317773
323346
329339
335846
342814
350414
358943
368497
379638
392258
406725
422884
440851
461127
482309
505129
528992
553925
579230
603696
626774
647464
665549
679695
690249
700091
704088
706780
705973
703696
699350
693875
687148
679817
671593
662659
653114
643050
632438
621206
609653
597797
585821
573842
561934
549910
538466
527098
515810
504951
494121
483809
473645
463903
454411
445216
436340
427796
419574
411678
404048
396808
389802
383139
376503
370710
364933
359321
353648
348661
343828
338994
334279
329421
325521
321683
317803
313921
309889
306652
303489
300295
297005
294052
291190
288349
285407
282967
280556
278163
275720
273469
271328
269178
267128
265065
263091
261093
259230
257348
255683
254075
252504
250985
249540
248142
246756
245390
244073
242849
241566
240538
239497
238559
237649
236796
235976
235176
234397
233643
232893
232112
231343
230565
229826
229066
228363
227659
227000
226357
225736
225129
224537
223988
223428
222890
222360
221846
221360
220868
220416
219959
219536
219122
218723
218356
217988
217657
217328
217026
216734
216454
216189
215929
215687
215438
215192
214943
214702
214463
214231
213997
213771
213542
213327
213106
212907
212707
212520
212339
212168
212014
211860
211726
211589
211469
211348
211239
211127
211000
210870
210740
210606
210466
210324
210180
210040
209908
209788
209672
209566
209466
209381
209294
209219
209151
209076
209014
208925
208831
208737
208634
208530
208423
208315
208209
208101
207999
207896
207800
207705
207617
207529
207448
207366
207290
207212
207140
207065
206996
206921
206855
206786
206714
206576
721495
309389
345179
355163
338880
309916
285699
269179
260374
256788
256180
258483
262341
267059
272559
278591
285198
292338
300225
308915
318728
329942
342696
357444
374092
392800
413252
435578
460423
487070
515911
546093
577556
609838
639676
667984
690319
709374
722347
730121
738118
737978
736716
732116
726335
718665
710270
700764
690744
679783
668352
656264
644120
631517
618522
605184
591966
578598
565741
553042
540163
528263
516206
504466
493116
481690
471044
460334
450223
440216
430623
421349
412391
403787
395517
387538
379938
372615
365658
358667
352503
346450
340542
334570
329195
324027
318879
313837
308646
304283
300105
295897
291695
287354
283682
280179
276660
273067
269750
266547
263390
260134
257311
254578
251870
249122
246531
244053
241588
239212
236843
234563
232259
230090
227896
225914
223997
222121
220308
218561
216869
215182
213539
211910
210388
208805
207462
206119
204874
203669
202518
201409
200331
199286
198264
197268
196249
195255
194252
193299
192333
191418
190509
189644
188800
187976
187171
186382
185634
184880
184150
183431
182728
182057
181380
180745
180105
179504
178907
178334
177782
177244
176727
176227
175746
175284
174834
174404
173979
173579
173176
172786
172393
172014
171641
171279
170918
170569
170217
169882
169544
169225
168907
168603
168306
168017
167746
167476
167229
166978
166749
166516
166304
166089
165870
165653
165445
165235
165022
164811
164600
164390
164184
163991
163800
163617
163439
163272
163110
162957
162815
162669
162541
162399
162253
162112
161965
161819
161672
161524
161378
161230
161088
160945
160809
160672
160543
160413
160291
160167
160051
159933
159823
159710
159604
159494
159393
159289
159191
159021
724526
297746
306090
305459
283483
261236
243832
233670
229079
227878
229468
233229
237986
243559
249843
256817
264431
272801
282198
292782
304905
318897
334942
353254
373760
397119
422633
450243
481021
514089
549637
586642
622627
658858
686637
713621
729593
743990
751677
753831
755298
750877
743796
733742
722146
709302
695650
681696
667150
652336
638234
623349
610387
596772
584326
571260
559485
547243
536224
525183
513830
503691
493231
483333
473592
463584
454212
444561
435438
426219
417313
408694
400171
392058
384133
376551
369201
362174
355421
348583
342407
336529
330673
324725
319244
314058
308900
303801
298574
294020
289786
285516
281221
276803
272927
269300
265646
261929
258434
255056
251735
248315
245277
242364
239470
236545
233748
231063
228410
225825
223266
220790
218292
215924
213516
211332
209220
207157
205155
203209
201321
199440
197608
195766
194035
192252
190698
189163
187713
186306
184951
183644
182362
181122
179895
178708
177501
176321
175133
174005
172866
171785
170713
169687
168689
167711
166756
165819
164913
164017
163141
162277
161430
160617
159799
159025
158245
157508
156770
156067
155372
154705
154050
153421
152807
152213
151635
151077
150523
149996
149471
148963
148452
147958
147473
147001
146532
146079
145624
145188
144751
144333
143920
143519
143128
142744
142381
142017
141678
141334
141015
140691
140392
140090
139791
139494
139209
138928
138645
138367
138091
137816
137548
137291
137035
136787
136544
136312
136085
135868
135663
135455
135267
135070
134871
134681
134488
134296
134106
133916
133730
133543
133362
133180
133005
132830
132663
132495
132335
132174
132021
131866
131720
131571
131431
131287
131153
131015
130888
130681
729921
285343
277223
268811
247744
229872
217230
210616
208252
208228
211294
215706
221136
227430
234470
242333
250994
260684
271712
284324
298882
315892
335324
357704
382613
411204
442582
476005
512848
551213
590020
629595
661398
693452
711611
730623
736804
740174
735447
725854
712915
697590
679735
661892
643047
627024
609702
594657
578753
564140
550855
536970
526337
514962
505949
496284
488244
479649
472181
464536
456602
449411
441971
434945
428007
420763
414198
407450
401075
394634
388291
382062
375779
369715
363620
357748
351904
346247
340584
334818
329363
324262
319102
313834
308797
304065
299363
294650
289855
285454
281465
277443
273367
269195
265352
261788
258231
254616
251132
247751
244443
241065
237966
235017
232106
229172
226319
223580
220871
218216
215604
213058
210495
208036
205548
203258
201053
198894
196785
194722
192729
190750
188796
186837
184981
183098
181409
179751
178176
176644
175158
173724
172306
170935
169562
168241
166897
165580
164261
162999
161735
160528
159334
158185
157073
155975
154908
153852
152831
151826
150836
149861
148906
147982
147058
146175
145291
144446
143603
142795
141995
141225
140468
139734
139019
138320
137642
136980
136329
135698
135078
134470
133865
133275
132698
132133
131575
131032
130491
129969
129450
128947
128455
127973
127505
127042
126603
126161
125745
125325
124930
124532
124158
123783
123417
123049
122696
122348
122000
121662
121324
120992
120667
120352
120039
119736
119437
119150
118868
118597
118336
118076
117834
117588
117340
117102
116863
116628
116396
116166
115940
115714
115495
115276
115065
114854
114652
114449
114254
114059
113872
113684
113504
113323
113150
112975
112810
112641
112484
112239
737151
272694
255559
242316
222718
207984
198389
193763
192392
193367
197032
201850
207785
214670
222387
231083
240817
251870
264655
279483
296737
317075
340368
367415
397220
431064
468023
505745
544868
584280
618678
653422
673991
695735
697051
694820
685933
672315
654766
634575
609577
586577
560772
539999
517104
499196
480083
465730
450721
438371
427336
416514
409124
401302
395966
390383
386564
382420
379478
376543
373842
371605
369202
366834
364296
361431
358668
355773
352792
349615
346290
342796
339118
335314
331384
327382
323308
319306
315285
311209
307148
303374
299569
295677
291792
288083
284423
280710
276912
273203
269773
266408
262954
259399
255943
252705
249550
246345
243141
240034
236982
233892
230952
228152
225424
222672
219949
217318
214708
212150
209614
207128
204627
202196
199769
197465
195266
193098
190991
188904
186907
184911
182944
180971
179081
177190
175441
173731
172109
170520
168974
167472
165990
164547
163105
161706
160292
158896
157507
156165
154830
153539
152270
151040
149848
148671
147523
146391
145288
144205
143139
142085
141053
140050
139052
138088
137132
136206
135290
134401
133527
132675
131845
131029
130238
129458
128704
127959
127235
126523
125828
125142
124462
123796
123145
122504
121874
121257
120647
120053
119468
118895
118338
117788
117257
116729
116225
115720
115241
114758
114300
113840
113403
112968
112543
112118
111704
111298
110894
110500
110108
109725
109348
108983
108620
108269
107922
107587
107258
106942
106633
106327
106039
105748
105456
105175
104895
104619
104348
104079
103817
103555
103301
103047
102802
102558
102323
102087
101862
101634
101417
101198
100988
100777
100575
100371
100177
99980.8
99794.7
99513.1
745861
261212
238684
222262
204397
191582
183883
180325
179435
180969
184808
189848
196101
203425
211743
221251
232090
244606
259380
276853
297128
321389
349091
380866
415297
452766
492614
531241
566844
601372
626251
650965
652182
649417
638413
621077
598716
571441
540249
511141
478521
454113
427625
408402
387875
372799
356996
345574
333900
325002
316560
309527
304313
298978
295301
291557
289162
286647
285252
283829
283112
282944
282881
283147
283522
283970
284620
285211
285977
286533
287123
287543
287506
287286
286740
285878
284647
283160
281445
279510
277409
275269
273057
270707
268246
265748
263221
260616
257908
255158
252533
250001
247413
244731
242009
239389
236895
234362
231787
229274
226754
224192
221667
219230
216876
214496
212100
209740
207410
205112
202810
200546
198261
196013
193757
191581
189503
187442
185458
183475
181575
179668
177794
175899
174071
172230
170513
168810
167216
165631
164107
162601
161139
159690
158265
156852
155453
154042
152642
151273
149921
148596
147300
146036
144806
143595
142407
141239
140095
138970
137867
136773
135700
134652
133615
132602
131604
130627
129667
128725
127803
126897
126015
125142
124299
123462
122654
121852
121073
120306
119556
118815
118082
117359
116652
115955
115271
114597
113936
113286
112650
112023
111415
110812
110231
109652
109096
108540
108009
107477
106967
106458
105969
105486
105009
104539
104074
103621
103168
102728
102290
101863
101442
101035
100629
100237
99848.4
99474.2
99104.5
98748.9
98399.5
98054.5
97726.5
97396.1
97066.8
96746.9
96430.9
96118.8
95813.3
95510.4
95214.4
94920.1
94633.7
94348.9
94073.1
93798.4
93533.7
93268.8
93014.2
92758.7
92513.4
92266.4
92029.8
91791.1
91562.8
91332.2
91112.5
90891.1
90678.1
90362.6
755725
251005
224177
206347
190014
178644
171998
168967
168279
169982
173747
178821
185215
192855
201743
212124
224223
238478
255701
276346
300290
328746
360812
396288
433893
473251
512511
548075
575074
602685
611657
611424
602055
584822
561015
529066
493546
455430
420029
391496
363250
343640
323823
310707
297205
287777
278028
270881
263564
257913
252118
247502
243365
239198
235522
231722
228504
225194
222593
220086
218051
216611
215136
214435
213723
213683
213968
214479
215360
216461
217874
219454
221180
223036
224802
226644
228216
229838
231070
232318
233061
233746
234172
234471
234374
234097
233601
232864
231876
230683
229392
228050
226645
225104
223443
221728
220043
218309
216511
214676
212817
210908
208974
207057
205204
203321
201416
199491
197591
195709
193826
191976
190100
188202
186270
184364
182531
180705
178937
177175
175461
173756
172061
170340
168646
166933
165319
163691
162185
160671
159238
157800
156427
155044
153701
152360
151034
149689
148345
147011
145694
144391
143115
141864
140647
139444
138268
137102
135965
134840
133743
132646
131571
130514
129471
128442
127431
126434
125457
124490
123546
122612
121704
120804
119932
119066
118228
117396
116588
115788
115008
114235
113471
112714
111973
111241
110523
109812
109117
108429
107758
107094
106450
105811
105192
104576
103982
103389
102819
102249
101700
101154
100625
100105
99588.8
99082.4
98579.4
98089.5
97600.4
97124
96649.9
96188.1
95731.8
95289.6
94850.2
94424.8
94002.3
93595
93191.8
92803.5
92420.6
92043.1
91681.1
91317.8
90957
90605
90258.2
89915.5
89579.9
89247.7
88922.6
88600
88285.5
87973.3
87670.3
87369
87077.8
86787.1
86506.8
86226.2
85955.9
85684.6
85423.7
85160.9
84908.9
84655
84411.8
84168.2
83931.2
83584.3
765991
241807
211362
193286
178303
167990
161850
159006
158337
159921
163444
168393
174805
182705
192218
203674
217433
233995
254234
278560
306630
338963
374671
413269
453032
492683
526861
555609
572195
581785
575641
562552
540820
510383
471649
427439
388821
351842
323517
300510
283377
270508
260668
253730
247413
243253
238610
234964
231089
227568
223715
219842
215869
211803
207615
203214
199168
195069
191374
187924
184670
181831
179068
176654
174372
172300
170763
169189
168197
167221
166712
166436
166546
166888
167456
168297
169353
170644
172102
173744
175467
177299
179201
181243
183194
185133
186962
188711
190369
191638
192782
193676
194583
195186
195587
195648
195588
195384
195010
194438
193726
192873
191903
190853
189771
188624
187426
186160
184861
183546
182215
180869
179492
178073
176599
175101
173616
172126
170658
169201
167771
166361
164947
163512
162053
160567
159128
157671
156304
154927
153626
152313
151065
149804
148592
147374
146176
144958
143734
142508
141285
140066
138869
137682
136531
135384
134271
133154
132071
130991
129942
128884
127846
126818
125805
124798
123809
122826
121863
120905
119970
119041
118136
117237
116365
115498
114658
113823
113010
112204
111416
110635
109861
109093
108340
107594
106862
106135
105423
104717
104027
103343
102678
102017
101375
100737
100118
99502.5
98906.7
98313.9
97739.1
97169
96614.1
96070.8
95528.9
94998.7
94471.2
93956.5
93442.8
92941.5
92442.2
91955.2
91473.3
91005.6
90540.4
90089.5
89641.3
89208.2
88778.8
88364.7
87955.8
87552.9
87164
86775.3
86389.7
86012.4
85640.8
85273.8
84913.5
84557.3
84208
83862.1
83524.1
83189.1
82863.1
82539.6
82225.6
81913.2
81610.6
81308.8
81016.6
80724.5
80442.2
80159.1
79886
79612.3
79348.2
79085.3
78827.5
78452.5
776216
233904
200212
182332
168470
158881
153004
150096
149311
150587
153759
158488
164877
173090
183423
196402
212447
231974
255786
284256
316554
353183
392649
434193
475657
510304
534991
555310
554973
549376
533521
507363
471100
424330
379384
336013
304548
276296
258253
242521
233712
226231
222362
219785
218288
217031
215809
214462
212438
210025
206864
203197
199094
194679
190247
185579
181359
177070
173176
169333
165732
162496
159411
156603
153927
151354
149117
146858
144899
142967
141220
139650
138165
136949
135756
134828
133981
133360
132906
132616
132624
132786
133143
133752
134571
135610
136838
138273
139868
141572
143363
145233
147236
149279
151393
153325
155279
157089
158946
160496
161981
163155
164207
164927
165620
166047
166427
166532
166490
166346
166077
165679
165162
164535
163784
162932
162013
161050
160067
159066
158050
157018
155964
154876
153743
152568
151383
150182
149021
147849
146725
145586
144500
143403
142354
141300
140279
139244
138195
137140
136076
135010
133951
132887
131855
130819
129814
128800
127811
126821
125856
124883
123921
122966
122020
121078
120149
119221
118310
117402
116512
115626
114760
113897
113057
112219
111404
110593
109800
109014
108244
107480
106722
105968
105226
104490
103767
103047
102340
101637
100949
100264
99596.6
98932.3
98285.4
97641.4
97015.8
96392.7
95788.3
95186.8
94602.4
94023.5
93458
92905.8
92353.4
91813
91274.3
90747.2
90220.3
89704.7
89190.2
88687.3
88188.7
87703.9
87221.2
86753
86287
85836.2
85388.7
84957.1
84530.5
84110.7
83703.3
83297.4
82893.7
82498.3
82108.1
81723
81343.5
80968.9
80601.1
80237.4
79881.2
79528.7
79184.5
78843.5
78511.1
78181.4
77860.4
77541.4
77231
76921.8
76621.6
76321.8
76030.9
75740.5
75458.9
75179.2
74904
74504.6
785885
227096
190527
173061
160057
150980
145195
142093
141064
141939
144713
149210
155649
164386
175952
191069
210188
233341
261513
295033
332512
374280
417760
461370
499247
523069
537307
539228
531265
513352
483522
439442
389714
340291
301700
269578
246891
228246
215252
204287
197810
192340
190311
190290
191578
193350
195732
195610
194309
192529
189455
185660
181500
177259
173218
169018
165117
161127
157513
153841
150549
147464
144578
141923
139477
137070
134944
132805
130852
128928
127097
125372
123675
122129
120560
119134
117688
116395
115084
113941
112783
111809
110828
110066
109328
108801
108308
108026
107830
107855
107987
108260
108727
109382
110241
111265
112464
113835
115402
117104
118931
120831
122787
124745
126733
128713
130754
132695
134594
136389
138039
139540
140821
141906
142765
143347
143773
144014
144190
144178
144085
143889
143584
143163
142634
141996
141281
140511
139709
138885
138055
137207
136382
135545
134732
133908
133104
132285
131448
130600
129738
128868
127990
127103
126227
125344
124480
123608
122747
121891
121052
120205
119359
118516
117677
116837
116004
115172
114348
113527
112716
111908
111114
110321
109545
108767
108008
107250
106506
105768
105042
104323
103608
102897
102193
101497
100808
100122
99445.9
98771.8
98108.9
97448.5
96802.8
96158.4
95529.5
94902.3
94291.6
93681.7
93088.9
92497.2
91921.3
91350.7
90791.2
90246
89699.7
89164.6
88629.9
88105.5
87579.9
87063.6
86547.1
86040.9
85537.4
85046.9
84557.7
84082.6
83608.8
83150.1
82694.2
82255
81820
81393
80975.8
80563
80149.8
79744.9
79344.3
78949
78558.2
78172.5
77792.5
77417.3
77048.3
76683.8
76326.3
75973
75626.6
75284
74948.7
74616.6
74291.8
73969.4
73654.8
73341.9
73036.8
72732.8
72437.1
72143.4
71854.1
71434.5
794735
221671
182068
165128
152804
144076
138277
134932
133571
134031
136439
140797
147492
157186
170620
188661
211707
239882
273778
313779
357647
404723
451494
489998
518210
528902
528884
520550
500182
465499
415999
360748
314646
276169
248319
226296
209566
195923
185349
175812
168540
161792
156555
151076
146779
142592
140162
139754
140583
142418
145525
149467
154201
154573
152933
150270
147683
144905
142191
139409
136858
134305
131860
129549
127391
125314
123449
121549
119798
118067
116410
114823
113260
111807
110332
108948
107546
106235
104907
103674
102426
101268
100102
99022.1
97962.1
96974.7
96020.2
95099.9
94257.1
93419.4
92686
91935.9
91339.3
90737.8
90326.9
89908.6
89671.8
89434.8
89443.8
89536.7
89752
90094.3
90576.4
91198
91975
92922.6
94064.6
95382.6
96894.4
98578.2
100415
102367
104389
106437
108498
110430
112309
114099
115877
117533
119121
120518
121805
122847
123749
124362
124835
125084
125252
125246
125199
125087
124933
124727
124479
124174
123825
123420
122962
122461
121921
121347
120742
120112
119464
118801
118130
117447
116757
116061
115371
114675
113974
113271
112565
111856
111145
110433
109723
109012
108307
107600
106907
106211
105524
104833
104155
103477
102809
102144
101489
100841
100192
99548.3
98906.6
98273.2
97641.7
97014.3
96390.1
95769
95154.2
94542.2
93940.8
93340.6
92752.6
92165.5
91592.3
91018.7
90459.3
89898.8
89351.1
88807.9
88272.8
87751.7
87229
86717.4
86205.2
85702.2
85196.8
84698.4
84198.2
83706.2
83215.1
82734.9
82254.7
81787.2
81319.7
80866.4
80415.1
79980.4
79548.5
79126
78709.2
78300.8
77889.3
77486.1
77085.8
76690.7
76299.2
75912.6
75529.8
75151.9
74778.3
74409.6
74045.9
73686.9
73333.4
72984
72640.5
72300.8
71967.5
71637.1
71313.6
70992.2
70677.8
70364.8
70059.4
69755.9
69456.5
69022.6
802380
216971
174719
158270
146531
138062
132199
128585
126902
126992
129152
133603
140954
152207
168436
190550
219282
254229
295683
343351
393666
444435
487382
514194
527830
526405
516444
492083
452486
396720
341522
295651
261038
234367
214128
198054
184921
173376
163144
153560
144917
136551
128758
121457
114714
108262
102634
97972.3
95181.5
94783.2
96085.6
99277.5
104543
110744
118025
123889
130623
129912
128412
126667
124689
122620
120525
118579
116688
114898
113248
111539
109983
108424
106936
105513
104115
102815
101495
100261
99011.1
97833.4
96642.2
95524.4
94395.4
93331.9
92259.2
91244.5
90234.4
89273.6
88329
87403.5
86511.1
85622.6
84776.8
83915.5
83113.7
82305.3
81575.9
80848.3
80166
79496.1
78876.7
78298.6
77763
77276.4
76817.4
76432.5
76072.6
75823.5
75619.1
75577.9
75645.8
75820.7
76122.9
76557
77124.6
77819
78633.6
79557.5
80606.6
81802.9
83154.1
84652.4
86281.6
88009.4
89801
91610
93452.3
95118.6
96784.6
98245.9
99683.4
100938
102209
103353
104527
105546
106575
107448
108244
108917
109434
109834
110092
110262
110295
110252
110149
109983
109762
109487
109162
108793
108389
107957
107500
107022
106524
106008
105477
104933
104377
103813
103241
102663
102082
101498
100916
100330
99750.7
99168.6
98591.3
98015.9
97445.8
96881.2
96315.4
95752.7
95191
94638.2
94081.3
93528.8
92974.2
92423.5
91874
91328
90788.3
90249.3
89719.3
89188.8
88669.4
88148.5
87638.9
87126.6
86624
86125.3
85632.1
85151.4
84669.3
84197.8
83725.3
83260.3
82792
82328.7
81862.4
81401.8
80940.4
80487.6
80033.5
79590.1
79145.8
78713.8
78283
77867
77452.7
77047.6
76645.1
76252.6
75855.9
75467
75079.6
74696.9
74316.9
73941.3
73568.1
73199.1
72832.7
72470.6
72111.8
71757.1
71406.8
71059.7
70717.8
70378.9
70045.7
69715.1
69390.6
69068
68751.7
68436.3
68128
67821.2
67517.6
67077.8
808889
214148
168442
152334
141125
132879
126941
123068
121101
121022
123128
128016
136653
150521
170999
199216
235850
279531
329568
384566
440324
486316
518265
528863
528451
516277
488537
442150
384211
328089
284945
251899
227029
207619
192139
179199
167899
157609
148028
138970
130504
122377
114590
107101
99962.8
93138.2
86625.8
80417.7
75051.6
71186.7
68205.9
65812.3
65900.9
68268.3
73696.9
81451.5
90319.9
100537
106934
113387
112745
111586
110013
108335
106599
104969
103486
101958
100629
99288
98005.5
96779.5
95574.7
94447.9
93306.4
92241.3
91163.1
90144.4
89113.7
88141.7
87159.8
86231.6
85294
84405.2
83510.3
82658.4
81814
80993.1
80187.7
79391
78622.4
77841.2
77092.7
76337.5
75629.5
74920.9
74244.6
73563.4
72908.5
72261.5
71641
71029.9
70430.5
69847.4
69269.2
68719.6
68188.8
67700.8
67249.6
66845
66474.4
66154.9
65866.4
65636.1
65428
65286
65166.8
65183.2
65273.4
65459.2
65750.5
66152
66662
67272.2
67975.7
68756.9
69614.1
70540.5
71541
72613.9
73779.8
75039.4
76410.8
77869.1
79434.6
81059
82739.5
84436.9
86112
87696.9
89196.3
90563.2
91823.4
92936.4
93945
94820.1
95594.9
96251.1
96804
97248.3
97589.5
97849.1
98004.3
98092.6
98080.3
98022.9
97911.9
97749
97538
97284.3
96992.1
96665.9
96309.3
95929.2
95531.3
95117.3
94691.9
94256.3
93812.9
93363.4
92910.2
92453.2
91991.5
91525.5
91055.1
90586.9
90114.6
89643.7
89168.9
88695.7
88220.5
87746.8
87276.5
86805.3
86340.8
85873.4
85417.9
84959.5
84509
84054.8
83608
83164
82724.5
82294.6
81864.5
81442.7
81020.2
80603.2
80183.6
79767.3
79347.9
78931.4
78513.3
78101.5
77687.8
77282.5
76876
76479.3
76082.9
75698.6
75315.6
74940.3
74566.4
74201.6
73832.9
73470.6
73109
72751
72395
72041.9
71690.6
71342
70995.5
70651.7
70310.5
69971.9
69637.1
69303.9
68975.1
68647.8
68325.4
68004.5
67688.9
67374.4
67065.5
66756.8
66454.4
66153
65853.3
65419.1
813971
211312
163109
147249
136494
128476
122494
118409
116239
116271
118667
124601
135562
153764
180863
217752
264484
317608
375730
437486
490987
522748
536569
532656
518504
487190
435979
375017
320664
278744
247469
223869
205589
190660
177970
166764
156618
147245
138424
130085
122172
114506
107102
99990.8
93157
86600.1
80288.6
74296.7
68580.9
63186.8
58143
53471.3
49399.4
47714.5
47662.2
48865.8
53096.6
60771.8
70422.4
81271
89036.9
97192.3
97756.8
97277.8
96396.9
95348.5
94238.3
93071.4
91999.1
90907.3
89863
88844.6