/*--------------------------------*- C++ -*----------------------------------*\
| =========                 |                                                 |
| \\      /  F ield         | OpenFOAM: The Open Source CFD Toolbox           |
|  \\    /   O peration     | Version:  2312                                  |
|   \\  /    A nd           | Website:  www.openfoam.com                      |
|    \\/     M anipulation  |                                                 |
\*---------------------------------------------------------------------------*/
FoamFile
{
    version     2.0;
    format      ascii;
    arch        "LSB;label=32;scalar=64";
    class       volScalarField;
    location    "0.006";
    object      p;
}
// * * * * * * * * * * * * * * * * * * * * * * * * * * * * * * * * * * * * * //

dimensions      [1 -1 -2 0 0 0 0];

internalField   nonuniform List<scalar> 
48128
(
2370.45
2365.75
2363.88
2350.23
2337.9
2314.28
2274.47
2225.48
2173.43
2125.19
2087.65
2060.86
2040.11
2030.06
2028.47
2032.77
2043.37
2060.6
2084.73
2116.94
2161.52
2216.2
2280.54
2357.33
2448.35
2553.91
2674.49
2809.52
2963.28
3133.05
3323.29
3531.44
3760.93
4008.74
4277.95
4561.85
4869.76
5178.36
5507.13
5832.5
6153.33
6476.79
6795.13
7106.41
7414.33
7719.52
8018.46
8306.74
8582.35
8850.08
9104.53
9353.08
9583.82
9811.92
10019.4
10222.5
10407.1
10580.3
10739.6
10878.6
11012.7
11127.5
11238.7
11347.2
11439.7
11531.7
11604.1
11674.6
11729.9
11785
11835.7
11880.6
11926.8
11968.1
12009.9
12048
12086.8
12131
12163.1
12199.5
12270.8
12317
12339.4
12362.9
12425.7
12460.4
12478.7
12490.7
12502.1
12591.4
12629.1
12642.7
12651.3
12658.5
12737.3
12770.4
12780.2
12789.4
12822.3
12841.3
12850.6
12857.7
12910.9
12935.9
12946.3
12956.7
12980.7
12994.7
13004.5
13010.8
13008.7
12999.4
12986.7
12980.4
12975.1
12994.1
13010.2
13025.6
13041.8
13055.9
13061
13055.1
13044.9
13040.2
13040.9
13043.9
13078.5
13103.5
13137.4
13170.2
13203.2
13233.5
13258.7
13279.8
13293.7
13300.9
13297.4
13290.7
13285.5
13282.6
13281.5
13285
13288.1
13296.5
13302.5
13308.7
13313.5
13318.9
13324.3
13325.6
13328.3
13327.5
13328
13326.9
13325.1
13324.1
13323.2
13323.6
13324.3
13326.5
13328.9
13333.4
13338.4
13344.8
13351.5
13359.2
13366.4
13373.4
13379.9
13386.6
13389
13392.9
13392.9
13393.3
13392.7
13391.4
13389.4
13387
13384.3
13382.2
13379.9
13378.6
13378
13378.5
13379.8
13382.3
13385.6
13390
13395.4
13402.4
13409.9
13417.7
13424.1
13429.7
13429.8
13429.3
13426.6
13422.1
13416.8
13411.6
13406.8
13403.1
13401.3
13401.6
13403.5
13406.9
13411.7
13417.9
13425.4
13432.4
13438.6
13443.9
13449.9
13448.6
13449.7
13450.2
13448.7
13447.6
13445.7
13443.8
13441.8
13440
13438.6
13437.5
13436.8
13436.5
13436.6
13436.9
13437.3
13437.9
13438.5
13439.2
13439.9
13440.8
13441.5
13442.7
13443.6
13445.2
13446.5
13440.1
2371.75
2365.96
2364.15
2351.32
2338.67
2312.34
2271.7
2222.3
2169.72
2124.72
2093.29
2066.11
2044.48
2033.99
2031.83
2035.85
2046.17
2063.21
2087.88
2120.38
2160.27
2212.39
2275.38
2351.2
2440.83
2544.58
2662.63
2796.36
2948.34
3115.21
3301.93
3506.55
3732.37
3976.39
4240.95
4520.43
4824.06
5129.58
5454.62
5777.29
6096.42
6415.41
6731.16
7042.39
7351.78
7656.44
7955.04
8244.08
8521.12
8789.7
9045.64
9294.65
9526.83
9755.26
9964.37
10169.4
10356.2
10531.2
10691.4
10833.7
10968.3
11085
11200.4
11310.9
11406.9
11500.3
11574.4
11646.1
11703.1
11760.6
11812.6
11859.2
11907.2
11950.2
11993.3
12032.1
12072.4
12118.8
12150.5
12186
12260.9
12308.6
12330.3
12352.6
12417.5
12453.4
12472.6
12483.7
12491.9
12585.9
12625
12639
12646.6
12651
12732.9
12767.4
12777
12785.1
12818.5
12838.3
12847.4
12853.4
12908
12933.7
12944.3
12954.1
12978.1
12992.6
13002.5
13008.8
13006.7
12997.3
12984.7
12978.3
12973.1
12993.3
13009.2
13024.9
13040.9
13055
13060.2
13054
13043.7
13039.2
13040
13043.1
13078.3
13103
13137.3
13169.8
13202.6
13233.1
13258.2
13279.1
13293
13300.5
13296.8
13290
13284.9
13282.2
13280.9
13284.5
13287.7
13296
13302.2
13308.4
13313.2
13318.6
13324
13325.3
13328
13327.3
13327.8
13326.7
13324.9
13323.8
13323
13323.4
13324.1
13326.3
13328.8
13333.3
13338.3
13344.7
13351.4
13359.2
13366.3
13373.4
13379.8
13386.5
13389
13392.8
13392.9
13393.3
13392.7
13391.3
13389.3
13387
13384.3
13382.1
13379.8
13378.6
13378
13378.5
13379.8
13382.3
13385.6
13390
13395.4
13402.4
13409.9
13417.7
13424.1
13429.7
13430
13429.3
13426.6
13422.2
13416.8
13411.6
13406.8
13403.1
13401.3
13401.7
13403.5
13406.9
13411.8
13417.9
13425.4
13432.4
13438.6
13443.9
13449.9
13448.7
13449.8
13450.2
13448.8
13447.6
13445.7
13443.9
13441.9
13440.1
13438.6
13437.5
13436.8
13436.6
13436.6
13436.9
13437.3
13437.9
13438.5
13439.3
13440
13440.8
13441.6
13442.7
13443.7
13445.3
13446.6
13440.2
2373.49
2366.74
2361.94
2349.93
2331.17
2301.72
2260.01
2211.82
2163.45
2119.75
2082.29
2056.44
2037.28
2028.31
2027.27
2032.01
2042.77
2060.1
2084.35
2116.93
2158.79
2210.72
2273.17
2348.58
2437.35
2540.11
2656.83
2788.67
2938.15
3102.65
3286.47
3488.21
3710.55
3951.73
4212.38
4488.35
4788.85
5091.86
5413
5733
6050.97
6370.18
6685.42
6998.77
7307.95
7613.11
7912.19
8201.82
8480.71
8751.6
9009.06
9259.66
9493.23
9725.11
9937.14
10144.9
10333.3
10509.6
10669.9
10815.1
10948.9
11065.4
11184.7
11295.7
11394.3
11488.5
11562.4
11634.9
11691.8
11750.9
11802.8
11850.3
11899.2
11942.9
11986.4
12025.3
12066.5
12113.6
12145.8
12180.5
12255.5
12303.9
12327
12349
12412.2
12449.5
12470.5
12482
12488.2
12579.7
12621.1
12637.6
12646.2
12649.5
12727.3
12764.1
12775.7
12784.3
12815.4
12836.7
12846.4
12851.8
12904.8
12931.6
12943.6
12953.3
12976.1
12991.3
13001.4
13007.4
13005.4
12995.6
12983.5
12976.9
12971.8
12992.6
13008.6
13024.5
13040.1
13053.9
13059.1
13053.1
13042.7
13038.4
13039.6
13042.4
13078
13102.7
13137.1
13169.7
13202.1
13232.9
13257.7
13278.4
13292.2
13299.9
13296.4
13289.4
13284.3
13281.9
13280.6
13284
13287.4
13295.8
13302
13308.2
13313
13318.3
13323.8
13325.1
13327.8
13327
13327.6
13326.5
13324.7
13323.7
13322.9
13323.3
13324
13326.2
13328.7
13333.2
13338.2
13344.7
13351.4
13359.1
13366.2
13373.3
13379.7
13386.5
13389
13392.7
13392.8
13393.2
13392.6
13391.3
13389.3
13386.9
13384.2
13382.1
13379.8
13378.6
13378
13378.5
13379.8
13382.3
13385.6
13390
13395.5
13402.4
13409.9
13417.7
13424.2
13429.7
13430
13429.2
13426.5
13422.2
13416.7
13411.6
13406.8
13403.1
13401.4
13401.7
13403.6
13407
13411.8
13418
13425.5
13432.4
13438.7
13443.9
13449.9
13448.8
13449.7
13450.2
13448.8
13447.7
13445.7
13443.9
13441.9
13440.1
13438.6
13437.6
13436.9
13436.6
13436.7
13437
13437.4
13438
13438.6
13439.3
13440
13440.8
13441.6
13442.7
13443.7
13445.3
13446.6
13440.3
2378.99
2366.94
2361.09
2344.29
2320.59
2286.71
2243.84
2196.95
2149.75
2110.09
2077.69
2052.69
2034.94
2026.84
2026.24
2031.57
2042.55
2059.73
2083.45
2114.9
2154.91
2205.34
2266.48
2340.37
2427.28
2528.25
2642.87
2772.72
2919.66
3081.42
3261.93
3461.21
3680.8
3918.45
4177.3
4449.64
4747.62
5048.47
5368.89
5686.03
6003.23
6323.87
6638.21
6953.1
7261.78
7567.88
7866.65
8156.49
8436.23
8710.16
8967.8
9218.92
9451.35
9686.16
9901.76
10112.3
10302.5
10480.5
10639.9
10789.4
10921.5
11037.1
11162.1
11273.4
11376.1
11471
11544.7
11618.3
11675.3
11737.1
11788.8
11837.6
11887.9
11932.4
11976.6
12016.1
12058.4
12106.1
12140.1
12174.1
12247.4
12296.7
12322.9
12345.3
12405
12443.7
12467.5
12480.7
12487.5
12569.7
12613.4
12635.4
12646.3
12650.5
12719.1
12757.7
12773.7
12783.9
12811.8
12834
12845.5
12850.6
12900.2
12927.8
12942.3
12952.7
12973.3
12989.4
12999.6
13005.3
13003.1
12993.5
12981.9
12975.6
12970.6
12991.4
13007.9
13024.1
13039.2
13052.2
13057.3
13051.5
13041.5
13037.4
13039.3
13042.7
13077
13102.5
13136.8
13169.8
13201.7
13232.2
13256.9
13277.2
13290.7
13298.7
13295.7
13288.4
13283.6
13281.5
13280.3
13283.5
13287
13295.5
13301.6
13307.8
13312.6
13317.8
13323.3
13324.9
13327.4
13326.6
13327.3
13326.2
13324.4
13323.4
13322.6
13323.1
13323.8
13326
13328.6
13333.1
13338.1
13344.6
13351.2
13359
13366.1
13373.2
13379.5
13386.3
13388.9
13392.6
13392.6
13393.1
13392.5
13391.2
13389.2
13386.9
13384.1
13382
13379.7
13378.5
13378
13378.5
13379.7
13382.3
13385.5
13390
13395.5
13402.5
13409.9
13417.7
13424.1
13429.6
13430.1
13429.1
13426.4
13422.1
13416.7
13411.6
13406.7
13403.1
13401.4
13401.7
13403.6
13407
13411.9
13418
13425.5
13432.4
13438.7
13443.9
13449.9
13448.9
13449.7
13450.2
13448.8
13447.6
13445.7
13443.9
13441.9
13440.1
13438.7
13437.6
13436.9
13436.6
13436.7
13437
13437.4
13438
13438.6
13439.3
13440
13440.9
13441.7
13442.8
13443.7
13445.3
13446.6
13440.5
2381.26
2367.17
2355.4
2334.63
2305.42
2268.41
2225.97
2181.41
2137.44
2098.89
2068.29
2045.58
2030.25
2023.65
2023.75
2029.65
2040.52
2057.46
2080.62
2111.14
2150.22
2199.34
2259.14
2331.61
2416.87
2516.34
2628.85
2756.47
2901.13
3061.12
3239.63
3434.82
3654.12
3887.21
4145.23
4416.63
4715.68
5013.05
5333.37
5645.65
5960.68
6288.88
6597.79
6914.11
7219.19
7530.23
7825.99
8117.74
8395.95
8672.81
8930.9
9181.59
9412.69
9651.14
9872.39
10085.7
10277.4
10456.5
10614.7
10768.9
10897.2
11012.6
11144.9
11254.4
11362.2
11456.1
11528.8
11604
11660.5
11725.7
11776.3
11827.1
11878.7
11923.8
11968.7
12008.9
12052.5
12100.3
12137.1
12170.1
12240.1
12289.6
12320.1
12343.6
12398.4
12438
12465.3
12481.2
12490.6
12559.4
12604.9
12634.1
12648.2
12654.6
12711.3
12750.4
12772.5
12784.4
12809
12832.2
12845.6
12852
12895.3
12923.5
12941.6
12952.7
12971.1
12987.7
12998.1
13003.2
13000.8
12991.6
12981.1
12975.2
12970.4
12990.5
13007.8
13024.3
13038.5
13050.2
13055
13049.7
13040.8
13037
13039.6
13044.2
13076
13102.8
13137.2
13170.1
13201.4
13231.5
13255.8
13275.8
13289
13297.2
13294.8
13287.6
13283.1
13281.3
13280.3
13283.3
13286.8
13295.1
13301.3
13307.5
13312.3
13317.4
13322.9
13324.7
13327.1
13326.3
13326.9
13325.9
13324.2
13323.3
13322.5
13322.9
13323.7
13325.9
13328.5
13333.1
13338
13344.5
13351.1
13358.9
13366
13373.1
13379.4
13386.1
13388.9
13392.5
13392.5
13392.9
13392.3
13391
13389.1
13386.8
13384.1
13382
13379.7
13378.5
13377.9
13378.5
13379.7
13382.3
13385.5
13390.1
13395.5
13402.6
13409.9
13417.7
13424
13429.5
13430
13429
13426.3
13422
13416.6
13411.6
13406.7
13403.1
13401.4
13401.8
13403.7
13407.1
13411.9
13418.1
13425.6
13432.4
13438.8
13443.9
13449.8
13449
13449.6
13450.2
13448.8
13447.6
13445.8
13443.9
13441.9
13440.1
13438.7
13437.6
13436.9
13436.7
13436.7
13437
13437.4
13438
13438.6
13439.4
13440.1
13440.9
13441.7
13442.8
13443.8
13445.4
13446.6
13440.7
2381.62
2364.05
2347.38
2321.25
2287.82
2249.86
2208.06
2163.69
2122.42
2087.2
2059.39
2038.91
2025.81
2020.46
2020.95
2027.22
2037.78
2054.24
2076.68
2106.17
2144.13
2191.93
2250.41
2321.43
2404.92
2503.13
2613.62
2739.39
2882.54
3039.62
3218.76
3408.64
3626.32
3857.51
4114.51
4382.28
4681.17
4971.11
5293.08
5598.45
5903.92
6244.22
6541.79
6860.53
7156.67
7474.75
7769.45
8063.9
8346.26
8618.57
8880.08
9127.51
9359.89
9603.27
9832.24
10052.3
10243.8
10425.8
10582.1
10743.3
10868.1
10981
11127.8
11231.5
11348.3
11441.8
11509.3
11590.2
11642.4
11715.6
11762.2
11817.3
11869.5
11914.6
11960.5
12001.6
12047.4
12094.1
12135.1
12169.5
12231.7
12280.1
12317.6
12344
12392.1
12430.6
12463.1
12482.8
12495.6
12549.3
12595.3
12632.1
12650.5
12660.2
12703.5
12742.8
12770.6
12785
12807.1
12830.5
12846
12855.4
12889.7
12918.8
12940.4
12953
12969.4
12986
12996.4
13000.6
12997.7
12989.6
12980.5
12975.6
12971.8
12989.8
13008.2
13025
13038
13047.8
13052
13047.4
13040.3
13037.4
13040.7
13046.6
13075.2
13103.9
13138.3
13170.6
13201.1
13230.9
13254.4
13274.1
13286.8
13295
13293.6
13286.8
13282.8
13281.2
13280.5
13283.4
13286.8
13294.8
13301
13307.2
13312.1
13316.9
13322.4
13324.4
13326.9
13326
13326.5
13325.6
13323.9
13323.1
13322.4
13322.8
13323.7
13325.8
13328.5
13333.1
13338
13344.5
13351.1
13358.9
13365.8
13373
13379.2
13385.7
13388.7
13392.4
13392.4
13392.7
13392.1
13390.9
13388.9
13386.7
13384
13381.9
13379.6
13378.4
13378
13378.5
13379.8
13382.3
13385.6
13390.2
13395.6
13402.7
13410
13417.7
13423.9
13429.4
13429.9
13428.8
13426.1
13421.9
13416.6
13411.5
13406.8
13403.1
13401.5
13402
13403.9
13407.3
13412.1
13418.2
13425.6
13432.4
13438.8
13443.8
13449.7
13449.1
13449.6
13450.1
13448.8
13447.6
13445.8
13443.9
13442
13440.2
13438.7
13437.7
13437
13436.7
13436.8
13437.1
13437.5
13438.1
13438.7
13439.4
13440.1
13440.9
13441.8
13442.9
13443.9
13445.4
13446.6
13440.9
2377.96
2356.84
2336.15
2305.99
2270.49
2232.41
2188.81
2146.08
2107.75
2075.6
2050.46
2032.27
2021.09
2016.79
2017.63
2023.84
2034.32
2050.18
2071.83
2100.17
2136.95
2183.54
2240.51
2310.21
2391.8
2489.08
2598.13
2721.46
2864.25
3016.28
3194.01
3382.27
3595.72
3821.73
4073.32
4328.7
4628.91
4900.68
5231.79
5526.77
5815.38
6161.06
6448.51
6768.74
7063.2
7384.44
7678.31
7976.82
8269.42
8533.29
8795.88
9037.37
9267.77
9521.92
9756.93
9992.63
10180.6
10375.4
10525.1
10699.2
10825.8
10934.9
11100.4
11195.9
11327.4
11424.5
11480.4
11574.5
11619.6
11702.4
11745
11806.8
11860
11904.2
11952
11994.5
12043.2
12088.7
12134.3
12171.4
12222.5
12270.1
12315.7
12345.8
12385.1
12422.7
12460.8
12484
12500.5
12541.2
12585.8
12629.8
12651.5
12665.7
12698
12735.7
12767.9
12785.2
12806
12829.3
12846.2
12858.9
12884.7
12914.6
12938.8
12953.3
12968.5
12984.1
12994.5
12997.2
12993.8
12987.5
12980.4
12976.6
12974.6
12990
13009.3
13026
13037.5
13044.8
13048
13044.9
13040.1
13038.9
13042.1
13049.7
13076.3
13106
13139.4
13171
13200.7
13230.1
13252.7
13272.1
13284.2
13292.2
13292.1
13286
13282.8
13281.5
13281.1
13283.7
13287.3
13294.7
13300.8
13307.1
13311.9
13316.7
13321.8
13324
13326.6
13325.7
13326.1
13325.3
13323.7
13323
13322.4
13322.8
13323.8
13325.9
13328.8
13333.3
13338.2
13344.6
13351.3
13358.9
13365.8
13373
13379.1
13385.3
13388.6
13392.3
13392.3
13392.5
13391.9
13390.7
13388.8
13386.6
13384
13381.9
13379.7
13378.5
13378
13378.6
13379.9
13382.4
13385.7
13390.3
13395.8
13402.9
13410
13417.6
13423.8
13429.3
13429.6
13428.6
13425.8
13421.8
13416.5
13411.6
13406.8
13403.2
13401.6
13402.2
13404.1
13407.5
13412.2
13418.4
13425.7
13432.4
13438.8
13443.7
13449.6
13449.1
13449.6
13450.1
13448.8
13447.5
13445.8
13443.9
13442
13440.2
13438.8
13437.7
13437
13436.8
13436.8
13437.1
13437.5
13438.1
13438.7
13439.5
13440.2
13441
13441.8
13442.9
13443.9
13445.4
13446.7
13441.1
2371.12
2345.58
2322.53
2290.23
2253.73
2213.68
2169.93
2129.55
2094.14
2064.88
2042.12
2025.96
2016.4
2012.79
2013.87
2020.03
2030.35
2045.42
2066.15
2093.32
2128.88
2174.35
2229.67
2298.21
2378.32
2473.81
2582.08
2701.61
2842.81
2991.68
3164.66
3346.75
3551.25
3764.98
4021.9
4243.34
4534.88
4780.4
5099.47
5400.13
5676.6
6013.9
6297.1
6620.32
6921.96
7240.72
7542.8
7840.88
8144.38
8403.67
8675.93
8930.16
9141.63
9432.71
9643.37
9902.22
10078.7
10301.4
10439.6
10631.5
10758.3
10879.3
11055.5
11145.6
11290.6
11391.7
11441.3
11544.2
11590.9
11678.6
11723.1
11792.1
11846.2
11891.3
11942.2
11987.1
12038
12083.7
12133.2
12171.1
12214.9
12260.4
12312.2
12344.9
12379.3
12415.8
12457.3
12484.9
12504.8
12537.3
12577.7
12624.7
12652.3
12670.1
12695.1
12728.9
12763.5
12785.2
12805.7
12828.2
12846.6
12861.6
12882
12910.4
12936.1
12953.4
12967.7
12982
12991.4
12992.6
12989.5
12985.4
12981
12977.8
12978
12992.5
13011.4
13026.8
13036.6
13041
13043.3
13042.1
13040.3
13040.6
13044.3
13053.8
13080
13108.8
13140.6
13171.5
13200.4
13228.9
13250.5
13269.7
13281.1
13288.6
13290.5
13285.1
13283
13281.8
13282
13284.5
13288
13294.6
13300.7
13307
13311.7
13316.6
13321
13323.6
13326.3
13325.6
13325.7
13325.1
13323.6
13322.9
13322.5
13323
13324
13326.1
13329.1
13333.6
13338.5
13344.9
13351.4
13358.9
13365.7
13373
13378.9
13384.9
13388.4
13392.2
13392.2
13392.2
13391.7
13390.6
13388.7
13386.6
13384
13382
13379.7
13378.6
13378.2
13378.8
13380
13382.6
13385.9
13390.6
13396
13403.2
13410.1
13417.6
13423.6
13429
13429.3
13428.3
13425.5
13421.7
13416.5
13411.6
13406.9
13403.3
13401.9
13402.4
13404.4
13407.7
13412.5
13418.6
13425.7
13432.3
13438.8
13443.6
13449.3
13449.1
13449.6
13450
13448.8
13447.5
13445.8
13443.9
13442
13440.3
13438.9
13437.8
13437.1
13436.9
13436.9
13437.2
13437.6
13438.2
13438.8
13439.5
13440.2
13441.1
13441.9
13443
13444
13445.5
13446.7
13441.3
2360.64
2331.3
2307.46
2273.97
2237.28
2195.02
2152.74
2114.81
2082.02
2055.2
2034.6
2020.21
2011.86
2008.69
2009.93
2015.99
2025.85
2040.17
2059.96
2085.85
2120.04
2164.48
2218.47
2285.2
2364.6
2457.89
2563.32
2680.4
2816.75
2959.05
3120.81
3293.48
3497.86
3669.4
3919.42
4111.56
4388.22
4613.51
4904.44
5211.55
5490.88
5802.5
6101.31
6412.78
6739.93
7040.4
7370.07
7646.43
7982.46
8220.12
8511.39
8770.35
8987.61
9325.86
9509.58
9788.39
9944.74
10191.2
10326.8
10533
10663.8
10813.4
10991.3
11080.2
11239.7
11340.7
11393.9
11502.7
11556
11648.6
11696.1
11773.9
11827.3
11875.4
11929.9
11977.1
12030.8
12076.8
12128.4
12168.5
12207.5
12249.6
12304
12341.3
12373.4
12408.9
12451.9
12485.7
12508
12534.9
12571.3
12617.7
12651.8
12673.3
12694.1
12723.2
12757.7
12784.2
12805.6
12827.1
12847.3
12863.4
12881
12906.3
12932.8
12952.5
12966.7
12979.4
12987.4
12986.9
12985.1
12983.4
12982
12980.6
12982.9
12996
13013.9
13026.7
13034.7
13036.8
13038
13039.5
13040.4
13043
13047.6
13059.6
13085
13112.1
13141.8
13172.1
13199.9
13227.3
13247.9
13266.5
13277.3
13284.7
13288.1
13284.4
13283.2
13282.6
13283.2
13285.6
13288.7
13294.8
13300.7
13306.9
13311.7
13316.4
13320.4
13323.2
13326
13325.4
13325.4
13324.8
13323.5
13323
13322.7
13323.2
13324.4
13326.5
13329.5
13334
13338.9
13345.2
13351.7
13359.1
13365.8
13373
13378.7
13384.5
13388.1
13392
13392
13392
13391.5
13390.5
13388.6
13386.5
13384
13382.1
13379.9
13378.8
13378.4
13379
13380.3
13382.8
13386.2
13390.9
13396.3
13403.5
13410.3
13417.6
13423.4
13428.7
13428.9
13428
13425.2
13421.5
13416.4
13411.6
13407.1
13403.6
13402.2
13402.8
13404.7
13408.1
13412.8
13418.9
13425.8
13432.3
13438.9
13443.5
13449
13449.1
13449.6
13449.9
13448.8
13447.5
13445.8
13443.9
13442.1
13440.4
13439
13437.9
13437.2
13437
13437
13437.3
13437.7
13438.3
13438.9
13439.6
13440.3
13441.1
13442
13443
13444.1
13445.5
13446.8
13441.4
2346.23
2314.73
2291.34
2257.65
2220.75
2177.92
2137.9
2102.07
2071.54
2046.84
2028.12
2015.17
2007.65
2004.8
2006.11
2011.85
2021.04
2034.47
2053.45
2077.95
2110.84
2153.88
2207.28
2272.8
2349.12
2441.49
2541.1
2652.99
2779.16
2912.87
3065.92
3199.77
3404.91
3541.89
3771.12
3934.03
4180.98
4390.07
4651.14
4941.34
5255.06
5526.16
5882.73
6148.29
6548.66
6807.52
7199.67
7434.82
7813.47
8016.42
8333.57
8565.78
8832.37
9182.37
9345.37
9646.31
9795
10052.7
10180.5
10409
10545
10729.1
10914.8
10999.7
11172.3
11269.3
11336.5
11453.8
11514.3
11611.4
11662.6
11749.6
11802
11856.8
11916
11964.3
12022.1
12068.4
12121.2
12163.1
12201.6
12238.8
12292.8
12332.9
12367.9
12402.4
12445.3
12482.4
12510.4
12535.1
12566.3
12609.1
12646.6
12674.1
12694.3
12718.2
12750.2
12781
12805
12825.8
12847.7
12865.4
12880.6
12902.9
12928.4
12950.6
12965.2
12976.2
12980.5
12980.8
12980.5
12981.5
12983.4
12985.3
12989.5
13000.4
13016.1
13026.1
13031
13031.7
13033.1
13036.6
13041
13046.5
13053
13066.9
13090.6
13116
13143.4
13172.6
13199.2
13225.2
13244.5
13262.4
13272.8
13280.2
13285
13283.9
13283.6
13283.7
13284.7
13287
13289.8
13295
13300.8
13306.8
13311.5
13316.2
13319.9
13322.6
13325.6
13325.2
13325.1
13324.6
13323.5
13323.2
13323
13323.6
13324.9
13327.1
13330.1
13334.5
13339.5
13345.7
13352.1
13359.2
13365.8
13373
13378.5
13384.2
13387.8
13391.8
13391.8
13391.9
13391.4
13390.3
13388.5
13386.5
13384.1
13382.2
13380.1
13379
13378.7
13379.4
13380.6
13383.2
13386.6
13391.2
13396.7
13403.9
13410.5
13417.6
13423.1
13428.3
13428.4
13427.6
13424.9
13421.3
13416.4
13411.7
13407.3
13403.9
13402.6
13403.2
13405.2
13408.5
13413.2
13419.2
13425.9
13432.3
13438.9
13443.3
13448.7
13449
13449.6
13449.9
13448.8
13447.5
13445.8
13444
13442.2
13440.5
13439.1
13438
13437.3
13437.1
13437.1
13437.4
13437.8
13438.3
13439
13439.7
13440.4
13441.2
13442.1
13443.1
13444.2
13445.6
13446.8
13441.6
2329.36
2297.07
2274.6
2242.14
2204.48
2163.02
2125.24
2091.39
2062.88
2040.04
2022.84
2010.96
2004
2001.34
2002.66
2007.87
2016.23
2028.39
2046.55
2069.58
2101.66
2144.59
2195.43
2261
2332.52
2420.54
2511.05
2615.58
2730.57
2834.78
2987.59
3081.72
3265.79
3365.01
3565.29
3684.5
3899.74
4054.48
4311.39
4523.57
4857.07
5071.68
5440.2
5663.71
6121.66
6349.82
6806.79
7054.25
7501.92
7736.95
8147
8360.73
8689.78
9025.74
9186.87
9490.34
9634.02
9908.92
10021.6
10265.1
10396.5
10619.8
10809.1
10902.5
11087.4
11180.5
11270.7
11398.4
11464
11568.3
11622.5
11716.6
11770.4
11836.2
11899.6
11949.6
12010.1
12057.5
12111.4
12152.5
12194.8
12229.9
12279.3
12318.8
12362.1
12397.4
12437.7
12475.9
12510.3
12537.7
12563.8
12600.1
12638.5
12671.9
12695
12714.3
12742.3
12776
12802.5
12824.6
12847.2
12867
12881.2
12899.8
12923.3
12947
12961.2
12971
12972.2
12973.7
12975.5
12979.6
12985.3
12991.2
12997.9
13006
13018.3
13023.9
13025.8
13026.3
13028.5
13034
13042.1
13051.3
13060.6
13075
13097
13120.4
13145
13173.2
13198.1
13222.2
13240.6
13257.4
13267
13274.9
13281.8
13283.7
13284.1
13285
13286.5
13288.6
13291.1
13295.6
13301
13306.6
13311.3
13316.1
13319.2
13322.1
13325.2
13325.1
13324.8
13324.5
13323.7
13323.4
13323.5
13324.2
13325.5
13327.8
13330.8
13335.1
13340.1
13346.2
13352.5
13359.5
13365.9
13373
13378.2
13383.8
13387.4
13391.5
13391.5
13391.7
13391.2
13390.1
13388.4
13386.5
13384.2
13382.4
13380.3
13379.3
13379.1
13379.8
13381.1
13383.6
13387.1
13391.7
13397.2
13404.3
13410.7
13417.6
13422.7
13427.8
13427.8
13427.2
13424.6
13421.1
13416.3
13411.8
13407.6
13404.3
13403.1
13403.8
13405.7
13409
13413.7
13419.5
13426
13432.4
13438.9
13443
13448.3
13448.9
13449.7
13449.8
13448.7
13447.4
13445.8
13444
13442.3
13440.6
13439.2
13438.2
13437.5
13437.2
13437.2
13437.5
13437.9
13438.4
13439
13439.8
13440.5
13441.3
13442.2
13443.2
13444.3
13445.7
13446.8
13441.7
2311.11
2279.51
2258.5
2227.53
2189.7
2150.72
2114.82
2082.92
2056.21
2034.93
2018.92
2007.79
2001.22
1998.63
1999.74
2004.15
2011.24
2021.94
2039.61
2062.62
2092.83
2136.42
2183.87
2246.61
2312.68
2392.89
2467.23
2558.94
2665.3
2733.84
2874.87
2930.51
3073.96
3149.79
3283.62
3384.37
3515.97
3654.85
3811.61
4014.48
4294.4
4481.78
4897.24
5113.21
5560.74
5820.56
6328.1
6553.39
7058.88
7242.57
7708.93
7923.3
8364.9
8714.2
8927.97
9288.33
9470.86
9763.24
9889.11
10133.7
10253.1
10497.9
10673.9
10785.9
10983.9
11076.6
11201.5
11333.3
11403.4
11519.8
11576.9
11676.5
11734.4
11813.1
11879.2
11931.9
11995
12043.7
12098.1
12140.1
12185.8
12219.2
12265.4
12302.5
12353.4
12388.7
12429.9
12466.9
12507.4
12537
12562.5
12591.9
12627.8
12666.2
12692.7
12712.8
12736.5
12768.6
12797.7
12823.6
12846.2
12867.3
12882.3
12898.2
12918.5
12940.6
12954
12964.7
12962.8
12965.7
12970.2
12978.1
12986.8
12997
13007.6
13012.3
13020.1
13020.6
13020.2
13020.6
13023.9
13032.1
13043.5
13056.1
13069.9
13084.5
13104.3
13125.3
13147.4
13173.5
13196.5
13218.7
13235.4
13251.6
13259.6
13269.6
13278.2
13283.3
13284.6
13286.4
13288.2
13290.2
13292.5
13296.5
13301.2
13306.4
13311.1
13315.9
13318.6
13321.5
13324.7
13325
13324.5
13324.3
13323.8
13323.8
13324
13324.8
13326.3
13328.6
13331.6
13335.9
13340.9
13346.8
13353.1
13359.7
13366.1
13373.1
13378
13383.4
13386.9
13391.2
13391.2
13391.5
13390.9
13390
13388.4
13386.6
13384.4
13382.6
13380.6
13379.7
13379.6
13380.2
13381.6
13384.2
13387.6
13392.3
13397.8
13404.8
13411
13417.6
13422.2
13427.2
13427.2
13426.7
13424.1
13420.8
13416.2
13411.9
13407.9
13404.7
13403.7
13404.4
13406.3
13409.7
13414.3
13419.9
13426.2
13432.4
13438.9
13442.8
13447.9
13448.8
13449.7
13449.7
13448.6
13447.4
13445.8
13444.1
13442.4
13440.8
13439.4
13438.3
13437.7
13437.4
13437.4
13437.6
13438
13438.6
13439.2
13439.9
13440.6
13441.4
13442.3
13443.3
13444.5
13445.9
13446.8
13441.7
2292.49
2263.16
2243.84
2214.01
2177.13
2141.02
2106.85
2076.76
2051.64
2031.66
2016.53
2005.94
1999.56
1996.81
1997.29
2000.08
2006.19
2016.56
2033.86
2056.55
2085.26
2127.33
2170.68
2227.71
2286.36
2355.36
2410.11
2476.49
2580.72
2613.68
2726.09
2752.03
2857.47
2885.27
2986.66
3022.58
3117.67
3202.81
3329.31
3443.7
3612.63
3756.21
4015.31
4217.48
4623.84
4893.49
5460.35
5743.24
6323.61
6586.66
7197.62
7475.58
8023.41
8361.67
8602.73
9000.14
9170.11
9512.98
9695.6
9981.45
10123.5
10380.6
10540.4
10663.6
10868.4
10960
11124.2
11260.6
11332.2
11464.2
11525.6
11632.8
11694.3
11786.2
11856.1
11911.9
11978.1
12026.8
12083.4
12124.4
12173.4
12207
12252.1
12287.7
12339.9
12378.3
12421.7
12457.8
12502
12532
12560.3
12587.3
12615.6
12657.1
12684.1
12710.6
12733.3
12760.7
12790.5
12820.6
12844.1
12866.2
12882.1
12896.9
12913.7
12932.3
12945.5
12956.5
12953.9
12959.9
12966.2
12977.1
12988.6
13002.3
13015.9
13018.4
13021.8
13017.3
13014
13015.3
13020.3
13030.4
13044.9
13061
13078.9
13095.4
13112.7
13130.7
13150.4
13173.9
13194.6
13214.6
13228.8
13244.1
13252.2
13264.1
13274.2
13282.4
13285
13287.7
13290.1
13291.8
13294
13297.3
13301.4
13306.1
13310.8
13315.5
13317.9
13320.9
13324.1
13324.7
13324.1
13324.2
13324
13324.1
13324.6
13325.5
13327.1
13329.5
13332.6
13336.8
13341.7
13347.5
13353.6
13360
13366.2
13373.1
13377.6
13382.9
13386.3
13390.7
13390.8
13391.3
13390.7
13389.7
13388.3
13386.6
13384.6
13382.9
13381
13380.2
13380.1
13380.8
13382.2
13384.8
13388.3
13393
13398.5
13405.3
13411.3
13417.5
13421.7
13426.4
13426.4
13426.1
13423.7
13420.5
13416.2
13412.1
13408.3
13405.3
13404.4
13405.1
13407
13410.4
13414.9
13420.4
13426.4
13432.4
13438.8
13442.5
13447.4
13448.6
13449.7
13449.5
13448.6
13447.4
13445.8
13444.2
13442.5
13440.9
13439.6
13438.5
13437.9
13437.5
13437.6
13437.8
13438.2
13438.7
13439.3
13440
13440.7
13441.5
13442.4
13443.4
13444.6
13446
13446.8
13441.7
2275.3
2248.71
2231.17
2201.48
2167.47
2133.77
2101.44
2073.05
2049.37
2030.32
2015.75
2005.42
1998.99
1995.66
1994.74
1996.65
2002.51
2012.11
2029.49
2051.07
2076.9
2116.3
2153.64
2201.3
2249.45
2309.03
2346.07
2390.89
2477.51
2481.93
2557.57
2565.21
2610.13
2636.83
2657.64
2692.71
2722.58
2749.65
2775.06
2802.29
2845.48
2877.4
2939.25
3019.33
3173.27
3352.66
3683.8
4056.7
4706.43
5116.63
5956.78
6436.06
7211.66
7660.94
8073.82
8551.17
8849.1
9234.26
9432.6
9760.73
9924.13
10210.3
10381.9
10532.1
10736.7
10838.2
11043.2
11182.2
11254.9
11402.9
11468
11585.3
11651.5
11755.1
11828.9
11888.7
11958.9
12007.1
12066.3
12106.3
12158.6
12193.1
12239.4
12274.5
12326
12365.6
12412.9
12448.3
12493.4
12524.2
12556.8
12583.7
12607.3
12645
12674
12707.1
12729.2
12755
12781.7
12815.1
12839.1
12863.7
12880.4
12895.4
12908.9
12923
12934.6
12947.6
12944.2
12953.2
12961.9
12976.2
12991
13007.7
13023
13023.4
13021.9
13014
13009.3
13011
13017.6
13029.6
13047
13066.5
13088.4
13105.7
13121.9
13136.9
13154.3
13173.8
13191.9
13209.5
13221
13235.8
13244.8
13258.7
13269.5
13281
13285.2
13288.8
13291.9
13293.5
13295.6
13298.3
13301.9
13306
13310.4
13315.1
13317.2
13320.1
13323.1
13324.2
13323.7
13323.9
13324.1
13324.5
13325.1
13326.3
13328
13330.4
13333.6
13337.7
13342.6
13348.2
13354.1
13360.3
13366.3
13373
13377.2
13382.3
13385.7
13390
13390.4
13391
13390.3
13389.4
13388.1
13386.6
13384.7
13383.1
13381.4
13380.7
13380.7
13381.4
13382.9
13385.5
13389.1
13393.7
13399.2
13405.9
13411.5
13417.4
13421
13425.6
13425.6
13425.3
13423.1
13420.1
13416.1
13412.3
13408.8
13406
13405.2
13405.9
13407.8
13411.1
13415.6
13420.9
13426.6
13432.4
13438.7
13442.1
13446.9
13448.4
13449.6
13449.4
13448.5
13447.3
13445.8
13444.2
13442.7
13441.1
13439.8
13438.7
13438.1
13437.7
13437.8
13438
13438.3
13438.8
13439.4
13440.1
13440.8
13441.6
13442.5
13443.5
13444.8
13446.2
13446.8
13441.7
2260.44
2236.67
2221.32
2191.55
2160.97
2129.03
2098.67
2071.78
2049.29
2030.87
2016.56
2006.21
1999.41
1994.95
1993.05
1994.45
2000.06
2008.85
2025.76
2044.37
2066.55
2102.25
2132.55
2171.8
2201.27
2262.27
2276.98
2307.33
2354.37
2351.96
2382.91
2377.3
2379.42
2373.96
2379.79
2370.28
2353.43
2324.61
2291.83
2255.57
2228.8
2200.77
2181.78
2163.09
2157.7
2163.19
2181.31
2232.61
2547.87
2909.61
3464.39
4045.11
5072.57
5930.67
6842.91
7667.47
8207.56
8738.96
9069.04
9471.91
9723.9
10009.9
10158.8
10388.3
10574.5
10693.1
10939.2
11085.5
11169.7
11338.1
11405.6
11535.6
11608.1
11720.1
11796.6
11862.5
11937.2
11984.5
12047
12086.5
12141.6
12177.4
12226.1
12262.5
12312.9
12352.1
12402.2
12437.4
12483.2
12513.9
12552.2
12579.1
12600.5
12634.8
12662.6
12700.4
12723.9
12750.4
12774.9
12807.4
12833.1
12859.9
12877.1
12893.3
12904.3
12914.8
12922.2
12934.6
12933.1
12946.2
12957.9
12975.2
12993.2
13013
13028.7
13027.4
13021.2
13008.8
13004.1
13006.3
13014.9
13029.5
13049.7
13072.3
13097.3
13115.6
13130.6
13144
13158.8
13173.5
13188.4
13203.4
13213.1
13227.7
13237.4
13253.2
13264.4
13279.2
13285.1
13290.1
13293.7
13295.2
13297.3
13299.4
13302.3
13305.8
13309.9
13314.4
13316.4
13319.2
13321.9
13323.5
13323.1
13323.6
13324.1
13324.8
13325.7
13327.1
13328.9
13331.5
13334.7
13338.8
13343.6
13349
13354.6
13360.5
13366.4
13372.7
13376.6
13381.6
13384.8
13389.2
13389.7
13390.6
13389.9
13389.1
13387.9
13386.5
13384.9
13383.4
13381.9
13381.2
13381.3
13382.1
13383.6
13386.3
13389.9
13394.5
13400
13406.5
13411.6
13417.2
13420.3
13424.6
13424.5
13424.5
13422.4
13419.7
13416
13412.5
13409.3
13406.7
13406.1
13406.8
13408.7
13412
13416.3
13421.4
13426.8
13432.3
13438.5
13441.7
13446.4
13448.1
13449.5
13449.2
13448.4
13447.3
13445.9
13444.3
13442.8
13441.3
13440
13439
13438.3
13437.9
13438
13438.1
13438.5
13439
13439.5
13440.2
13440.9
13441.8
13442.7
13443.7
13444.9
13446.4
13446.8
13441.6
2247.96
2228.52
2214.1
2184.87
2157.66
2127.04
2098.52
2072.99
2051.2
2033.25
2019.15
2008.53
2000.83
1995.22
1992.43
1993.71
1998.8
2006.09
2021.53
2036.55
2055.53
2088.45
2109.43
2145.35
2152.72
2213.43
2201
2222.39
2234
2226.82
2220.04
2207.3
2189.53
2159.87
2126.11
2097.03
2075.21
2052.52
2028.81
2003.45
1984.52
1967.1
1952.89
1939.49
1931.14
1925.74
1920.53
1921.44
1935.72
1962.56
2010.39
2066.53
2488.91
3128.4
3971.53
5058.41
6250.01
7470.16
8225.21
8903.97
9350.2
9701.88
9933.99
10179.4
10386.2
10553.3
10797.9
10956.2
11063
11257.5
11330.7
11479.4
11560.2
11678.7
11759.2
11833.2
11910.2
11959
12025.7
12065.1
12123.2
12160.3
12212.3
12250.8
12300.5
12339.2
12389.9
12425.9
12471.8
12502.4
12545
12572.7
12594.1
12626.4
12652.4
12690.8
12717.1
12746.1
12769.5
12800.5
12825.6
12854.2
12872
12890.4
12898.9
12907.3
12908.9
12919.4
12922.6
12939.3
12955.3
12975.4
12996.7
13017.6
13032.1
13030.1
13020.1
13004
12999.4
13003.2