/*--------------------------------*- C++ -*----------------------------------*\
| =========                 |                                                 |
| \\      /  F ield         | OpenFOAM: The Open Source CFD Toolbox           |
|  \\    /   O peration     | Version:  2312                                  |
|   \\  /    A nd           | Website:  www.openfoam.com                      |
|    \\/     M anipulation  |                                                 |
\*---------------------------------------------------------------------------*/
FoamFile
{
    version     2.0;
    format      ascii;
    arch        "LSB;label=32;scalar=64";
    class       surfaceScalarField;
    location    "0.006";
    object      phi;
}
// * * * * * * * * * * * * * * * * * * * * * * * * * * * * * * * * * * * * * //

dimensions      [1 0 -1 0 0 0 0];

oriented        oriented;

internalField   nonuniform List<scalar> 
95760
(
3.63447e-09
-3.63491e-09
1.81467e-09
1.81941e-09
-5.79043e-09
7.60472e-09
-1.8639e-08
1.28482e-08
-3.76161e-08
1.89769e-08
-6.00793e-08
2.24632e-08
-8.00111e-08
1.99318e-08
-9.70423e-08
1.70314e-08
-1.11074e-07
1.40321e-08
-1.22549e-07
1.14752e-08
-1.32162e-07
9.61368e-09
-1.40342e-07
8.18043e-09
-1.47605e-07
7.26277e-09
-1.54197e-07
6.59249e-09
-1.60349e-07
6.15222e-09
-1.66243e-07
5.8947e-09
-1.71952e-07
5.70864e-09
-1.77511e-07
5.55971e-09
-1.8288e-07
5.36841e-09
-1.8832e-07
5.44065e-09
-1.93365e-07
5.04486e-09
-1.98663e-07
5.29697e-09
-2.03389e-07
4.72666e-09
-2.07619e-07
4.22905e-09
-2.11213e-07
3.59494e-09
-2.14127e-07
2.91324e-09
-2.16135e-07
2.00917e-09
-2.16428e-07
2.93263e-10
-2.15328e-07
-1.09878e-09
-2.12569e-07
-2.75821e-09
-2.07821e-07
-4.74791e-09
-2.00646e-07
-7.17533e-09
-1.90627e-07
-1.002e-08
-1.78027e-07
-1.2602e-08
-1.61965e-07
-1.60648e-08
-1.42949e-07
-1.902e-08
-1.19002e-07
-2.39503e-08
-9.27682e-08
-2.62372e-08
-6.33509e-08
-2.94185e-08
-3.20794e-08
-3.12717e-08
-1.0707e-09
-3.10084e-08
3.04374e-08
-3.15065e-08
6.25608e-08
-3.21221e-08
9.95207e-08
-3.69584e-08
1.40693e-07
-4.11703e-08
1.83866e-07
-4.31711e-08
2.28065e-07
-4.41972e-08
2.72878e-07
-4.48115e-08
3.17493e-07
-4.46141e-08
3.63019e-07
-4.55254e-08
4.08345e-07
-4.53237e-08
4.54285e-07
-4.59346e-08
4.98759e-07
-4.44656e-08
5.42718e-07
-4.39505e-08
5.85119e-07
-4.23897e-08
6.27611e-07
-4.24797e-08
6.69022e-07
-4.14046e-08
7.10534e-07
-4.15148e-08
7.50524e-07
-4.00132e-08
7.89003e-07
-3.85156e-08
8.27432e-07
-3.84795e-08
8.62008e-07
-3.46271e-08
8.95286e-07
-3.33332e-08
9.26886e-07
-3.16469e-08
9.56709e-07
-2.98666e-08
9.86497e-07
-2.98244e-08
1.01426e-06
-2.77935e-08
1.04129e-06
-2.70551e-08
1.06588e-06
-2.46132e-08
1.08935e-06
-2.34989e-08
1.11134e-06
-2.20133e-08
1.13157e-06
-2.02443e-08
1.15063e-06
-1.90697e-08
1.16841e-06
-1.77786e-08
1.18546e-06
-1.70238e-08
1.20119e-06
-1.56875e-08
1.21568e-06
-1.44495e-08
1.22991e-06
-1.41751e-08
1.24376e-06
-1.381e-08
1.2557e-06
-1.19055e-08
1.26688e-06
-1.11686e-08
1.27844e-06
-1.15616e-08
1.2894e-06
-1.0965e-08
1.29985e-06
-1.04631e-08
1.30912e-06
-9.282e-09
1.31813e-06
-9.02938e-09
1.32709e-06
-8.97384e-09
1.3372e-06
-1.01156e-08
1.3447e-06
-7.51422e-09
1.35108e-06
-6.39616e-09
1.3575e-06
-6.4252e-09
1.36388e-06
-6.39202e-09
1.37176e-06
-7.88268e-09
1.37782e-06
-6.04353e-09
1.38296e-06
-5.13494e-09
1.38826e-06
-5.2958e-09
1.39314e-06
-4.87406e-09
1.39894e-06
-5.78705e-09
1.40339e-06
-4.43338e-09
1.40787e-06
-4.48303e-09
1.41248e-06
-4.60373e-09
1.417e-06
-4.52949e-09
1.4203e-06
-3.3048e-09
1.42344e-06
-3.15005e-09
1.42662e-06
-3.1963e-09
1.43043e-06
-3.82414e-09
1.43347e-06
-3.05607e-09
1.43612e-06
-2.66544e-09
1.43918e-06
-3.05804e-09
1.4419e-06
-2.72919e-09
1.44468e-06
-2.79794e-09
1.44679e-06
-2.11804e-09
1.44847e-06
-1.69576e-09
1.44985e-06
-1.38483e-09
1.44979e-06
6.12231e-11
1.45051e-06
-7.1946e-10
1.45101e-06
-4.99622e-10
1.45193e-06
-9.16172e-10
1.45322e-06
-1.29083e-09
1.45426e-06
-1.04509e-09
1.45549e-06
-1.23298e-09
1.45638e-06
-8.93824e-10
1.45688e-06
-5.05555e-10
1.45675e-06
1.19229e-10
1.45665e-06
9.28333e-11
1.45628e-06
3.67336e-10
1.4562e-06
8.10193e-11
1.45608e-06
1.15493e-10
1.45625e-06
-1.69765e-10
1.45707e-06
-8.16792e-10
1.45768e-06
-6.04503e-10
1.45882e-06
-1.14153e-09
1.46016e-06
-1.33848e-09
1.46119e-06
-1.0262e-09
1.46185e-06
-6.63582e-10
1.46248e-06
-6.22203e-10
1.46315e-06
-6.70775e-10
1.46341e-06
-2.55595e-10
1.46335e-06
6.94779e-11
1.46314e-06
2.14607e-10
1.46293e-06
2.13447e-10
1.46249e-06
4.46702e-10
1.46199e-06
4.99876e-10
1.46134e-06
6.50408e-10
1.4608e-06
5.38442e-10
1.46021e-06
5.84133e-10
1.45961e-06
5.9712e-10
1.459e-06
6.11058e-10
1.45834e-06
6.52558e-10
1.45764e-06
6.97784e-10
1.457e-06
6.42266e-10
1.45624e-06
7.51166e-10
1.4555e-06
7.36058e-10
1.4547e-06
7.97773e-10
1.45389e-06
8.15766e-10
1.45299e-06
8.98697e-10
1.45208e-06
9.08413e-10
1.4511e-06
9.83446e-10
1.4501e-06
9.99813e-10
1.44908e-06
1.02189e-09
1.44799e-06
1.09777e-09
1.447e-06
9.9419e-10
1.44588e-06
1.12234e-09
1.44488e-06
9.97878e-10
1.44383e-06
1.05298e-09
1.44285e-06
9.79856e-10
1.44189e-06
9.58136e-10
1.44096e-06
9.35977e-10
1.44006e-06
8.96035e-10
1.43912e-06
9.40486e-10
1.43836e-06
7.59755e-10
1.43757e-06
7.97024e-10
1.4368e-06
7.6814e-10
1.43602e-06
7.81906e-10
1.43522e-06
7.90448e-10
1.43441e-06
8.10714e-10
1.43358e-06
8.25424e-10
1.43274e-06
8.3776e-10
1.43187e-06
8.66537e-10
1.43097e-06
9.00922e-10
1.43005e-06
9.17939e-10
1.42907e-06
9.76005e-10
1.42808e-06
9.82609e-10
1.4271e-06
9.80298e-10
1.42611e-06
9.9678e-10
1.42514e-06
9.73792e-10
1.42416e-06
9.84882e-10
1.4232e-06
9.61506e-10
1.42224e-06
9.56359e-10
1.42133e-06
9.0809e-10
1.42049e-06
8.48603e-10
1.41967e-06
8.13219e-10
1.41893e-06
7.28322e-10
1.41814e-06
7.89303e-10
1.41765e-06
4.87811e-10
1.41705e-06
6.03373e-10
1.41639e-06
6.55473e-10
1.41574e-06
6.58073e-10
1.41506e-06
6.79725e-10
1.4143e-06
7.64562e-10
1.41354e-06
7.69038e-10
1.41262e-06
9.17664e-10
1.41169e-06
9.32144e-10
1.41077e-06
9.26178e-10
1.40982e-06
9.47994e-10
1.40888e-06
9.39317e-10
1.40796e-06
9.16594e-10
1.40705e-06
9.07406e-10
1.40625e-06
7.95089e-10
1.40547e-06
7.76452e-10
1.40475e-06
7.22057e-10
1.40411e-06
6.37558e-10
1.40338e-06
7.3333e-10
1.40291e-06
4.65441e-10
1.40237e-06
5.34438e-10
1.4018e-06
5.7156e-10
1.40124e-06
5.59108e-10
1.40064e-06
5.98024e-10
1.40002e-06
6.15768e-10
1.39936e-06
6.57614e-10
1.39868e-06
6.82499e-10
1.39798e-06
7.0686e-10
1.39725e-06
7.29646e-10
1.3965e-06
7.45508e-10
1.39574e-06
7.66775e-10
1.39498e-06
7.69209e-10
1.3942e-06
7.75323e-10
1.39344e-06
7.713e-10
1.39266e-06
7.79021e-10
1.3919e-06
7.63679e-10
1.39113e-06
7.72384e-10
1.39038e-06
7.53144e-10
1.38962e-06
7.6128e-10
1.38889e-06
7.36187e-10
1.38813e-06
7.52911e-10
1.38742e-06
7.14234e-10
1.38667e-06
7.43438e-10
1.38597e-06
7.06051e-10
1.38526e-06
7.0382e-10
4.5657e-10
6.49969e-10
-4.28531e-09
-7.59788e-09
1.00669e-08
-2.11363e-08
2.11428e-08
-4.0135e-08
3.18467e-08
-6.22614e-08
4.1103e-08
-8.24686e-08
4.26703e-08
-1.00709e-07
3.81724e-08
-1.16449e-07
3.27717e-08
-1.29503e-07
2.70859e-08
-1.40228e-07
2.22007e-08
-1.48658e-07
1.80437e-08
-1.55769e-07
1.52919e-08
-1.61769e-07
1.32633e-08
-1.66959e-07
1.17826e-08
-1.71446e-07
1.06391e-08
-1.75498e-07
9.94708e-09
-1.79195e-07
9.40593e-09
-1.82605e-07
8.96949e-09
-1.85848e-07
8.61114e-09
-1.88706e-07
8.29927e-09
-1.91402e-07
7.74096e-09
-1.93053e-07
6.94691e-09
-1.94026e-07
5.70009e-09
-1.94061e-07
4.26328e-09
-1.93237e-07
2.77087e-09
-1.91178e-07
8.53945e-10
-1.879e-07
-1.26846e-09
-1.83527e-07
-4.07862e-09
-1.77735e-07
-6.89029e-09
-1.70283e-07
-1.02098e-08
-1.60576e-07
-1.44535e-08
-1.48451e-07
-1.93002e-08
-1.33181e-07
-2.5291e-08
-1.15043e-07
-3.07405e-08
-9.2924e-08
-3.81867e-08
-6.76448e-08
-4.43023e-08
-3.80703e-08
-5.35279e-08
-5.5351e-09
-5.87751e-08
3.10622e-08
-6.60167e-08
7.07628e-08
-7.09721e-08
1.1283e-07
-7.30748e-08
1.58591e-07
-7.72664e-08
2.07675e-07
-8.12058e-08
2.57815e-07
-8.70968e-08
3.07701e-07
-9.1055e-08
3.58443e-07
-9.39109e-08
4.1033e-07
-9.60826e-08
4.62336e-07
-9.68153e-08
5.14445e-07
-9.67214e-08
5.67312e-07
-9.83907e-08
6.19768e-07
-9.77771e-08
6.72546e-07
-9.8707e-08
7.23626e-07
-9.55365e-08
7.73762e-07
-9.40773e-08
8.22266e-07
-9.08814e-08
8.7033e-07
-9.05291e-08
9.16999e-07
-8.80656e-08
9.63109e-07
-8.76249e-08
1.00735e-06
-8.42746e-08
1.05011e-06
-8.13116e-08
1.09195e-06
-8.03602e-08
1.13048e-06
-7.32016e-08
1.16758e-06
-7.04801e-08
1.20281e-06
-6.69214e-08
1.23631e-06
-6.34053e-08
1.26908e-06
-6.26301e-08
1.29981e-06
-5.85412e-08
1.32948e-06
-5.67494e-08
1.35708e-06
-5.22394e-08
1.38337e-06
-4.98038e-08
1.4082e-06
-4.68677e-08
1.4315e-06
-4.3562e-08
1.45368e-06
-4.12506e-08
1.47461e-06
-3.87041e-08
1.49456e-06
-3.69422e-08
1.5134e-06
-3.44861e-08
1.53144e-06
-3.24431e-08
1.54845e-06
-3.11364e-08
1.56463e-06
-2.99543e-08
1.58172e-06
-2.89572e-08
1.59677e-06
-2.62034e-08
1.61051e-06
-2.5299e-08
1.62372e-06
-2.41769e-08
1.63835e-06
-2.51087e-08
1.65101e-06
-2.19462e-08
1.66259e-06
-2.06276e-08
1.67394e-06
-2.03304e-08
1.68508e-06
-2.12759e-08
1.69869e-06
-2.11369e-08
1.70903e-06
-1.67411e-08
1.71792e-06
-1.53213e-08
1.72648e-06
-1.49659e-08
1.73536e-06
-1.67623e-08
1.74692e-06
-1.75997e-08
1.75551e-06
-1.37239e-08
1.76285e-06
-1.26314e-08
1.76967e-06
-1.1688e-08
1.77813e-06
-1.4242e-08
1.78537e-06
-1.16767e-08
1.79225e-06
-1.13569e-08
1.79885e-06
-1.12021e-08
1.8072e-06
-1.28843e-08
1.8135e-06
-9.60257e-09
1.81906e-06
-8.71378e-09
1.82423e-06
-8.37761e-09
1.83038e-06
-9.98045e-09
1.83578e-06
-8.4531e-09
1.84087e-06
-7.76579e-09
1.84582e-06
-8.00658e-09
1.8503e-06
-7.22361e-09
1.8546e-06
-7.10751e-09
1.85829e-06
-5.82267e-09
1.86195e-06
-5.36258e-09
1.86524e-06
-4.69247e-09
1.86903e-06
-3.732e-09
1.8721e-06
-3.79288e-09
1.87521e-06
-3.61427e-09
1.87835e-06
-4.06314e-09
1.88156e-06
-4.49657e-09
1.88454e-06
-4.03568e-09
1.88682e-06
-3.51978e-09
1.88888e-06
-2.96334e-09
1.89082e-06
-2.44672e-09
1.89241e-06
-1.48581e-09
1.8941e-06
-1.5931e-09
1.89623e-06
-1.77322e-09
1.89828e-06
-1.96067e-09
1.9006e-06
-2.20209e-09
1.90291e-06
-2.47893e-09
1.90535e-06
-3.25251e-09
1.90812e-06
-3.36641e-09
1.91066e-06
-3.68357e-09
1.91308e-06
-3.75379e-09
1.91538e-06
-3.32771e-09
1.91738e-06
-2.65579e-09
1.91865e-06
-1.89267e-09
1.92009e-06
-2.107e-09
1.92122e-06
-1.38097e-09
1.92215e-06
-8.542e-10
1.92281e-06
-4.3958e-10
1.92379e-06
-7.59187e-10
1.92449e-06
-2.50678e-10
1.92517e-06
-1.73476e-10
1.926e-06
-1.84941e-10
1.92674e-06
-2.02958e-10
1.9274e-06
-7.71499e-11
1.92805e-06
-6.35766e-11
1.92865e-06
1.20031e-11
1.92902e-06
2.79201e-10
1.9295e-06
2.18986e-10
1.92988e-06
2.62207e-10
1.9302e-06
4.38061e-10
1.93041e-06
5.22767e-10
1.93052e-06
6.94187e-10
1.93058e-06
7.59832e-10
1.93053e-06
9.44141e-10
1.9305e-06
9.38877e-10
1.93038e-06
1.10292e-09
1.93029e-06
1.08893e-09
1.93013e-06
1.17623e-09
1.92996e-06
1.27009e-09
1.92983e-06
1.1195e-09
1.92967e-06
1.27917e-09
1.9296e-06
1.07254e-09
1.92947e-06
1.17936e-09
1.92942e-06
1.02708e-09
1.92935e-06
1.02757e-09
1.92925e-06
1.03142e-09
1.92917e-06
9.71066e-10
1.92903e-06
1.08312e-09
1.92887e-06
9.25052e-10
1.9287e-06
9.6556e-10
1.92839e-06
1.08262e-09
1.92808e-06
1.09259e-09
1.9277e-06
1.16689e-09
1.92726e-06
1.24661e-09
1.92678e-06
1.30595e-09
1.92624e-06
1.37353e-09
1.92568e-06
1.42126e-09
1.92507e-06
1.51367e-09
1.92447e-06
1.51645e-09
1.92381e-06
1.63763e-09
1.92318e-06
1.61463e-09
1.92254e-06
1.62245e-09
1.92194e-06
1.6048e-09
1.92132e-06
1.59817e-09
1.92073e-06
1.58347e-09
1.92018e-06
1.51858e-09
1.91964e-06
1.50025e-09
1.91919e-06
1.35399e-09
1.91879e-06
1.24687e-09
1.91839e-06
1.20791e-09
1.91802e-06
1.09539e-09
1.91754e-06
1.26254e-09
1.91709e-06
9.30208e-10
1.91654e-06
1.1465e-09
1.91586e-06
1.33503e-09
1.91511e-06
1.41461e-09
1.91433e-06
1.46269e-09
1.91346e-06
1.63805e-09
1.91259e-06
1.64391e-09
1.91168e-06
1.8308e-09
1.91075e-06
1.86632e-09
1.90987e-06
1.80711e-09
1.90903e-06
1.77564e-09
1.90826e-06
1.70518e-09
1.90754e-06
1.63404e-09
1.90685e-06
1.59071e-09
1.90633e-06
1.31281e-09
1.90572e-06
1.37961e-09
1.90512e-06
1.32219e-09
1.90459e-06
1.1646e-09
1.90385e-06
1.47096e-09
1.90333e-06
9.88791e-10
1.90269e-06
1.16605e-09
1.90197e-06
1.29734e-09
1.90125e-06
1.27493e-09
1.90046e-06
1.38838e-09
1.89966e-06
1.42028e-09
1.8988e-06
1.51825e-09
1.89792e-06
1.55833e-09
1.89704e-06
1.59385e-09
1.89615e-06
1.62019e-09
1.89526e-06
1.63703e-09
1.89437e-06
1.66422e-09
1.89349e-06
1.65742e-09
1.8926e-06
1.66656e-09
1.89173e-06
1.65005e-09
1.89084e-06
1.66974e-09
1.88997e-06
1.6388e-09
1.88908e-06
1.6635e-09
1.88821e-06
1.63059e-09
1.88731e-06
1.66013e-09
1.88643e-06
1.61218e-09
1.88553e-06
1.65837e-09
1.88467e-06
1.57464e-09
1.88375e-06
1.65455e-09
1.88292e-06
1.5435e-09
1.88195e-06
1.67304e-09
1.0656e-09
-5.47608e-09
1.19035e-09
-1.69187e-08
2.15091e-08
-3.38948e-08
3.81185e-08
-5.50389e-08
5.29905e-08
-7.47156e-08
6.07796e-08
-9.22637e-08
6.02182e-08
-1.07616e-07
5.35246e-08
-1.20224e-07
4.53796e-08
-1.30285e-07
3.71474e-08
-1.38399e-07
3.03146e-08
-1.4552e-07
2.51648e-08
-1.51118e-07
2.0891e-08
-1.55615e-07
1.776e-08
-1.59332e-07
1.54997e-08
-1.62358e-07
1.36662e-08
-1.6489e-07
1.24789e-08
-1.67045e-07
1.15611e-08
-1.68891e-07
1.08156e-08
-1.70252e-07
9.97188e-09
-1.71039e-07
9.08662e-09
-1.71134e-07
7.83575e-09
-1.70522e-07
6.33413e-09
-1.69101e-07
4.27877e-09
-1.66775e-07
1.93711e-09
-1.63325e-07
-6.78712e-10
-1.58615e-07
-3.85621e-09
-1.52629e-07
-7.2541e-09
-1.45137e-07
-1.15704e-08
-1.355e-07
-1.65268e-08
-1.23728e-07
-2.1981e-08
-1.09147e-07
-2.9033e-08
-9.18644e-08
-3.65829e-08
-7.0606e-08
-4.65497e-08
-4.64603e-08
-5.48872e-08
-1.75687e-08
-6.70805e-08
1.47857e-08
-7.66592e-08
5.21455e-08
-9.08905e-08
9.24417e-08
-9.90736e-08
1.36704e-07
-1.1028e-07
1.84584e-07
-1.18852e-07
2.34566e-07
-1.23057e-07
2.89084e-07
-1.31783e-07
3.4568e-07
-1.37801e-07
4.03077e-07
-1.44493e-07
4.60308e-07
-1.48284e-07
5.17957e-07
-1.51558e-07
5.7634e-07
-1.54464e-07
6.3467e-07
-1.55143e-07
6.93268e-07
-1.55317e-07
7.52024e-07
-1.57145e-07
8.10013e-07
-1.55762e-07
8.67562e-07
-1.5625e-07
9.22745e-07
-1.50712e-07
9.76146e-07
-1.47469e-07
1.02756e-06
-1.42278e-07
1.07798e-06
-1.40933e-07
1.12648e-06
-1.36553e-07
1.17377e-06
-1.34913e-07
1.21858e-06
-1.29102e-07
1.26168e-06
-1.24443e-07
1.30309e-06
-1.21799e-07
1.34118e-06
-1.11331e-07
1.37794e-06
-1.07281e-07
1.41258e-06
-1.01588e-07
1.44554e-06
-9.63973e-08
1.47744e-06
-9.45626e-08
1.50712e-06
-8.82454e-08
1.5355e-06
-8.51508e-08
1.56175e-06
-7.85189e-08
1.58687e-06
-7.49494e-08
1.61044e-06
-7.04558e-08
1.63262e-06
-6.57602e-08
1.65386e-06
-6.24919e-08
1.67394e-06
-5.87747e-08
1.69309e-06
-5.60667e-08
1.71114e-06
-5.24981e-08
1.72878e-06
-5.00427e-08
1.74539e-06
-4.76961e-08
1.76116e-06
-4.56871e-08
1.77796e-06
-4.572e-08
1.79341e-06
-4.16317e-08
1.8074e-06
-3.92893e-08
1.82051e-06
-3.72863e-08
1.83466e-06
-3.92567e-08
1.84777e-06
-3.50699e-08
1.85972e-06
-3.25791e-08
1.87107e-06
-3.16903e-08
1.88228e-06
-3.24893e-08
1.89535e-06
-3.42179e-08
1.90686e-06
-2.82662e-08
1.91622e-06
-2.46841e-08
1.92537e-06
-2.41265e-08
1.93449e-06
-2.58801e-08
1.94559e-06
-2.87111e-08
1.9554e-06
-2.35365e-08
1.96335e-06
-2.05731e-08
1.97085e-06
-1.9196e-08
1.97907e-06
-2.24594e-08
1.98704e-06
-1.96424e-08
1.99433e-06
-1.86519e-08
2.00154e-06
-1.84123e-08
2.00992e-06
-2.12633e-08
2.01731e-06
-1.69977e-08
2.02365e-06
-1.50513e-08
2.02951e-06
-1.42344e-08
2.0359e-06
-1.63726e-08
2.04193e-06
-1.44745e-08
2.04764e-06
-1.34801e-08
2.05302e-06
-1.33864e-08
2.05805e-06
-1.22549e-08
2.06232e-06
-1.13874e-08
2.06617e-06
-9.68799e-09
2.06991e-06
-9.11537e-09
2.07352e-06
-8.31469e-09
2.07812e-06
-8.34066e-09
2.08199e-06
-7.68183e-09
2.08593e-06
-7.5605e-09
2.09006e-06
-8.19978e-09
2.09418e-06
-8.62888e-09
2.09793e-06
-7.7992e-09
2.10085e-06
-6.44535e-09
2.10311e-06
-5.22952e-09
2.10523e-06
-4.57547e-09
2.10763e-06
-3.8873e-09
2.10992e-06
-3.88873e-09
2.11356e-06
-5.41855e-09
2.11649e-06
-4.88292e-09
2.11976e-06
-5.46261e-09
2.12325e-06
-5.96741e-09
2.12687e-06
-6.85997e-09
2.13067e-06
-7.16287e-09
2.13421e-06
-7.22284e-09
2.13743e-06
-6.971e-09
2.14035e-06
-6.25332e-09
2.14287e-06
-5.16802e-09
2.14464e-06
-3.65868e-09
2.14614e-06
-3.60605e-09
2.14738e-06
-2.61058e-09
2.14866e-06
-2.13249e-09
2.14985e-06
-1.62393e-09
2.15119e-06
-2.09698e-09
2.15262e-06
-1.67152e-09
2.1541e-06
-1.65877e-09
2.15555e-06
-1.62999e-09
2.15683e-06
-1.49113e-09
2.1581e-06
-1.34871e-09
2.15929e-06
-1.25467e-09
2.16044e-06
-1.14447e-09
2.16121e-06
-4.91021e-10
2.16216e-06
-7.2719e-10
2.16288e-06
-4.43682e-10
2.16359e-06
-2.6435e-10
2.16411e-06
2.22372e-12
2.16454e-06
2.75254e-10
2.16491e-06
3.92721e-10
2.1652e-06
6.50173e-10
2.1655e-06
6.40345e-10
2.16576e-06
8.43935e-10
2.16604e-06
8.08956e-10
2.16631e-06
9.04268e-10
2.16658e-06
9.91409e-10
2.1669e-06
7.94985e-10
2.16725e-06
9.27146e-10
2.16764e-06
6.73083e-10
2.16807e-06
7.49581e-10
2.16848e-06
6.0982e-10
2.16885e-06
6.51534e-10
2.1692e-06
6.81235e-10
2.16955e-06
6.17261e-10
2.16965e-06
9.76921e-10
2.1698e-06
7.81296e-10
2.16992e-06
8.51196e-10
2.16994e-06
1.05918e-09
2.16988e-06
1.15628e-09
2.1697e-06
1.3375e-09
2.16945e-06
1.49453e-09
2.16914e-06
1.61315e-09
2.16877e-06
1.74607e-09
2.16838e-06
1.81135e-09
2.16794e-06
1.95275e-09
2.16751e-06
1.94094e-09
2.16705e-06
2.0965e-09
2.16663e-06
2.03824e-09
2.16622e-06
2.04464e-09
2.16586e-06
1.97311e-09
2.16549e-06
1.97991e-09
2.16514e-06
1.93332e-09
2.16485e-06
1.82186e-09
2.16458e-06
1.77564e-09
2.16447e-06
1.46101e-09
2.16435e-06
1.36579e-09
2.16425e-06
1.30502e-09
2.16403e-06
1.31275e-09
2.16373e-06
1.55223e-09
2.16329e-06
1.36754e-09
2.16277e-06
1.66263e-09
2.16208e-06
2.02053e-09
2.16128e-06
2.21306e-09
2.16045e-06
2.30164e-09
2.15956e-06
2.53038e-09
2.15867e-06
2.5419e-09
2.15779e-06
2.71445e-09
2.15693e-06
2.72415e-09
2.15612e-06
2.61287e-09
2.15541e-06
2.4808e-09
2.15478e-06
2.32365e-09
2.15422e-06
2.19139e-09
2.15375e-06
2.04973e-09
2.15336e-06
1.69803e-09
2.15292e-06
1.8106e-09
2.1524e-06
1.84231e-09
2.15195e-06
1.60802e-09
2.15127e-06
2.15473e-09
2.15064e-06
1.61745e-09
2.14996e-06
1.83729e-09
2.14917e-06
2.08966e-09
2.14838e-06
2.06828e-09
2.14751e-06
2.25553e-09
2.14662e-06
2.3174e-09
2.14568e-06
2.45847e-09
2.14472e-06
2.51769e-09
2.14377e-06
2.5544e-09
2.14282e-06
2.57467e-09
2.14187e-06
2.58671e-09
2.14093e-06
2.60902e-09
2.14001e-06
2.58861e-09
2.13908e-06
2.59899e-09
2.13817e-06
2.56732e-09
2.13725e-06
2.59958e-09
2.13634e-06
2.55438e-09
2.1354e-06
2.60094e-09
2.13448e-06
2.55361e-09
2.13352e-06
2.61706e-09
2.13259e-06
2.54277e-09
2.13162e-06
2.62861e-09
2.1307e-06
2.49595e-09
2.12972e-06
2.63503e-09
2.12882e-06
2.43503e-09
2.12776e-06
2.73737e-09
1.83981e-09
-9.93808e-09
1.1128e-08
-2.53054e-08
3.6876e-08
-4.45005e-08
5.73132e-08
-6.33849e-08
7.18747e-08
-8.02708e-08
7.76652e-08
-9.46682e-08
7.46155e-08
-1.06543e-07
6.53992e-08
-1.1625e-07
5.50867e-08
-1.24502e-07
4.54e-08
-1.31212e-07
3.70253e-08
-1.36355e-07
3.03076e-08
-1.40337e-07
2.48734e-08
-1.4337e-07
2.0793e-08
-1.45718e-07
1.78481e-08
-1.47528e-07
1.5477e-08
-1.48918e-07
1.38689e-08
-1.49885e-07
1.25279e-08
-1.50344e-07
1.12746e-08
-1.5039e-07
1.00178e-08
-1.4984e-07
8.53719e-09
-1.48572e-07
6.56741e-09
-1.46429e-07
4.19083e-09
-1.43374e-07
1.22278e-09
-1.39174e-07
-2.2629e-09
-1.33592e-07
-6.26146e-09
-1.26334e-07
-1.11141e-08
-1.17366e-07
-1.62223e-08
-1.064e-07
-2.25352e-08
-9.26998e-08
-3.02266e-08
-7.6377e-08
-3.83028e-08
-5.62356e-08
-4.91733e-08
-3.34423e-08
-5.93757e-08
-5.94292e-09
-7.40491e-08
2.56429e-08
-8.64732e-08
6.2581e-08
-1.0402e-07
1.03322e-07
-1.17403e-07
1.49786e-07
-1.37356e-07
1.987e-07
-1.4799e-07
2.52691e-07
-1.64271e-07
3.09963e-07
-1.76124e-07
3.69295e-07
-1.82387e-07
4.3275e-07
-1.95239e-07
4.97727e-07
-2.02777e-07
5.62985e-07
-2.0975e-07
6.27822e-07
-2.1312e-07
6.93104e-07
-2.16839e-07
7.58839e-07
-2.20197e-07
8.24059e-07
-2.20361e-07
8.89882e-07
-2.21137e-07
9.54517e-07
-2.21778e-07
1.01799e-06
-2.19228e-07
1.07977e-06
-2.18029e-07
1.13842e-06
-2.09354e-07
1.1947e-06
-2.03737e-07
1.24827e-06
-1.95836e-07
1.3006e-06
-1.93241e-07
1.34999e-06
-1.85928e-07
1.39744e-06
-1.82359e-07
1.44175e-06
-1.73426e-07
1.48395e-06
-1.66656e-07
1.52357e-06
-1.61437e-07
1.55982e-06
-1.47611e-07
1.59483e-06
-1.42308e-07
1.62737e-06
-1.34156e-07
1.6583e-06
-1.27359e-07
1.68792e-06
-1.24208e-07
1.71497e-06
-1.15327e-07
1.74066e-06
-1.10871e-07
1.7641e-06
-1.01987e-07
1.78655e-06
-9.74276e-08
1.80734e-06
-9.12697e-08
1.82702e-06
-8.54538e-08
1.84591e-06
-8.13851e-08
1.8637e-06
-7.65511e-08
1.88063e-06
-7.29776e-08
1.89653e-06
-6.83722e-08
1.91228e-06
-6.5761e-08
1.92709e-06
-6.24639e-08
1.94142e-06
-5.99754e-08
1.95651e-06
-6.07701e-08
1.97089e-06
-5.59889e-08
1.98374e-06
-5.21287e-08
1.99585e-06
-4.93841e-08
2.00836e-06
-5.17639e-08
2.02059e-06
-4.73025e-08
2.03167e-06
-4.36649e-08
2.04205e-06
-4.2072e-08
2.05225e-06
-4.26876e-08
2.06361e-06
-4.55854e-08
2.07474e-06
-3.94004e-08
2.08395e-06
-3.39002e-08
2.09262e-06
-3.28083e-08
2.10113e-06
-3.43923e-08
2.11077e-06
-3.83556e-08
2.12033e-06
-3.31085e-08
2.12826e-06
-2.85047e-08
2.13579e-06
-2.67294e-08
2.14292e-06
-2.9592e-08
2.15035e-06
-2.70777e-08
2.15752e-06
-2.58215e-08
2.16451e-06
-2.54055e-08
2.17193e-06
-2.86875e-08
2.17925e-06
-2.43178e-08
2.18556e-06
-2.135e-08
2.19153e-06
-2.02003e-08
2.19729e-06
-2.21275e-08
2.20321e-06
-2.0388e-08
2.20874e-06
-1.89992e-08
2.21392e-06
-1.85606e-08
2.21862e-06
-1.69606e-08
2.22248e-06
-1.52563e-08
2.22571e-06
-1.29313e-08
2.22901e-06
-1.24274e-08
2.23225e-06
-1.15701e-08
2.23658e-06
-1.26858e-08
2.2405e-06
-1.162e-08
2.24461e-06
-1.16826e-08
2.24897e-06
-1.25764e-08
2.25323e-06
-1.28945e-08
2.25703e-06
-1.16225e-08
2.25993e-06
-9.35468e-09
2.26206e-06
-7.3648e-09
2.26392e-06
-6.44473e-09
2.26645e-06
-6.42076e-09
2.26898e-06
-6.42461e-09
2.27278e-06
-9.21404e-09
2.27616e-06
-8.25514e-09
2.28001e-06
-9.30687e-09
2.28421e-06
-1.01636e-08
2.28861e-06
-1.12485e-08
2.29293e-06
-1.14752e-08
2.29699e-06
-1.12799e-08
2.30063e-06
-1.06062e-08
2.30386e-06
-9.47977e-09
2.30658e-06
-7.88808e-09
2.30855e-06
-5.6268e-09
2.30991e-06
-4.95878e-09
2.31106e-06
-3.75467e-09
2.31231e-06
-3.37783e-09
2.31355e-06
-2.86022e-09
2.31492e-06
-3.45871e-09
2.31649e-06
-3.2455e-09
2.31827e-06
-3.43893e-09
2.31984e-06
-3.20503e-09
2.32134e-06
-2.9912e-09
2.32286e-06
-2.86883e-09
2.32423e-06
-2.63443e-09
2.3256e-06
-2.51522e-09
2.32672e-06
-1.60761e-09
2.32773e-06
-1.73523e-09
2.32862e-06
-1.32435e-09
2.32951e-06
-1.1426e-09
2.33015e-06
-6.36163e-10
2.3307e-06
-2.67455e-10
2.33117e-06
-7.57396e-11
2.33158e-06
2.51887e-10
2.33201e-06
2.12591e-10
2.33241e-06
4.3881e-10
2.33286e-06
3.60014e-10
2.33331e-06
4.50706e-10
2.33381e-06
4.9102e-10
2.33436e-06
2.3436e-10
2.33504e-06
2.37399e-10
2.33566e-06
4.9173e-11
2.33635e-06
5.04238e-11
2.33701e-06
-6.31127e-11
2.33764e-06
2.03611e-11
2.33824e-06
7.08441e-11
2.33882e-06
4.1306e-11
2.33918e-06
6.11383e-10
2.33942e-06
5.43609e-10
2.33957e-06
6.96553e-10
2.33978e-06
8.56455e-10
2.33982e-06
1.10886e-09
2.33975e-06
1.41195e-09
2.33959e-06
1.65505e-09
2.33935e-06
1.84555e-09
2.33905e-06
2.04432e-09
2.33872e-06
2.13261e-09
2.33837e-06
2.30442e-09
2.33802e-06
2.289e-09
2.33768e-06
2.4428e-09
2.33736e-06
2.35762e-09
2.33708e-06
2.33863e-09
2.33685e-06
2.21346e-09
2.33663e-06
2.20551e-09
2.33645e-06
2.12925e-09
2.33632e-06
1.95938e-09
2.33629e-06
1.80646e-09
2.33632e-06
1.4325e-09
2.33634e-06
1.34757e-09
2.33641e-06
1.22732e-09
2.33631e-06
1.41188e-09
2.33616e-06
1.69537e-09
2.33576e-06
1.75998e-09
2.33524e-06
2.1767e-09
2.33455e-06
2.71423e-09
2.33373e-06
3.03956e-09
2.33284e-06
3.18813e-09
2.33193e-06
3.44882e-09
2.33102e-06
3.46081e-09
2.33015e-06
3.58836e-09
2.32932e-06
3.54742e-09
2.32856e-06
3.36266e-09
2.32793e-06
3.10722e-09
2.3274e-06
2.84625e-09
2.32694e-06
2.6406e-09
2.32664e-06
2.33748e-09
2.32634e-06
1.99661e-09
2.32599e-06
2.15702e-09
2.32558e-06
2.2443e-09
2.32518e-06
2.0008e-09
2.32455e-06
2.78561e-09
2.32382e-06
2.34166e-09
2.32313e-06
2.53159e-09
2.3223e-06
2.92121e-09
2.32145e-06
2.91852e-09
2.32053e-06
3.17305e-09
2.31956e-06
3.28638e-09
2.31857e-06
3.45454e-09
2.31755e-06
3.53508e-09
2.31654e-06
3.56865e-09
2.31555e-06
3.57844e-09
2.31456e-06
3.58069e-09
2.31358e-06
3.59223e-09
2.31262e-06
3.55475e-09
2.31166e-06
3.56449e-09
2.31072e-06
3.51657e-09
2.30977e-06
3.55974e-09
2.30883e-06
3.50182e-09
2.30786e-06
3.57394e-09
2.3069e-06
3.51185e-09
2.3059e-06
3.61399e-09
2.30493e-06
3.51469e-09
2.30392e-06
3.6434e-09
2.30295e-06
3.46202e-09
2.30192e-06
3.66274e-09
2.30099e-06
3.36565e-09
2.29985e-06
3.86946e-09
2.72941e-09
-1.39826e-08
2.51102e-08
-3.22906e-08
5.51835e-08
-5.00823e-08
7.51046e-08
-6.66487e-08
8.84408e-08
-8.07773e-08
9.17937e-08
-9.20134e-08
8.58515e-08
-1.01319e-07
7.47044e-08
-1.08991e-07
6.27594e-08
-1.15235e-07
5.16438e-08
-1.20188e-07
4.19784e-08
-1.23897e-07
3.40169e-08
-1.26644e-07
2.76212e-08
-1.28666e-07
2.28147e-08
-1.3009e-07
1.92723e-08
-1.31039e-07
1.64265e-08
-1.31441e-07
1.42716e-08
-1.31455e-07
1.25418e-08
-1.31057e-07
1.08769e-08
-1.30092e-07
9.05218e-09
-1.28405e-07
6.85051e-09
-1.2587e-07
4.0314e-09
-1.22274e-07
5.9522e-10
-1.17492e-07
-3.56022e-09
-1.11214e-07
-8.54149e-09
-1.03202e-07
-1.42735e-08
-9.30229e-08
-2.12933e-08
-8.06381e-08
-2.86071e-08
-6.5743e-08
-3.743e-08
-4.72306e-08
-4.87383e-08
-2.59065e-08
-5.96261e-08
-3.42597e-11
-7.50443e-08
3.04166e-08
-8.98261e-08
6.64974e-08
-1.1013e-07
1.06978e-07
-1.26954e-07
1.54761e-07
-1.51805e-07
2.06614e-07
-1.69256e-07
2.64931e-07
-1.95676e-07
3.25455e-07
-2.08511e-07
3.91503e-07
-2.30323e-07
4.60542e-07
-2.45157e-07
5.32811e-07
-2.54663e-07
6.0651e-07
-2.68931e-07
6.82216e-07
-2.78485e-07
7.56564e-07
-2.84099e-07
8.3179e-07
-2.88345e-07
9.05378e-07
-2.90426e-07
9.80423e-07
-2.95242e-07
1.05304e-06
-2.92971e-07
1.12803e-06
-2.96123e-07
1.19918e-06
-2.92929e-07
1.26836e-06
-2.88408e-07
1.33394e-06
-2.83604e-07
1.39527e-06
-2.70676e-07
1.45375e-06
-2.62216e-07
1.50814e-06
-2.50205e-07
1.56114e-06
-2.46217e-07
1.60969e-06
-2.34462e-07
1.65573e-06
-2.28393e-07
1.69774e-06
-2.15444e-07
1.73729e-06
-2.06212e-07
1.77344e-06
-1.97592e-07
1.80606e-06
-1.80229e-07
1.83736e-06
-1.73626e-07
1.86617e-06
-1.6298e-07
1.89344e-06
-1.54653e-07
1.91943e-06
-1.50216e-07
1.94253e-06
-1.38459e-07
1.96417e-06
-1.32556e-07
1.98351e-06
-1.21358e-07
2.00208e-06
-1.1603e-07
2.01894e-06
-1.08144e-07
2.03516e-06
-1.01679e-07
2.0506e-06
-9.68235e-08
2.06496e-06
-9.09042e-08
2.0786e-06
-8.66039e-08
2.09141e-06
-8.11641e-08
2.10432e-06
-7.86381e-08
2.11648e-06
-7.45908e-08
2.12863e-06
-7.20813e-08
2.141e-06
-7.31002e-08
2.15341e-06
-6.83728e-08
2.16425e-06
-6.2944e-08
2.17486e-06
-5.9987e-08
2.18484e-06
-6.17264e-08
2.19537e-06
-5.78327e-08
2.20471e-06
-5.29925e-08
2.2135e-06
-5.08574e-08
2.22197e-06
-5.11536e-08
2.23086e-06
-5.4481e-08
2.24052e-06
-4.90607e-08
2.24918e-06
-4.25653e-08
2.25684e-06
-4.04699e-08
2.26402e-06
-4.15881e-08
2.2715e-06
-4.5838e-08
2.27961e-06
-4.12281e-08
2.28732e-06
-3.62285e-08
2.29405e-06
-3.34694e-08
2.2998e-06
-3.53475e-08
2.30618e-06
-3.34617e-08
2.31244e-06
-3.20853e-08
2.3186e-06
-3.1575e-08
2.32459e-06
-3.46704e-08
2.33103e-06
-3.07651e-08
2.337e-06
-2.73072e-08
2.34234e-06
-2.55301e-08
2.34714e-06
-2.69171e-08
2.3523e-06
-2.55325e-08
2.3572e-06
-2.3891e-08
2.36162e-06
-2.29661e-08
2.36542e-06
-2.07571e-08
2.3683e-06
-1.81426e-08
2.37058e-06
-1.52231e-08
2.37294e-06
-1.4802e-08
2.37549e-06
-1.41367e-08
2.379e-06
-1.62116e-08
2.38256e-06
-1.51973e-08
2.38648e-06
-1.56187e-08
2.39056e-06
-1.66778e-08
2.39443e-06
-1.67794e-08
2.39776e-06
-1.49788e-08
2.40018e-06
-1.17829e-08
2.40184e-06
-9.03505e-09
2.40324e-06
-7.8588e-09
2.40536e-06
-8.54842e-09
2.40774e-06
-8.80227e-09
2.41099e-06
-1.2459e-08
2.41444e-06
-1.16998e-08
2.41878e-06
-1.36353e-08
2.42337e-06
-1.47441e-08
2.42802e-06
-1.58911e-08
2.4325e-06
-1.59454e-08
2.43672e-06
-1.54969e-08
2.44046e-06
-1.43392e-08
2.44371e-06
-1.2727e-08
2.44636e-06
-1.05371e-08
2.44824e-06
-7.4943e-09
2.4493e-06
-6.01577e-09
2.45016e-06
-4.61339e-09
2.45118e-06
-4.39311e-09
2.45226e-06
-3.93437e-09
2.45349e-06
-4.68117e-09
2.45487e-06
-4.63056e-09
2.45654e-06
-5.11069e-09
2.45809e-06
-4.75243e-09
2.45955e-06
-4.45888e-09
2.46103e-06
-4.35242e-09
2.46237e-06
-3.97977e-09
2.46372e-06
-3.85718e-09
2.46491e-06
-2.8039e-09
2.46583e-06
-2.6465e-09
2.46664e-06
-2.13171e-09
2.46745e-06
-1.94315e-09
2.46811e-06
-1.28382e-09
2.46863e-06
-7.86159e-10
2.4691e-06
-5.41128e-10
2.46946e-06
-1.02887e-10
2.46988e-06
-2.04438e-10
2.47027e-06
5.42082e-11
2.47075e-06
-1.16933e-10
2.47122e-06
-2.72261e-11
2.47185e-06
-1.37413e-10
2.47251e-06
-4.36637e-10
2.47329e-06
-5.45861e-10
2.47401e-06
-6.8893e-10
2.47483e-06
-7.75812e-10
2.47562e-06
-8.60913e-10
2.47635e-06
-7.1948e-10
2.47707e-06
-6.5268e-10
2.47771e-06
-6.03036e-10
2.47814e-06
1.74864e-10
2.47838e-06
3.05238e-10
2.47852e-06
5.48321e-10
2.47873e-06
6.48377e-10
2.47878e-06
1.06131e-09
2.47871e-06
1.48191e-09
2.47854e-06
1.81627e-09
2.47829e-06
2.09273e-09
2.47798e-06
2.35201e-09
2.47764e-06
2.47194e-09
2.47729e-06
2.65384e-09
2.47693e-06
2.64337e-09
2.47661e-06
2.76904e-09
2.47631e-06
2.66186e-09
2.47606e-06
2.59279e-09
2.47587e-06
2.41906e-09
2.47572e-06
2.36565e-09
2.4756e-06
2.25732e-09
2.47562e-06
1.95599e-09
2.47562e-06
1.80145e-09
2.47577e-06
1.28851e-09
2.47589e-06
1.22656e-09
2.47603e-06
1.09098e-09
2.47601e-06
1.42109e-09
2.47592e-06
1.77291e-09
2.47553e-06
2.15194e-09
2.47498e-06
2.72684e-09
2.47424e-06
3.45039e-09
2.47337e-06
3.91765e-09
2.47241e-06
4.14701e-09
2.47143e-06
4.43457e-09
2.47047e-06
4.43069e-09
2.46955e-06
4.51169e-09
2.46871e-06
4.38057e-09
2.46798e-06
4.09182e-09
2.46737e-06
3.70338e-09
2.46688e-06
3.32966e-09
2.46651e-06
2.99795e-09
2.46625e-06
2.58873e-09
2.46601e-06
2.2262e-09
2.4657e-06
2.46416e-09
2.46538e-06
2.55679e-09
2.465e-06
2.37306e-09
2.4644e-06
3.3878e-09
2.46358e-06
3.15919e-09
2.46282e-06
3.28714e-09
2.46196e-06
3.77995e-09
2.46104e-06
3.84217e-09
2.46006e-06
4.15302e-09
2.45902e-06
4.32931e-09
2.45795e-06
4.52063e-09
2.45687e-06
4.62076e-09
2.4558e-06
4.64865e-09
2.45473e-06
4.64507e-09
2.45369e-06
4.63347e-09
2.45266e-06
4.62937e-09
2.45165e-06
4.57128e-09
2.45065e-06
4.5784e-09
2.44966e-06
4.51217e-09
2.44866e-06
4.56493e-09
2.44767e-06
4.49474e-09
2.44666e-06
4.59309e-09