/*--------------------------------*- C++ -*----------------------------------*\
| =========                 |                                                 |
| \\      /  F ield         | OpenFOAM: The Open Source CFD Toolbox           |
|  \\    /   O peration     | Version:  2312                                  |
|   \\  /    A nd           | Website:  www.openfoam.com                      |
|    \\/     M anipulation  |                                                 |
\*---------------------------------------------------------------------------*/
FoamFile
{
    version     2.0;
    format      ascii;
    arch        "LSB;label=32;scalar=64";
    class       volScalarField;
    location    "0.006";
    object      rho;
}
// * * * * * * * * * * * * * * * * * * * * * * * * * * * * * * * * * * * * * //

dimensions      [1 -3 0 0 0 0 0];

internalField   nonuniform List<scalar> 
48128
(
0.0366608
0.0365764
0.0365138
0.036275
0.0360806
0.0357138
0.0350959
0.0343651
0.033633
0.03301
0.0325725
0.0322929
0.0321049
0.032065
0.0321281
0.0322716
0.0325033
0.0328258
0.0332421
0.0337695
0.0344624
0.0352801
0.0362103
0.0373015
0.0385713
0.0400177
0.0416444
0.0434426
0.0454791
0.0476881
0.0501295
0.0527542
0.0556095
0.0586523
0.061939
0.0653702
0.0690934
0.0727798
0.0766807
0.0806586
0.0846201
0.0877129
0.0916755
0.0955931
0.0994654
0.103328
0.107141
0.110847
0.114394
0.117868
0.121182
0.124454
0.127472
0.130489
0.133235
0.135966
0.138465
0.140846
0.143054
0.144978
0.146872
0.14845
0.149963
0.151436
0.152683
0.153964
0.154965
0.155953
0.156709
0.157446
0.158112
0.158673
0.159236
0.159726
0.160198
0.160608
0.161002
0.161467
0.161787
0.162091
0.162746
0.163223
0.163411
0.163579
0.164116
0.164424
0.164556
0.164638
0.16462
0.165336
0.165645
0.165692
0.165715
0.165651
0.16625
0.166501
0.166482
0.166468
0.166644
0.166723
0.166702
0.166639
0.166972
0.167096
0.16706
0.167037
0.16712
0.167116
0.167083
0.167014
0.166861
0.166629
0.166332
0.166093
0.165817
0.165779
0.165746
0.165723
0.165724
0.165717
0.165626
0.165425
0.165158
0.164923
0.164748
0.164594
0.164704
0.164769
0.164915
0.165089
0.165268
0.165445
0.16558
0.165674
0.16569
0.165646
0.165498
0.165301
0.165103
0.16493
0.164771
0.164657
0.164543
0.164477
0.164391
0.16431
0.164215
0.164125
0.164046
0.163924
0.163816
0.163677
0.16355
0.163412
0.163266
0.163128
0.162991
0.162868
0.162748
0.162641
0.16254
0.162456
0.162376
0.16231
0.162251
0.162202
0.16215
0.1621
0.162045
0.162003
0.161913
0.161845
0.161738
0.161637
0.16153
0.161418
0.161301
0.161182
0.161059
0.160942
0.160823
0.160717
0.160616
0.160525
0.160442
0.160369
0.160306
0.160253
0.160212
0.160183
0.160162
0.160148
0.160123
0.160103
0.160019
0.159937
0.15984
0.159728
0.159606
0.159487
0.159367
0.159261
0.15917
0.1591
0.159043
0.158999
0.158969
0.158952
0.158947
0.158943
0.158934
0.158916
0.15892
0.158843
0.158791
0.158737
0.158667
0.1586
0.158528
0.158456
0.158383
0.158311
0.158242
0.158178
0.158116
0.158059
0.158005
0.157953
0.157904
0.157856
0.157809
0.157764
0.157719
0.157676
0.157634
0.157594
0.157555
0.157521
0.15749
0.157381
0.0366964
0.0365919
0.0365531
0.036357
0.0361772
0.0357938
0.0352245
0.0345782
0.0339501
0.033487
0.0332282
0.033016
0.0328789
0.0328822
0.0329728
0.0331361
0.0333777
0.0337026
0.0341229
0.0346358
0.0352377
0.0359987
0.0368949
0.0379475
0.0391646
0.0405443
0.0420838
0.0437974
0.0457088
0.0477695
0.0500643
0.0525532
0.0552918
0.0582228
0.0614125
0.0647397
0.0683977
0.0721873
0.0758543
0.0798692
0.0838421
0.0877162
0.0916901
0.095684
0.0996845
0.103669
0.107619
0.111486
0.115247
0.118954
0.122519
0.126044
0.129334
0.132594
0.135596
0.138572
0.141322
0.143935
0.146364
0.148556
0.150667
0.152496
0.154283
0.155997
0.157505
0.159005
0.160235
0.16144
0.162427
0.163402
0.164291
0.165085
0.165877
0.166585
0.167283
0.167907
0.168522
0.169199
0.169699
0.170221
0.171108
0.171773
0.172121
0.17247
0.173211
0.173704
0.174005
0.174211
0.174386
0.175345
0.17584
0.176041
0.176171
0.176275
0.177079
0.177499
0.177621
0.177728
0.178061
0.178294
0.178403
0.17848
0.17899
0.17927
0.179364
0.17945
0.179666
0.179801
0.179883
0.17993
0.179881
0.179766
0.179597
0.179486
0.179382
0.179494
0.179593
0.179683
0.179779
0.17987
0.179858
0.179736
0.179558
0.179424
0.17935
0.179284
0.17951
0.179671
0.179914
0.180151
0.180404
0.180639
0.18082
0.180969
0.181049
0.181061
0.180959
0.180821
0.180688
0.18057
0.180471
0.180405
0.180341
0.18032
0.180292
0.180264
0.18022
0.180181
0.180153
0.180074
0.180014
0.179916
0.179832
0.179733
0.179625
0.179523
0.179421
0.179332
0.179244
0.17917
0.179099
0.179048
0.179
0.178968
0.17894
0.178923
0.178903
0.178884
0.178859
0.178845
0.178787
0.178746
0.178666
0.178588
0.178503
0.178412
0.178314
0.178213
0.178106
0.178006
0.177902
0.177809
0.177722
0.177646
0.177576
0.177518
0.177468
0.177429
0.177399
0.177384
0.177376
0.177376
0.177364
0.177353
0.177289
0.177214
0.177124
0.177017
0.1769
0.176782
0.176665
0.176556
0.176466
0.176397
0.176341
0.176298
0.176271
0.176255
0.176256
0.176256
0.17625
0.176235
0.176239
0.176167
0.176116
0.176061
0.17599
0.17592
0.175844
0.175767
0.175689
0.175612
0.175537
0.175467
0.175399
0.175337
0.175278
0.175221
0.175165
0.175112
0.175059
0.175008
0.174956
0.174907
0.174857
0.174811
0.174764
0.174722
0.174683
0.174571
0.0367384
0.0366367
0.0365703
0.0364028
0.0361364
0.0357297
0.0351812
0.0345912
0.0340455
0.0335916
0.0332369
0.0330365
0.0329199
0.0329278
0.0330154
0.0331711
0.0333988
0.0337064
0.0340977
0.0345958
0.0352105
0.0359481
0.0368105
0.0378298
0.0390045
0.0403402
0.0418363
0.0435088
0.045389
0.0474289
0.0497003
0.0521615
0.0548885
0.057781
0.0610083
0.0643364
0.0679797
0.0718117
0.0757961
0.0798582
0.0839224
0.0880429
0.0921809
0.096355
0.100511
0.104666
0.108796
0.112844
0.116801
0.120708
0.124455
0.12815
0.13159
0.135009
0.138156
0.14127
0.144133
0.14685
0.149351
0.151654
0.153819
0.155696
0.157586
0.159352
0.160941
0.1625
0.163768
0.165022
0.166041
0.167071
0.167991
0.16883
0.169671
0.170428
0.171172
0.171839
0.17251
0.173248
0.173803
0.174369
0.175324
0.176062
0.176481
0.176874
0.177663
0.178233
0.178608
0.178877
0.179066
0.18007
0.180665
0.180954
0.181154
0.18128
0.182112
0.182627
0.182832
0.182986
0.183354
0.183661
0.183835
0.183947
0.184505
0.18486
0.185031
0.185167
0.185426
0.185625
0.185763
0.185858
0.185856
0.185779
0.185654
0.185586
0.185529
0.18571
0.185871
0.186028
0.186183
0.186328
0.186371
0.186294
0.186154
0.186073
0.186053
0.186048
0.186336
0.186555
0.186859
0.187158
0.187461
0.187752
0.187978
0.188164
0.188279
0.188329
0.188256
0.188141
0.18804
0.187964
0.1879
0.187879
0.187861
0.187888
0.187895
0.187905
0.187897
0.187894
0.187893
0.187845
0.187812
0.187739
0.187678
0.187601
0.187515
0.187436
0.187357
0.187291
0.187228
0.187177
0.187131
0.187103
0.187081
0.187075
0.187072
0.187081
0.187086
0.187092
0.18709
0.187101
0.187062
0.187041
0.186977
0.186917
0.186849
0.186773
0.186691
0.186604
0.186512
0.186426
0.186336
0.186257
0.186184
0.186122
0.186067
0.186023
0.185988
0.185963
0.185948
0.185947
0.185954
0.185969
0.18597
0.185971
0.185916
0.185848
0.185764
0.185664
0.185551
0.185437
0.185325
0.185222
0.185136
0.185074
0.185024
0.18499
0.18497
0.184962
0.184972
0.184979
0.18498
0.184971
0.184979
0.184911
0.184861
0.184809
0.184739
0.184669
0.184593
0.184517
0.184438
0.184361
0.184287
0.184216
0.184149
0.184086
0.184027
0.18397
0.183915
0.183861
0.183808
0.183756
0.183704
0.183653
0.183602
0.183555
0.183506
0.183463
0.183422
0.183306
0.0368688
0.0366825
0.0366111
0.0363711
0.0360391
0.0355882
0.0350443
0.0344731
0.0339306
0.0335251
0.0332324
0.0330329
0.0329219
0.0329281
0.0330079
0.0331595
0.033375
0.0336643
0.0340335
0.034499
0.0350689
0.0357674
0.0365949
0.0375797
0.0387227
0.0400385
0.0415142
0.0431723
0.0450377
0.0470614
0.0493267
0.0517558
0.0545656
0.057397
0.0607134
0.064181
0.0679929
0.0718808
0.0760412
0.0802214
0.0844435
0.0887834
0.0931087
0.0974927
0.101842
0.106208
0.110534
0.114783
0.11896
0.123099
0.127028
0.130888
0.134448
0.138015
0.141302
0.144553
0.147508
0.150314
0.152834
0.155219
0.157374
0.15923
0.161176
0.162927
0.164552
0.166116
0.167359
0.16861
0.1696
0.170639
0.171528
0.172358
0.173197
0.173944
0.174681
0.175337
0.17601
0.17675
0.177327
0.177887
0.178833
0.17959
0.180059
0.18046
0.181224
0.18182
0.182241
0.182542
0.182737
0.18366
0.184299
0.18467
0.184914
0.185056
0.185812
0.186371
0.18665
0.186834
0.187188
0.187525
0.187743
0.187862
0.188406
0.188798
0.189023
0.189186
0.189446
0.189678
0.189841
0.189951
0.189964
0.189901
0.189792
0.189744
0.189698
0.189903
0.190096
0.190287
0.19047
0.190633
0.190701
0.190648
0.190533
0.190475
0.190489
0.190513
0.190826
0.191088
0.191431
0.191777
0.192114
0.19244
0.192697
0.192912
0.19305
0.193128
0.193078
0.192977
0.192894
0.192841
0.192798
0.192797
0.192804
0.192857
0.192889
0.192923
0.19294
0.19296
0.192986
0.192963
0.192952
0.192901
0.192863
0.192805
0.192736
0.192674
0.192612
0.192564
0.192519
0.192486
0.19246
0.192451
0.192449
0.192463
0.192481
0.192512
0.192535
0.19256
0.192576
0.192602
0.19258
0.192573
0.192521
0.192475
0.192419
0.192356
0.192285
0.19221
0.19213
0.192056
0.191977
0.19191
0.191849
0.191799
0.191756
0.191725
0.191701
0.191689
0.191686
0.191699
0.191718
0.191744
0.191757
0.191767
0.19172
0.191658
0.19158
0.191485
0.191378
0.19127
0.191162
0.191064
0.190985
0.19093
0.190887
0.19086
0.190847
0.190847
0.190865
0.190878
0.190886
0.190881
0.190896
0.190831
0.190783
0.190734
0.190666
0.190598
0.190524
0.190448
0.190371
0.190296
0.190223
0.190154
0.190088
0.190027
0.189969
0.189914
0.189859
0.189807
0.189754
0.189703
0.189652
0.189602
0.189551
0.189504
0.189455
0.189412
0.18937
0.189253
0.0369426
0.0367332
0.0365712
0.0362692
0.035869
0.035389
0.0348484
0.0343008
0.0338044
0.0334081
0.033127
0.032943
0.0328495
0.0328618
0.0329386
0.033085
0.0332854
0.0335614
0.0339133
0.0343573
0.0349085
0.0355863
0.0363977
0.0373721
0.038506
0.0398172
0.0412822
0.04293
0.0447985
0.0468162
0.049178
0.0515256
0.0544563
0.057474
0.060896
0.0645028
0.0684998
0.0725149
0.0768676
0.0812009
0.0856351
0.0902839
0.0947979
0.0994308
0.103989
0.108646
0.113175
0.117669
0.122078
0.126466
0.130588
0.134602
0.13828
0.141999
0.145439
0.148822
0.15184
0.154713
0.15722
0.15967
0.161767
0.163585
0.165575
0.167264
0.168902
0.170428
0.171604
0.172817
0.173738
0.174754
0.175568
0.176358
0.177162
0.177864
0.178561
0.179182
0.179831
0.180535
0.181127
0.181647
0.182539
0.183279
0.183789
0.184178
0.184878
0.185466
0.185914
0.186231
0.186437
0.187215
0.187851
0.188309
0.188581
0.188735
0.189367
0.189922
0.190279
0.190476
0.190794
0.19114
0.19138
0.191509
0.191992
0.192394
0.19267
0.192841
0.193083
0.193324
0.193496
0.193598
0.193609
0.193546
0.193446
0.193404
0.193359
0.193564
0.193778
0.193986
0.194174
0.194334
0.194404
0.194364
0.194268
0.194223
0.194257
0.194301
0.194608
0.194909
0.195283
0.195656
0.196009
0.196356
0.196633
0.196866
0.197017
0.197111
0.19708
0.196989
0.196918
0.196879
0.196848
0.196857
0.196876
0.196942
0.196989
0.197039
0.19707
0.197103
0.197144
0.197138
0.19714
0.197103
0.197078
0.197037
0.196984
0.196936
0.196889
0.196853
0.196822
0.196804
0.196792
0.1968
0.196815
0.196846
0.19688
0.196926
0.196964
0.197003
0.197033
0.197066
0.197054
0.197057
0.197015
0.196978
0.196931
0.196877
0.196816
0.19675
0.196678
0.196613
0.196543
0.196484
0.196433
0.196392
0.196358
0.196336
0.196322
0.196319
0.196326
0.196349
0.196378
0.196413
0.196433
0.196452
0.196411
0.196355
0.196281
0.196192
0.196088
0.195984
0.19588
0.195787
0.195712
0.195663
0.195626
0.195604
0.195597
0.195604
0.195627
0.195645
0.195659
0.195658
0.195677
0.195617
0.195569
0.195522
0.195457
0.19539
0.195318
0.195243
0.195168
0.195093
0.195021
0.194954
0.194889
0.194829
0.194773
0.194718
0.194665
0.194613
0.194562
0.194511
0.194461
0.194411
0.194361
0.194314
0.194265
0.194222
0.194179
0.194063
0.0369979
0.0367315
0.0364883
0.0361138
0.0356629
0.035172
0.0346305
0.0340926
0.0336288
0.0332648
0.0330048
0.032836
0.032759
0.0327742
0.0328471
0.0329917
0.0331823
0.0334486
0.0337887
0.0342188
0.0347591
0.0354286
0.0362367
0.0372086
0.0383369
0.0396516
0.0411175
0.0427608
0.0447076
0.0467025
0.0491807
0.051715
0.0547131
0.0578947
0.0614808
0.0652657
0.069491
0.0736798
0.0783128
0.082833
0.0874516
0.0924984
0.0971638
0.102064
0.106828
0.111832
0.116599
0.121364
0.126024
0.130553
0.13487
0.138972
0.142815
0.146671
0.150335
0.15387
0.156964
0.159888
0.162397
0.164922
0.166947
0.168698
0.170798
0.172398
0.174044
0.175534
0.176561
0.177745
0.178545
0.179552
0.180251
0.180983
0.181732
0.182358
0.182996
0.183566
0.184185
0.184819
0.185423
0.185921
0.186695
0.187358
0.187924
0.188306
0.188901
0.189426
0.189907
0.190228
0.190442
0.191046
0.191635
0.192175
0.192471
0.192638
0.193123
0.193635
0.194051
0.194254
0.194535
0.194862
0.195108
0.195254
0.195637
0.196023
0.196335
0.196508
0.196722
0.196949
0.197116
0.19719
0.197181
0.197111
0.197012
0.196969
0.196924
0.197104
0.19733
0.197547
0.197722
0.197858
0.197912
0.197876
0.197798
0.197759
0.197802
0.197859
0.198141
0.198484
0.198873
0.199256
0.199616
0.199976
0.200257
0.200499
0.200652
0.200753
0.200733
0.200651
0.200587
0.200554
0.200529
0.200542
0.200565
0.200635
0.20069
0.200748
0.200786
0.200824
0.20087
0.200874
0.200884
0.200853
0.200835
0.200803
0.200759
0.200722
0.200686
0.200661
0.200641
0.200634
0.200633
0.200652
0.200676
0.200716
0.20076
0.200816
0.200862
0.200912
0.200949
0.20099
0.200987
0.200998
0.200963
0.200931
0.200891
0.200844
0.200788
0.200728
0.200662
0.200603
0.200538
0.200486
0.200441
0.200406
0.200378
0.200361
0.200353
0.200358
0.200372
0.200402
0.200437
0.200478
0.200503
0.200529
0.200491
0.200437
0.200367
0.20028
0.200179
0.200078
0.199976
0.199885
0.199814
0.199768
0.199734
0.199716
0.199713
0.199724
0.19975
0.199772
0.199791
0.199792
0.199814
0.199756
0.199709
0.199663
0.199599
0.199532
0.19946
0.199386
0.199311
0.199236
0.199165
0.199097
0.199033
0.198973
0.198917
0.198863
0.19881
0.198758
0.198707
0.198657
0.198606
0.198556
0.198506
0.198458
0.198409
0.198366
0.198322
0.198205
0.0369984
0.0366662
0.0363612
0.0359337
0.035459
0.034958
0.0343925
0.0338731
0.0334415
0.0331059
0.0328674
0.0327184
0.0326577
0.0326772
0.0327509
0.0328928
0.0330833
0.0333434
0.0336778
0.0341011
0.0346407
0.0353113
0.0361175
0.0370916
0.0382184
0.0395412
0.0410669
0.0427091
0.0447626
0.0468926
0.0494545
0.0521688
0.055327
0.0587263
0.0625339
0.0665288
0.0710846
0.0754258
0.0804916
0.0851659
0.0898135
0.0951544
0.0999246
0.105052
0.109962
0.115198
0.120179
0.125183
0.130102
0.134639
0.139156
0.143365
0.147432
0.15151
0.155478
0.159265
0.162458
0.165535
0.168048
0.170682
0.172676
0.174455
0.17665
0.178161
0.179811
0.181253
0.182129
0.183274
0.183944
0.184926
0.18552
0.18622
0.186916
0.187482
0.188072
0.188612
0.1892
0.18977
0.190367
0.190843
0.191449
0.192048
0.192634
0.193004
0.193456
0.193911
0.194395
0.194701
0.19492
0.195343
0.195885
0.19646
0.196747
0.196937
0.197278
0.197732
0.19815
0.198359
0.198599
0.198889
0.199107
0.19927
0.199546
0.199907
0.200216
0.200391
0.200572
0.200767
0.200908
0.200934
0.200894
0.200812
0.200711
0.200657
0.200618
0.200757
0.200984
0.201193
0.201337
0.20143
0.201456
0.201426
0.201353
0.201324
0.201352
0.201432
0.201696
0.202056
0.202447
0.202829
0.203187
0.203551
0.203826
0.204068
0.204208
0.204308
0.204289
0.204213
0.204154
0.20412
0.204096
0.204106
0.204129
0.204193
0.204249
0.204309
0.204346
0.204385
0.204426
0.204435
0.204447
0.204417
0.204399
0.20437
0.204329
0.204299
0.204268
0.204249
0.204235
0.204234
0.20424
0.204263
0.204294
0.204338
0.204386
0.204445
0.204496
0.20455
0.204589
0.204635
0.204639
0.204654
0.204624
0.204594
0.204557
0.204513
0.204461
0.204403
0.20434
0.204282
0.20422
0.20417
0.204128
0.204095
0.20407
0.204056
0.204051
0.20406
0.204077
0.204112
0.204148
0.204192
0.204219
0.204247
0.204211
0.204158
0.204087
0.204001
0.203901
0.203799
0.203698
0.203606
0.203537
0.203491
0.203459
0.203442
0.20344
0.203454
0.203481
0.203503
0.203525
0.203526
0.203549
0.203492
0.203444
0.203397
0.203333
0.203265
0.203192
0.203117
0.203041
0.202965
0.202893
0.202824
0.202758
0.202698
0.202641
0.202585
0.202531
0.202479
0.202426
0.202375
0.202323
0.202272
0.20222
0.202171
0.202121
0.202076
0.202031
0.201913
0.0369473
0.0365455
0.036203
0.0357488
0.0352603
0.034725
0.0341522
0.0336607
0.0332582
0.0329506
0.0327345
0.0326048
0.0325586
0.0325826
0.03266
0.0328036
0.0329981
0.0332553
0.0335907
0.034017
0.0345586
0.0352351
0.0360395
0.0370191
0.0381871
0.0395182
0.0411336
0.0428911
0.0450264
0.0473086
0.0500361
0.0529704
0.0563351
0.0599927
0.0641602
0.0680691
0.0727447
0.0770383
0.0821326
0.0871823
0.0920186
0.0975915
0.10266
0.108178
0.113401
0.118954
0.124232
0.129494
0.134714
0.139355
0.143987
0.148312
0.152248
0.156752
0.160772
0.164786
0.168143
0.171449
0.174037
0.176741
0.178745
0.1807
0.182983
0.184459
0.186177
0.187606
0.188364
0.189493
0.190101
0.191063
0.191587
0.192302
0.192916
0.193402
0.19394
0.194421
0.194965
0.195456
0.196014
0.196409
0.196874
0.19738
0.197965
0.198295
0.198645
0.199027
0.199484
0.199785
0.199983
0.200297
0.200734
0.201278
0.201586
0.201759
0.202002
0.20234
0.202734
0.202945
0.203138
0.203366
0.203551
0.203695
0.203895
0.204184
0.204475
0.20465
0.204786
0.204932
0.205017
0.204987
0.204902
0.204795
0.204691
0.2046
0.204581
0.204684
0.204886
0.205063
0.205167
0.205198
0.205195
0.205154
0.205084
0.205065
0.205072
0.205184
0.205441
0.205788
0.206162
0.206537
0.206885
0.207236
0.207494
0.207725
0.20785
0.20793
0.207915
0.207832
0.207775
0.207732
0.207712
0.207709
0.207728
0.207778
0.207826
0.20788
0.207912
0.207945
0.207976
0.207981
0.207991
0.207957
0.207933
0.207904
0.207864
0.207834
0.207807
0.207789
0.207776
0.207773
0.207782
0.207803
0.207833
0.207877
0.207924
0.207981
0.20803
0.208084
0.20812
0.208162
0.20817
0.208189
0.208158
0.208127
0.208089
0.208044
0.207991
0.207932
0.207868
0.207809
0.207746
0.207694
0.207651
0.207618
0.207591
0.207577
0.207572
0.20758
0.207597
0.207633
0.207667
0.20771
0.207735
0.207762
0.207723
0.207669
0.207596
0.207508
0.207405
0.207301
0.207197
0.207103
0.207032
0.206986
0.206952
0.206934
0.206932
0.206944
0.206969
0.20699
0.207012
0.20701
0.207031
0.206974
0.206923
0.206873
0.206807
0.206736
0.20666
0.206583
0.206504
0.206426
0.20635
0.206279
0.206211
0.206148
0.206088
0.206031
0.205974
0.205919
0.205864
0.20581
0.205756
0.205702
0.205648
0.205597
0.205544
0.205496
0.205449
0.205328
0.0368388
0.0363835
0.0360286
0.0355601
0.0350606
0.0344831
0.0339305
0.0334659
0.0330899
0.0328069
0.032613
0.0325023
0.0324686
0.0324979
0.0325815
0.0327309
0.0329306
0.0331944
0.0335392
0.0339671
0.03451
0.0351961
0.0360236
0.0370161
0.0382506
0.0396889
0.0413542
0.0432511
0.0455332
0.048002
0.0509024
0.0541274
0.0577486
0.061129
0.0654034
0.0691552
0.0739172
0.0783038
0.0834403
0.0889976
0.0943445
0.100108
0.105761
0.111649
0.11755
0.123351
0.129091
0.134439
0.139991
0.144672
0.149365
0.15367
0.157699
0.162543
0.166113
0.170288
0.173588
0.177137
0.179876
0.182664
0.184842
0.187067
0.189519
0.191061
0.192912
0.194336
0.195155
0.196302
0.19699
0.197969
0.198496
0.199258
0.199775
0.20022
0.200717
0.201135
0.201632
0.202034
0.202529
0.202857
0.203178
0.203559
0.204097
0.204405
0.204643
0.204935
0.205329
0.205631
0.205771
0.205967
0.206287
0.206752
0.207069
0.207213
0.207349
0.207565
0.20789
0.208106
0.208252
0.208408
0.208562
0.208667
0.20879
0.208991
0.209243
0.209408
0.209493
0.209569
0.209579
0.209467
0.209338
0.209204
0.209085
0.208973
0.208943
0.209013
0.209175
0.209292
0.209341
0.209304
0.209253
0.209205
0.209141
0.20912
0.209117
0.209253
0.209495
0.20981
0.21015
0.210509
0.210833
0.211159
0.211386
0.211594
0.211687
0.21174
0.211724
0.211635
0.211573
0.21152
0.211489
0.211476
0.211475
0.211506
0.21154
0.21158
0.211599
0.211619
0.211633
0.211629
0.211632
0.211592
0.211559
0.211528
0.211488
0.211455
0.211425
0.211401
0.211384
0.211375
0.211374
0.211389
0.211411
0.211447
0.211486
0.211535
0.211576
0.211624
0.211651
0.211685
0.211692
0.211709
0.211673
0.211637
0.211594
0.211544
0.211485
0.211421
0.211352
0.211288
0.211219
0.211162
0.211114
0.211076
0.211045
0.211027
0.211017
0.211022
0.211035
0.211068
0.211097
0.211135
0.211154
0.211176
0.211131
0.211071
0.210993
0.2109
0.210792
0.210683
0.210575
0.210475
0.210401
0.21035
0.210313
0.210291
0.210285
0.210294
0.210314
0.210331
0.210351
0.210344
0.210358
0.210299
0.210245
0.210189
0.210118
0.210043
0.209963
0.209881
0.209798
0.209715
0.209635
0.209559
0.209487
0.20942
0.209356
0.209294
0.209234
0.209175
0.209116
0.209058
0.208999
0.208942
0.208884
0.208828
0.208772
0.208721
0.208669
0.208545
0.0366712
0.0361887
0.0358415
0.0353697
0.034855
0.0342605
0.0337378
0.0332948
0.0329426
0.0326821
0.0325088
0.0324147
0.032392
0.0324293
0.0325221
0.0326798
0.0328887
0.033164
0.0335184
0.0339496
0.0345034
0.0352148
0.0360919
0.0371665
0.0384323
0.040001
0.0417588
0.0438163
0.0462498
0.0489729
0.0520236
0.054973
0.0587551
0.0618879
0.0661442
0.0699561
0.0746223
0.0794053
0.0844844
0.0904613
0.0965579
0.102492
0.109168
0.115196
0.12211
0.128133
0.134457
0.139787
0.145594
0.150078
0.154622
0.158746
0.163026
0.168097
0.171401
0.175494
0.17854
0.182123
0.184869
0.187878
0.190375
0.192783
0.19559
0.197199
0.199197
0.200609
0.201713
0.202989
0.20387
0.204922
0.205576
0.206467
0.206981
0.207514
0.208066
0.208497
0.209016
0.209386
0.209843
0.210144
0.210399
0.210652
0.211102
0.211375
0.211576
0.211773
0.21208
0.212332
0.212456
0.212548
0.212717
0.213046
0.213329
0.213473
0.213518
0.213596
0.213809
0.214015
0.214119
0.214186
0.214286
0.214343
0.214368
0.214467
0.214641
0.214779
0.214801
0.214788
0.214675
0.214498
0.214318
0.214162
0.214034
0.213922
0.213866
0.213887
0.21399
0.214031
0.213995
0.213889
0.213794
0.213723
0.213674
0.21365
0.213647
0.213777
0.213984
0.214257
0.214549
0.214873
0.215158
0.215445
0.215627
0.215793
0.215846
0.215856
0.215835
0.215751
0.21568
0.215615
0.215562
0.215524
0.215496
0.215494
0.215503
0.215518
0.215515
0.215517
0.215506
0.215486
0.21548
0.215433
0.215391
0.215348
0.215295
0.21525
0.215207
0.215172
0.215142
0.215122
0.215109
0.215107
0.215114
0.215133
0.215158
0.21519
0.215216
0.215252
0.215266
0.21529
0.215287
0.215296
0.215249
0.215202
0.215149
0.215089
0.215019
0.214946
0.214867
0.214793
0.214715
0.214649
0.214592
0.214545
0.214506
0.214479
0.214462
0.214458
0.214463
0.214489
0.214509
0.214537
0.214545
0.214558
0.214503
0.214435
0.214348
0.214248
0.214132
0.214015
0.2139
0.213793
0.213713
0.213655
0.213611
0.213583
0.213571
0.213572
0.213585
0.213594
0.21361
0.213594
0.2136
0.213537
0.213477
0.213414
0.213336
0.213254
0.213168
0.213079
0.21299
0.212901
0.212815
0.212732
0.212654
0.212581
0.212511
0.212443
0.212377
0.212312
0.212248
0.212184
0.21212
0.212057
0.211994
0.211933
0.211871
0.211815
0.211757
0.211628
0.0364638
0.0359767
0.0356467
0.0351843
0.0346455
0.0340681
0.0335728
0.0331507
0.0328206
0.0325809
0.0324254
0.0323452
0.0323332
0.0323812
0.0324873
0.0326565
0.0328785
0.0331565
0.033525
0.033981
0.0345727
0.0353458
0.0362528
0.0374282
0.0387628
0.0404577
0.0423236
0.0445811
0.0471534
0.0497576
0.0529082
0.0554632
0.0592102
0.0621167
0.0664579
0.0699306
0.0747744
0.0789147
0.0847542
0.089736
0.0965982
0.102444
0.109246
0.115528
0.123102
0.128899
0.135947
0.14184
0.148373
0.153637
0.159187
0.163523
0.167834
0.173163
0.176448
0.180275
0.183006
0.186424
0.188903
0.192065
0.194639
0.197359
0.200408
0.202266
0.204448
0.205853
0.207323
0.208851
0.209933
0.211116
0.211942
0.212983
0.213657
0.214349
0.215071
0.215615
0.21623
0.216694
0.217198
0.217556
0.217888
0.218131
0.218496
0.218805
0.219102
0.219287
0.21952
0.219755
0.21992
0.219985
0.220026
0.22018
0.220418
0.22058
0.220581
0.220523
0.220607
0.220764
0.220824
0.220829
0.220854
0.220857
0.220782
0.220755
0.220825
0.220909
0.220844
0.220736
0.220499
0.22027
0.22008
0.219948
0.219829
0.219701
0.219597
0.219525
0.219517
0.21943
0.219287
0.219117
0.218978
0.218904
0.218877
0.21884
0.21882
0.218897
0.219047
0.219253
0.219476
0.21975
0.219977
0.220203
0.220333
0.220439
0.220435
0.220398
0.22039
0.220324
0.220235
0.220153
0.22007
0.219989
0.219915
0.219868
0.219838
0.219815
0.219783
0.219759
0.219721
0.219685
0.219664
0.219598
0.219529
0.219459
0.219382
0.219313
0.219247
0.219188
0.219136
0.219093
0.21906
0.21904
0.219026
0.219022
0.219022
0.219029
0.219035
0.219051
0.219048
0.219052
0.219028
0.21902
0.218954
0.218891
0.218819
0.218742
0.218657
0.218568
0.218474
0.218385
0.218292
0.218212
0.218141
0.218081
0.218027
0.217987
0.217957
0.217942
0.217935
0.217948
0.217955
0.21797
0.217961
0.217961
0.217891
0.217812
0.217714
0.217603
0.217477
0.217349
0.217225
0.217108
0.217019
0.216952
0.216899
0.216861
0.21684
0.216831
0.216833
0.216832
0.21684
0.216812
0.216806
0.216736
0.21667
0.216596
0.21651
0.216419
0.216324
0.216227
0.216129
0.216032
0.215938
0.215847
0.215761
0.215679
0.215602
0.215527
0.215453
0.21538
0.215308
0.215237
0.215166
0.215096
0.215026
0.214958
0.21489
0.214827
0.214761
0.214624
0.0362313
0.0357613
0.0354567
0.035005
0.034453
0.0339111
0.0334369
0.0330366
0.0327271
0.0325061
0.032366
0.0322979
0.0322972
0.032359
0.0324802
0.0326629
0.0328896
0.0331911
0.0335988
0.0340909
0.0347122
0.035561
0.0365215
0.0378017
0.0392417
0.0410578
0.0429704
0.0453516
0.047955
0.0501836
0.0533327
0.0556025
0.0590771
0.0620521
0.0656283
0.0693868
0.0731952
0.0777151
0.0817243
0.0871285
0.0928438
0.0986515
0.105895
0.11184
0.119064
0.125942
0.133467
0.139473
0.146652
0.151826
0.158239
0.163431
0.168979
0.174773
0.17891
0.183334
0.18665
0.190119
0.192562
0.195622
0.197946
0.200874
0.203766
0.205964
0.208368
0.209963
0.211635
0.213484
0.214742
0.216103
0.21707
0.218223
0.219094
0.219986
0.220857
0.221552
0.222286
0.22289
0.223494
0.223983
0.224459
0.224794
0.225204
0.225602
0.226086
0.226387
0.226711
0.227016
0.227342
0.227495
0.227567
0.22764
0.227891
0.228126
0.228174
0.228114
0.228101
0.228184
0.228251
0.228261
0.228224
0.228176
0.228031
0.227898
0.227844
0.227816
0.227669
0.227496
0.227183
0.22698
0.226822
0.226691
0.226573
0.226462
0.226326
0.226089
0.22591
0.225648
0.225387
0.225182
0.225052
0.224964
0.224914
0.224877
0.224816
0.224793
0.224831
0.224927
0.225052
0.225238
0.225381
0.225519
0.225575
0.225606
0.225536
0.225475
0.225457
0.225396
0.22528
0.225171
0.225064
0.224959
0.224851
0.224752
0.224673
0.224605
0.224545
0.22449
0.224411
0.224335
0.22427
0.224167
0.224055
0.223947
0.223836
0.223731
0.223629
0.223535
0.223449
0.223374
0.223309
0.223258
0.223217
0.223186
0.223161
0.223141
0.223118
0.223107
0.223069
0.223042
0.222989
0.222954
0.222862
0.222774
0.222676
0.222574
0.222466
0.222354
0.222238
0.222127
0.222012
0.221911
0.221821
0.221739
0.221666
0.221607
0.221559
0.221526
0.221502
0.221497
0.221485
0.221482
0.22145
0.221432
0.221344
0.221251
0.221138
0.221012
0.220872
0.220732
0.220595
0.220465
0.220364
0.220283
0.220217
0.220166
0.220132
0.220111
0.220097
0.220083
0.220079
0.220036
0.220016
0.219938
0.219863
0.219775
0.219678
0.219576
0.21947
0.219362
0.219254
0.219147
0.219042
0.218941
0.218845
0.218754
0.218666
0.218581
0.218498
0.218416
0.218335
0.218255
0.218175
0.218096
0.218017
0.21794
0.217864
0.217794
0.217718
0.217572
0.0359866
0.0355579
0.0352775
0.0348326
0.03429
0.0337882
0.0333333
0.0329544
0.0326643
0.0324602
0.0323339
0.0322772
0.0322869
0.0323675
0.0325081
0.0327104
0.0329601
0.0332758
0.0337208
0.0342658
0.0349272
0.0358629
0.0369063
0.0382802
0.039837
0.0417407
0.0436305
0.0458226
0.0484922
0.0503625
0.0533591
0.055452
0.0587345
0.0610366
0.0648351
0.0673538
0.0708324
0.0739445
0.07791
0.081671
0.0855476
0.0899458
0.0946339
0.1002
0.106986
0.113894
0.122603
0.129973
0.138275
0.145183
0.153751
0.160529
0.167448
0.172998
0.177891
0.182891
0.186661
0.190975
0.19454
0.197993
0.200572
0.203687
0.20624
0.208543
0.211133
0.212927
0.214793
0.216914
0.218285
0.219857
0.22096
0.222233
0.223232
0.224334
0.225316
0.226131
0.22696
0.227656
0.228348
0.228924
0.229505
0.229942
0.230435
0.2309
0.23149
0.231957
0.232433
0.232849
0.233344
0.233635
0.233875
0.234062
0.234343
0.234709
0.234924
0.235087
0.235184
0.23529
0.235492
0.235651
0.235699
0.235722
0.23563
0.235503
0.235404
0.235314
0.235169
0.235013
0.234729
0.234495
0.234278
0.234091
0.233928
0.233788
0.233702
0.233409
0.233094
0.232706
0.232386
0.232131
0.231911
0.231748
0.231638
0.231567
0.231533
0.231411
0.231326
0.231278
0.231274
0.231334
0.231364
0.23139
0.23134
0.231286
0.231184
0.231128
0.231072
0.231003
0.230853
0.230708
0.230564
0.230412
0.230266
0.230131
0.230008
0.229895
0.229784
0.229684
0.229551
0.229423
0.229308
0.229161
0.228998
0.228844
0.22869
0.228541
0.228397
0.228261
0.228134
0.228019
0.227914
0.227825
0.227746
0.227679
0.227618
0.227562
0.227503
0.227458
0.227382
0.227318
0.22723
0.227162
0.227037
0.226918
0.226787
0.226653
0.226514
0.226373
0.226228
0.226088
0.225944
0.225815
0.225697
0.225588
0.225488
0.225403
0.225331
0.225274
0.225227
0.2252
0.225163
0.225135
0.225076
0.225034
0.224925
0.224811
0.224678
0.224532
0.224374
0.224216
0.224062
0.223914
0.223796
0.223697
0.223613
0.223546
0.223495
0.223456
0.223424
0.223392
0.223372
0.223312
0.223274
0.223184
0.223096
0.222993
0.222881
0.222764
0.222645
0.222523
0.222402
0.222282
0.222164
0.222051
0.221942
0.221838
0.221739
0.221642
0.221547
0.221453
0.221361
0.221269
0.221178
0.221089
0.221
0.220912
0.220826
0.220746
0.220657
0.220501
0.0357542
0.035374
0.0351155
0.0346655
0.034165
0.0336957
0.0332634
0.0329058
0.0326353
0.032445
0.0323316
0.0322898
0.0323149
0.032436
0.032582
0.0327827
0.0330569
0.0334094
0.0339078
0.034503
0.0352284
0.0362604
0.0373874
0.0388262
0.0404939
0.0424671
0.0443256
0.0462384
0.0488351
0.0504892
0.0532314
0.0552318
0.0578045
0.0604153
0.0625287
0.0650284
0.067353
0.0695908
0.0716545
0.073409
0.0752802
0.0767395
0.0784899
0.080243
0.0828313
0.0865181
0.0915627
0.099774
0.11003
0.120325
0.133418
0.145282
0.155785
0.163923
0.171674
0.179039
0.184665
0.18997
0.193879
0.197873
0.201012
0.204729
0.207506
0.21011
0.212876
0.214882
0.217223
0.219426
0.22084
0.222615
0.223811
0.225221
0.226318
0.227609
0.228678
0.229594
0.230507
0.23125
0.232003
0.232618
0.233271
0.233781
0.234339
0.234841