/*--------------------------------*- C++ -*----------------------------------*\
| =========                 |                                                 |
| \\      /  F ield         | OpenFOAM: The Open Source CFD Toolbox           |
|  \\    /   O peration     | Version:  2312                                  |
|   \\  /    A nd           | Website:  www.openfoam.com                      |
|    \\/     M anipulation  |                                                 |
\*---------------------------------------------------------------------------*/
FoamFile
{
    version     2.0;
    format      ascii;
    arch        "LSB;label=32;scalar=64";
    class       volScalarField;
    location    "0.006";
    object      T;
}
// * * * * * * * * * * * * * * * * * * * * * * * * * * * * * * * * * * * * * //

dimensions      [0 0 0 1 0 0 0];

internalField   nonuniform List<scalar> 
48128
(
225.293
225.364
225.573
225.747
225.772
225.787
225.809
225.644
225.163
224.321
223.319
222.362
221.411
220.595
219.989
219.476
219.047
218.724
218.514
218.425
218.541
218.876
219.444
220.197
221.17
222.368
223.77
225.338
227.027
228.915
230.99
233.245
235.648
238.145
240.652
243.153
245.578
247.913
250.24
251.954
253.37
257.285
258.263
259.025
259.728
260.311
260.767
261.11
261.409
261.619
261.78
261.858
261.965
261.999
262.024
261.966
261.883
261.743
261.583
261.45
261.26
261.177
261.126
261.083
261.061
260.971
260.915
260.835
260.808
260.805
260.824
260.887
260.976
261.077
261.217
261.375
261.575
261.777
261.951
262.242
262.713
262.93
263.108
263.338
263.808
264.049
264.224
264.349
264.618
265.353
265.651
265.863
266.007
266.26
266.954
267.243
267.479
267.692
268.1
268.367
268.596
268.847
269.419
269.741
270.016
270.273
270.637
270.936
271.194
271.436
271.641
271.826
272.044
272.304
272.647
273.107
273.502
273.864
274.202
274.51
274.767
274.978
275.208
275.499
275.807
276.128
276.677
277.096
277.567
277.966
278.361
278.701
279.005
279.291
279.555
279.781
279.958
280.15
280.376
280.61
280.856
281.125
281.385
281.676
281.952
282.222
282.487
282.756
283.007
283.245
283.49
283.713
283.945
284.161
284.377
284.594
284.815
285.039
285.264
285.499
285.728
285.971
286.22
286.474
286.722
286.975
287.22
287.46
287.696
287.914
288.127
288.333
288.523
288.712
288.891
289.062
289.228
289.393
289.555
289.717
289.881
290.047
290.217
290.391
290.57
290.756
290.941
291.133
291.327
291.53
291.732
291.927
292.113
292.272
292.427
292.566
292.683
292.792
292.898
293.005
293.118
293.234
293.362
293.498
293.645
293.8
293.962
294.128
294.301
294.462
294.614
294.764
294.889
295.003
295.125
295.235
295.333
295.433
295.526
295.62
295.712
295.807
295.903
296
296.1
296.201
296.303
296.406
296.508
296.611
296.713
296.814
296.913
297.013
297.11
297.21
297.305
297.405
297.492
297.555
225.198
225.289
225.356
225.342
225.244
225.093
224.711
223.933
222.679
221.077
219.504
218.045
216.662
215.529
214.709
214.074
213.601
213.303
213.196
213.308
213.609
214.138
214.885
215.886
217.151
218.677
220.452
222.465
224.748
227.225
229.804
232.487
235.202
237.965
240.616
243.291
245.748
247.593
250.554
252.036
253.356
254.837
255.791
256.448
256.97
257.333
257.555
257.657
257.624
257.461
257.249
256.937
256.658
256.349
256.047
255.704
255.336
254.935
254.518
254.101
253.653
253.278
252.95
252.638
252.343
252.01
251.687
251.356
251.05
250.779
250.524
250.304
250.118
249.952
249.809
249.685
249.606
249.562
249.479
249.441
249.673
249.673
249.608
249.554
249.791
249.803
249.756
249.681
249.594
250.098
250.167
250.159
250.125
250.065
250.54
250.625
250.64
250.65
250.833
250.892
250.917
250.926
251.273
251.382
251.455
251.525
251.689
251.781
251.858
251.915
251.941
251.92
251.914
251.944
251.989
252.224
252.395
252.572
252.747
252.893
253.01
253.062
253.113
253.215
253.335
253.487
253.852
254.104
254.425
254.718
254.994
255.253
255.48
255.672
255.827
255.954
256.027
256.091
256.182
256.297
256.412
256.576
256.728
256.918
257.079
257.239
257.394
257.554
257.7
257.837
257.974
258.1
258.232
258.352
258.473
258.6
258.73
258.867
259.007
259.157
259.308
259.47
259.636
259.808
259.979
260.154
260.322
260.487
260.649
260.801
260.934
261.069
261.187
261.307
261.42
261.528
261.633
261.736
261.839
261.944
262.052
262.165
262.282
262.404
262.532
262.667
262.805
262.951
263.101
263.261
263.42
263.574
263.717
263.843
263.944
264.042
264.123
264.195
264.264
264.339
264.418
264.509
264.61
264.719
264.841
264.972
265.109
265.253
265.402
265.54
265.671
265.797
265.911
265.995
266.093
266.185
266.264
266.348
266.425
266.505
266.584
266.665
266.749
266.835
266.923
267.014
267.105
267.198
267.29
267.384
267.477
267.57
267.662
267.754
267.846
267.939
268.03
268.126
268.212
268.257
225.105
225.088
225.039
224.925
224.775
224.461
223.83
222.793
221.414
219.873
218.292
216.89
215.631
214.63
213.95
213.444
213.111
212.958
212.992
213.207
213.627
214.277
215.168
216.316
217.731
219.398
221.273
223.325
225.549
227.933
230.403
233.008
235.545
238.298
240.579
243.079
245.454
247.058
248.834
250.138
251.226
252.102
252.7
253.084
253.339
253.439
253.398
253.251
252.99
252.62
252.224
251.765
251.368
250.987
250.616
250.216
249.801
249.362
248.926
248.48
248.015
247.631
247.3
246.986
246.684
246.336
246.002
245.663
245.349
245.07
244.803
244.567
244.359
244.167
243.991
243.834
243.717
243.625
243.493
243.396
243.56
243.498
243.376
243.268
243.428
243.379
243.276
243.134
242.999
243.414
243.412
243.34
243.238
243.13
243.508
243.523
243.472
243.432
243.535
243.531
243.485
243.44
243.702
243.739
243.741
243.746
243.832
243.857
243.864
243.853
243.817
243.736
243.673
243.637
243.617
243.769
243.859
243.95
244.039
244.107
244.149
244.136
244.125
244.151
244.2
244.259
244.546
244.722
244.965
245.181
245.386
245.576
245.743
245.881
245.987
246.064
246.095
246.115
246.155
246.208
246.268
246.36
246.445
246.567
246.672
246.773
246.873
246.976
247.079
247.167
247.259
247.342
247.433
247.514
247.593
247.679
247.768
247.863
247.96
248.068
248.177
248.297
248.419
248.549
248.677
248.809
248.935
249.059
249.18
249.292
249.391
249.489
249.575
249.662
249.743
249.819
249.892
249.965
250.037
250.113
250.19
250.274
250.361
250.454
250.552
250.658
250.767
250.884
251.006
251.138
251.268
251.396
251.513
251.616
251.698
251.774
251.837
251.892
251.943
252.001
252.062
252.134
252.218
252.308
252.412
252.523
252.642
252.768
252.896
253.018
253.134
253.245
253.347
253.419
253.505
253.586
253.655
253.729
253.797
253.867
253.938
254.011
254.086
254.163
254.242
254.323
254.406
254.49
254.575
254.661
254.746
254.832
254.917
255.003
255.089
255.176
255.262
255.352
255.435
255.476
224.829
224.826
224.708
224.581
224.359
223.884
223.097
222.054
220.757
219.305
217.839
216.518
215.369
214.472
213.89
213.472
213.24
213.186
213.302
213.6
214.104
214.835
215.799
216.995
218.41
220.019
221.818
223.778
225.879
228.141
230.415
233.017
235.04
237.872
239.734
241.567
243.294
244.717
246.01
246.966
247.706
248.181
248.416
248.499
248.447
248.275
247.978
247.596
247.095
246.541
245.983
245.414
244.939
244.536
244.164
243.749
243.357
242.941
242.57
242.197
241.806
241.517
241.304
241.09
240.884
240.607
240.354
240.092
239.861
239.664
239.47
239.305
239.157
239.02
238.895
238.785
238.71
238.651
238.542
238.456
238.625
238.575
238.459
238.364
238.506
238.464
238.369
238.229
238.104
238.466
238.467
238.403
238.294
238.19
238.507
238.513
238.455
238.41
238.479
238.463
238.4
238.343
238.572
238.587
238.568
238.555
238.606
238.61
238.592
238.559
238.502
238.406
238.33
238.276
238.239
238.364
238.425
238.482
238.531
238.562
238.571
238.531
238.493
238.49
238.508
238.539
238.775
238.912
239.109
239.276
239.437
239.583
239.708
239.809
239.882
239.929
239.937
239.931
239.948
239.975
240.008
240.067
240.121
240.208
240.278
240.347
240.414
240.483
240.55
240.607
240.667
240.715
240.774
240.827
240.882
240.942
241.004
241.072
241.142
241.223
241.303
241.396
241.488
241.588
241.686
241.789
241.888
241.985
242.078
242.168
242.244
242.32
242.385
242.451
242.511
242.567
242.619
242.672
242.724
242.78
242.837
242.9
242.967
243.04
243.118
243.204
243.293
243.39
243.493
243.604
243.714
243.823
243.924
244.01
244.078
244.14
244.19
244.232
244.271
244.316
244.365
244.424
244.494
244.571
244.66
244.758
244.862
244.974
245.089
245.198
245.302
245.403
245.494
245.559
245.636
245.709
245.77
245.836
245.897
245.96
246.024
246.089
246.157
246.227
246.299
246.373
246.449
246.527
246.605
246.684
246.763
246.843
246.923
247.003
247.084
247.166
247.247
247.333
247.411
247.451
224.593
224.538
224.411
224.284
223.949
223.343
222.563
221.591
220.312
218.904
217.544
216.357
215.348
214.567
214.077
213.752
213.602
213.604
213.767
214.1
214.62
215.341
216.265
217.383
218.697
220.2
221.881
223.723
225.643
227.825
229.532
232.273
233.804
235.659
237.18
238.578
239.869
240.876
241.755
242.254
242.528
242.706
242.503
242.289
241.89
241.497
240.939
240.375
239.636
238.948
238.293
237.675
237.176
236.817
236.515
236.133
235.839
235.494
235.243
234.999
234.718
234.566
234.531
234.443
234.393
234.216
234.086
233.958
233.852
233.793
233.712
233.669
233.623
233.585
233.549
233.522
233.524
233.535
233.481
233.444
233.64
233.639
233.568
233.519
233.668
233.671
233.619
233.52
233.437
233.748
233.8
233.771
233.695
233.622
233.885
233.921
233.885
233.862
233.92
233.919
233.87
233.83
234.028
234.05
234.04
234.035
234.073
234.08
234.059
234.027
233.971
233.882
233.813
233.759
233.725
233.84
233.894
233.939
233.968
233.984
233.986
233.939
233.894
233.881
233.887
233.915
234.117
234.233
234.4
234.539
234.673
234.793
234.892
234.968
235.021
235.053
235.05
235.03
235.035
235.049
235.069
235.112
235.15
235.219
235.271
235.321
235.37
235.42
235.468
235.508
235.548
235.578
235.617
235.649
235.682
235.724
235.767
235.817
235.868
235.929
235.989
236.06
236.129
236.208
236.284
236.367
236.446
236.525
236.6
236.679
236.743
236.804
236.854
236.906
236.952
236.994
237.033
237.071
237.11
237.152
237.195
237.245
237.298
237.356
237.42
237.492
237.567
237.65
237.738
237.836
237.932
238.027
238.115
238.189
238.247
238.298
238.339
238.372
238.403
238.439
238.479
238.529
238.589
238.657
238.736
238.823
238.918
239.019
239.124
239.223
239.319
239.411
239.494
239.553
239.623
239.69
239.746
239.806
239.862
239.92
239.978
240.038
240.101
240.165
240.232
240.301
240.372
240.445
240.518
240.592
240.667
240.742
240.818
240.894
240.971
241.049
241.127
241.208
241.284
241.322
224.292
224.252
224.155
223.958
223.523
222.883
222.163
221.133
219.907
218.624
217.41
216.354
215.47
214.801
214.376
214.099
213.977
213.99
214.149
214.46
214.932
215.571
216.387
217.386
218.575
219.958
221.479
223.216
224.653
226.776
228.04
229.659
230.937
232.159
233.183
233.956
234.717
235.084
235.501
235.496
235.229
235.213
234.59
234.208
233.422
232.889
232.174
231.512
230.758
230.02
229.413
228.845
228.357
228.136
227.882
227.63
227.394
227.201
227.045
226.976
226.827
226.803
227.011
226.999
227.191
227.118
227.128
227.202
227.202
227.349
227.367
227.508
227.573
227.653
227.733
227.806
227.906
228.005
228.034
228.068
228.282
228.375
228.382
228.408
228.575
228.65
228.666
228.642
228.619
228.875
229.009
229.033
229.014
228.991
229.198
229.298
229.306
229.323
229.388
229.421
229.41
229.406
229.567
229.632
229.652
229.673
229.713
229.741
229.732
229.718
229.679
229.616
229.571
229.533
229.519
229.629
229.691
229.735
229.759
229.775
229.786
229.746
229.713
229.706
229.714
229.753
229.927
230.034
230.187
230.31
230.427
230.531
230.617
230.68
230.725
230.752
230.75
230.727
230.731
230.741
230.758
230.793
230.825
230.884
230.929
230.969
231.01
231.05
231.091
231.122
231.153
231.174
231.203
231.225
231.246
231.274
231.304
231.34
231.378
231.424
231.471
231.53
231.587
231.654
231.718
231.788
231.855
231.922
231.987
232.052
232.107
232.158
232.198
232.241
232.277
232.311
232.341
232.371
232.401
232.434
232.469
232.509
232.554
232.603
232.658
232.72
232.786
232.861
232.94
233.028
233.114
233.2
233.279
233.345
233.397
233.44
233.475
233.504
233.529
233.56
233.595
233.639
233.693
233.755
233.828
233.908
233.996
234.09
234.188
234.281
234.37
234.457
234.534
234.591
234.656
234.719
234.771
234.828
234.88
234.935
234.99
235.047
235.106
235.167
235.231
235.297
235.364
235.434
235.504
235.575
235.647
235.719
235.792
235.866
235.94
236.016
236.091
236.17
236.244
236.282
223.945
223.966
223.862
223.601
223.106
222.508
221.749
220.754
219.61
218.452
217.372
216.425
215.634
215.047
214.652
214.385
214.254
214.241
214.352
214.588
214.944
215.459
216.147
217.017
218.057
219.334
220.438
222.024
222.953
224.122
225.034
225.9
226.447
226.749
226.961
226.708
226.893
226.389
226.474
226.112
225.608
225.603
224.856
224.503
223.809
223.353
222.616
222.025
221.468
220.832
220.24
219.643
219.029
218.979
218.657
218.614
218.349
218.391
218.229
218.414
218.448
218.399
218.949
218.96
219.498
219.619
219.632
220.049
220.102
220.493
220.588
220.914
221.083
221.237
221.429
221.581
221.788
221.958
222.097
222.22
222.447
222.616
222.765
222.879
223.068
223.219
223.346
223.41
223.454
223.697
223.871
223.997
224.054
224.088
224.272
224.421
224.514
224.581
224.675
224.756
224.806
224.843
224.983
225.098
225.172
225.227
225.288
225.339
225.361
225.379
225.366
225.348
225.34
225.334
225.342
225.454
225.534
225.589
225.625
225.647
225.675
225.653
225.652
225.665
225.688
225.731
225.895
226.005
226.143
226.259
226.371
226.469
226.549
226.613
226.663
226.689
226.707
226.688
226.699
226.715
226.735
226.769
226.803
226.858
226.902
226.941
226.983
227.021
227.061
227.09
227.121
227.139
227.165
227.185
227.202
227.224
227.248
227.276
227.308
227.345
227.388
227.439
227.489
227.55
227.608
227.673
227.734
227.796
227.856
227.912
227.963
228.009
228.042
228.079
228.111
228.14
228.166
228.192
228.218
228.247
228.278
228.315
228.354
228.4
228.45
228.508
228.57
228.64
228.714
228.797
228.877
228.958
229.032
229.094
229.142
229.183
229.215
229.243
229.266
229.295
229.328
229.369
229.421
229.481
229.55
229.627
229.711
229.802
229.895
229.985
230.071
230.154
230.228
230.284
230.348
230.409
230.46
230.515
230.567
230.62
230.674
230.73
230.788
230.848
230.91
230.975
231.041
231.109
231.177
231.247
231.318
231.389
231.461
231.534
231.607
231.682
231.757
231.835
231.908
231.947
223.609
223.633
223.53
223.222
222.707
222.121
221.383
220.436
219.394
218.348
217.367
216.504
215.789
215.243
214.849
214.563
214.388
214.308
214.319
214.416
214.641
215.016
215.566
216.313
217.006
218.115
218.721
219.469
219.988
220.34
220.375
220.145
219.645
218.667
218.416
217.208
217.212
216.21
216.335
215.821
214.947
214.715
213.726
213.234
212.682
212.089
211.552
210.977
210.65
210.119
209.948
209.798
209.213
209.672
208.995
209.377
208.856
209.354
209.007
209.593
209.715
209.78
210.517
210.532
211.305
211.573
211.639
212.269
212.447
212.976
213.205
213.661
213.958
214.232
214.553
214.827
215.137
215.411
215.679
215.917
216.183
216.431
216.704
216.916
217.138
217.359
217.586
217.742
217.872
218.096
218.323
218.545
218.689
218.808
218.978
219.194
219.363
219.507
219.649
219.788
219.903
220.005
220.138
220.31
220.437
220.54
220.638
220.724
220.793
220.846
220.884
220.929
220.968
221.011
221.035
221.17
221.274
221.345
221.399
221.439
221.482
221.506
221.551
221.576
221.632
221.672
221.84
221.954
222.088
222.205
222.319
222.421
222.508
222.582
222.64
222.679
222.728
222.726
222.751
222.779
222.803
222.847
222.886
222.944
222.994
223.041
223.087
223.133
223.173
223.212
223.245
223.27
223.298
223.319
223.336
223.358
223.38
223.408
223.438
223.476
223.517
223.569
223.62
223.68
223.739
223.803
223.865
223.927
223.988
224.043
224.093
224.136
224.169
224.204
224.236
224.265
224.291
224.319
224.345
224.375
224.405
224.442
224.482
224.528
224.578
224.635
224.697
224.766
224.839
224.921
225
225.079
225.153
225.214
225.262
225.304
225.336
225.367
225.391
225.422
225.456
225.499
225.551
225.612
225.68
225.757
225.84
225.93
226.022
226.11
226.196
226.278
226.352
226.41
226.474
226.536
226.589
226.644
226.697
226.751
226.806
226.863
226.922
226.982
227.045
227.11
227.177
227.245
227.315
227.385
227.456
227.528
227.6
227.674
227.747
227.823
227.899
227.977
228.051
228.092
223.276
223.261
223.154
222.813
222.341
221.794
221.065
220.185
219.234
218.276
217.373
216.572
215.9
215.365
214.945
214.609
214.351
214.152
214.005
213.965
214.051
214.277
214.578
215.105
215.396
215.78
215.974
215.934
215.546
214.789
213.622
212.01
211.047
209.154
208.805
207.157
206.852
205.289
204.801
204.036
202.789
201.959
201.009
200.129
199.779
198.872
198.927
198.177
198.68
197.976
198.55
198.86
198.579
199.912
199.47
200.284
199.614
200.463
200.038
200.918
201.016
201.41
202.076
202.067
203.008
203.331
203.427
204.17
204.401
205.018
205.308
205.885
206.282
206.661
207.096
207.482
207.9
208.279
208.658
209.008
209.348
209.676
210.053
210.372
210.674
210.977
211.301
211.564
211.798
212.051
212.338
212.641
212.889
213.104
213.313
213.579
213.824
214.047
214.254
214.453
214.632
214.793
214.959
215.175
215.358
215.516
215.664
215.797
215.919
216.027
216.131
216.241
216.34
216.433
216.502
216.648
216.777
216.87
216.952
217.026
217.098
217.173
217.255
217.32
217.399
217.459
217.63
217.752
217.894
218.022
218.148
218.263
218.367
218.46
218.54
218.609
218.68
218.712
218.756
218.801
218.843
218.897
218.948
219.017
219.079
219.139
219.198
219.255
219.307
219.357
219.4
219.432
219.465
219.489
219.509
219.534
219.561
219.594
219.631
219.676
219.725
219.783
219.842
219.909
219.975
220.045
220.113
220.182
220.248
220.308
220.36
220.407
220.444
220.483
220.519
220.553
220.584
220.616
220.647
220.682
220.718
220.759
220.803
220.853
220.906
220.968
221.033
221.105
221.182
221.266
221.347
221.428
221.504
221.568
221.62
221.667
221.704
221.74
221.769
221.804
221.843
221.89
221.945
222.009
222.08
222.159
222.244
222.335
222.428
222.519
222.606
222.69
222.767
222.83
222.896
222.96
223.017
223.075
223.131
223.189
223.247
223.306
223.367
223.431
223.496
223.564
223.632
223.703
223.775
223.847
223.921
223.995
224.069
224.145
224.221
224.298
224.376
224.456
224.533
224.577
222.928
222.867
222.752
222.405
221.999
221.496
220.795
219.983
219.106
218.219
217.376
216.614
215.957
215.403
214.929
214.504
214.115
213.748
213.461
213.264
213.163
213.115
213.091
213.073
212.974
212.668
212.027
210.969
209.374
207.245
205.342
202.809
201.92
199.41
198.654
195.943
195.221
192.637
191.823
190.327
189.63
187.868
187.759
185.966
186.862
185.117
186.572
185.32
186.99
186.115
187.793
188.01
188.773
190.333
189.977
191.521
191.156
192.326
191.877
193.041
192.999
193.915
194.44
194.355
195.424
195.732
195.822
196.605
196.79
197.431
197.67
198.286
198.675
199.085
199.549
199.943
200.41
200.827
201.265
201.671
202.065
202.437
202.898
203.297
203.68
204.058
204.467
204.833
205.172
205.49
205.837
206.219
206.558
206.867
207.154
207.468
207.782
208.085
208.375
208.647
208.905
209.138
209.359
209.627
209.87
210.094
210.31
210.502
210.682
210.861
211.034
211.203
211.361
211.503
211.627
211.782
211.937
212.059
212.174
212.29
212.407
212.536
212.656
212.769
212.878
212.976
213.155
213.296
213.452
213.603
213.75
213.887
214.019
214.141
214.257
214.368
214.466
214.532
214.597
214.664
214.733
214.807
214.88
214.968
215.052
215.133
215.212
215.287
215.356
215.421
215.475
215.517
215.556
215.592
215.627
215.666
215.707
215.753
215.802
215.858
215.92
215.993
216.067
216.148
216.227
216.31
216.391
216.471
216.546
216.614
216.675
216.731
216.778
216.827
216.872
216.916
216.957
216.998
217.039
217.083
217.127
217.177
217.23
217.287
217.348
217.417
217.49
217.569
217.652
217.743
217.83
217.916
217.998
218.068
218.128
218.183
218.228
218.272
218.309
218.352
218.397
218.451
218.512
218.582
218.658
218.742
218.831
218.927
219.024
219.119
219.21
219.298
219.38
219.45
219.522
219.591
219.652
219.716
219.777
219.839
219.902
219.966
220.032
220.1
220.17
220.241
220.314
220.389
220.464
220.541
220.618
220.696
220.774
220.853
220.933
221.014
221.096
221.178
221.259
221.307
222.583
222.47
222.333
222.04
221.706
221.223
220.566
219.817
219.001
218.169
217.368
216.626
215.957
215.351
214.789
214.232
213.671
213.158
212.702
212.209
211.811
211.41
211.006
210.484
209.667
208.463
206.723
204.425
201.771
198.508
196.751
193.601
192.181
188.754
186.925
183.582
181.719
179.017
177.245
175.644
175.196
172.497
173.511
170.817
173.27
171.645
174.458
173.288
176.171
175.466
178.324
178.149
180.404
181.613
181.413
183.428
183.426
185.201
184.849
186.223
186.113
187.489
187.929
187.811
188.958
189.244
189.418
190.162
190.271
190.926
191.073
191.679
191.951
192.402
192.782
193.104
193.531
193.878
194.292
194.631
195.011
195.355
195.815
196.169
196.591
196.987
197.417
197.812
198.207
198.584
198.96
199.395
199.787
200.169
200.532
200.89
201.254
201.643
202.007
202.352
202.685
202.995
203.288
203.606
203.913
204.208
204.492
204.747
204.987
205.224
205.429
205.617
205.819
206.033
206.236
206.433
206.635
206.806
206.972
207.141
207.306
207.464
207.618
207.799
207.967
208.123
208.331
208.507
208.686
208.872
209.05
209.219
209.386
209.551
209.705
209.866
209.982
210.076
210.167
210.258
210.362
210.473
210.583
210.7
210.814
210.924
211.03
211.128
211.214
211.295
211.364
211.427
211.489
211.551
211.612
211.675
211.739
211.808
211.879
211.956
212.036
212.125
212.218
212.319
212.42
212.523
212.62
212.717
212.803
212.887
212.967
213.041
213.105
213.17
213.231
213.29
213.346
213.402
213.458
213.515
213.573
213.636
213.701
213.771
213.845
213.925
214.009
214.099
214.193
214.294
214.39
214.485
214.576
214.656
214.726
214.793
214.848
214.903
214.951
215.004
215.059
215.122
215.191
215.269
215.353
215.444
215.54
215.642
215.745
215.848
215.946
216.039
216.13
216.209
216.287
216.363
216.432
216.502
216.571
216.64
216.709
216.78
216.852
216.926
217.002
217.079
217.158
217.238
217.319
217.401
217.483
217.566
217.65
217.734
217.819
217.905
217.992
218.079
218.164
218.218
222.256
222.099
221.943
221.723
221.45
220.983
220.377
219.682
218.916
218.124
217.344
216.602
215.898
215.206
214.522
213.794
213.07
212.258
211.515
210.814
210.072
209.33
208.351
207.079
205.345
203.07
200.059
196.601
193.656
189.814
187.82
183.64
181.3
176.865
174.333
169.949
167.371
163.864
162.508
160.542
161.164
158.294
161.137
159.299
162.731
161.032
165.203
163.717
167.713
166.213
169.746
168.924
172.483
173.728
173.874
176.527
176.799
178.931
178.939
180.497
180.479
182.094
182.52
182.466
183.673
183.815
184.42
184.973
185.028
185.739
185.828
186.437
186.615
187.106
187.411
187.651
188.021
188.272
188.611
188.853
189.163
189.398
189.769
190.006
190.384
190.676
191.036
191.347
191.693
192.017
192.347
192.734
193.072
193.459
193.823
194.182
194.555
194.974
195.36
195.747
196.124
196.488
196.842
197.2
197.557
197.92
198.251
198.567
198.812
199.033
199.241
199.478
199.715
199.97
200.254
200.537
200.815
201.057
201.283
201.472
201.64
201.845
202.067
202.295
202.565
202.811
203.085
203.322
203.552
203.788
204.014
204.231
204.438
204.661
204.849
205.058
205.208
205.342
205.468
205.595
205.721
205.848
205.983
206.134
206.28
206.423
206.551
206.676
206.791
206.907
207.016
207.116
207.212
207.309
207.404
207.501
207.598
207.699
207.801
207.907
208.015
208.129
208.245
208.367
208.488
208.611
208.732
208.851
208.963
209.073
209.177
209.276
209.364
209.452
209.534
209.615
209.692
209.769
209.845
209.921
209.999
210.081
210.164
210.252
210.342
210.439
210.539
210.644
210.753
210.867
210.977
211.084
211.187
211.282
211.365
211.447
211.515
211.583
211.645
211.711
211.779
211.854
211.935
212.023
212.118
212.219
212.325
212.436
212.548
212.659
212.767
212.869
212.97
213.06
213.147
213.231
213.31
213.389
213.466
213.544
213.622
213.701
213.781
213.863
213.946
214.031
214.117
214.204
214.292
214.381
214.47
214.56
214.65
214.741
214.832
214.925
215.018
215.111
215.201
215.263
221.965
221.767
221.622
221.468
221.225
220.787
220.228
219.579
218.85
218.081
217.302
216.541
215.788
214.954
214.076
213.049
212.081
211.155
210.156
209.12
208.025
206.685
204.933
202.769
199.976
196.615
192.47
188.311
185.433
180.827
178.013
172.924
169.514
164.708
160.507
156.363
153.361
150.919
148.895
146.918
147.141
145.508
147.84
146.657
150.589
149.705
155.181
153.965
159.345
158.077
163.113
162.259
166.954
168.411
168.5
171.465
171.175
173.564
173.653
175.655
175.864
177.573
178.074
178.166
179.36
179.349
180.454
180.88
180.887
181.685
181.748
182.387
182.531
183.062
183.344
183.544
183.89
184.073
184.379
184.539
184.815
184.973
185.26
185.423
185.737
185.94
186.21
186.417
186.682
186.896
187.126
187.378
187.575
187.898
188.127
188.388
188.648
188.968
189.247
189.565
189.873
190.182
190.492
190.812
191.141
191.491
191.803
192.094
192.287
192.569
192.842
193.157
193.463
193.783
194.057
194.339
194.651
194.909
195.127
195.362
195.622
195.912
196.222
196.525
196.824
197.175
197.509
197.82
198.122
198.423
198.709
198.988
199.244
199.522
199.732
199.96
200.161
200.344
200.514
200.681
200.842
201.001
201.161
201.329
201.499
201.67
201.838
201.998
202.151
202.308
202.458
202.599
202.734
202.87
203.004
203.139
203.274
203.409
203.546
203.686
203.826
203.971
204.116
204.265
204.414
204.563
204.71
204.855
204.994
205.132
205.265
205.393
205.508
205.624
205.732
205.839
205.943
206.046
206.147
206.248
206.351
206.456
206.563
206.673
206.786
206.904
207.025
207.15
207.278
207.409
207.535
207.658
207.777
207.889
207.989
208.089
208.175
208.261
208.34
208.424
208.508
208.599
208.695
208.798
208.907
209.022
209.14
209.263
209.386
209.509
209.628
209.742
209.855
209.958
210.057
210.153
210.243
210.334
210.423
210.512
210.601
210.69
210.78
210.871
210.964
211.058
211.153
211.249
211.346
211.443
211.54
211.639
211.737
211.836
211.935
212.035
212.137
212.236
212.334
212.404
221.733
221.496
221.387
221.277
221.05
220.644
220.124
219.511
218.802
218.039
217.234
216.4
215.539
214.377
213.317
212.214
211.072
209.846
208.548
207.13
205.419
203.358
200.709
197.548
193.555
189.45
184.418
180.167
176.767
171.281
167.409
161.827
157.332
152.073
148.093
144.28
140.845
137.671
134.942
133.009
131.702
130.647
130.479
131.106
133.484
135.021
140.183
141.669
149.039
148.165
155.566
154.357
161.298
162.84
163.867
166.416
166.968
169.37
169.519
171.876
172.023
173.772
174.326
174.658
175.737
175.742
177.136
177.565
177.576
178.476
178.535
179.231
179.382
179.952
180.234
180.423
180.769
180.916
181.216
181.337
181.61
181.729
181.984
182.116
182.396
182.542
182.781
182.932
183.154
183.311
183.476
183.638
183.759
183.997
184.136
184.328
184.477
184.682
184.833
185.058
185.232
185.418
185.592
185.775
185.954
186.159
186.297
186.497
186.625
186.897
187.147
187.452
187.751
188.055
188.306
188.516
188.73
188.92
189.154
189.426
189.741
190.087
190.46
190.824
191.168
191.51
191.895
192.251
192.603
192.951
193.283
193.614
193.911
194.234
194.451
194.717
194.96
195.198
195.414
195.625
195.827
196.024
196.222
196.419
196.62
196.823
197.026
197.222
197.412
197.605
197.793
197.971
198.143
198.317
198.489
198.661
198.831
199.002
199.173
199.346
199.519
199.694
199.871
200.049
200.227
200.404
200.579
200.751
200.915
201.081
201.24
201.396
201.54
201.683
201.818
201.954
202.086
202.217
202.346
202.475
202.604
202.736
202.868
203.003
203.141
203.282
203.426
203.573
203.723
203.873
204.018
204.159
204.296
204.428
204.549
204.67
204.777
204.884
204.985
205.09
205.196
205.307
205.422
205.543
205.669
205.801
205.936
206.073
206.21
206.347
206.481
206.607
206.736
206.855
206.969
207.078
207.184
207.289
207.392
207.495
207.597
207.7
207.802
207.906
208.01
208.116
208.222
208.33
208.437
208.546
208.654
208.762
208.871
208.98
209.09
209.199
209.31
209.419
209.526
209.605
221.57
221.306
221.23
221.143
220.941
220.566
220.071
219.461
218.739
217.956
217.071
216.069
215.031
213.826
212.629
211.287
209.844
208.31
206.654
204.622
202.187
199.319
195.659
191.449
186.113
182.034
176.397
171.991
167.337
161.537
156.552
150.883
145.794
141.169
137.073
133.153
129.688
126.436
123.605
120.922
118.437
116.111
114.026
112.175
110.588
109.369
108.512
108.794
117.611
124.157
135.796
139.686
151.291
154.96
158.188
161.255
163.072
165.274
166.131
168.487
169.248
170.665
170.959
172.207
172.881
172.894
174.454
174.884
174.909
175.919
175.973
176.75
176.926
177.512
177.805
178.008
178.352
178.472
178.785
178.883
179.165
179.265
179.516
179.64
179.892
180.017
180.25
180.37
180.581
180.688
180.871
180.989
181.074
181.267
181.355
181.543
181.648
181.798
181.904
182.074
182.186
182.319
182.413
182.515
182.598
182.686
182.731
182.86
182.894
183.121
183.285
183.497
183.716
183.91
184.073
184.177
184.278
184.35
184.497
184.693
184.94
185.226
185.543
185.86
186.156
186.412
186.691
186.986
187.309
187.64
187.948
188.281
188.551
188.855
189.108
189.433
189.722
190.032
190.304
190.566
190.816
191.056
191.295
191.528
191.764
192
192.238
192.469
192.694
192.92
193.141
193.354
193.561
193.77
193.977
194.183
194.387
194.591
194.794
194.998
195.202
195.408
195.613
195.817
196.021
196.222
196.421
196.616
196.803
196.993
197.176
197.357
197.526
197.695
197.856
198.018
198.177
198.334
198.489
198.643
198.797
198.952
199.107
199.264
199.424
199.586
199.752
199.92
200.091
200.26
200.425
200.585
200.739
200.892
201.033
201.175
201.304
201.433
201.557
201.684
201.813
201.945
202.081
202.223
202.369
202.52
202.673
202.826
202.979
203.132
203.282
203.424
203.57
203.706
203.837
203.963
204.086
204.208
204.328
204.447
204.565
204.683
204.801
204.92
205.039
205.16
205.28
205.401
205.523
205.644
205.766
205.887
206.008
206.13
206.252
206.373
206.496
206.616
206.734
206.825
221.495
221.186
221.145
221.072
220.896
220.528
220.031
219.404
218.629
217.781
216.828
215.754
214.591
213.254
211.774
210.143
208.4
206.509
204.293
201.543
198.285
194.53
189.682
184.692
178.491
174.718
168.53
163.364
157.742
151.874
146.378
141.335
136.664
132.178
128.168
124.75
121.663
118.766
116.003
113.432
111.146
109.092
107.257
105.598
104.152
102.847
101.713
100.76
100.164
99.8801
100.183
100.373
112.515
127.633
139.986
149.957
155.961
159.723
162.693
165.093
166.478
167.657
168.645
169.585
170.427
170.866
172.143
172.708
172.775
173.867
173.88
174.755
174.938
175.542
175.851
176.088
176.405
176.514
176.848
176.93
177.227
177.32
177.578
177.701
177.933
178.049
178.276
178.384