/*--------------------------------*- C++ -*----------------------------------*\
| =========                 |                                                 |
| \\      /  F ield         | OpenFOAM: The Open Source CFD Toolbox           |
|  \\    /   O peration     | Version:  2312                                  |
|   \\  /    A nd           | Website:  www.openfoam.com                      |
|    \\/     M anipulation  |                                                 |
\*---------------------------------------------------------------------------*/
FoamFile
{
    version     2.0;
    format      ascii;
    arch        "LSB;label=32;scalar=64";
    class       volVectorField;
    location    "0.006";
    object      U;
}
// * * * * * * * * * * * * * * * * * * * * * * * * * * * * * * * * * * * * * //

dimensions      [0 1 -1 0 0 0 0];

internalField   nonuniform List<vector> 
48128
(
(3.22999 -1.49347 0)
(3.32387 0.232432 0)
(-2.35083 2.39996 0)
(-11.7605 2.82832 0)
(-27.9892 4.82413 0)
(-49.1421 6.59407 0)
(-71.1362 5.56984 0)
(-91.5048 4.40752 0)
(-109.898 3.09744 0)
(-125.926 1.69534 0)
(-139.14 0.608282 0)
(-150.087 0.92444 0)
(-159.635 0.900061 0)
(-167.504 1.03667 0)
(-173.953 1.17554 0)
(-179.705 1.29721 0)
(-184.751 1.44947 0)
(-189.032 1.60596 0)
(-192.528 1.79755 0)
(-195.152 2.10636 0)
(-196.706 2.48245 0)
(-197.262 2.4164 0)
(-197.148 1.94513 0)
(-195.58 1.59486 0)
(-192.721 1.13678 0)
(-188.618 0.688618 0)
(-183.329 0.120348 0)
(-176.882 -0.626385 0)
(-168.8 -1.10583 0)
(-159.374 -1.69291 0)
(-149.07 -2.32268 0)
(-137.551 -3.00893 0)
(-124.994 -3.69759 0)
(-111.624 -4.24781 0)
(-97.5503 -4.93948 0)
(-82.8351 -5.4337 0)
(-67.3812 -6.24585 0)
(-51.6578 -6.33827 0)
(-36.1929 -6.68359 0)
(-20.9281 -6.63817 0)
(-7.0264 -6.22881 0)
(6.0693 -5.60423 0)
(17.9228 -4.82488 0)
(30.1733 -4.7011 0)
(43.0822 -5.02344 0)
(55.9941 -5.02565 0)
(68.4855 -4.87209 0)
(80.4792 -4.72116 0)
(91.8105 -4.45799 0)
(102.763 -4.29975 0)
(113.184 -4.06766 0)
(123.447 -3.91846 0)
(132.927 -3.65962 0)
(142.125 -3.54229 0)
(150.544 -3.32291 0)
(158.756 -3.17203 0)
(166.589 -2.95228 0)
(174.233 -2.81422 0)
(181.794 -2.65437 0)
(188.816 -2.41472 0)
(195.907 -2.33166 0)
(202.474 -2.08637 0)
(208.359 -1.88128 0)
(214.121 -1.72786 0)
(219.335 -1.53107 0)
(224.608 -1.45213 0)
(229.552 -1.31693 0)
(234.48 -1.23383 0)
(239.134 -1.1039 0)
(243.413 -0.999401 0)
(247.533 -0.911368 0)
(251.338 -0.808414 0)
(254.885 -0.726022 0)
(258.147 -0.644542 0)
(261.282 -0.589714 0)
(264.229 -0.531025 0)
(266.916 -0.456793 0)
(269.324 -0.415743 0)
(271.796 -0.422902 0)
(274.398 -0.29954 0)
(275.585 -0.25799 0)
(277.314 -0.289591 0)
(279.335 -0.296496 0)
(281.71 -0.212351 0)
(282.642 -0.186755 0)
(284.077 -0.207059 0)
(285.782 -0.175058 0)
(287.664 -0.242499 0)
(290.085 -0.0784067 0)
(289.894 -0.0920051 0)
(290.73 -0.126923 0)
(292 -0.120383 0)
(293.508 -0.17221 0)
(295.529 -0.0330579 0)
(295.261 -0.0415944 0)
(295.958 -0.0725851 0)
(297.01 -0.090408 0)
(298.418 -0.0555926 0)
(298.962 -0.0497936 0)
(299.788 -0.0492339 0)
(300.785 -0.0627587 0)
(302.218 -0.0083964 0)
(302.12 -0.0127736 0)
(302.591 -0.027085 0)
(303.301 -0.0394438 0)
(304.218 -0.0191357 0)
(304.68 -0.0192905 0)
(305.283 -0.0163806 0)
(305.977 -0.0185596 0)
(306.734 -0.0283649 0)
(307.568 -0.0268968 0)
(308.5 -0.0357071 0)
(309.464 -0.0165759 0)
(310.195 -0.0221797 0)
(311.067 0.0273851 0)
(311.084 0.0144308 0)
(311.229 0.0183286 0)
(311.434 0.0167827 0)
(311.669 0.00976523 0)
(311.973 0.00565356 0)
(312.387 -0.00820947 0)
(312.951 -0.014304 0)
(313.589 -0.00760291 0)
(314.063 -0.00566824 0)
(314.389 0.00618176 0)
(314.784 0.0224709 0)
(314.344 0.0165901 0)
(314.224 0.0277114 0)
(313.934 0.0249894 0)
(313.744 0.0124662 0)
(313.537 0.0278743 0)
(313.41 0.00929265 0)
(313.425 0.00154038 0)
(313.497 -0.000551086 0)
(313.653 0.000571521 0)
(313.913 -0.00807685 0)
(314.303 -0.00598859 0)
(314.749 -0.00694303 0)
(315.137 -0.00258939 0)
(315.415 -0.00197865 0)
(315.721 0.00937626 0)
(315.828 0.0155705 0)
(315.996 0.0214871 0)
(315.984 0.030719 0)
(316.012 0.0301921 0)
(316.051 0.0300086 0)
(316.106 0.0323643 0)
(316.127 0.0314005 0)
(316.175 0.0303523 0)
(316.254 0.0336393 0)
(316.322 0.031581 0)
(316.426 0.0341581 0)
(316.503 0.0325349 0)
(316.601 0.0333059 0)
(316.711 0.0330387 0)
(316.787 0.0350758 0)
(316.864 0.0371011 0)
(316.892 0.0388252 0)
(316.922 0.0417788 0)
(316.901 0.0412884 0)
(316.877 0.0444682 0)
(316.811 0.0419468 0)
(316.735 0.0462277 0)
(316.63 0.0442782 0)
(316.52 0.0436027 0)
(316.394 0.0432675 0)
(316.273 0.040522 0)
(316.17 0.0407625 0)
(316.064 0.0361866 0)
(315.978 0.0394584 0)
(315.959 0.0328201 0)
(315.932 0.0308597 0)
(315.95 0.0293204 0)
(315.969 0.0279773 0)
(315.999 0.0271938 0)
(316.042 0.0266611 0)
(316.092 0.0265365 0)
(316.143 0.025991 0)
(316.197 0.0265431 0)
(316.228 0.0269067 0)
(316.262 0.0283304 0)
(316.259 0.0293405 0)
(316.245 0.030496 0)
(316.212 0.0306913 0)
(316.161 0.0320528 0)
(316.084 0.0311855 0)
(315.993 0.0316083 0)
(315.882 0.0311901 0)
(315.754 0.031559 0)
(315.601 0.0308468 0)
(315.435 0.0298854 0)
(315.289 0.0273318 0)
(315.141 0.0256829 0)
(315.06 0.0244231 0)
(315.062 0.0178975 0)
(315.077 0.0175271 0)
(315.132 0.0174126 0)
(315.212 0.0161234 0)
(315.308 0.0155308 0)
(315.379 0.0173324 0)
(315.449 0.0168156 0)
(315.463 0.0216528 0)
(315.44 0.0226994 0)
(315.388 0.0233863 0)
(315.296 0.0245549 0)
(315.173 0.0252097 0)
(315.024 0.0254644 0)
(314.854 0.025316 0)
(314.661 0.0249807 0)
(314.487 0.021585 0)
(314.347 0.0208721 0)
(314.222 0.0185391 0)
(314.094 0.0171629 0)
(314.105 0.0130348 0)
(314.077 0.0127908 0)
(314.046 0.011995 0)
(314.064 0.0117781 0)
(314.061 0.0118017 0)
(314.073 0.0122802 0)
(314.071 0.012789 0)
(314.067 0.0135358 0)
(314.053 0.0142026 0)
(314.028 0.014883 0)
(313.992 0.015431 0)
(313.945 0.0160464 0)
(313.888 0.0163217 0)
(313.824 0.0165247 0)
(313.752 0.0164467 0)
(313.678 0.0165885 0)
(313.599 0.0162012 0)
(313.519 0.0163031 0)
(313.437 0.0156776 0)
(313.356 0.0157837 0)
(313.272 0.0149889 0)
(313.191 0.0152923 0)
(313.102 0.0144122 0)
(313.018 0.0146708 0)
(312.923 0.0144721 0)
(312.813 0.012526 0)
(312.859 0.00965525 0)
(1.36908 -3.31 0)
(-3.01783 3.54991 0)
(-14.162 7.7904 0)
(-29.8241 11.5794 0)
(-50.623 15.5556 0)
(-72.0445 17.1696 0)
(-92.4909 15.2977 0)
(-111.446 13.1583 0)
(-128.69 10.9294 0)
(-143.271 9.29572 0)
(-154.542 8.66928 0)
(-163.893 7.35407 0)
(-171.833 6.4965 0)
(-177.854 5.81326 0)
(-182.305 5.28979 0)
(-185.879 4.94753 0)
(-188.651 4.64257 0)
(-190.589 4.36265 0)
(-191.703 4.10885 0)
(-192.052 3.9739 0)
(-191.46 4.04382 0)
(-189.615 3.68215 0)
(-186.3 3.11534 0)
(-181.733 2.52352 0)
(-175.779 2.002 0)
(-168.507 1.39544 0)
(-160.033 0.763864 0)
(-150.579 -0.109338 0)
(-140.459 -0.820037 0)
(-129.337 -1.61428 0)
(-117.376 -2.55149 0)
(-104.361 -3.57063 0)
(-90.4418 -4.6796 0)
(-75.6384 -5.58382 0)
(-60.1161 -6.67835 0)
(-44.0116 -7.43122 0)
(-27.5032 -8.70269 0)
(-10.5753 -9.05832 0)
(6.04528 -9.5192 0)
(22.8153 -9.58961 0)
(38.811 -9.17461 0)
(55.0108 -9.10928 0)
(71.1064 -8.81387 0)
(86.6334 -9.209 0)
(100.873 -9.39493 0)
(114.292 -9.33928 0)
(127.097 -9.16099 0)
(139.271 -8.85541 0)
(150.771 -8.48706 0)
(161.864 -8.3563 0)
(172.308 -8.02607 0)
(182.572 -7.87046 0)
(191.945 -7.37274 0)
(201.011 -7.06259 0)
(209.297 -6.61142 0)
(217.339 -6.43636 0)
(224.954 -6.10524 0)
(232.328 -5.96098 0)
(239.549 -5.58589 0)
(246.261 -5.2807 0)
(252.945 -5.13411 0)
(259.253 -4.51954 0)
(264.85 -4.28473 0)
(270.341 -3.98566 0)
(275.325 -3.71531 0)
(280.304 -3.63626 0)
(285.067 -3.33046 0)
(289.663 -3.19078 0)
(294.147 -2.86145 0)
(298.232 -2.69012 0)
(302.173 -2.48114 0)
(305.879 -2.25598 0)
(309.313 -2.0984 0)
(312.552 -1.93252 0)
(315.621 -1.81981 0)
(318.53 -1.66339 0)
(321.286 -1.52321 0)
(323.706 -1.45112 0)
(326.16 -1.40141 0)
(328.917 -1.27417 0)
(330.248 -1.11588 0)
(332.047 -1.08939 0)
(334.078 -1.04894 0)
(336.551 -1.06205 0)
(337.643 -0.876454 0)
(339.176 -0.818789 0)
(340.935 -0.821272 0)
(342.793 -0.8991 0)
(345.473 -0.805601 0)
(345.552 -0.555146 0)
(346.495 -0.520282 0)
(347.851 -0.535266 0)
(349.366 -0.657463 0)
(351.644 -0.629882 0)
(351.651 -0.435717 0)
(352.428 -0.410682 0)
(353.565 -0.389606 0)
(355.034 -0.50489 0)
(355.779 -0.363547 0)
(356.754 -0.361145 0)
(357.851 -0.370858 0)
(359.438 -0.411951 0)
(359.624 -0.264247 0)
(360.263 -0.234514 0)
(361.108 -0.242321 0)
(362.136 -0.310516 0)
(362.774 -0.236138 0)
(363.537 -0.207478 0)
(364.362 -0.22867 0)
(365.234 -0.195687 0)
(366.169 -0.201717 0)
(367.194 -0.148967 0)
(368.269 -0.131889 0)
(369.155 -0.109963 0)
(370.239 -0.0407076 0)
(370.541 -0.0632543 0)
(370.949 -0.0574989 0)
(371.378 -0.0797404 0)
(371.807 -0.0979038 0)
(372.279 -0.0770323 0)
(372.817 -0.0778131 0)
(373.482 -0.0584097 0)
(374.206 -0.0402942 0)
(374.84 0.00340467 0)
(375.337 -0.0107109 0)
(375.999 0.0121301 0)
(375.808 -0.00424206 0)
(375.914 -0.012801 0)
(375.836 -0.0239524 0)
(375.806 -0.0599031 0)
(375.807 -0.0572285 0)
(375.843 -0.0710512 0)
(375.941 -0.0780438 0)
(376.111 -0.062183 0)
(376.366 -0.0423352 0)
(376.704 -0.0323762 0)
(377.156 -0.0410262 0)
(377.655 -0.0165699 0)
(378.151 0.00145104 0)
(378.544 0.0131904 0)
(378.978 0.00364458 0)
(379.232 0.0236503 0)
(379.548 0.0250606 0)
(379.711 0.0290641 0)
(379.908 0.0243676 0)
(380.115 0.0274247 0)
(380.337 0.0264119 0)
(380.529 0.0290515 0)
(380.737 0.0324369 0)
(380.969 0.0329073 0)
(381.189 0.0300372 0)
(381.437 0.036654 0)
(381.658 0.0369703 0)
(381.894 0.0407758 0)
(382.141 0.0419772 0)
(382.351 0.0466189 0)
(382.567 0.0458419 0)
(382.736 0.0503346 0)
(382.918 0.0496068 0)
(383.036 0.0517932 0)
(383.174 0.0550104 0)
(383.245 0.0489232 0)
(383.326 0.054736 0)
(383.363 0.0474225 0)
(383.406 0.0511889 0)
(383.424 0.0457153 0)
(383.448 0.0452331 0)
(383.476 0.043258 0)
(383.506 0.0422236 0)
(383.549 0.0430929 0)
(383.621 0.0346631 0)
(383.697 0.0371539 0)
(383.796 0.036136 0)
(383.897 0.037112 0)
(384.006 0.0378445 0)
(384.121 0.0391514 0)
(384.242 0.0399105 0)
(384.359 0.0406868 0)
(384.48 0.0418351 0)
(384.578 0.0435388 0)
(384.682 0.0434705 0)
(384.75 0.0463563 0)
(384.821 0.0456721 0)
(384.858 0.0452182 0)
(384.895 0.0450286 0)
(384.893 0.0441196 0)
(384.883 0.0440238 0)
(384.856 0.0424221 0)
(384.812 0.0415144 0)
(384.744 0.0387318 0)
(384.667 0.0354567 0)
(384.596 0.034482 0)
(384.52 0.0294363 0)
(384.502 0.03328 0)
(384.532 0.0202803 0)
(384.575 0.0254896 0)
(384.645 0.0285481 0)
(384.736 0.029446 0)
(384.84 0.0303879 0)
(384.929 0.0340978 0)
(385.007 0.0340456 0)
(385.066 0.0394461 0)
(385.072 0.0398157 0)
(385.058 0.038849 0)
(385.015 0.0389851 0)
(384.946 0.0378859 0)
(384.855 0.0361981 0)
(384.745 0.0355361 0)
(384.616 0.02942 0)
(384.5 0.0303185 0)
(384.395 0.0271765 0)
(384.308 0.0238777 0)
(384.202 0.0292295 0)
(384.217 0.0177881 0)
(384.197 0.0207573 0)
(384.17 0.0229483 0)
(384.184 0.0221077 0)
(384.18 0.0239609 0)
(384.189 0.024216 0)
(384.188 0.0258673 0)
(384.185 0.0264024 0)
(384.176 0.0270121 0)
(384.159 0.0275325 0)
(384.134 0.0277695 0)
(384.1 0.0282275 0)
(384.059 0.0279881 0)
(384.012 0.0279559 0)
(383.958 0.027552 0)
(383.901 0.0276254 0)
(383.84 0.0268744 0)
(383.776 0.0270033 0)
(383.709 0.0262234 0)
(383.641 0.0263116 0)
(383.57 0.025367 0)
(383.497 0.0257255 0)
(383.42 0.0242594 0)
(383.343 0.0251458 0)
(383.257 0.0235464 0)
(383.143 0.0242812 0)
(383.183 0.0149907 0)
(-3.53965 -1.11333 0)
(-10.4062 8.7329 0)
(-24.6879 16.5871 0)
(-43.4701 23.6107 0)
(-63.6647 28.8418 0)
(-83.2172 29.0366 0)
(-100.963 26.0233 0)
(-116.896 22.5419 0)
(-130.754 19.1842 0)
(-142.227 16.2546 0)
(-151.963 14.2476 0)
(-159.613 11.8356 0)
(-165.762 10.0576 0)
(-170.136 8.72876 0)
(-172.995 7.64508 0)
(-175.115 6.91984 0)
(-176.411 6.37204 0)
(-176.92 5.97662 0)
(-176.641 5.46225 0)
(-175.262 4.95033 0)
(-172.752 4.03272 0)
(-168.968 3.23113 0)
(-163.931 2.25126 0)
(-157.773 1.21537 0)
(-150.369 0.184541 0)
(-141.765 -0.968109 0)
(-132.129 -2.09438 0)
(-121.512 -3.37945 0)
(-109.818 -4.65474 0)
(-96.956 -5.99977 0)
(-83.1578 -7.59627 0)
(-68.291 -9.20271 0)
(-52.5296 -11.0501 0)
(-35.8703 -12.434 0)
(-18.4607 -14.2725 0)
(-0.513929 -15.4054 0)
(17.6129 -17.2098 0)
(35.9519 -17.7327 0)
(53.7917 -18.5872 0)
(71.6381 -18.8435 0)
(88.7621 -18.3857 0)
(105.888 -18.6458 0)
(122.543 -18.5023 0)
(138.251 -18.6001 0)
(152.74 -18.2861 0)
(166.21 -17.8731 0)
(178.972 -17.4367 0)
(190.933 -16.801 0)
(202.212 -16.126 0)
(213.093 -15.735 0)
(223.167 -15.0627 0)
(233.083 -14.6474 0)
(241.899 -13.7383 0)
(250.342 -13.0819 0)
(257.861 -12.2686 0)
(265.195 -11.8305 0)
(272.003 -11.1907 0)
(278.621 -10.8127 0)
(284.966 -10.1582 0)
(290.822 -9.57445 0)
(296.634 -9.23785 0)
(302.105 -8.31324 0)
(306.832 -7.83763 0)
(311.511 -7.3154 0)
(315.727 -6.81159 0)
(319.978 -6.59193 0)
(324.041 -6.0865 0)
(327.91 -5.80174 0)
(331.727 -5.29502 0)
(335.127 -4.97372 0)
(338.452 -4.6263 0)
(341.56 -4.25692 0)
(344.438 -3.98431 0)
(347.176 -3.69838 0)
(349.768 -3.48456 0)
(352.241 -3.22283 0)
(354.556 -3.01352 0)
(356.613 -2.84884 0)
(358.702 -2.68613 0)
(361.1 -2.62179 0)
(362.207 -2.36118 0)
(363.738 -2.22933 0)
(365.48 -2.08752 0)
(367.623 -2.15651 0)
(368.564 -1.89706 0)
(369.884 -1.75838 0)
(371.407 -1.69571 0)
(373.043 -1.72148 0)
(375.428 -1.79175 0)
(375.458 -1.44215 0)
(376.275 -1.27971 0)
(377.46 -1.21155 0)
(378.807 -1.29705 0)
(380.839 -1.40657 0)
(380.862 -1.12386 0)
(381.557 -1.00114 0)
(382.57 -0.902715 0)
(383.858 -1.06798 0)
(384.556 -0.89923 0)
(385.44 -0.856536 0)
(386.441 -0.823484 0)
(387.881 -0.949638 0)
(388.069 -0.733168 0)
(388.656 -0.657668 0)
(389.43 -0.610964 0)
(390.361 -0.703577 0)
(390.972 -0.607891 0)
(391.684 -0.559512 0)
(392.456 -0.559055 0)
(393.272 -0.50696 0)
(394.142 -0.486118 0)
(395.094 -0.40641 0)
(396.08 -0.374034 0)
(396.909 -0.328638 0)
(397.918 -0.293426 0)
(398.231 -0.279736 0)
(398.646 -0.265386 0)
(399.085 -0.284598 0)
(399.534 -0.304462 0)
(400.018 -0.27943 0)
(400.556 -0.235663 0)
(401.2 -0.198448 0)
(401.889 -0.168025 0)
(402.512 -0.12111 0)
(403.003 -0.11939 0)
(403.69 -0.157925 0)
(403.565 -0.151425 0)
(403.714 -0.16207 0)
(403.686 -0.175215 0)
(403.715 -0.205663 0)
(403.766 -0.213522 0)
(403.854 -0.224409 0)
(403.992 -0.222258 0)
(404.188 -0.199705 0)
(404.451 -0.164783 0)
(404.784 -0.115772 0)
(405.214 -0.121228 0)
(405.691 -0.0860783 0)
(406.158 -0.0614269 0)
(406.549 -0.0400101 0)
(406.972 -0.0550198 0)
(407.254 -0.0338164 0)
(407.588 -0.0295333 0)
(407.79 -0.0329568 0)
(408.016 -0.0308704 0)
(408.252 -0.0244342 0)
(408.498 -0.022787 0)
(408.719 -0.0198007 0)
(408.949 -0.00339118 0)
(409.202 -0.00816552 0)
(409.441 -0.00306053 0)
(409.709 0.00399668 0)
(409.947 0.00919009 0)
(410.2 0.0177583 0)
(410.464 0.0209262 0)
(410.695 0.0295372 0)
(410.932 0.0293171 0)
(411.127 0.0364105 0)
(411.336 0.0354898 0)
(411.487 0.0390047 0)
(411.656 0.0421583 0)
(411.763 0.0363465 0)
(411.881 0.0418847 0)
(411.955 0.0333747 0)
(412.038 0.0367555 0)
(412.093 0.0308543 0)
(412.152 0.0307718 0)
(412.213 0.0318081 0)
(412.275 0.0286693 0)
(412.347 0.0343943 0)
(412.439 0.029928 0)
(412.535 0.0304467 0)
(412.65 0.036971 0)
(412.764 0.037237 0)
(412.885 0.0404572 0)
(413.011 0.0437163 0)
(413.142 0.0460733 0)
(413.269 0.0489246 0)
(413.401 0.0503247 0)
(413.512 0.0537356 0)
(413.629 0.0533693 0)
(413.714 0.0574195 0)
(413.803 0.0560326 0)
(413.859 0.0561596 0)
(413.92 0.0547328 0)
(413.939 0.0544111 0)
(413.958 0.0530739 0)
(413.95 0.0504696 0)
(413.93 0.0496954 0)
(413.89 0.0430795 0)
(413.841 0.039336 0)
(413.793 0.0376892 0)
(413.738 0.03531 0)
(413.739 0.0400328 0)
(413.767 0.0329398 0)
(413.811 0.038757 0)
(413.879 0.0455166 0)
(413.965 0.0486455 0)
(414.062 0.049882 0)
(414.151 0.0552817 0)
(414.227 0.0551907 0)
(414.289 0.0598091 0)
(414.312 0.0607137 0)
(414.306 0.0580064 0)
(414.279 0.0558182 0)
(414.228 0.0526787 0)
(414.158 0.0498973 0)
(414.069 0.0478538 0)
(413.964 0.038935 0)
(413.865 0.0411278 0)
(413.773 0.0403032 0)
(413.695 0.0351601 0)
(413.599 0.0441498 0)
(413.604 0.0313695 0)
(413.584 0.0359167 0)
(413.553 0.0400909 0)
(413.559 0.0393074 0)
(413.551 0.0424711 0)
(413.555 0.0432672 0)
(413.551 0.0458401 0)
(413.545 0.0466932 0)
(413.534 0.047219 0)
(413.516 0.0474631 0)
(413.492 0.047523 0)
(413.461 0.0478123 0)
(413.423 0.047225 0)
(413.379 0.0471433 0)
(413.33 0.0463114 0)
(413.278 0.0465792 0)
(413.221 0.0454288 0)
(413.161 0.04585 0)
(413.098 0.0446749 0)
(413.033 0.045295 0)
(412.964 0.0436748 0)
(412.894 0.0447394 0)
(412.819 0.0421772 0)
(412.743 0.0441271 0)
(412.66 0.0406824 0)
(412.545 0.0447777 0)
(412.569 0.0290395 0)
(-5.45385 3.47484 0)
(-16.4736 16.619 0)
(-33.9428 26.6392 0)
(-52.2912 35.3912 0)
(-70.7734 39.2781 0)
(-87.5405 38.6792 0)
(-102.175 34.8183 0)
(-114.88 30.2555 0)
(-126.194 25.3633 0)
(-135.605 20.6134 0)
(-143.179 16.6313 0)
(-148.954 13.7276 0)
(-153.335 11.5033 0)
(-156.196 9.86577 0)
(-157.684 8.52166 0)
(-158.669 7.61781 0)
(-158.946 6.85802 0)
(-158.446 6.14258 0)
(-157.085 5.48579 0)
(-154.7 4.7846 0)
(-151.214 3.94603 0)
(-146.56 2.89217 0)
(-140.677 1.60283 0)
(-133.574 0.206146 0)
(-125.112 -1.27866 0)
(-115.296 -2.95559 0)
(-104.204 -4.59857 0)
(-91.9697 -6.52024 0)
(-78.4715 -8.58585 0)
(-63.6344 -10.6409 0)
(-47.7234 -13.1131 0)
(-30.5922 -15.2612 0)
(-12.6486 -18.1512 0)
(6.40774 -19.9659 0)
(26.1085 -22.7279 0)
(46.323 -24.3336 0)
(66.384 -26.9208 0)
(86.4444 -27.3797 0)
(105.719 -28.6843 0)
(124.825 -28.9833 0)
(143.058 -28.2429 0)
(160.781 -28.7458 0)
(177.79 -28.2807 0)
(193.469 -27.9169 0)
(208.014 -26.9963 0)
(221.193 -26.2813 0)
(233.777 -25.4524 0)
(245.253 -24.4389 0)
(256.228 -23.4051 0)
(266.623 -22.628 0)
(276.069 -21.5584 0)
(285.363 -20.7485 0)
(293.339 -19.3058 0)
(300.906 -18.2222 0)
(307.375 -17.0647 0)
(313.797 -16.3736 0)
(319.526 -15.4008 0)
(325.177 -14.7732 0)
(330.423 -13.768 0)
(335.216 -12.9753 0)
(339.972 -12.3595 0)
(344.423 -11.0972 0)
(348.084 -10.526 0)
(351.752 -9.75105 0)
(355.015 -9.11521 0)
(358.356 -8.75045 0)
(361.51 -8.02327 0)
(364.505 -7.62247 0)
(367.464 -6.92988 0)
(370.015 -6.54068 0)
(372.568 -6.06018 0)
(374.908 -5.60232 0)
(377.092 -5.27018 0)
(379.174 -4.90558 0)
(381.137 -4.62505 0)
(383.02 -4.29269 0)
(384.744 -4.06741 0)
(386.277 -3.82109 0)
(387.855 -3.63781 0)
(389.748 -3.62797 0)
(390.492 -3.26667 0)
(391.616 -3.01471 0)
(392.947 -2.83746 0)
(394.628 -2.97402 0)
(395.308 -2.6468 0)
(396.3 -2.41587 0)
(397.474 -2.31939 0)
(398.764 -2.35245 0)
(400.675 -2.45114 0)
(400.631 -2.06111 0)
(401.239 -1.75441 0)
(402.144 -1.69635 0)
(403.211 -1.76852 0)
(404.85 -1.95193 0)
(404.837 -1.64405 0)
(405.37 -1.40148 0)
(406.169 -1.3013 0)
(407.184 -1.47117 0)
(407.759 -1.31314 0)
(408.469 -1.23386 0)
(409.288 -1.20603 0)
(410.499 -1.37881 0)
(410.593 -1.11037 0)
(411.053 -0.965393 0)
(411.68 -0.906964 0)
(412.434 -1.01794 0)
(412.953 -0.911988 0)
(413.546 -0.837558 0)
(414.197 -0.817813 0)
(414.888 -0.741039 0)
(415.629 -0.669237 0)
(416.443 -0.567747 0)
(417.282 -0.541272 0)
(417.993 -0.497155 0)
(418.869 -0.527601 0)
(419.112 -0.470138 0)
(419.453 -0.464312 0)
(419.827 -0.494338 0)
(420.224 -0.508204 0)
(420.654 -0.453152 0)
(421.129 -0.368022 0)
(421.697 -0.289427 0)
(422.301 -0.254994 0)
(422.858 -0.237685 0)
(423.287 -0.230915 0)
(423.888 -0.316835 0)
(423.777 -0.283824 0)
(423.903 -0.314411 0)
(423.879 -0.341652 0)
(423.912 -0.377698 0)
(423.966 -0.391588 0)
(424.049 -0.384631 0)
(424.177 -0.362608 0)
(424.355 -0.321921 0)
(424.59 -0.265443 0)
(424.884 -0.187513 0)
(425.262 -0.174316 0)
(425.692 -0.12832 0)
(426.1 -0.111217 0)
(426.446 -0.088601 0)
(426.819 -0.110923 0)
(427.073 -0.0978522 0)
(427.372 -0.0977047 0)
(427.553 -0.0908732 0)
(427.758 -0.0833089 0)
(427.971 -0.0778627 0)
(428.192 -0.0708776 0)
(428.399 -0.0662545 0)
(428.609 -0.0342978 0)
(428.838 -0.0435269 0)
(429.061 -0.030863 0)
(429.31 -0.0234948 0)
(429.531 -0.00933468 0)
(429.765 0.00199202 0)
(430.008 0.00768358 0)
(430.224 0.0169723 0)
(430.444 0.016427 0)
(430.629 0.0233683 0)
(430.825 0.0219598 0)
(430.971 0.0249902 0)
(431.132 0.0281136 0)
(431.238 0.0196607 0)
(431.356 0.022325 0)
(431.431 0.0146432 0)
(431.515 0.0163276 0)
(431.574 0.0119297 0)
(431.635 0.0136448 0)
(431.698 0.0146703 0)
(431.763 0.0128285 0)
(431.833 0.0287776 0)
(431.921 0.0222933 0)
(432.014 0.0252403 0)
(432.124 0.0314541 0)
(432.232 0.0363723 0)
(432.345 0.0437125 0)
(432.464 0.0496669 0)
(432.587 0.0540073 0)
(432.707 0.0585307 0)
(432.831 0.0603259 0)
(432.936 0.0647549 0)
(433.047 0.0636859 0)
(433.13 0.0682735 0)
(433.215 0.0654357 0)
(433.272 0.0648726 0)
(433.333 0.0614551 0)
(433.355 0.0613448 0)
(433.378 0.059394 0)
(433.375 0.0553688 0)
(433.36 0.0525915 0)
(433.327 0.0417879 0)
(433.288 0.0388369 0)
(433.246 0.0361986 0)
(433.198 0.0381195 0)
(433.199 0.0450374 0)
(433.222 0.042327 0)
(433.262 0.0510338 0)
(433.323 0.0625512 0)
(433.399 0.069022 0)
(433.487 0.071706 0)
(433.567 0.0776846 0)
(433.635 0.0774148 0)
(433.692 0.080898 0)
(433.712 0.0803637 0)
(433.707 0.0763875 0)
(433.683 0.0712706 0)
(433.637 0.0656029 0)
(433.573 0.0609943 0)
(433.491 0.0553854 0)
(433.394 0.0461604 0)
(433.302 0.0485266 0)
(433.215 0.0502478 0)
(433.139 0.0431691 0)
(433.047 0.0595032 0)
(433.042 0.0461281 0)
(433.02 0.0508147 0)
(432.982 0.0578632 0)
(432.981 0.0572085 0)
(432.968 0.0617167 0)
(432.963 0.063382 0)
(432.954 0.0664255 0)
(432.941 0.067529 0)
(432.924 0.0679098 0)
(432.902 0.0678218 0)
(432.874 0.0675369 0)
(432.839 0.0674823 0)
(432.799 0.0663995 0)
(432.754 0.0661562 0)
(432.703 0.0648422 0)
(432.649 0.0651897 0)
(432.591 0.0636269 0)
(432.53 0.0644109 0)
(432.466 0.0628215 0)
(432.4 0.0640721 0)
(432.33 0.06183 0)
(432.258 0.0635485 0)
(432.182 0.0599272 0)
(432.104 0.0629019 0)
(432.021 0.0575845 0)
(431.903 0.0648155 0)
(431.915 0.0445162 0)
(-6.38635 10.6441 0)
(-21.4016 26.2658 0)
(-39.7322 37.7686 0)
(-56.8567 45.7776 0)
(-73.0203 48.7902 0)
(-87.1436 46.8637 0)
(-98.8032 41.6378 0)
(-108.887 35.1258 0)
(-117.97 29.0845 0)
(-125.437 23.9601 0)
(-131.137 19.5699 0)
(-135.297 15.8919 0)
(-138.341 13.1093 0)
(-140.133 11.0781 0)
(-140.669 9.4255 0)
(-140.916 8.2343 0)
(-140.33 7.22017 0)
(-139.051 6.30042 0)
(-136.875 5.34511 0)
(-133.704 4.24612 0)
(-129.422 2.89354 0)
(-123.887 1.35711 0)
(-116.988 -0.426187 0)
(-108.688 -2.42143 0)
(-98.8576 -4.56548 0)
(-87.4947 -6.97937 0)
(-74.6135 -9.28494 0)
(-60.3841 -11.9032 0)
(-44.777 -14.8765 0)
(-27.5469 -17.5909 0)
(-9.15685 -21.1151 0)
(11.0019 -23.8745 0)
(31.8405 -27.8122 0)
(54.022 -30.3624 0)
(76.8511 -34.1066 0)
(100.162 -35.8728 0)
(122.731 -39.0708 0)
(145.123 -39.2369 0)
(166.107 -40.6743 0)
(186.673 -40.8908 0)
(206.567 -39.9019 0)
(224.473 -40.0139 0)
(242.135 -39.2517 0)
(257.301 -38.1964 0)
(271.947 -36.771 0)
(284.309 -35.3836 0)
(296.664 -34.2486 0)
(307.29 -32.6213 0)
(317.999 -31.4338 0)
(327.427 -30.0687 0)
(335.985 -28.5409 0)
(344.211 -27.2297 0)
(350.972 -25.2079 0)
(357.212 -23.6609 0)
(362.075 -21.957 0)
(367.158 -20.9882 0)
(371.303 -19.5687 0)
(375.587 -18.641 0)
(379.314 -17.2633 0)
(382.672 -16.1778 0)
(386.063 -15.3001 0)
(389.167 -13.7205 0)
(391.427 -12.9552 0)
(393.749 -11.9879 0)
(395.796 -11.1826 0)
(398.027 -10.7312 0)
(400.093 -9.79658 0)
(402.066 -9.27766 0)
(403.999 -8.40938 0)
(405.596 -7.94856 0)
(407.23 -7.33112 0)
(408.684 -6.80411 0)
(410.081 -6.39777 0)
(411.385 -5.94535 0)
(412.596 -5.60512 0)
(413.765 -5.18861 0)
(414.802 -4.96695 0)
(415.707 -4.65206 0)
(416.689 -4.42707 0)
(417.961 -4.50072 0)
(418.269 -4.08249 0)
(418.915 -3.74965 0)
(419.756 -3.51443 0)
(420.887 -3.64366 0)
(421.238 -3.31181 0)
(421.829 -3.0232 0)
(422.576 -2.87382 0)
(423.439 -2.86509 0)
(424.747 -3.0385 0)
(424.612 -2.66203 0)
(424.945 -2.27455 0)
(425.505 -2.1572 0)
(426.213 -2.21636 0)
(427.347 -2.44163 0)
(427.269 -2.13653 0)
(427.583 -1.83159 0)
(428.104 -1.69359 0)
(428.785 -1.81255 0)
(429.17 -1.68137 0)
(429.645 -1.58563 0)
(430.216 -1.54423 0)
(431.097 -1.68443 0)
(431.096 -1.47781 0)
(431.379 -1.28822 0)
(431.805 -1.20133 0)
(432.327 -1.27424 0)
(432.699 -1.18512 0)
(433.118 -1.0955 0)
(433.596 -1.05469 0)
(434.112 -0.955898 0)
(434.675 -0.845902 0)
(435.301 -0.707274 0)
(435.943 -0.679895 0)
(436.492 -0.633226 0)
(437.187 -0.699347 0)
(437.317 -0.642229 0)
(437.539 -0.644137 0)
(437.802 -0.684848 0)
(438.103 -0.695159 0)
(438.436 -0.622682 0)
(438.8 -0.494658 0)
(439.247 -0.38286 0)
(439.724 -0.331839 0)
(440.169 -0.342471 0)
(440.502 -0.336227 0)
(440.945 -0.47956 0)
(440.816 -0.439184 0)
(440.877 -0.487823 0)
(440.823 -0.524969 0)
(440.829 -0.574188 0)
(440.845 -0.574677 0)
(440.884 -0.558423 0)
(440.965 -0.517012 0)
(441.094 -0.457683 0)
(441.275 -0.379184 0)
(441.504 -0.270349 0)
(441.805 -0.225871 0)
(442.163 -0.170788 0)
(442.492 -0.157927 0)
(442.769 -0.137666 0)
(443.069 -0.158982 0)
(443.271 -0.15479 0)
(443.511 -0.167759 0)
(443.645 -0.152563 0)
(443.803 -0.142192 0)
(443.97 -0.136323 0)
(444.143 -0.124482 0)
(444.311 -0.118078 0)
(444.477 -0.0815773 0)
(444.659 -0.0815424 0)
(444.842 -0.0636564 0)
(445.049 -0.0575573 0)
(445.231 -0.0351461 0)
(445.425 -0.0196166 0)
(445.63 -0.0119399 0)
(445.809 0.00195007 0)
(445.994 -0.00103171 0)
(446.147 0.00818691 0)
(446.311 0.00335167 0)
(446.431 0.00650693 0)
(446.565 0.00590494 0)
(446.65 -0.00293276 0)
(446.747 -0.00517248 0)
(446.804 -0.0104882 0)
(446.871 -0.0122855 0)
(446.914 -0.0144996 0)
(446.96 -0.0105773 0)
(447.008 -0.00848719 0)
(447.058 -0.00885005 0)
(447.11 0.0117938 0)
(447.178 0.0126564 0)
(447.253 0.0191741 0)
(447.346 0.0227344 0)
(447.435 0.0326819 0)
(447.529 0.0435257 0)
(447.628 0.0519412 0)
(447.731 0.0584329 0)
(447.832 0.0650926 0)
(447.936 0.0675483 0)
(448.024 0.0724662 0)
(448.117 0.0715564 0)
(448.184 0.0750505 0)
(448.254 0.0721738 0)
(448.3 0.0707545 0)
(448.347 0.066164 0)
(448.362 0.0648059 0)
(448.374 0.0615477 0)
(448.366 0.0556779 0)
(448.346 0.0499726 0)
(448.309 0.0382678 0)
(448.266 0.0359095 0)
(448.221 0.031593 0)
(448.172 0.0379696 0)
(448.159 0.0464308 0)
(448.175 0.0508511 0)
(448.205 0.0634957 0)
(448.252 0.0793848 0)
(448.314 0.08911 0)
(448.387 0.0932534 0)
(448.452 0.0996413 0)
(448.508 0.099347 0)
(448.551 0.101536 0)
(448.558 0.0988161 0)
(448.549 0.0926643 0)
(448.519 0.0841683 0)
(448.47 0.0758038 0)
(448.404 0.0692277 0)
(448.321 0.0596247 0)
(448.224 0.0507759 0)
(448.13 0.0550857 0)
(448.042 0.057003 0)
(447.963 0.0512346 0)
(447.871 0.0712282 0)
(447.855 0.062844 0)
(447.824 0.0660028 0)
(447.779 0.0757852 0)
(447.767 0.0757881 0)
(447.745 0.0815986 0)
(447.73 0.0842072 0)
(447.71 0.0876174 0)
(447.688 0.0890172 0)
(447.662 0.0891081 0)
(447.632 0.088582 0)
(447.596 0.0878988 0)
(447.554 0.0874099 0)
(447.507 0.085811 0)
(447.456 0.0854053 0)
(447.4 0.0836302 0)
(447.341 0.0840497 0)
(447.278 0.0821365 0)
(447.213 0.0833012 0)
(447.144 0.0813045 0)
(447.073 0.083188 0)
(446.999 0.0803738 0)
(446.922 0.0828175 0)
(446.842 0.0781677 0)
(446.759 0.0821889 0)
(446.672 0.0748264 0)
(446.552 0.0858356 0)
(446.548 0.061543 0)
(-9.1361 19.3726 0)
(-24.1121 36.8326 0)
(-42.5165 47.7453 0)
(-57.7832 55.11 0)
(-71.6923 56.7918 0)
(-83.3331 53.2187 0)
(-92.6028 46.4097 0)
(-100.812 39.3713 0)
(-107.839 32.5441 0)
(-113.403 26.4377 0)
(-117.561 21.3105 0)
(-120.57 17.177 0)
(-122.645 14.0261 0)
(-123.605 11.6543 0)
(-123.381 9.73756 0)
(-122.859 8.20114 0)
(-121.475 7.01473 0)
(-119.411 5.82792 0)
(-116.394 4.54224 0)
(-112.327 3.04963 0)
(-107.062 1.23353 0)
(-100.378 -0.87926 0)
(-92.1756 -3.28127 0)
(-82.3841 -6.0005 0)
(-70.8495 -8.91495 0)
(-57.5776 -12.2396 0)
(-42.5192 -15.3627 0)
(-25.7647 -18.8349 0)
(-7.46202 -23.0685 0)
(13.2255 -26.6149 0)
(35.0522 -31.453 0)
(59.0153 -35.0798 0)
(83.9392 -40.2624 0)
(110.432 -43.4873 0)
(137.31 -48.4602 0)
(164.729 -50.2269 0)
(190.249 -53.8438 0)
(215.647 -53.4739 0)
(238.446 -55.0211 0)
(260.258 -54.7003 0)
(282.615 -53.6681 0)
(299.813 -52.6489 0)
(318.191 -51.5483 0)
(332.282 -49.3411 0)
(347.138 -47.6285 0)
(358.264 -45.2369 0)
(370.051 -43.7979 0)
(379.287 -41.2545 0)
(388.824 -39.9486 0)
(396.458 -37.7075 0)
(403.702 -35.5794 0)
(409.978 -33.5488 0)
(415.285 -30.7915 0)
(419.497 -28.7868 0)
(422.571 -26.4838 0)
(425.777 -25.2193 0)
(428.266 -23.2552 0)
(430.79 -22.0081 0)
(432.919 -20.2006 0)
(434.586 -18.8592 0)
(436.329 -17.6103 0)
(437.954 -15.7991 0)
(438.416 -14.8427 0)
(439.325 -13.7139 0)
(439.724 -12.7591 0)
(440.568 -12.1524 0)
(441.338 -11.0604 0)
(441.866 -10.3685 0)
(442.6 -9.40513 0)
(442.877 -8.82152 0)
(443.446 -8.14442 0)
(443.729 -7.56383 0)
(444.124 -7.1276 0)
(444.497 -6.62571 0)
(444.838 -6.23687 0)
(445.192 -5.79881 0)
(445.469 -5.57315 0)
(445.687 -5.24423 0)
(446.011 -5.03989 0)
(446.559 -4.99356 0)
(446.468 -4.70155 0)
(446.578 -4.27233 0)
(446.872 -4.03301 0)
(447.383 -4.03619 0)
(447.381 -3.81163 0)
(447.51 -3.46312 0)
(447.775 -3.27013 0)
(448.141 -3.2398 0)
(448.768 -3.40798 0)
(448.552 -3.1274 0)
(448.531 -2.6866 0)
(448.704 -2.51046 0)
(449.006 -2.50804 0)
(449.568 -2.72827 0)
(449.427 -2.51206 0)
(449.465 -2.19908 0)
(449.667 -1.99466 0)
(449.971 -2.0383 0)
(450.126 -1.94589 0)
(450.324 -1.85893 0)
(450.605 -1.80019 0)
(451.066 -1.94426 0)
(450.991 -1.75058 0)
(451.072 -1.55119 0)
(451.253 -1.4223 0)
(451.494 -1.4603 0)
(451.682 -1.40058 0)
(451.885 -1.29448 0)
(452.155 -1.22582 0)
(452.456 -1.093 0)
(452.807 -0.936263 0)
(453.208 -0.773098 0)
(453.613 -0.752569 0)
(453.968 -0.715751 0)
(454.431 -0.82344 0)
(454.435 -0.798832 0)
(454.511 -0.809794 0)
(454.639 -0.85416 0)
(454.816 -0.847897 0)
(455.021 -0.748058 0)
(455.238 -0.579439 0)
(455.533 -0.435489 0)
(455.85 -0.371465 0)
(456.143 -0.410023 0)
(456.35 -0.428776 0)
(456.594 -0.59614 0)
(456.431 -0.584316 0)
(456.409 -0.669851 0)
(456.298 -0.71757 0)
(456.234 -0.760242 0)
(456.176 -0.753599 0)
(456.142 -0.72049 0)
(456.157 -0.659417 0)
(456.212 -0.578616 0)
(456.312 -0.474182 0)
(456.45 -0.334938 0)
(456.651 -0.255923 0)
(456.911 -0.192577 0)
(457.139 -0.188475 0)
(457.329 -0.168095 0)
(457.536 -0.198219 0)
(457.665 -0.197948 0)
(457.826 -0.21918 0)
(457.897 -0.206382 0)
(457.989 -0.190785 0)
(458.091 -0.187176 0)
(458.197 -0.168571 0)
(458.308 -0.165515 0)
(458.409 -0.121743 0)
(458.527 -0.109576 0)
(458.65 -0.0888259 0)
(458.795 -0.0799503 0)